Membrane in water
40344
    1TMC1    C1    1   0.692   4.041  11.315  1.2499 -0.4223  1.0899
    1TMC1    C2    2   0.561   4.032  11.267  0.4447 -0.1786 -0.5415
    1TMC1    C3    3   0.510   4.134  11.192  0.1295  0.3317  0.0167
    1TMC1    C4    4   0.769   4.153  11.299  0.3598 -0.6391 -0.4511
    1TMC1    C5    5   0.722   4.241  11.204 -0.3748  0.2769 -0.0524
    1TMC1    C6    6   0.592   4.236  11.159  0.1601 -0.0404 -0.2708
    1TMC1     C    7   0.716   3.961  11.436 -0.2278  0.3057 -0.2372
    1TMC1     O    8   0.621   3.926  11.502  0.2837  0.2741 -0.0581
    1TMC1     H    9   0.501   3.947  11.295  1.1698 -0.0584  1.3527
    1TMC1    H1   10   0.872   4.158  11.332  0.1995 -1.5238  0.1866
    1TMC1    H2   11   0.565   4.316  11.091  0.9475 -0.6243 -1.2855
    1TMC1    C7   12   0.782   4.368  11.177 -0.5078 -0.5304  0.1894
    1TMC1    C8   13   0.384   4.112  11.119  0.4459  0.9015  0.2483
    1TMC1    O1   14   0.777   4.428  11.066 -0.3223  0.4647  0.4701
    1TMC1    O2   15   0.328   4.209  11.070 -0.3760  0.7294 -0.6513
    1TMC1    O3   16   0.821   4.426  11.290  0.7840 -0.4458  0.6557
    1TMC1    H3   17   0.782   4.385  11.370 -0.6081 -0.3778  0.0231
    1TMC1    O5   18   0.414   3.994  11.056  0.2701  0.1922  0.3743
    1TMC1    H5   19   0.487   3.941  11.093  1.8797  0.5965 -2.2253
    2MPD2     C   20   0.986   3.703  11.779 -0.0069  0.1763 -0.3737
    2MPD2    C1   21   0.879   3.775  11.796 -0.1139  0.0877 -0.4629
    2MPD2    C2   22   0.818   3.833  11.684  0.7382  0.5956 -0.2666
    2MPD2    C3   23   0.875   3.830  11.556  0.2519  0.0262 -0.0429
    2MPD2    C4   24   0.994   3.756  11.547  0.2777  0.3147 -0.6221
    2MPD2    C5   25   1.044   3.695  11.654 -0.1357  0.1320  0.1887
    2MPD2     H   26   0.721   3.881  11.695 -0.1503 -1.1945 -0.0759
    2MPD2    H1   27   1.043   3.747  11.451  3.0724  0.0301  0.8221
    2MPD2    H2   28   1.016   3.637  11.859  0.8875  1.4296  0.3318
    2MPD2    H3   29   1.122   3.621  11.645 -0.2461  0.4727 -3.6527
    2MPD2     N   30   0.839   3.908  11.444  0.4853  0.2066  0.1602
    2MPD2    H5   31   0.907   3.922  11.370  0.4403  2.3925  0.5450
    2MPD2    N1   32   0.815   3.785  11.923 -0.0751  0.4196  0.5514
    2MPD2    H7   33   0.737   3.849  11.922 -0.2419  0.1879 -1.2371
    3TMC1    C1   34   4.454   4.490  11.135  0.0615  0.1837  0.4866
    3TMC1    C2   35   4.482   4.525  11.012 -0.5937 -0.1107  0.9528
    3TMC1    C3   36   4.541   4.432  10.934 -0.0590  0.1057 -0.0976
    3TMC1    C4   37   4.481   4.357  11.179  0.1849 -0.0663  0.0138
    3TMC1    C5   38   4.541   4.271  11.094 -0.6281 -0.0995  0.5561
    3TMC1    C6   39   4.569   4.306  10.968  0.4724 -0.2269  0.8198
    3TMC1     C   40   4.370   4.574  11.216 -0.3506  0.4271 -0.0140
    3TMC1     O   41   4.291   4.517  11.286  0.0551 -0.0081 -0.0744
    3TMC1     H   42   4.470   4.624  10.969  0.5942 -0.5986 -0.5405
    3TMC1    H1   43   4.470   4.335  11.284  0.8893 -1.4659 -0.2034
    3TMC1    H2   44   4.633   4.247  10.903 -0.5990  2.4777 -2.6827
    3TMC1    C7   45   4.609   4.145  11.139 -0.2083 -0.0627  0.0357
    3TMC1    C8   46   4.618   4.484  10.825  0.1725 -0.0756 -0.2153
    3TMC1    O1   47   4.704   4.089  11.080 -0.0874 -0.0338  0.2742
    3TMC1    O2   48   4.672   4.591  10.836 -0.2006 -0.5994  0.1197
    3TMC1    O3   49   4.534   4.091  11.235  0.0709  0.2506  0.2566
    3TMC1    H3   50   4.450   4.134  11.260 -1.2354 -1.3409 -1.4080
    3TMC1    O5   51   4.594   4.417  10.709  0.0369  0.2683  0.9310
    3TMC1    H5   52   4.534   4.339  10.715  2.2171 -1.4793 -0.1348
    4MPD2     C   53   4.127   0.296  11.233 -0.0551  0.0547  0.9269
    4MPD2    C1   54   4.242   0.305  11.160 -0.3179 -0.0400 -0.1191
    4MPD2    C2   55   4.340   0.204  11.163 -0.1095  0.0013 -0.0541
    4MPD2    C3   56   4.304   0.080  11.215  0.3032  0.3447  0.1602
    4MPD2    C4   57   4.181   0.069  11.274  0.1836  0.0903 -0.1468
    4MPD2    C5   58   4.099   0.177  11.293  0.2544  0.2959 -0.5728
    4MPD2     H   59   4.425   0.225  11.100  1.2264 -0.3650  1.6335
    4MPD2    H1   60   4.155   4.710  11.320 -1.8505  0.7372  0.0239
    4MPD2    H2   61   4.062   0.376  11.267 -2.0577 -2.1307  2.2248
    4MPD2    H3   62   4.019   0.153  11.363  0.2582  0.7775 -0.4030
    4MPD2     N   63   4.386   4.705  11.177  0.1042 -0.3358 -0.2374
    4MPD2    H5   64   4.464   4.736  11.119 -0.1399 -1.4188 -1.1376
    4MPD2    N1   65   4.284   0.427  11.103 -0.1561 -0.1186  0.5458
    4MPD2    H7   66   4.379   0.422  11.067 -0.6452  0.9682 -0.8859
    5TCq1    O1   67   1.633   1.700  12.061  0.8133 -0.3529 -0.2970
    5TCq1    C1   68   1.563   1.769  11.966 -0.0110  0.0157 -0.6430
    5TCq1    O2   69   1.595   1.790  11.849 -0.3520  0.2824  0.2434
    5TCq1    C2   70   1.432   1.777  12.009 -0.2001 -0.1574  0.2646
    5TCq1    C3   71   1.398   1.810  12.138 -0.4242  0.0665  0.7258
    5TCq1    C4   72   1.272   1.828  12.170 -0.7054 -1.0477 -0.5571
    5TCq1    C5   73   1.174   1.830  12.075  0.2297 -0.8799 -0.5270
    5TCq1    C6   74   1.204   1.800  11.945  0.8312 -0.1651 -0.2663
    5TCq1    C7   75   1.334   1.757  11.915 -0.0949  0.0585 -0.5001
    5TCq1    C8   76   1.112   1.824  11.838  0.5238 -0.0164 -0.7468
    5TCq1    O4   77   1.146   1.789  11.723  0.8102  0.3060  0.2609
    5TCq1    C9   78   1.245   1.867  12.304 -0.0066  0.5253  0.2601
    5TCq1    O5   79   1.133   1.918  12.331 -0.5938 -0.0940  0.4136
    5TCq1    O6   80   1.329   1.837  12.388 -0.2947 -0.0677  0.8635
    5TCq1    H1   81   1.560   1.667  12.118 -1.9055  1.4909 -2.7067
    5TCq1    H2   82   1.473   1.824  12.215 -0.5609 -0.1279  0.8942
    5TCq1    H3   83   1.071   1.832  12.110  0.5413  2.3574  0.1925
    5TCq1    H4   84   1.364   1.735  11.813 -0.8637  0.8021 -0.8897
    6MPD2     C   85   0.788   1.986  11.892 -0.4461  0.1236 -0.3312
    6MPD2    C1   86   0.884   1.934  11.811 -0.5475 -0.4425  0.0090
    6MPD2    C2   87   0.866   1.900  11.674 -0.2008 -0.7760 -0.6650
    6MPD2    C3   88   0.745   1.938  11.621  0.1264 -0.5048  0.0450
    6MPD2    C4   89   0.655   2.004  11.697 -0.0501  0.6037  0.5572
    6MPD2    C5   90   0.674   2.034  11.832  0.2429 -0.0178  0.3999
    6MPD2     H   91   0.942   1.852  11.613  0.2403 -0.7362 -0.1395
    6MPD2    H1   92   0.557   2.026  11.656 -1.1454  0.9132  3.3805
    6MPD2    H2   93   0.813   2.012  11.994  1.4009  0.5170 -0.8822
    6MPD2    H3   94   0.599   2.086  11.890 -0.2942  0.4577 -0.7250
    6MPD2     N   95   0.721   1.882  11.489 -0.1686 -0.1085 -0.6949
    6MPD2    H5   96   0.797   1.828  11.450 -0.3292  0.3643 -1.6764
    6MPD2    N1   97   1.000   1.896  11.881  0.1230 -0.1079  0.3875
    6MPD2    H7   98   1.011   1.918  11.980 -0.2940 -1.4163  0.7312
    7TCq1    O1   99   2.455   0.987  12.868  0.1504 -0.0100 -0.1881
    7TCq1    C1  100   2.544   0.911  12.935 -0.7705 -1.1471 -1.1486
    7TCq1    O2  101   2.580   0.800  12.903 -0.6252 -0.0520  0.1728
    7TCq1    C2  102   2.578   0.981  13.061 -0.2246  0.9362 -0.1906
    7TCq1    C3  103   2.501   1.086  13.087 -0.1908 -0.4410 -0.1622
    7TCq1    C4  104   2.554   1.183  13.164 -0.0040  0.1362 -0.4659
    7TCq1    C5  105   2.673   1.165  13.229 -0.2316  0.9429 -0.5866
    7TCq1    C6  106   2.748   1.049  13.202 -0.0744 -0.3057 -0.2319
    7TCq1    C7  107   2.700   0.961  13.112  0.4178 -0.4318  0.6855
    7TCq1    C8  108   2.879   1.022  13.261  0.3132 -0.4887  0.3535
    7TCq1    O4  109   2.950   0.935  13.216  0.4599 -0.2903  0.1649
    7TCq1    C9  110   2.479   1.294  13.202  0.3706  0.1823 -0.3471
    7TCq1    O5  111   2.416   1.344  13.106 -0.4536  0.0478  0.1585
    7TCq1    O6  112   2.502   1.345  13.317 -0.0015 -0.7177 -0.0684
    7TCq1    H1  113   2.459   1.081  12.894 -1.7596  0.1985 -0.6477
    7TCq1    H2  114   2.395   1.096  13.068  0.0158 -0.7630 -1.5076
    7TCq1    H3  115   2.705   1.249  13.290  1.3252 -1.0549  1.3196
    7TCq1    H4  116   2.745   0.862  13.105 -0.4360 -0.7808  0.1321
    8MPD2     C  117   3.184   1.108  13.668  0.1972  0.0174 -0.2987
    8MPD2    C1  118   3.205   1.023  13.575  0.3536 -0.4707  0.1086
    8MPD2    C2  119   3.116   1.017  13.466 -0.1376 -0.2407  0.3672
    8MPD2    C3  120   2.995   1.089  13.465  0.3007  0.4095  0.4071
    8MPD2    C4  121   2.968   1.159  13.583 -0.1368  0.2320 -0.5646
    8MPD2    C5  122   3.063   1.177  13.676 -0.2086  0.0179  0.3047
    8MPD2     H  123   3.129   0.954  13.379 -0.9885 -2.3290  1.7473
    8MPD2    H1  124   2.878   1.216  13.599 -0.5667 -0.0899 -1.8167
    8MPD2    H2  125   3.252   1.123  13.750 -1.6960  0.1667  1.2447
    8MPD2    H3  126   3.044   1.248  13.756 -0.1350  0.8152 -0.3885
    8MPD2     N  127   2.893   1.097  13.371  0.2669  0.4963 -0.2779
    8MPD2    H5  128   2.811   1.137  13.417 -1.7103 -0.7740 -2.7159
    8MPD2    N1  129   3.325   0.951  13.587  0.0308 -0.1898  0.1163
    8MPD2    H7  130   3.368   0.962  13.678 -2.2920 -0.1180  1.1943
    9TMC1    C1  131   0.455   0.810  11.437 -0.0668 -0.2793  0.1668
    9TMC1    C2  132   0.489   0.944  11.462  0.2175 -0.0364  0.2338
    9TMC1    C3  133   0.397   1.022  11.529  0.5812 -0.6041  0.1396
    9TMC1    C4  134   0.328   0.757  11.463 -0.7283  0.2904 -0.6890
    9TMC1    C5  135   0.241   0.843  11.511 -0.1518 -0.0026 -0.4453
    9TMC1    C6  136   0.267   0.973  11.543 -0.4623  0.1206 -0.8205
    9TMC1     C  137   0.564   0.722  11.416 -0.2423 -0.5800 -0.0907
    9TMC1     O  138   0.677   0.762  11.389 -0.5205  0.0509  0.1262
    9TMC1     H  139   0.595   0.968  11.464  0.3196 -0.6254  1.2546
    9TMC1    H1  140   0.294   0.660  11.429 -0.5116 -0.4051  1.0964
    9TMC1    H2  141   0.184   1.036  11.573  0.2972  1.3157 -1.2677
    9TMC1    C7  142   0.101   0.797  11.526  0.0216  0.2238 -0.3457
    9TMC1    C8  143   0.418   1.169  11.554 -0.3635 -0.1712 -0.2383
    9TMC1    O1  144   0.014   0.884  11.545 -0.3964  0.5529  0.8079
    9TMC1    O2  145   0.331   1.238  11.596  0.2306 -0.2581 -0.3149
    9TMC1    O3  146   0.109   0.682  11.598  0.4524  0.1251 -0.1493
    9TMC1    H3  147   0.191   0.632  11.579  0.9299  1.4182 -1.4344
    9TMC1    O5  148   0.525   1.212  11.490  0.0167  0.2010 -0.3639
    9TMC1    H5  149   0.589   1.146  11.455 -0.0766 -0.1907  0.1980
   10MPD2     C  150   0.754   0.473  11.401 -0.7523  0.4789 -0.6171
   10MPD2    C1  151   0.638   0.480  11.473  0.7751 -0.4024  0.3653
   10MPD2    C2  152   0.619   0.382  11.574 -0.0394  0.1364 -0.2779
   10MPD2    C3  153   0.712   0.280  11.599  0.1365  0.0357  0.1668
   10MPD2    C4  154   0.825   0.268  11.517 -0.2355  0.5863  0.7942
   10MPD2    C5  155   0.843   0.367  11.422  0.5902 -0.2551  0.0378
   10MPD2     H  156   0.536   0.390  11.643 -1.0224  0.4719 -1.5072
   10MPD2    H1  157   0.902   0.193  11.533 -2.6841 -2.1709 -0.3960
   10MPD2    H2  158   0.776   0.550  11.328 -4.1356  2.0296  0.0196
   10MPD2    H3  159   0.939   0.371  11.371 -0.0106  2.1610 -0.9080
   10MPD2     N  160   0.704   0.191  11.710 -0.2373  0.3713  0.0537
   10MPD2    H5  161   0.774   0.118  11.719 -0.4681  0.2887  1.2185
   10MPD2    N1  162   0.539   0.591  11.465  0.3978  0.5511  0.0657
   10MPD2    H7  163   0.445   0.575  11.500  0.7667  0.0895  0.8582
   11TCq1    O1  164   1.313   0.129  14.289  0.4607  0.5683 -0.0319
   11TCq1    C1  165   1.228   0.187  14.377 -0.2284 -0.3527  0.5471
   11TCq1    O2  166   1.237   0.188  14.498 -0.3236  0.3967  0.0344
   11TCq1    C2  167   1.146   0.286  14.309  0.2779 -0.0963 -0.3502
   11TCq1    C3  168   1.111   0.390  14.392  0.4276  0.0352  0.5106
   11TCq1    C4  169   0.999   0.458  14.374  0.5685  0.2965  1.2527
   11TCq1    C5  170   0.914   0.423  14.268  0.4538  0.2053 -0.2409
   11TCq1    C6  171   0.951   0.316  14.191  0.5092  0.0255 -0.2536
   11TCq1    C7  172   1.073   0.253  14.201  0.7231 -0.9218  0.1716
   11TCq1    C8  173   0.863   0.270  14.085  1.1040  0.0534 -0.0051
   11TCq1    O4  174   0.778   0.350  14.043  0.2045 -0.1144 -0.8383
   11TCq1    C9  175   0.965   0.571  14.457  0.2781  0.9932  0.0859
   11TCq1    O5  176   1.058   0.617  14.530  0.1558  0.0082  0.6783
   11TCq1    O6  177   0.849   0.611  14.447  0.3787 -0.8399  0.2184
   11TCq1    H1  178   1.303   0.165  14.199 -0.3631 -1.3640 -0.7268
   11TCq1    H2  179   1.173   0.416  14.477 -1.5303  1.8290  1.3753
   11TCq1    H3  180   0.822   0.477  14.251  0.5581  1.0162  1.7528
   11TCq1    H4  181   1.096   0.174  14.131  0.0626 -1.5478  0.6611
   12MPD2     C  182   0.675   0.105  13.940 -0.5445 -0.2512  0.3559
   12MPD2    C1  183   0.756   0.056  14.037 -0.4266  0.0088  0.2230
   12MPD2    C2  184   0.746   4.654  14.065 -0.1097 -0.6730  0.3410
   12MPD2    C3  185   0.650   4.574  13.993 -0.4714 -0.6461 -0.3198
   12MPD2    C4  186   0.562   4.631  13.908 -0.4433  0.0901 -0.1777
   12MPD2    C5  187   0.577   0.033  13.889  0.3971  0.3880  0.9186
   12MPD2     H  188   0.821   4.616  14.133 -0.3086 -0.7689  0.5050
   12MPD2    H1  189   0.491   4.572  13.852 -0.5100  0.2115 -0.2197
   12MPD2    H2  190   0.687   0.205  13.901 -1.1494 -0.7667 -1.1251
   12MPD2    H3  191   0.507   0.088  13.828 -0.2458  1.2377  2.4360
   12MPD2     N  192   0.649   4.431  14.002  0.1941  0.4395  0.0023
   12MPD2    H5  193   0.589   4.377  13.940  1.5578  0.8660 -1.6876
   12MPD2    N1  194   0.862   0.134  14.097 -0.0670  0.0582  0.4827
   12MPD2    H7  195   0.919   0.082  14.162 -1.6019 -2.3334 -0.0959
   13TCq1    O1  196   1.508   3.915  11.127 -0.5591 -0.6692  0.2846
   13TCq1    C1  197   1.421   3.996  11.186 -0.1414 -0.1999 -0.3447
   13TCq1    O2  198   1.347   3.971  11.278  0.4014  0.3054 -0.2050
   13TCq1    C2  199   1.417   4.119  11.112  0.1591  0.3543  0.8214
   13TCq1    C3  200   1.444   4.127  10.979  0.0452  0.0793 -0.5544
   13TCq1    C4  201   1.436   4.239  10.911 -0.1799 -0.1377  0.3600
   13TCq1    C5  202   1.405   4.355  10.982 -0.0931  0.1557 -0.3643
   13TCq1    C6  203   1.380   4.349  11.116 -0.1105  0.2410 -0.3864
   13TCq1    C7  204   1.371   4.231  11.184 -0.3328 -0.4116  0.1218
   13TCq1    C8  205   1.297   4.459  11.176 -0.1918 -0.7736  0.1565
   13TCq1    O4  206   1.224   4.423  11.264 -0.3479 -0.2251  0.1932
   13TCq1    C9  207   1.455   4.242  10.769 -1.2685 -0.0114 -0.1528
   13TCq1    O5  208   1.409   4.346  10.710  0.1127  0.1242 -0.3186
   13TCq1    O6  209   1.510   4.142  10.708 -0.2442  0.0543  0.4242
   13TCq1    H1  210   1.568   3.971  11.074 -0.0918 -1.3524  0.0932
   13TCq1    H2  211   1.488   4.043  10.927 -1.9220 -0.3498 -1.5234
   13TCq1    H3  212   1.393   4.450  10.932 -0.6981  0.7982  1.0116
   13TCq1    H4  213   1.331   4.214  11.283 -0.7565 -1.8735 -0.2902
   14MPD2     C  214   1.243   0.086  11.093  0.1090 -0.4447  0.0407
   14MPD2    C1  215   1.213   4.690  11.133 -0.7428 -0.1374  0.8826
   14MPD2    C2  216   1.081   4.667  11.177  0.6652 -0.6591  0.3744
   14MPD2    C3  217   0.992   0.032  11.178 -0.9736  0.1034  0.0188
   14MPD2    C4  218   1.030   0.159  11.149 -1.0385 -0.1371 -0.5582
   14MPD2    C5  219   1.156   0.188  11.113  0.5331  0.1700 -1.0086
   14MPD2     H  220   1.054   4.564  11.199  2.6504 -1.1534  0.5121
   14MPD2    H1  221   0.960   0.241  11.158 -0.5587  0.5000 -2.7331
   14MPD2    H2  222   1.340   0.111  11.052  0.4741 -1.1564  0.4854
   14MPD2    H3  223   1.173   0.293  11.092  0.8019  0.2257 -0.5142
   14MPD2     N  224   0.860   0.006  11.216 -0.5216 -0.1419  0.2416
   14MPD2    H5  225   0.838   4.658  11.269  0.8648 -1.0109 -0.5612
   14MPD2    N1  226   1.304   4.584  11.116  0.4292 -0.4890  0.3790
   14MPD2    H7  227   1.384   4.611  11.061  0.1103  1.1369  0.7004
   15TCq1    O1  228   2.969   4.102   1.397  0.2371  0.3888 -0.4854
   15TCq1    C1  229   3.010   4.126   1.274 -0.0684 -0.3588  0.7077
   15TCq1    O2  230   3.126   4.115   1.229  0.4034  0.6440  0.4323
   15TCq1    C2  231   2.898   4.100   1.193  0.4599  0.2299  0.0322
   15TCq1    C3  232   2.808   4.204   1.199 -0.2368 -0.0111  0.1174
   15TCq1    C4  233   2.702   4.203   1.113  0.2309  0.0013 -0.0928
   15TCq1    C5  234   2.688   4.107   1.014 -0.1525 -0.3570  0.1540
   15TCq1    C6  235   2.789   4.014   1.004  0.6536 -0.3137  0.1094
   15TCq1    C7  236   2.897   4.010   1.090 -0.2984 -0.7895  0.2111
   15TCq1    C8  237   2.775   3.901   0.913 -0.5255  0.6759 -0.1456
   15TCq1    O4  238   2.861   3.813   0.913 -0.0636 -0.2768 -0.1509
   15TCq1    C9  239   2.604   4.306   1.116 -0.8001 -0.9728  0.1911
   15TCq1    O5  240   2.527   4.313   1.016 -0.2101 -0.1235  0.0248
   15TCq1    O6  241   2.570   4.350   1.230 -0.2668 -0.0969 -0.0100
   15TCq1    H1  242   2.872   4.091   1.407  0.4644 -1.0915  0.0327
   15TCq1    H2  243   2.806   4.276   1.280  1.2222  0.0414  0.1223
   15TCq1    H3  244   2.594   4.119   0.961  0.5000  2.1430 -0.4392
   15TCq1    H4  245   2.984   3.948   1.074 -0.7148 -1.4402  0.4876
   16MPD2     C  246   2.463   3.777   0.763 -0.5889  0.0348  0.2334
   16MPD2    C1  247   2.584   3.763   0.823  0.5750  0.1461 -0.7837
   16MPD2    C2  248   2.640   3.636   0.838 -0.2306 -0.2453 -0.1082
   16MPD2    C3  249   2.570   3.522   0.805  0.0944  0.0134  0.0938
   16MPD2    C4  250   2.450   3.537   0.749  0.5557 -0.6004  0.1581
   16MPD2    C5  251   2.397   3.662   0.730 -0.2747  0.3983  1.0533
   16MPD2     H  252   2.742   3.633   0.874 -0.1612 -0.5170 -0.3320
   16MPD2    H1  253   2.381   3.461   0.715  1.4751 -0.7065 -1.4964
   16MPD2    H2  254   2.419   3.871   0.733 -1.3915  0.2487  2.0972
   16MPD2    H3  255   2.299   3.670   0.685  0.9812 -1.6587 -2.0699
   16MPD2     N  256   2.626   3.399   0.837 -0.1828  0.3525 -1.0066
   16MPD2    H5  257   2.722   3.409   0.868 -0.4424  0.3999 -0.2243
   16MPD2    N1  258   2.651   3.882   0.860  0.0482  0.2478 -0.1638
   16MPD2    H7  259   2.587   3.958   0.880  1.4860  1.1501  1.0013
   17TMC1    C1  260   0.651   3.385  12.274 -0.4439 -0.4118 -0.2957
   17TMC1    C2  261   0.787   3.376  12.247  0.6635 -0.4443  0.1312
   17TMC1    C3  262   0.869   3.310  12.335  0.1306 -0.1077 -0.4906
   17TMC1    C4  263   0.595   3.326  12.386  0.9569  0.2393  0.7713
   17TMC1    C5  264   0.681   3.257  12.465 -0.1488 -0.1601  0.7676
   17TMC1    C6  265   0.817   3.245  12.449 -0.1588  0.8055  0.6255
   17TMC1     C  266   0.572   3.460  12.179 -0.1484 -0.7024  0.7627
   17TMC1     O  267   0.466   3.503  12.228 -0.4994 -0.2044  0.1728
   17TMC1     H  268   0.838   3.449  12.184  1.3024 -1.5694 -0.6613
   17TMC1    H1  269   0.488   3.338  12.402  0.6982  1.8734 -2.1347
   17TMC1    H2  270   0.874   3.204  12.532  2.8115 -0.7582 -2.1920
   17TMC1    C7  271   0.628   3.175  12.575 -0.5269  0.0108  0.7640
   17TMC1    C8  272   0.995   3.370  12.353 -0.5455 -0.1131  0.5471
   17TMC1    O1  273   0.689   3.125  12.670 -0.3050  0.2162 -0.0276
   17TMC1    O2  274   1.015   3.493  12.331  0.5416  0.4344  0.1853
   17TMC1    O3  275   0.512   3.121  12.522 -0.1820  0.3725  0.0570
   17TMC1    H3  276   0.488   3.164  12.437 -2.2721 -0.5778  0.1641
   17TMC1    O5  277   1.077   3.283  12.414 -0.2174 -0.2919 -0.5232
   17TMC1    H5  278   1.063   3.186  12.413  0.7493 -0.4487  0.6590
   18MPD2     C  279   0.458   3.631  11.965  0.0775 -0.4999 -0.1141
   18MPD2    C1  280   0.555   3.542  11.941 -0.3504  1.2572  0.3515
   18MPD2    C2  281   0.610   3.534  11.817 -0.2589  0.7213  0.0168
   18MPD2    C3  282   0.554   3.603  11.709 -0.6269 -0.4361 -0.4943
   18MPD2    C4  283   0.456   3.702  11.729 -1.0230 -0.4254  0.4430
   18MPD2    C5  284   0.412   3.716  11.862  0.1650 -0.3084  0.3107
   18MPD2     H  285   0.695   3.468  11.802 -0.2791  0.5090  0.8243
   18MPD2    H1  286   0.412   3.764  11.651  0.3030 -1.0602 -0.8101
   18MPD2    H2  287   0.411   3.644  12.062 -1.8501  2.5785 -1.4384
   18MPD2    H3  288   0.346   3.795  11.895 -0.4780 -0.3046 -0.9797
   18MPD2     N  289   0.585   3.581  11.574 -0.1731  0.0643 -0.1248
   18MPD2    H5  290   0.530   3.634  11.507  1.3138 -2.2299 -3.1427
   18MPD2    N1  291   0.619   3.474  12.049 -0.0440  0.1593  0.4478
   18MPD2    H7  292   0.707   3.424  12.038 -0.3177 -0.7472  2.3376
   19TMC2    C1  293   1.848   0.329  14.426  0.6399 -0.4442 -0.2257
   19TMC2    C2  294   1.744   0.423  14.426  0.3248  0.0786  0.1049
   19TMC2    C3  295   1.623   0.368  14.443  0.6000  0.5956 -0.1944
   19TMC2    C4  296   1.827   0.190  14.433  0.6006  0.3827  0.3199
   19TMC2    C5  297   1.696   0.146  14.430 -0.4740  0.2779 -0.1359
   19TMC2    C6  298   1.593   0.235  14.432  0.2262 -0.2797  0.3123
   19TMC2     C  299   1.978   0.389  14.419 -0.0406  0.5224 -0.5853
   19TMC2     O  300   1.981   0.508  14.386  0.3386  0.3847 -0.8214
   19TMC2     H  301   1.765   0.528  14.443  1.5144  0.2323 -2.2791
   19TMC2    H1  302   1.908   0.119  14.423  0.8149  0.4870  1.3215
   19TMC2    H2  303   1.489   0.205  14.443 -0.3356  1.6625  0.4061
   19TMC2    C7  304   1.666   0.005  14.408 -0.8352  0.4388  0.0927
   19TMC2    C8  305   1.508   0.443  14.414 -0.0895  0.0759  0.3939
   19TMC2    O1  306   1.766   4.670  14.419  0.0839 -0.3232  0.2757
   19TMC2    O2  307   1.420   0.442  14.493 -0.0699 -0.1342  0.6838
   19TMC2    O5  308   1.498   0.424  14.280 -0.0413  0.7499  0.0768
   19TMC2    H5  309   1.589   0.418  14.245  1.1614 -2.1239  3.7490
   20MPD2     C  310   2.256   0.449  14.323 -0.4861 -0.4259  0.7602
   20MPD2    C1  311   2.225   0.338  14.397  0.1977  0.4936  0.4163
   20MPD2    C2  312   2.319   0.263  14.468 -0.1864  0.6092 -0.2309
   20MPD2    C3  313   2.453   0.292  14.452  0.2740  0.1343  0.0802
   20MPD2    C4  314   2.491   0.403  14.376 -0.2958 -0.1154  0.2100
   20MPD2    C5  315   2.391   0.484  14.329 -0.8700 -0.2142  0.3286
   20MPD2     H  316   2.291   0.174  14.524 -0.0834  0.7863  0.1001
   20MPD2    H1  317   2.595   0.432  14.366 -0.5710  0.9872  0.5071
   20MPD2    H2  318   2.183   0.504  14.265 -0.7651 -0.7281  0.8292
   20MPD2    H3  319   2.420   0.569  14.268  1.9868 -1.9734 -0.7068
   20MPD2     N  320   2.558   0.212  14.492 -0.5656  0.0657  0.4490
   20MPD2    H5  321   2.652   0.245  14.478  0.3840 -2.7072  0.2371
   20MPD2    N1  322   2.088   0.303  14.420  0.3232  0.1854 -0.4730
   20MPD2    H7  323   2.070   0.209  14.456 -1.0917  0.8364  0.5145
   21TMC2    C1  324   4.412   0.233  14.244  0.7687  0.8907 -0.0419
   21TMC2    C2  325   4.455   0.104  14.265  0.0860  0.6148 -0.2394
   21TMC2    C3  326   4.366   0.039  14.352 -0.2662 -0.4870 -0.3592
   21TMC2    C4  327   4.286   0.280  14.274 -0.2656 -0.1697  0.2061
   21TMC2    C5  328   4.203   0.200  14.343 -0.0557 -0.1374 -0.2949
   21TMC2    C6  329   4.247   0.084  14.399 -0.1800 -0.5721  0.1279
   21TMC2     C  330   4.510   0.320  14.182 -0.2502  0.2224  0.3801
   21TMC2     O  331   4.602   0.252  14.133 -0.0547  0.2459 -0.4040
   21TMC2     H  332   4.554   0.069  14.240 -0.5068 -1.7452  0.8000
   21TMC2    H1  333   4.253   0.379  14.243 -0.4375  0.8776  3.7190
   21TMC2    H2  334   4.187   0.021  14.465 -2.8388  0.6053 -1.1573
   21TMC2    C7  335   4.097   0.266  14.419 -0.2041  0.1339 -0.0809
   21TMC2    C8  336   4.427   4.671  14.429  0.0584 -0.0432 -0.5377
   21TMC2    O1  337   4.063   0.213  14.523  0.3825 -0.1278  0.5143
   21TMC2    O2  338   4.365   4.574  14.469  0.3318  0.2139 -0.2409
   21TMC2    O5  339   4.546   4.707  14.476  0.0079 -0.0254 -0.2471
   21TMC2    H5  340   4.573   0.057  14.439 -2.4488  0.4786 -0.8501
   22MPD2     C  341   0.044   0.741  14.113  0.5052 -0.3081 -0.0419
   22MPD2    C1  342   0.080   0.608  14.094 -0.0259  0.7412 -0.2090
   22MPD2    C2  343   4.711   0.517  14.116  0.0029  0.4604  0.5945
   22MPD2    C3  344   4.589   0.554  14.153  0.5912 -0.0732 -0.0868
   22MPD2    C4  345   4.558   0.684  14.169  0.1203 -0.2376  0.6413
   22MPD2    C5  346   4.650   0.776  14.137 -0.0924  0.2441 -0.1651
   22MPD2     H  347   0.011   0.414  14.109 -0.4423  0.3077  0.6072
   22MPD2    H1  348   4.464   0.718  14.212  1.1598  2.9866  0.3249
   22MPD2    H2  349   0.120   0.816  14.096  1.6494 -0.9717  2.2203
   22MPD2    H3  350   4.628   0.882  14.140 -0.3266  0.2242 -1.2106
   22MPD2     N  351   4.486   0.454  14.179 -0.3483 -0.2578 -0.5391
   22MPD2    H5  352   4.394   0.483  14.213  0.1540  1.2469 -0.4347
   22MPD2    N1  353   0.208   0.554  14.072  0.3131  0.0899 -0.3653
   22MPD2    H7  354   0.233   0.458  14.052  0.4362 -0.0202  0.3460
   23TMC2    C1  355   1.235   1.898  14.825  0.4323  0.3290 -0.5334
   23TMC2    C2  356   1.263   2.024  14.843  1.2771 -0.3849  0.2102
   23TMC2    C3  357   1.242   2.113  14.742 -0.6566 -0.5205 -0.2548
   23TMC2    C4  358   1.198   1.852  14.705  0.1546 -0.0371  0.6729
   23TMC2    C5  359   1.178   1.942  14.601 -0.2627 -0.5355 -0.0639
   23TMC2    C6  360   1.192   2.080  14.621 -0.1424 -0.3641  0.0741
   23TMC2     C  361   1.293   1.799  14.911  0.0480  0.5258  0.4352
   23TMC2     O  362   1.277   1.801  15.034  0.4273  0.9432  0.3981
   23TMC2     H  363   1.291   2.059  14.942 -0.0882  0.6787  0.2158
   23TMC2    H1  364   1.154   1.753  14.701  0.2089 -0.0267 -0.2522
   23TMC2    H2  365   1.176   2.154  14.544  0.8908  0.3317  0.5337
   23TMC2    C7  366   1.135   1.890  14.475 -0.3401  0.0781  0.8540
   23TMC2    C8  367   1.269   2.249  14.757  0.0044  0.0415 -0.2758
   23TMC2    O1  368   1.171   1.778  14.444 -0.1414  0.2043  0.4777
   23TMC2    O2  369   1.246   2.324  14.666  0.0427  0.0042 -0.3416
   23TMC2    O5  370   1.378   2.264  14.827  0.1650 -0.3650  0.2002
   23TMC2    H5  371   1.386   2.193  14.895 -0.3334 -0.7533 -0.1378
   24MPD2     C  372   1.625   1.418  14.990  0.8227 -0.3290 -0.9083
   24MPD2    C1  373   1.531   1.472  15.076 -0.5633  0.0683  0.5345
   24MPD2    C2  374   1.457   1.586  15.036  0.3877  0.2496 -0.4157
   24MPD2    C3  375   1.473   1.632  14.901  0.0037  0.4976  0.0372
   24MPD2    C4  376   1.560   1.572  14.817 -0.2050  0.7752 -0.0582
   24MPD2    C5  377   1.635   1.464  14.859  0.0336 -0.4713  0.1370
   24MPD2     H  378   1.393   1.619  15.117  1.2449  0.7794  0.0560
   24MPD2    H1  379   1.554   1.603  14.713 -4.8118 -1.1359 -0.3527
   24MPD2    H2  380   1.685   1.330  15.008 -0.1934 -1.5488 -3.5510
   24MPD2    H3  381   1.708   1.427  14.788  1.4217  1.3535  0.6344
   24MPD2     N  382   1.392   1.731  14.842  0.4921 -0.7418  0.0141
   24MPD2    H5  383   1.410   1.763  14.748  1.3871  0.0545  0.4581
   24MPD2    N1  384   1.489   1.407  15.199  0.5461 -0.0795  0.6919
   24MPD2    H7  385   1.440   1.466  15.266 -2.1836 -1.3212 -0.2183
   25TMC2    C1  386   0.359   2.633  11.310 -0.1268  0.4879  0.2577
   25TMC2    C2  387   0.433   2.529  11.369  0.3061  0.3973 -0.6472
   25TMC2    C3  388   0.434   2.517  11.501 -0.6760  0.4301  0.0107
   25TMC2    C4  389   0.284   2.717  11.380  0.4253  0.3824 -0.1416
   25TMC2    C5  390   0.284   2.703  11.513  0.4370 -0.3553  0.2472
   25TMC2    C6  391   0.354   2.602  11.579 -0.8559 -0.5684  0.0660
   25TMC2     C  392   0.355   2.628  11.166 -0.5434  0.1759 -0.4449
   25TMC2     O  393   0.456   2.594  11.112  0.4373 -0.6531 -0.5858
   25TMC2     H  394   0.492   2.459  11.310  0.1379  0.2839 -0.6809
   25TMC2    H1  395   0.220   2.787  11.328  1.7522  2.5510  1.1453
   25TMC2    H2  396   0.340   2.590  11.685 -2.5047 -0.0747 -0.1008
   25TMC2    C7  397   0.225   2.811  11.592  0.1195  0.0801 -1.2248
   25TMC2    C8  398   0.496   2.402  11.560  1.3639  0.0680  0.8393
   25TMC2    O1  399   0.224   2.794  11.714  0.3482 -0.5167  0.0005
   25TMC2    O2  400   0.506   2.290  11.505  0.3113 -0.5257 -0.1749
   25TMC2    O5  401   0.552   2.433  11.677 -0.0285  0.1012 -0.3010
   25TMC2    H5  402   0.561   2.529  11.696 -0.3317  0.3821 -1.5646
   26MPD2     C  403   0.101   2.538  10.719  0.9061 -0.6443 -0.6235
   26MPD2    C1  404   0.010   2.540  10.822  0.5093 -0.3892  0.0152
   26MPD2    C2  405   0.049   2.577  10.950  0.1902 -0.1906  0.2035
   26MPD2    C3  406   0.180   2.605  10.983  0.3931 -0.7643 -0.5490
   26MPD2    C4  407   0.268   2.605  10.877  0.2622  0.5593  0.1178
   26MPD2    C5  408   0.229   2.572  10.751  0.6540  0.1706 -0.3038
   26MPD2     H  409   4.719   2.580  11.036  1.5213 -0.3921  1.2329
   26MPD2    H1  410   0.366   2.644  10.900  1.3094 -0.3803 -2.7175
   26MPD2    H2  411   0.079   2.511  10.616  0.2975  0.6177 -0.8292
   26MPD2    H3  412   0.304   2.564  10.673  0.5407 -1.3605 -0.2568
   26MPD2     N  413   0.221   2.629  11.119 -0.2045 -0.4859  0.1969
   26MPD2    H5  414   0.148   2.633  11.190  0.8661  0.4235  1.2480
   26MPD2    N1  415   4.617   2.477  10.796  0.3487  0.1297 -0.7770
   26MPD2    H7  416   4.607   2.442  10.701  0.0788  0.4520 -0.8676
   27TMC2    C1  417   3.728   1.352  11.820 -0.6915 -0.0893 -0.2068
   27TMC2    C2  418   3.613   1.417  11.862 -0.0099 -0.1063  0.3554
   27TMC2    C3  419   3.630   1.547  11.912 -0.0583  0.1871  0.4294
   27TMC2    C4  420   3.849   1.413  11.813 -0.3880 -0.2187 -0.6442
   27TMC2    C5  421   3.856   1.537  11.853 -0.3934 -0.1668  0.7540
   27TMC2    C6  422   3.750   1.602  11.918  0.0857  0.2886 -0.0338
   27TMC2     C  423   3.743   1.224  11.889 -0.4362  1.1221 -0.2682
   27TMC2     O  424   3.842   1.163  11.849  0.2745  0.0931 -0.5193
   27TMC2     H  425   3.521   1.360  11.864  0.3060 -0.6426 -0.5710
   27TMC2    H1  426   3.937   1.355  11.787 -1.3586 -1.6500 -0.7645
   27TMC2    H2  427   3.768   1.694  11.972 -0.8237 -0.7456  2.0537
   27TMC2    C7  428   3.993   1.548  11.908 -0.8106 -0.3703 -0.3209
   27TMC2    C8  429   3.548   1.567  12.027 -0.0318 -0.0822  0.4158
   27TMC2    O1  430   4.083   1.540  11.828 -0.1017 -0.7992  0.6730
   27TMC2    O2  431   3.561   1.664  12.103  0.4150  0.0651  0.2806
   27TMC2    O5  432   3.494   1.451  12.068 -0.1002 -0.3418 -0.0843
   27TMC2    H5  433   3.432   1.467  12.142 -0.8564 -1.1284 -0.5434
   28MPD2     C  434   3.663   0.933  12.305 -0.2019 -0.2748 -0.5253
   28MPD2    C1  435   3.563   1.020  12.292  0.8153 -0.0960 -0.6876
   28MPD2    C2  436   3.562   1.111  12.182  0.7571  0.5208  0.2561
   28MPD2    C3  437   3.667   1.113  12.090  0.0915 -0.3890 -0.5732
   28MPD2    C4  438   3.779   1.037  12.114  0.1280 -0.0592  0.1212
   28MPD2    C5  439   3.773   0.940  12.216  0.0542 -0.9348  0.5812
   28MPD2     H  440   3.476   1.176  12.168  0.5197 -0.1088 -1.2249
   28MPD2    H1  441   3.867   1.043  12.051 -0.2155  1.6490 -0.1971
   28MPD2    H2  442   3.662   0.855  12.380 -1.9200  1.3257  1.1164
   28MPD2    H3  443   3.858   0.874  12.230  0.1823 -0.8311  0.2937
   28MPD2     N  444   3.664   1.215  12.000 -0.3449  0.0237 -0.4788
   28MPD2    H5  445   3.597   1.287  12.022  0.4488  0.1845  1.4498
   28MPD2    N1  446   3.471   1.018  12.402 -0.0400 -0.0439 -0.5130
   28MPD2    H7  447   3.479   0.943  12.471 -0.3162  0.0772 -0.3516
   29TMC2    C1  448   3.065   3.640  14.041 -0.5469 -0.3958 -0.1927
   29TMC2    C2  449   3.021   3.741  14.123  0.3971  0.5662  0.2241
   29TMC2    C3  450   3.089   3.865  14.111 -0.3801  0.7153 -0.4068
   29TMC2    C4  451   3.166   3.657  13.952 -0.4635  0.3275 -0.2543
   29TMC2    C5  452   3.220   3.782  13.931 -1.0376  0.0401  0.3903
   29TMC2    C6  453   3.182   3.891  14.011  0.1807  0.9621  0.7145
   29TMC2     C  454   3.019   3.507  14.058  0.0615 -0.5209  0.3508
   29TMC2     O  455   3.071   3.418  13.988  0.1778 -0.4435 -0.1927
   29TMC2     H  456   2.932   3.734  14.186  1.3157 -3.7866  1.0237
   29TMC2    H1  457   3.221   3.571  13.916 -0.8675 -0.0002 -0.0938
   29TMC2    H2  458   3.221   3.990  13.989  1.7490 -0.0260 -0.9852
   29TMC2    C7  459   3.342   3.777  13.862  0.0863  0.0000 -0.8348
   29TMC2    C8  460   3.022   3.979  14.177  0.3140 -0.1627  0.2224
   29TMC2    O1  461   3.352   3.691  13.776 -0.1665 -0.1712 -0.0774
   29TMC2    O2  462   2.909   3.984  14.222  0.6550  0.0469  0.0973
   29TMC2    O5  463   3.122   4.057  14.229 -0.1917  0.3003  0.0773
   29TMC2    H5  464   3.209   4.022  14.201 -0.8288 -0.9766 -0.2732
   30MPD2     C  465   2.733   3.154  14.336  1.0111  0.6520  0.0253
   30MPD2    C1  466   2.811   3.137  14.227 -0.3318 -0.2399 -0.3082
   30MPD2    C2  467   2.887   3.247  14.177  0.7428 -0.0889 -0.0175
   30MPD2    C3  468   2.872   3.373  14.229 -0.3758 -0.1973  0.8680
   30MPD2    C4  469   2.779   3.390  14.331  0.0013 -0.5883  0.0071
   30MPD2    C5  470   2.715   3.283  14.384 -0.3853  0.1313  0.2160
   30MPD2     H  471   2.965   3.227  14.104  1.9890  1.0203  1.0364
   30MPD2    H1  472   2.759   3.490  14.367  0.3829 -0.2686 -0.6622
   30MPD2    H2  473   2.685   3.073  14.389 -2.0230  1.4933 -1.4001
   30MPD2    H3  474   2.641   3.296  14.461 -0.1372  0.4918  0.3967
   30MPD2     N  475   2.938   3.494  14.169 -0.3596  0.2259 -0.7743
   30MPD2    H5  476   2.918   3.583  14.213  1.3871  0.0547  0.3193
   30MPD2    N1  477   2.844   3.011  14.170  0.7131  0.4235 -0.6006
   30MPD2    H7  478   2.899   3.006  14.086  0.1642  1.5916 -1.0359
   31TMC2    C1  479   0.728   2.245  15.523  0.1751 -0.6036 -0.0806
   31TMC2    C2  480   0.599   2.258  15.570  0.3008  0.1075 -0.5526
   31TMC2    C3  481   0.586   2.251  15.706 -0.3305  0.5934  0.9414
   31TMC2    C4  482   0.840   2.204  15.587  0.7985 -0.5806  0.1857
   31TMC2    C5  483   0.817   2.189  15.720 -0.6577  0.1055  0.4510
   31TMC2    C6  484   0.690   2.205  15.775 -0.4765 -0.4257 -0.8815
   31TMC2     C  485   0.742   2.295  15.385  0.0046 -0.3446 -0.0608
   31TMC2     O  486   0.643   2.346  15.332  0.1479 -0.3379  0.6484
   31TMC2     H  487   0.523   2.304  15.508  2.7046  1.7059 -2.2699
   31TMC2    H1  488   0.941   2.211  15.547  1.4859 -1.6269  1.7321
   31TMC2    H2  489   0.668   2.193  15.881  0.6382  1.4596 -0.4295
   31TMC2    C7  490   0.923   2.153  15.806 -0.5618 -0.0408  0.2302
   31TMC2    C8  491   0.464   2.196  15.767 -0.5676 -0.2422  0.8908
   31TMC2    O1  492   0.995   2.061  15.776 -0.5395  0.5385 -0.9228
   31TMC2    O2  493   0.460   2.112  15.858 -0.4965  0.1571  0.0386
   31TMC2    O5  494   0.359   2.271  15.723 -0.3978  0.4372  0.2118
   31TMC2    H5  495   0.377   2.347  15.664 -0.0282 -0.1852 -0.4793
   32MPD2     C  496   1.034   2.382  14.974 -0.0618  0.1214 -0.2571
   32MPD2    C1  497   0.897   2.394  14.985 -0.3196 -0.1557 -0.0822
   32MPD2    C2  498   0.832   2.351  15.100 -0.4216  0.3885  0.6872
   32MPD2    C3  499   0.914   2.309  15.203 -0.7500  0.2290  0.1695
   32MPD2    C4  500   1.050   2.291  15.195 -0.2376  0.1983  0.5769
   32MPD2    C5  501   1.113   2.330  15.076  0.5056 -0.5468  0.3264
   32MPD2     H  502   0.724   2.349  15.111 -0.4342 -0.7589  0.3005
   32MPD2    H1  503   1.114   2.249  15.272 -0.0136 -2.5630 -1.0958
   32MPD2    H2  504   1.074   2.411  14.878  1.5743 -2.4980 -0.3803
   32MPD2    H3  505   1.221   2.321  15.065  0.3002  0.1711 -2.1501
   32MPD2     N  506   0.866   2.269  15.330  0.2135 -0.3784 -0.0491
   32MPD2    H5  507   0.934   2.215  15.382  0.9112  2.0939  1.6585
   32MPD2    N1  508   0.825   2.447  14.877 -0.0924 -0.4117  0.1964
   32MPD2    H7  509   0.877   2.475  14.795 -1.9660  0.2434 -0.7636
   33TMC2    C1  510   0.693   4.260  10.659 -0.2022 -0.4856  0.1198
   33TMC2    C2  511   0.574   4.237  10.592 -0.1998  0.3568  0.4246
   33TMC2    C3  512   0.552   4.299  10.472  0.1995 -0.1645 -1.0486
   33TMC2    C4  513   0.781   4.356  10.615 -0.6273 -0.2845 -0.4487
   33TMC2    C5  514   0.750   4.420  10.498  0.3988 -0.3693  0.0009
   33TMC2    C6  515   0.635   4.400  10.432  0.4012 -0.9952  0.3416
   33TMC2     C  516   0.732   4.163  10.770  0.0219  0.0381  0.1700
   33TMC2     O  517   0.646   4.128  10.852  0.0648 -0.0465 -0.5205
   33TMC2     H  518   0.494   4.175  10.631  0.0343 -0.0602  0.2369
   33TMC2    H1  519   0.877   4.371  10.663 -1.6976  1.4579  1.1315
   33TMC2    H2  520   0.613   4.442  10.335 -2.4149 -3.5055 -0.0945
   33TMC2    C7  521   0.831   4.543  10.468 -0.3486 -0.2361 -0.0885
   33TMC2    C8  522   0.428   4.292  10.401 -0.0137 -0.1724  0.3746
   33TMC2    O1  523   0.896   4.590  10.565 -0.4842  0.0331 -0.2863
   33TMC2    O2  524   0.382   4.375  10.327  0.4490 -0.3172  0.1619
   33TMC2    O5  525   0.394   4.165  10.404 -0.4644 -0.4206  0.8208
   33TMC2    H5  526   0.467   4.114  10.444  1.1675 -0.1355 -1.8146
   34MPD2     C  527   1.051   3.842  10.998 -0.0141  0.0713 -0.0710
   34MPD2    C1  528   0.914   3.854  11.008 -0.7312  0.7971 -0.3554
   34MPD2    C2  529   0.851   3.947  10.918  0.6094  0.1916  0.5052
   34MPD2    C3  530   0.922   4.031  10.837  0.5864  0.3601  0.2197
   34MPD2    C4  531   1.063   4.028  10.838  0.2205  0.3139 -0.0837
   34MPD2    C5  532   1.124   3.929  10.913  0.3477  0.2081 -0.2291
   34MPD2     H  533   0.744   3.933  10.906  0.4723 -0.5184  2.5904
   34MPD2    H1  534   1.113   4.108  10.785  0.1897  0.9532  0.8643
   34MPD2    H2  535   1.114   3.769  11.048 -0.1102 -0.3471 -0.5601
   34MPD2    H3  536   1.232   3.921  10.925  0.0350  1.0082  3.1149
   34MPD2     N  537   0.864   4.135  10.765 -0.0266  0.3927 -0.0318
   34MPD2    H5  538   0.924   4.180  10.697 -0.3813 -0.9643 -1.2224
   34MPD2    N1  539   0.849   3.761  11.088  0.6637 -1.0495  0.6829
   34MPD2    H7  540   0.909   3.688  11.125  1.5096 -1.6399 -1.9220
   35TMC2    C1  541   1.998   0.852  11.290 -0.0590 -0.1912  0.4740
   35TMC2    C2  542   1.883   0.909  11.242  0.4166  0.3970  0.2825
   35TMC2    C3  543   1.766   0.866  11.298 -0.3302 -0.1519 -0.0823
   35TMC2    C4  544   2.002   0.765  11.398  0.7579 -0.5047 -0.0176
   35TMC2    C5  545   1.882   0.726  11.447 -0.3153 -0.3654  0.0650
   35TMC2    C6  546   1.761   0.785  11.405 -0.4915 -0.6793  0.3707
   35TMC2     C  547   2.121   0.885  11.212 -0.0710  0.4501 -0.1965
   35TMC2     O  548   2.104   0.938  11.101  0.0886 -0.5132 -0.3479
   35TMC2     H  549   1.870   0.985  11.166 -2.0793 -0.4131 -0.0759
   35TMC2    H1  550   2.094   0.736  11.449  1.3893 -2.1982 -2.1191
   35TMC2    H2  551   1.671   0.764  11.461 -0.6916 -1.1815 -0.1317
   35TMC2    C7  552   1.862   0.594  11.496 -0.6423 -0.4704 -0.2510
   35TMC2    C8  553   1.649   0.926  11.241  0.2619 -0.0559 -0.6247
   35TMC2    O1  554   1.747   0.552  11.485 -0.0590  0.3283  0.1053
   35TMC2    O2  555   1.654   1.038  11.185  0.7336  0.6833  0.0445
   35TMC2    O5  556   1.545   0.869  11.301  0.4543  0.3367 -0.0159
   35TMC2    H5  557   1.565   0.775  11.318 -0.2928 -0.2079 -2.0928
   36MPD2     C  558   2.633   0.930  11.177  0.1636  0.1333  0.4290
   36MPD2    C1  559   2.604   0.886  11.303  0.3496  0.3655  0.8984
   36MPD2    C2  560   2.472   0.860  11.339 -0.4174 -0.4764  0.5173
   36MPD2    C3  561   2.374   0.885  11.244  0.7780 -0.1413 -0.3054
   36MPD2    C4  562   2.402   0.942  11.120  0.0715  0.1797 -0.6894
   36MPD2    C5  563   2.534   0.978  11.092 -0.9569 -0.0640  0.4646
   36MPD2     H  564   2.448   0.815  11.435  1.2223  0.9289  1.6059
   36MPD2    H1  565   2.325   0.957  11.046 -2.0476 -0.1553  1.4406
   36MPD2    H2  566   2.732   0.957  11.143  0.3268 -0.4844  0.4219
   36MPD2    H3  567   2.562   1.026  10.999  3.9858 -2.6419  0.6267
   36MPD2     N  568   2.237   0.856  11.280 -0.8230  0.4157 -0.3042
   36MPD2    H5  569   2.231   0.803  11.367 -1.7381 -1.0055 -1.2300
   36MPD2    N1  570   2.708   0.878  11.401  0.3514  0.3965 -0.8450
   36MPD2    H7  571   2.805   0.888  11.375  1.3599 -0.6310  2.6362
   37TMC2    C1  572   4.683   1.351  11.545  0.0515 -0.7974 -0.2106
   37TMC2    C2  573   4.566   1.280  11.542 -0.0641 -0.3105  0.6227
   37TMC2    C3  574   4.556   1.194  11.436  0.2429 -0.2930 -0.4952
   37TMC2    C4  575   0.038   1.344  11.454  0.9606  0.7480  1.3206
   37TMC2    C5  576   0.030   1.246  11.359  0.6016  0.0107 -0.5079
   37TMC2    C6  577   4.652   1.177  11.342  0.9121 -0.3779  0.8667
   37TMC2     C  578   4.710   1.410  11.669  0.2045  0.2123 -0.1827
   37TMC2     O  579   4.612   1.444  11.731  0.1061  0.5778 -0.1412
   37TMC2     H  580   4.480   1.306  11.603  0.1878 -0.0615  0.8712
   37TMC2    H1  581   0.133   1.394  11.464  2.2651 -1.0706 -1.9198
   37TMC2    H2  582   4.627   1.121  11.252  2.1455 -0.4214  0.5497
   37TMC2    C7  583   0.143   1.218  11.264  0.4891  0.1422 -0.0490
   37TMC2    C8  584   4.449   1.105  11.422 -0.0218 -0.2672  0.2154
   37TMC2    O1  585   0.235   1.301  11.264  0.4606  0.2127  0.0329
   37TMC2    O2  586   4.405   1.062  11.317 -0.3154 -0.4596 -0.4658
   37TMC2    O5  587   4.403   1.073  11.543 -0.4399 -0.3243  0.6404
   37TMC2    H5  588   4.471   1.098  11.608 -2.2961 -0.1902  2.5371
   38MPD2     C  589   0.234   1.456  12.096 -0.2799 -1.0258 -0.1167
   38MPD2    C1  590   0.321   1.423  12.001 -0.1077 -0.1154 -0.7018
   38MPD2    C2  591   0.288   1.403  11.868  0.2476 -0.4367 -0.3559
   38MPD2    C3  592   0.148   1.418  11.841  0.6740 -0.9776  0.1350
   38MPD2    C4  593   0.056   1.447  11.944  0.6287  0.2371 -0.3518
   38MPD2    C5  594   0.107   1.467  12.067 -0.1334  0.3512  0.4123
   38MPD2     H  595   0.361   1.365  11.798  0.3956  1.0019 -1.0010
   38MPD2    H1  596   4.686   1.467  11.925  0.9789  0.6424 -1.8828
   38MPD2    H2  597   0.267   1.451  12.199  0.9228  3.2560 -0.3093
   38MPD2    H3  598   0.031   1.465  12.144 -0.6796  3.2759 -0.0671
   38MPD2     N  599   0.104   1.390  11.711  0.4583  0.5503  0.3906
   38MPD2    H5  600   0.170   1.352  11.644  2.6543  1.7614  1.8592
   38MPD2    N1  601   0.459   1.406  12.030 -0.6649  0.6122 -0.4134
   38MPD2    H7  602   0.504   1.347  11.960  0.7566  1.1965  0.0033
   39TMC2    C1  603   3.273   2.815   1.547 -0.0292 -0.0852  0.5381
   39TMC2    C2  604   3.254   2.920   1.636  0.0683  0.4906 -0.1986
   39TMC2    C3  605   3.360   3.000   1.659  0.7075 -0.3537  0.2710
   39TMC2    C4  606   3.395   2.800   1.480 -0.4213 -0.9054  0.0351
   39TMC2    C5  607   3.499   2.882   1.514 -0.5048  0.3500 -0.2340
   39TMC2    C6  608   3.483   2.982   1.604  0.6458 -0.6056 -0.6042
   39TMC2     C  609   3.148   2.774   1.477 -0.2435 -0.2007  0.5064
   39TMC2     O  610   3.042   2.821   1.526 -0.4990  0.0807 -0.1573
   39TMC2     H  611   3.165   2.936   1.696 -0.1763 -0.1870 -0.3785
   39TMC2    H1  612   3.395   2.754   1.381 -0.1603  1.9501 -1.2898
   39TMC2    H2  613   3.563   3.047   1.638  1.0819  0.2457 -3.2390
   39TMC2    C7  614   3.620   2.859   1.445 -0.1821 -0.2471 -0.4634
   39TMC2    C8  615   3.346   3.124   1.717  0.4772 -0.3641  0.0462
   39TMC2    O1  616   3.624   2.749   1.388 -0.0696  0.0142  0.9070
   39TMC2    O2  617   3.253   3.198   1.691  1.1826 -0.3778  0.5365
   39TMC2    O5  618   3.437   3.136   1.817 -0.3095 -0.3983  0.2563
   39TMC2    H5  619   3.477   3.048   1.834  1.1496  0.0786 -0.6858
   40MPD2     C  620   3.073   2.507   1.222  0.5805  0.4075 -0.0203
   40MPD2    C1  621   3.060   2.626   1.298  0.9880  0.1837  0.0045
   40MPD2    C2  622   2.942   2.706   1.284 -0.8327  0.1241 -0.3565
   40MPD2    C3  623   2.839   2.662   1.199  0.1285  0.4425 -0.4442
   40MPD2    C4  624   2.861   2.549   1.119  0.2735 -0.0765  0.4500
   40MPD2    C5  625   2.969   2.472   1.143 -0.5175  0.0778  0.1001
   40MPD2     H  626   2.923   2.797   1.340 -0.8211 -1.4384  2.2002
   40MPD2    H1  627   2.797   2.521   1.036  1.4894  1.1018 -0.8927
   40MPD2    H2  628   3.155   2.436   1.235 -0.0400 -0.5200 -1.1832
   40MPD2    H3  629   2.994   2.391   1.075 -0.2400 -0.1356  0.4569
   40MPD2     N  630   2.707   2.721   1.180 -1.1697  0.2447  0.8015
   40MPD2    H5  631   2.644   2.693   1.106  0.7423 -1.4790 -0.1588
   40MPD2    N1  632   3.160   2.664   1.386  0.1806 -0.0163 -0.4919
   40MPD2    H7  633   3.253   2.624   1.382  0.2824  0.0242  1.4610
   41TMC2    C1  634   2.568   1.450  13.777  0.3771 -0.3720 -0.2628
   41TMC2    C2  635   2.441   1.468  13.726 -0.3363 -0.0006 -0.3301
   41TMC2    C3  636   2.433   1.485  13.598 -0.1261 -0.4331  0.0749
   41TMC2    C4  637   2.678   1.481  13.699  0.3249 -0.1595 -0.9852
   41TMC2    C5  638   2.656   1.523  13.572 -0.0276  0.6104 -0.4822
   41TMC2    C6  639   2.533   1.526  13.518 -0.2628  0.3600  0.1356
   41TMC2     C  640   2.598   1.413  13.914 -0.7005  0.1819 -1.0510
   41TMC2     O  641   2.714   1.425  13.959  0.0862  0.1452 -0.2596
   41TMC2     H  642   2.360   1.435  13.790  0.7902  2.6395  2.5049
   41TMC2    H1  643   2.782   1.470  13.729  0.0760  0.4970  0.1135
   41TMC2    H2  644   2.512   1.568  13.420 -0.2686  0.9325  0.3804
   41TMC2    C7  645   2.777   1.535  13.492  0.5111 -0.0917  0.0462
   41TMC2    C8  646   2.298   1.496  13.541 -0.1988  0.6613 -0.7815
   41TMC2    O1  647   2.889   1.524  13.538  0.2071  0.2049 -0.3121
   41TMC2    O2  648   2.198   1.517  13.609  0.5703 -0.1605  0.5020
   41TMC2    O5  649   2.296   1.456  13.413  0.0491  0.6184  0.0282
   41TMC2    H5  650   2.381   1.410  13.394 -0.3225 -0.7957  1.7770
   42MPD2     C  651   2.591   1.290  14.194 -0.6962  0.1035  0.2179
   42MPD2    C1  652   2.486   1.339  14.124  0.7948  0.5143 -0.0767
   42MPD2    C2  653   2.351   1.324  14.156 -1.0722 -0.0560 -0.5168
   42MPD2    C3  654   2.323   1.283  14.284  0.5296 -0.1104 -0.7661
   42MPD2    C4  655   2.426   1.247  14.364 -0.2680 -0.3352 -0.5397
   42MPD2    C5  656   2.558   1.231  14.318 -0.2608 -0.1008  0.2664
   42MPD2     H  657   2.285   1.377  14.088 -0.7416  1.2505  0.1844
   42MPD2    H1  658   2.405   1.222  14.468  0.1832  4.6427  0.7708
   42MPD2    H2  659   2.696   1.302  14.168 -0.1316 -1.3041  1.8383
   42MPD2    H3  660   2.621   1.202  14.400 -1.1373 -2.4452  0.1070
   42MPD2     N  661   2.189   1.278  14.321  0.0851 -0.0602 -0.0866
   42MPD2    H5  662   2.174   1.290  14.421 -1.6362 -0.8702 -0.2452
   42MPD2    N1  663   2.494   1.378  13.987  0.2117 -0.3949  0.1704
   42MPD2    H7  664   2.402   1.374  13.943 -1.1334  3.7210  2.5604
   43TMC2    C1  665   3.753   4.703   0.620 -0.3274  0.2923 -0.2662
   43TMC2    C2  666   3.727   0.031   0.503 -0.2135  0.7564  0.4290
   43TMC2    C3  667   3.775   0.162   0.496  0.4031 -0.2617 -0.1527
   43TMC2    C4  668   3.825   0.018   0.729 -0.0680 -0.1651  0.0651
   43TMC2    C5  669   3.863   0.151   0.713 -0.0392 -0.7329  0.2685
   43TMC2    C6  670   3.852   0.215   0.592 -0.7552 -0.6423 -0.7896
   43TMC2     C  671   3.715   4.559   0.625 -0.0930 -0.7313  0.5631
   43TMC2     O  672   3.702   4.500   0.516 -0.3908 -0.1352  0.1035
   43TMC2     H  673   3.650   4.726   0.438  0.2392 -0.8624  0.8928
   43TMC2    H1  674   3.860   4.686   0.805  0.3466 -1.1631 -1.0104
   43TMC2    H2  675   3.893   0.314   0.581 -1.1189 -0.4390 -0.3548
   43TMC2    C7  676   3.960   0.202   0.804 -0.4136 -0.6063  0.4884
   43TMC2    C8  677   3.711   0.264   0.405 -0.2730 -0.3718 -0.1307
   43TMC2    O1  678   4.048   0.280   0.769  0.6025  0.1627 -0.7715
   43TMC2    O2  679   3.715   0.382   0.441  0.2009 -0.1988 -0.2423
   43TMC2    O5  680   3.601   0.208   0.370 -0.1309  0.6495 -0.0586
   43TMC2    H5  681   3.614   0.119   0.332 -1.1561  0.4510  0.0828
   44MPD2     C  682   3.621   4.122   0.870  0.3188  0.1450 -0.6994
   44MPD2    C1  683   3.671   4.146   0.748 -0.4208 -0.8649  0.2087
   44MPD2    C2  684   3.685   4.278   0.700  0.1115  0.4405  0.0104
   44MPD2    C3  685   3.644   4.382   0.782 -0.1235 -0.5409  1.0952
   44MPD2    C4  686   3.583   4.358   0.901  0.9593 -1.1330 -0.4614
   44MPD2    C5  687   3.574   4.231   0.945  0.1780  0.7622  0.7479
   44MPD2     H  688   3.750   4.295   0.615 -1.1599 -1.5816 -1.3551
   44MPD2    H1  689   3.561   4.441   0.967  2.2355 -0.9850 -0.2160
   44MPD2    H2  690   3.619   4.025   0.919 -1.4869  0.4193 -0.2415
   44MPD2    H3  691   3.525   4.211   1.039  0.3192 -1.1443  0.4202
   44MPD2     N  692   3.673   4.516   0.755 -0.3078 -0.0127  0.5527
   44MPD2    H5  693   3.663   4.586   0.827  0.3848 -0.2580  0.8869
   44MPD2    N1  694   3.709   4.042   0.661  0.2878 -0.0447 -0.0147
   44MPD2    H7  695   3.745   4.059   0.568 -0.2367  1.3316  0.0357
   45TMC2    C1  696   3.954   0.768   9.318  0.0677 -0.7908 -0.3465
   45TMC2    C2  697   4.088   0.740   9.306  0.0818 -0.9278  0.4304
   45TMC2    C3  698   4.178   0.812   9.382  0.4685 -0.0091  0.8068
   45TMC2    C4  699   3.911   0.875   9.392 -0.1595  0.0057  0.3691
   45TMC2    C5  700   4.009   0.962   9.450 -0.1780  0.0053  0.2894
   45TMC2    C6  701   4.142   0.928   9.447  0.5455  0.2219  0.1363
   45TMC2     C  702   3.869   0.655   9.289 -0.6897 -0.2230 -0.2336
   45TMC2     O  703   3.923   0.551   9.260 -0.3667 -0.2643 -0.1888
   45TMC2     H  704   4.129   0.664   9.241 -2.3065 -0.1213 -2.0254
   45TMC2    H1  705   3.805   0.890   9.407  0.0567 -0.0257  2.0015
   45TMC2    H2  706   4.222   0.989   9.487  0.6626 -0.4987  1.0024
   45TMC2    C7  707   3.965   1.085   9.513 -0.2630 -0.6493  0.3610
   45TMC2    C8  708   4.317   0.787   9.363 -0.2872  0.1661  0.1133
   45TMC2    O1  709   4.055   1.132   9.576 -0.3517  0.1302 -0.1162
   45TMC2    O2  710   4.397   0.878   9.379 -0.0077  0.7753 -0.1976
   45TMC2    O5  711   4.332   0.653   9.387 -0.0089  0.0906 -0.0715
   45TMC2    H5  712   4.245   0.607   9.384 -0.0333  0.2053 -1.2713
   46MPD2     C  713   3.629   0.472   9.270 -0.2145 -0.3194 -0.0399
   46MPD2    C1  714   3.625   0.608   9.283 -0.1706  0.3387 -0.4208
   46MPD2    C2  715   3.498   0.671   9.301 -0.8465 -0.7808 -0.0763
   46MPD2    C3  716   3.382   0.604   9.284  0.1096  0.0733  0.8294
   46MPD2    C4  717   3.388   0.473   9.254  0.4903  0.0521 -0.0624
   46MPD2    C5  718   3.509   0.404   9.254  0.5037  0.0495 -1.0152
   46MPD2     H  719   3.490   0.778   9.319  0.2555 -1.1158  2.4481
   46MPD2    H1  720   3.296   0.421   9.229  0.1453  0.3457  0.5908
   46MPD2    H2  721   3.722   0.418   9.279 -0.8015 -1.5716 -1.3339
   46MPD2    H3  722   3.518   0.300   9.226  2.4113 -0.1107  0.1550
   46MPD2     N  723   3.256   0.681   9.285  0.6121 -0.4240 -0.8130
   46MPD2    H5  724   3.258   0.782   9.274  1.2388 -0.1586  1.7714
   46MPD2    N1  725   3.737   0.692   9.295 -0.0384  0.2224 -0.4829
   46MPD2    H7  726   3.727   0.790   9.320 -0.5495  0.6353 -2.2978
   47TMC2    C1  727   1.171   1.602   9.500 -0.1148 -0.2154 -0.4208
   47TMC2    C2  728   1.062   1.682   9.522  0.5809  0.4209 -0.2325
   47TMC2    C3  729   0.941   1.616   9.523 -0.3699 -0.2621 -0.7551
   47TMC2    C4  730   1.164   1.463   9.480  0.3433 -0.3601  0.4588
   47TMC2    C5  731   1.041   1.406   9.500 -0.0748  0.2936 -0.0131
   47TMC2    C6  732   0.930   1.480   9.512 -0.1760  0.4088 -0.3144
   47TMC2     C  733   1.303   1.663   9.523 -0.2786  0.0945 -0.7725
   47TMC2     O  734   1.328   1.778   9.489 -0.4478  0.0350 -0.2217
   47TMC2     H  735   1.081   1.789   9.524 -0.1953  0.5653 -0.6773
   47TMC2    H1  736   1.253   1.402   9.479 -1.3172 -2.7816 -0.0619
   47TMC2    H2  737   0.828   1.445   9.509  0.5327 -1.5498 -1.1054
   47TMC2    C7  738   1.015   1.263   9.477 -0.3731 -1.0755 -0.4066
   47TMC2    C8  739   0.814   1.682   9.531  0.1048 -0.4593 -0.9094
   47TMC2    O1  740   0.920   1.226   9.548  0.2193  1.1552 -0.4321
   47TMC2    O2  741   0.708   1.627   9.561  0.6589  0.4521 -0.1743
   47TMC2    O5  742   0.833   1.818   9.530 -0.0650  0.4738 -0.7915
   47TMC2    H5  743   0.924   1.833   9.562  0.6285 -2.6301 -1.2280
   48MPD2     C  744   1.595   1.661   9.524 -0.0105 -0.6779 -0.3308
   48MPD2    C1  745   1.514   1.587   9.612  0.3898  0.2305  0.2576
   48MPD2    C2  746   1.587   1.513   9.709 -0.0091 -0.1542 -0.0846
   48MPD2    C3  747   1.717   1.535   9.734  0.0277  0.5227  0.0771
   48MPD2    C4  748   1.789   1.627   9.661  0.6485 -0.4794 -0.2930
   48MPD2    C5  749   1.729   1.687   9.550  0.3601 -0.2691  0.3462
   48MPD2     H  750   1.532   1.435   9.762 -1.2359 -1.3636 -3.1722
   48MPD2    H1  751   1.888   1.654   9.696  0.1422 -0.5225  1.1722
   48MPD2    H2  752   1.549   1.712   9.441 -1.8247 -0.1147  1.0275
   48MPD2    H3  753   1.770   1.768   9.492  1.1114  0.7416  2.2957
   48MPD2     N  754   1.779   1.442   9.823  0.0896  0.0646  0.1153
   48MPD2    H5  755   1.710   1.379   9.863  1.0996 -1.2677 -0.2656
   48MPD2    N1  756   1.376   1.576   9.599 -0.6660 -0.2063  0.1481
   48MPD2    H7  757   1.331   1.495   9.641  0.6587 -0.7691  0.4704
   49TMC2    C1  758   4.628   3.625  10.403  0.6535  0.1036 -0.9958
   49TMC2    C2  759   4.576   3.523  10.322 -0.0772  0.2041  0.2585
   49TMC2    C3  760   4.544   3.403  10.380  0.6519 -0.7555 -0.3597
   49TMC2    C4  761   4.646   3.602  10.535  0.2896 -0.5926 -0.0815
   49TMC2    C5  762   4.608   3.483  10.588 -0.0711 -0.4801 -0.8192
   49TMC2    C6  763   4.558   3.374  10.516 -0.2330  0.5371 -0.4057
   49TMC2     C  764   4.675   3.751  10.326 -1.3594 -0.6908  0.2507
   49TMC2     O  765   4.651   3.760  10.205 -0.0505 -0.2348 -0.6684
   49TMC2     H  766   4.567   3.535  10.214  4.3172 -1.5405 -0.2987
   49TMC2    H1  767   4.701   3.676  10.593 -0.4150 -0.2887  0.1962
   49TMC2    H2  768   4.522   3.280  10.557  2.0799 -0.3746 -0.4126
   49TMC2    C7  769   4.644   3.456  10.729  0.2531 -0.2669  0.0648
   49TMC2    C8  770   4.516   3.292  10.279 -0.3784  0.1714 -0.5333
   49TMC2    O1  771   4.711   3.549  10.773 -0.7750 -0.2153  0.2830
   49TMC2    O2  772   4.439   3.324  10.188 -0.1703  0.6237  0.5900
   49TMC2    O5  773   4.499   3.175  10.351 -0.4243 -0.4098 -0.6860
   49TMC2    H5  774   4.580   3.163  10.405  0.8149  1.7735 -2.0298
   50MPD2     C  775   4.654   4.028  10.264 -0.2358  0.1072 -0.3599
   50MPD2    C1  776   4.706   3.989  10.383 -0.6213 -0.2181 -0.1743
   50MPD2    C2  777   0.029   4.082  10.467  0.2994  0.2545  0.0850
   50MPD2    C3  778   0.038   4.214  10.425 -0.2825  0.2065 -0.1019
   50MPD2    C4  779   4.720   4.252  10.304 -0.5471 -1.3865  0.0898
   50MPD2    C5  780   4.664   4.159  10.220 -0.2775 -0.1598  0.4065
   50MPD2     H  781   0.075   4.043  10.557 -2.4426 -1.0615  0.9433
   50MPD2    H1  782   4.722   4.352  10.262  0.6945 -1.1253  0.7668
   50MPD2    H2  783   4.598   3.970  10.192 -1.5830 -1.6654  2.1148
   50MPD2    H3  784   4.627   4.194  10.124  1.4634  2.3019  0.6406
   50MPD2     N  785   0.098   4.309  10.509  0.3858  0.1225 -0.2423
   50MPD2    H5  786   0.097   4.404  10.472 -1.8954  0.5083  0.8871
   50MPD2    N1  787   4.711   3.852  10.412  0.8416 -0.5729 -0.3743
   50MPD2    H7  788   0.008   3.821  10.503  0.0591 -1.2588 -0.3294
   51TMC2    C1  789   0.390   3.107   1.146 -0.2536 -0.3397 -0.2062
   51TMC2    C2  790   0.257   3.095   1.111  0.5222  0.0339 -0.1881
   51TMC2    C3  791   0.191   3.193   1.039  0.3900  0.3612 -0.0236
   51TMC2    C4  792   0.464   3.225   1.126  0.4688  0.3376  0.3349
   51TMC2    C5  793   0.398   3.324   1.059 -0.0447  0.7170  0.2535
   51TMC2    C6  794   0.265   3.315   1.018  0.6246  0.1086  0.8853
   51TMC2     C  795   0.465   3.002   1.206  0.1915 -0.3501  0.0368
   51TMC2     O  796   0.586   3.011   1.202  0.2945  0.1054  0.0910
   51TMC2     H  797   0.202   3.003   1.124 -0.1780  0.6681  1.2349
   51TMC2    H1  798   0.566   3.239   1.160  0.1480 -0.3076  1.5563
   51TMC2    H2  799   0.212   3.401   0.978  1.8021  0.0723 -0.7573
   51TMC2    C7  800   0.460   3.455   1.062  0.1669 -0.2935  0.3703
   51TMC2    C8  801   0.054   3.180   0.987 -0.3460 -0.2980 -0.0538
   51TMC2    O1  802   0.582   3.457   1.069 -0.4228 -0.1856 -0.0722
   51TMC2    O2  803   0.009   3.255   0.900  0.3689  0.0267  0.4553
   51TMC2    O5  804   4.714   3.115   1.076 -0.2628  0.1610 -0.2357
   51TMC2    H5  805   0.014   3.069   1.155 -1.0328 -1.2156 -0.6959
   52MPD2     C  806   0.521   2.551   1.451 -0.1913 -0.0203 -0.5042
   52MPD2    C1  807   0.612   2.619   1.378 -0.0011 -0.1256 -0.3210
   52MPD2    C2  808   0.566   2.737   1.319 -0.1174 -0.1158  0.4589
   52MPD2    C3  809   0.434   2.783   1.316  0.3084 -0.3173 -0.4437
   52MPD2    C4  810   0.344   2.701   1.385  0.3177  0.1105 -0.0216
   52MPD2    C5  811   0.386   2.589   1.448 -0.8329 -0.3047  0.0852
   52MPD2     H  812   0.638   2.796   1.264 -1.1279  1.7381  1.1191
   52MPD2    H1  813   0.238   2.724   1.382  0.0052 -2.0450 -4.2932
   52MPD2    H2  814   0.531   2.454   1.499  2.2046 -0.9980 -2.9683
   52MPD2    H3  815   0.311   2.531   1.501 -0.7835 -0.3611  0.0937
   52MPD2     N  816   0.385   2.904   1.256 -0.2034  0.8144 -0.3398
   52MPD2    H5  817   0.286   2.923   1.263 -0.0439  1.1734  0.9910
   52MPD2    N1  818   0.755   2.594   1.368  0.2321 -0.1796  1.0096
   52MPD2    H7  819   0.808   2.667   1.320 -0.7496  0.4357  0.8539
   53TMC2    C1  820   0.805   1.110  11.017  0.1933 -0.6736  0.1640
   53TMC2    C2  821   0.932   1.057  11.034  0.1395 -0.1432  1.3769
   53TMC2    C3  822   1.026   1.147  11.075  0.1334  0.1266  0.6727
   53TMC2    C4  823   0.774   1.243  11.042 -0.3043  0.6561 -0.3443
   53TMC2    C5  824   0.870   1.308  11.114 -0.6141  0.3936 -0.2687
   53TMC2    C6  825   1.001   1.276  11.106 -0.0507  0.3178  0.2289
   53TMC2     C  826   0.701   1.011  11.030  0.6376 -0.2085 -1.0863
   53TMC2     O  827   0.731   0.893  11.017 -0.5328  0.2337  0.2674
   53TMC2     H  828   0.947   0.954  11.007  0.3619  0.7351 -1.7932
   53TMC2    H1  829   0.673   1.283  11.038  0.8483  3.7513  1.6848
   53TMC2    H2  830   1.073   1.349  11.141 -0.8267  1.2678 -0.1566
   53TMC2    C7  831   0.822   1.384  11.233 -0.6719 -0.3230  0.4499
   53TMC2    C8  832   1.162   1.101  11.065 -0.6601  0.3854  0.5976
   53TMC2    O1  833   0.700   1.384  11.252 -0.3440  0.4587  0.1282
   53TMC2    O2  834   1.203   1.006  11.125  0.1203 -0.1153 -0.8674
   53TMC2    O5  835   1.229   1.212  11.037  0.3357  0.0015  0.2003
   53TMC2    H5  836   1.185   1.279  10.981 -3.1563 -2.2988  0.2297
   54MPD2     C  837   0.448   0.859  11.043 -0.2063 -0.1757  0.1711
   54MPD2    C1  838   0.461   0.997  11.070 -0.2418 -0.0768  0.1799
   54MPD2    C2  839   0.355   1.076  11.110 -0.1005 -0.1910 -0.2791
   54MPD2    C3  840   0.236   1.023  11.145  0.2840  0.1176  0.3107
   54MPD2    C4  841   0.219   0.888  11.121 -0.4764 -0.5291 -0.2502
   54MPD2    C5  842   0.318   0.808  11.067  0.3673 -0.3398 -0.6666
   54MPD2     H  843   0.359   1.183  11.125 -1.1336 -0.3205  0.8997
   54MPD2    H1  844   0.127   0.832  11.137 -0.4741 -0.6569 -0.6910
   54MPD2    H2  845   0.525   0.792  11.006  0.4072  0.3610  0.4741
   54MPD2    H3  846   0.306   0.703  11.043 -2.0168 -0.8039  2.5759
   54MPD2     N  847   0.135   1.093  11.214 -0.0583 -0.2389  0.3088
   54MPD2    H5  848   0.058   1.033  11.241 -0.9867  0.5368 -0.6353
   54MPD2    N1  849   0.584   1.063  11.061 -0.2645  0.2248 -0.2179
   54MPD2    H7  850   0.586   1.161  11.088  0.4858  0.2839 -0.4763
   55TMC2    C1  851   1.609   0.381   0.009  0.8047  0.1299  0.4127
   55TMC2    C2  852   1.616   0.417  17.617 -0.0104 -0.8988 -0.6621
   55TMC2    C3  853   1.680   0.326  17.541 -0.1703 -0.3104 -0.0879
   55TMC2    C4  854   1.652   0.262   0.060 -0.3945 -0.0606  0.7020
   55TMC2    C5  855   1.703   0.172  17.714 -1.0402 -0.0434  0.3902
   55TMC2    C6  856   1.724   0.202  17.585 -0.2641  0.2040 -0.6036
   55TMC2     C  857   1.509   0.449   0.093  0.7693  0.5142  0.4124
   55TMC2     O  858   1.464   0.376   0.179 -0.6704  0.3288  0.5481
   55TMC2     H  859   1.601   0.514  17.572  0.7204 -0.8052 -0.7111
   55TMC2    H1  860   1.632   0.237   0.163 -0.4570 -1.2802  0.3838
   55TMC2    H2  861   1.773   0.129  17.522  0.7130  1.7165 -1.6055
   55TMC2    C7  862   1.707   0.030   0.005  0.8736  0.4614  0.6358
   55TMC2    C8  863   1.665   0.342  17.398  0.6387  0.4527  0.7467
   55TMC2    O1  864   1.713   4.687  17.655  0.0021  0.4278  0.3379
   55TMC2    O2  865   1.642   0.446  17.335 -0.0941 -0.2468 -0.5317
   55TMC2    O5  866   1.633   0.225  17.343 -0.3880 -0.1390  0.4897
   55TMC2    H5  867   1.654   0.144  17.394 -0.4929  0.4766  1.5057
   56MPD2     C  868   1.377   0.794   0.090  0.2168  0.3380  0.2772
   56MPD2    C1  869   1.395   0.661   0.131  0.5637  0.5893 -0.1040
   56MPD2    C2  870   1.306   0.614   0.226 -0.5004  0.0601 -0.3218
   56MPD2    C3  871   1.212   0.696   0.285  0.8805  0.2362  0.2261
   56MPD2    C4  872   1.195   0.827   0.243 -0.7577  0.0985 -0.5466
   56MPD2    C5  873   1.279   0.872   0.142  0.0059  0.7837  0.1342
   56MPD2     H  874   1.321   0.518   0.273  1.2518  0.9998  1.0450
   56MPD2    H1  875   1.127   0.904   0.279 -2.3180 -1.9916  1.0137
   56MPD2    H2  876   1.451   0.833   0.021 -0.7473  1.5480 -0.0901
   56MPD2    H3  877   1.283   0.976   0.113  1.8408  0.9981  1.1371
   56MPD2     N  878   1.131   0.633   0.391  0.0865  0.3229 -0.4308
   56MPD2    H5  879   1.148   0.534   0.407 -1.4949  0.1302  0.0255
   56MPD2    N1  880   1.491   0.582   0.064  0.0087 -0.1844  0.3762
   56MPD2    H7  881   1.532   0.617  17.720  0.9759  0.7970  1.2268
   57TMC2    C1  882   0.851   4.672  13.527  0.2523  0.5778  0.2838
   57TMC2    C2  883   0.849   4.553  13.597 -0.5066 -0.0939  0.3882
   57TMC2    C3  884   0.965   4.475  13.604 -0.2094 -0.1839  0.2244
   57TMC2    C4  885   0.961   4.714  13.464  0.0391  0.1298  0.1546
   57TMC2    C5  886   1.070   4.625  13.459  0.2991  0.4955 -0.4511
   57TMC2    C6  887   1.077   4.507  13.535  0.1744  0.3637  1.0431
   57TMC2     C  888   0.729   0.004  13.497  0.0425 -0.1540 -0.4552
   57TMC2     O  889   0.733   0.123  13.466  0.1468  0.6066 -0.3073
   57TMC2     H  890   0.765   4.531  13.662  0.0230 -1.0846  0.7349
   57TMC2    H1  891   0.951   0.069  13.406  2.5252  1.5325  1.9192
   57TMC2    H2  892   1.156   4.433  13.531 -0.5231 -0.1343 -3.6988
   57TMC2    C7  893   1.181   4.669  13.375  1.0002  0.6139  0.4169
   57TMC2    C8  894   0.969   4.349  13.674  0.6054 -0.3633  0.1292
   57TMC2    O1  895   1.177   0.052  13.349 -0.2314 -0.1170  0.2989
   57TMC2    O2  896   1.068   4.292  13.716  0.2163 -0.1789  0.1050
   57TMC2    O5  897   0.841   4.292  13.685  0.5282 -0.1971  0.0355
   57TMC2    H5  898   0.777   4.315  13.614 -1.8094 -2.2798  1.4489
   58MPD2     C  899   0.241   0.029  13.624 -0.0832  0.9417  0.5561
   58MPD2    C1  900   0.330   0.133  13.604  0.4188 -0.2307  0.1110
   58MPD2    C2  901   0.456   0.099  13.548  0.0043 -0.4454  0.0671
   58MPD2    C3  902   0.487   4.700  13.531 -0.0445  0.8582 -0.0330
   58MPD2    C4  903   0.395   4.596  13.551 -0.2887  0.2964  0.1237
   58MPD2    C5  904   0.268   4.631  13.594  0.1749 -0.5824 -0.2653
   58MPD2     H  905   0.527   0.180  13.541 -1.8014  1.1656  0.5449
   58MPD2    H1  906   0.421   4.491  13.535 -1.3077 -0.3306  2.5531
   58MPD2    H2  907   0.140   0.047  13.659 -0.1461 -2.5194  2.2326
   58MPD2    H3  908   0.187   4.559  13.596  1.0186 -1.4819  1.4773
   58MPD2     N  909   0.615   4.658  13.519 -0.6632 -0.2153  0.6233
   58MPD2    H5  910   0.631   4.559  13.532  0.9215  0.2372  2.1763
   58MPD2    N1  911   0.289   0.269  13.628  0.0759 -0.2370  0.6274
   58MPD2    H7  912   0.359   0.341  13.618  0.8201 -1.2234 -1.2269
   59TMC2    C1  913   3.128   0.361  12.659  0.5361  0.4848  0.6267
   59TMC2    C2  914   3.011   0.298  12.685 -0.3803 -0.5330  0.1752
   59TMC2    C3  915   2.896   0.339  12.623  0.1406  0.0397 -0.1850
   59TMC2    C4  916   3.147   0.466  12.569  0.7948 -0.2746  1.2680
   59TMC2    C5  917   3.030   0.493  12.498  0.0134  0.2333  0.6949
   59TMC2    C6  918   2.908   0.436  12.521 -0.1123  0.3366  0.1919
   59TMC2     C  919   3.249   0.306  12.728 -0.5145 -0.9647  0.0443
   59TMC2     O  920   3.250   0.185  12.745  0.1608  0.5277 -0.2317
   59TMC2     H  921   3.011   0.230  12.771  1.1742  2.9050  2.8745
   59TMC2    H1  922   3.242   0.517  12.566  0.1250  0.9941  1.4890
   59TMC2    H2  923   2.820   0.458  12.461 -0.2361 -2.3461 -0.6446
   59TMC2    C7  924   3.030   0.603  12.405 -0.2782  0.2030 -0.4549
   59TMC2    C8  925   2.799   0.227  12.614  0.1637  0.2695  0.1572
   59TMC2    O1  926   2.925   0.617  12.341 -0.1469 -0.3204  0.4710
   59TMC2    O2  927   2.832   0.109  12.618  0.2731 -0.4751  0.2557
   59TMC2    O5  928   2.688   0.281  12.563  0.0899 -0.0498  0.5432
   59TMC2    H5  929   2.679   0.373  12.596 -2.0099 -0.3775  0.9210
   60MPD2     C  930   3.538   0.274  12.817 -0.4153  0.6574 -0.2713
   60MPD2    C1  931   3.460   0.389  12.831  0.0266 -0.4674  0.6699
   60MPD2    C2  932   3.512   0.502  12.892  0.2726 -0.4177  0.2158
   60MPD2    C3  933   3.641   0.497  12.943  0.0743  0.7569 -0.5206
   60MPD2    C4  934   3.710   0.374  12.933 -0.0014 -0.5230  0.1997
   60MPD2    C5  935   3.657   0.267  12.873 -0.6912 -0.4612 -0.4425
   60MPD2     H  936   3.450   0.591  12.893  1.4508  0.3941  1.3526
   60MPD2    H1  937   3.810   0.374  12.976  0.3603 -0.0618 -0.6335
   60MPD2    H2  938   3.510   0.182  12.766  2.5670 -0.1413 -0.4245
   60MPD2    H3  939   3.713   0.175  12.865 -1.3942 -0.9191 -0.0601
   60MPD2     N  940   3.709   0.610  13.001 -0.3866  0.0793  0.2901
   60MPD2    H5  941   3.804   0.606  13.038 -0.9411  1.0974  1.8310
   60MPD2    N1  942   3.335   0.404  12.773 -0.0002 -0.2057 -0.3495
   60MPD2    H7  943   3.299   0.498  12.757 -0.1726  0.0507  1.6291
   61TMC2    C1  944   2.353   1.593  15.706  0.1801  0.2327 -0.1646
   61TMC2    C2  945   2.398   1.559  15.830 -0.0972 -0.1879 -0.2915
   61TMC2    C3  946   2.342   1.635  15.932  0.7427  0.0311 -0.3868
   61TMC2    C4  947   2.259   1.682  15.681 -0.4442  0.7678  0.1381
   61TMC2    C5  948   2.204   1.758  15.783  0.5898  0.3926 -0.1972
   61TMC2    C6  949   2.241   1.730  15.909 -0.3728 -0.5138  0.1969
   61TMC2     C  950   2.391   1.495  15.606 -0.4642  0.0035 -0.0660
   61TMC2     O  951   2.416   1.382  15.635 -0.8546  0.2430 -0.1409
   61TMC2     H  952   2.456   1.468  15.845  2.0069  0.8778 -1.9523
   61TMC2    H1  953   2.236   1.715  15.580 -0.2784  0.1717 -0.0937
   61TMC2    H2  954   2.195   1.775  15.997  2.0432  1.6564  0.3613
   61TMC2    C7  955   2.154   1.887  15.739 -0.1889  0.2467 -0.0243
   61TMC2    C8  956   2.369   1.613  16.069 -0.3012  0.4302  0.0629
   61TMC2    O1  957   2.133   1.905  15.622  0.0055  0.0729 -0.3914
   61TMC2    O2  958   2.285   1.619  16.157  0.5815 -0.0034  0.6869
   61TMC2    O5  959   2.480   1.542  16.076 -0.0882  0.2239 -0.2893
   61TMC2    H5  960   2.544   1.560  16.004 -0.2945 -3.9780 -1.5179
   62MPD2     C  961   2.512   1.367  15.359  0.0614  0.2010 -0.0547
   62MPD2    C1  962   2.488   1.504  15.375 -0.1781  0.1161 -0.4156
   62MPD2    C2  963   2.517   1.596  15.280 -0.1953 -0.3572 -0.7439
   62MPD2    C3  964   2.570   1.558  15.162 -0.2530  0.1677 -0.7884
   62MPD2    C4  965   2.592   1.417  15.144  0.1076 -0.8267  0.2383
   62MPD2    C5  966   2.571   1.322  15.240  0.3663 -0.4069  0.0129
   62MPD2     H  967   2.506   1.702  15.301 -3.4929 -0.3629 -2.5682
   62MPD2    H1  968   2.618   1.379  15.046  2.3478  0.8414  0.1886
   62MPD2    H2  969   2.496   1.294  15.437  0.3531  0.8424  0.6047
   62MPD2    H3  970   2.599   1.220  15.216 -0.0851 -0.6345  0.4517
   62MPD2     N  971   2.590   1.652  15.059  0.4827  0.2325  0.5277
   62MPD2    H5  972   2.540   1.739  15.068 -0.4411 -0.2148 -0.2346
   62MPD2    N1  973   2.436   1.558  15.491  0.1516  0.1167 -0.3627
   62MPD2    H7  974   2.407   1.655  15.487 -1.2802 -0.2227  1.5716
   63TMC2    C1  975   1.671   1.860  10.625 -0.2265  0.3896  0.6584
   63TMC2    C2  976   1.786   1.803  10.671 -0.3607 -0.0892  0.3321
   63TMC2    C3  977   1.896   1.883  10.666 -0.1033  0.6534  0.3285
   63TMC2    C4  978   1.664   1.992  10.593 -0.3809  0.3436  0.6444
   63TMC2    C5  979   1.779   2.063  10.578  0.4039 -0.3731  0.3051
   63TMC2    C6  980   1.900   2.014  10.623 -0.2808  0.2691  0.5823
   63TMC2     C  981   1.558   1.773  10.593  0.6319  0.4302 -0.5870
   63TMC2     O  982   1.462   1.820  10.541 -0.2149  0.1613  0.2499
   63TMC2     H  983   1.791   1.706  10.719 -1.2884  0.5622  1.7298
   63TMC2    H1  984   1.572   2.040  10.563  0.6601  1.0415 -1.3941
   63TMC2    H2  985   1.990   2.064  10.588 -0.8690 -0.7900 -2.4095
   63TMC2    C7  986   1.763   2.199  10.525 -0.3968  1.9707  0.2301
   63TMC2    C8  987   2.018   1.837  10.714 -0.2036 -0.7631  0.2273
   63TMC2    O1  988   1.662   2.211  10.452  0.0075 -0.1795 -0.0051
   63TMC2    O2  989   2.111   1.911  10.708 -0.6246  0.0090  0.5225
   63TMC2    O5  990   2.018   1.705  10.673 -1.0556 -0.1931  0.0935
   63TMC2    H5  991   2.109   1.670  10.675 -0.9180  0.1779  0.3453
   64MPD2     C  992   1.357   1.307  10.562 -0.0739 -0.3379 -0.3606
   64MPD2    C1  993   1.431   1.315  10.671  0.4172  0.4013  0.0513
   64MPD2    C2  994   1.508   1.424  10.698  0.4824  0.6084  0.5650
   64MPD2    C3  995   1.494   1.537  10.618  0.4040 -1.0001  0.1196
   64MPD2    C4  996   1.403   1.533  10.510 -0.4144 -0.7309  0.0175
   64MPD2    C5  997   1.341   1.415  10.482  0.2007 -0.5182 -0.3137
   64MPD2     H  998   1.563   1.425  10.791 -0.6315 -2.6343  1.2465
   64MPD2    H1  999   1.394   1.613  10.437 -1.9035 -1.1231 -0.2294
   64MPD2    H2 1000   1.310   1.217  10.524 -0.8587  0.2878 -0.8774
   64MPD2    H3 1001   1.270   1.411  10.399  0.4197  0.3800 -0.5390
   64MPD2     N 1002   1.575   1.648  10.645 -0.7855  0.5548  0.3826
   64MPD2    H5 1003   1.646   1.634  10.716  0.5832  1.0663 -0.8698
   64MPD2    N1 1004   1.449   1.203  10.748  0.6151 -0.6669 -0.4937
   64MPD2    H7 1005   1.512   1.209  10.827  1.8074 -0.2478 -1.4822
   65TMC2    C1 1006   2.877   1.574  15.391 -0.2545  0.1219  0.6172
   65TMC2    C2 1007   2.930   1.538  15.271  0.1901  0.2144  0.0045
   65TMC2    C3 1008   2.948   1.630  15.172  0.0112  0.2048 -0.0136
   65TMC2    C4 1009   2.841   1.697  15.416  0.1045  0.0510  0.0549
   65TMC2    C5 1010   2.860   1.793  15.319 -0.1978  0.0561  0.0307
   65TMC2    C6 1011   2.922   1.764  15.201  0.1754  0.0407  0.9779
   65TMC2     C 1012   2.832   1.472  15.487  0.2266  0.0538  0.1561
   65TMC2     O 1013   2.787   1.513  15.592 -0.1508  0.7199 -0.1452
   65TMC2     H 1014   2.965   1.439  15.245  1.2883  0.6783 -0.3065
   65TMC2    H1 1015   2.790   1.726  15.507 -0.1352 -0.1844 -0.0055
   65TMC2    H2 1016   2.936   1.845  15.130  1.3731 -0.8860  0.1575
   65TMC2    C7 1017   2.813   1.931  15.341  0.8830  0.3250  0.2012
   65TMC2    C8 1018   3.048   1.597  15.080 -0.0073  0.8055  0.0406
   65TMC2    O1 1019   2.784   1.992  15.240 -0.4891  0.0994 -0.6521
   65TMC2    O2 1020   3.158   1.557  15.126  0.0254  0.2876  0.0171
   65TMC2    O5 1021   2.987   1.538  14.981 -0.9825  0.3869  0.0739
   65TMC2    H5 1022   2.892   1.558  14.968 -0.9753 -0.2146 -0.9430
   66MPD2     C 1023   2.812   1.230  15.668 -0.1323 -0.2543 -0.2974
   66MPD2    C1 1024   2.848   1.225  15.536 -0.4072 -0.1228 -0.1454
   66MPD2    C2 1025   2.881   1.107  15.471 -0.0789  0.0882 -0.5765
   66MPD2    C3 1026   2.877   0.989  15.537  0.5196 -0.7041 -0.6700
   66MPD2    C4 1027   2.849   0.997  15.680 -0.6378  0.3285 -0.2588
   66MPD2    C5 1028   2.816   1.119  15.735  0.2983  0.3712  0.3691
   66MPD2     H 1029   2.920   1.106  15.369 -0.4076 -2.7879 -0.6564
   66MPD2    H1 1030   2.868   0.911  15.744 -0.8264  0.0746 -0.5468
   66MPD2    H2 1031   2.788   1.320  15.724  0.3727 -0.1124 -0.3049
   66MPD2    H3 1032   2.783   1.111  15.838  5.0528 -1.7080  1.7244
   66MPD2     N 1033   2.931   0.865  15.482  0.2544  0.5629 -0.5562
   66MPD2    H5 1034   2.922   0.780  15.536  3.0243 -0.0491 -1.0533
   66MPD2    N1 1035   2.866   1.342  15.455  0.2079  0.4285 -0.4499
   66MPD2    H7 1036   2.910   1.321  15.365 -0.7412  2.8013 -1.4589
   67TMC2    C1 1037   3.400   0.994  14.418 -0.3648  0.3850  0.2335
   67TMC2    C2 1038   3.337   1.110  14.413 -0.0696 -0.5645  0.3251
   67TMC2    C3 1039   3.352   1.208  14.507 -0.0812 -0.5749  0.8139
   67TMC2    C4 1040   3.495   0.978  14.515 -0.5597  0.1973 -0.7974
   67TMC2    C5 1041   3.504   1.074  14.614  0.1833  0.1162  0.6843
   67TMC2    C6 1042   3.426   1.182  14.617 -0.0209  0.1045 -0.1943
   67TMC2     C 1043   3.333   0.877  14.363 -0.0674  0.4068  1.0799
   67TMC2     O 1044   3.406   0.781  14.343 -0.1097  1.4527  0.9159
   67TMC2     H 1045   3.270   1.126  14.329  0.2806 -0.6290  0.0324
   67TMC2    H1 1046   3.537   0.879  14.526 -1.1622 -0.2840 -2.7814
   67TMC2    H2 1047   3.430   1.252  14.699  0.3358  1.5147 -1.4238
   67TMC2    C7 1048   3.578   1.020  14.733  0.7414 -0.1085  0.7889
   67TMC2    C8 1049   3.296   1.335  14.493 -0.2338 -0.2664 -0.0156
   67TMC2    O1 1050   3.632   0.909  14.719 -0.2360 -0.2624  0.0585
   67TMC2    O2 1051   3.195   1.362  14.560 -0.0604 -0.2978  0.0464
   67TMC2    O5 1052   3.340   1.368  14.368  0.3579 -0.4836  0.1752
   67TMC2    H5 1053   3.420   1.325  14.331  0.3659 -0.5544  0.2774
   68MPD2     C 1054   3.174   0.687  14.175  0.1869 -0.4895 -0.5243
   68MPD2    C1 1055   3.123   0.799  14.243 -0.1975 -1.0160  0.1382
   68MPD2    C2 1056   2.994   0.840  14.223  0.4181  0.2791 -0.3564
   68MPD2    C3 1057   2.918   0.768  14.129  0.1593  1.2451 -0.0228
   68MPD2    C4 1058   2.963   0.651  14.062 -1.5589 -0.3001 -0.2029
   68MPD2    C5 1059   3.096   0.615  14.085 -0.4409 -0.4001 -0.0880
   68MPD2     H 1060   2.950   0.924  14.274 -0.9464 -1.1377  0.7858
   68MPD2    H1 1061   2.905   0.591  13.993 -0.3647  0.8066 -2.1581
   68MPD2    H2 1062   3.280   0.667  14.186  0.3051 -0.0033 -0.7742
   68MPD2    H3 1063   3.136   0.528  14.034  3.5529  0.3378  1.7690
   68MPD2     N 1064   2.788   0.810  14.095 -0.2171  0.0711 -1.0907
   68MPD2    H5 1065   2.741   0.766  14.017 -0.9459  0.7982 -1.0572
   68MPD2    N1 1066   3.198   0.888  14.324  0.3483 -0.2992  0.4782
   68MPD2    H7 1067   3.144   0.962  14.369  0.1888 -0.7539  1.0265
   69TMC2    C1 1068   1.198   1.526  12.570  0.0358  0.5242  0.4865
   69TMC2    C2 1069   1.308   1.510  12.642  0.6176  0.4481  0.2802
   69TMC2    C3 1070   1.425   1.488  12.570 -0.1149 -0.7546 -0.5862
   69TMC2    C4 1071   1.198   1.518  12.428 -0.6412 -0.7879  0.1662
   69TMC2    C5 1072   1.321   1.501  12.363 -0.0823  0.0505 -0.2484
   69TMC2    C6 1073   1.433   1.487  12.434  0.1732  0.0373  0.4632
   69TMC2     C 1074   1.077   1.494  12.639 -0.4513 -0.2465  0.5954
   69TMC2     O 1075   1.096   1.434  12.745 -0.2690  0.0613 -0.0120
   69TMC2     H 1076   1.310   1.513  12.750  4.1055  0.7167  0.1944
   69TMC2    H1 1077   1.100   1.522  12.384 -1.4276 -0.3290  1.9683
   69TMC2    H2 1078   1.519   1.455  12.375 -0.7083 -2.8673  0.7703
   69TMC2    C7 1079   1.340   1.481  12.221  0.2736 -0.0141  0.5892
   69TMC2    C8 1080   1.544   1.475  12.639  0.0645 -0.1614 -0.0983
   69TMC2    O1 1081   1.444   1.523  12.171 -0.1393  0.0916  0.2264
   69TMC2    O2 1082   1.554   1.428  12.748  0.1520 -0.2252 -0.4866
   69TMC2    O5 1083   1.647   1.521  12.566  0.2114 -0.7327 -0.0920
   69TMC2    H5 1084   1.602   1.590  12.511 -0.5627 -1.4825 -0.4023
   70MPD2     C 1085   0.728   1.513  12.530  0.5990  0.2497 -0.3587
   70MPD2    C1 1086   0.833   1.470  12.610  0.8744 -0.1042  0.5773
   70MPD2    C2 1087   0.803   1.374  12.708  0.4498  0.1218  0.0892
   70MPD2    C3 1088   0.668   1.324  12.726 -0.1383  0.0062 -0.2346
   70MPD2    C4 1089   0.571   1.370  12.636  0.3529 -0.9206  0.3725
   70MPD2    C5 1090   0.603   1.461  12.549  0.1787  0.2763 -0.6627
   70MPD2     H 1091   0.877   1.338  12.779  1.6969  1.5434 -0.4932
   70MPD2    H1 1092   0.470   1.329  12.639 -0.0535 -0.1269 -2.5027
   70MPD2    H2 1093   0.742   1.590  12.455  1.8720  1.1441  0.7727
   70MPD2    H3 1094   0.525   1.511  12.492  0.3760 -0.2285 -1.3801
   70MPD2     N 1095   0.631   1.219  12.814 -0.4792 -0.3364 -0.0480
   70MPD2    H5 1096   0.543   1.175  12.789  0.4412 -1.8285 -0.6841
   70MPD2    N1 1097   0.960   1.533  12.580  0.4024 -0.1721 -0.5494
   70MPD2    H7 1098   0.966   1.589  12.496  0.2048  0.8060  0.0841
   71TMC2    C1 1099   2.776   2.498   1.615  0.1900  0.5775 -0.1665
   71TMC2    C2 1100   2.894   2.554   1.656  0.3017 -0.0783 -0.1162
   71TMC2    C3 1101   2.885   2.663   1.738 -0.2535  0.1167 -0.4391
   71TMC2    C4 1102   2.656   2.556   1.638 -0.5483  0.8780  0.6742
   71TMC2    C5 1103   2.659   2.670   1.726 -0.1607  0.6152 -0.1135
   71TMC2    C6 1104   2.773   2.720   1.779 -0.6186  0.3514  0.0124
   71TMC2     C 1105   2.776   2.404   1.507 -1.3194  0.5492 -0.3230
   71TMC2     O 1106   2.690   2.397   1.422  0.5371  0.2800  0.0710
   71TMC2     H 1107   2.983   2.503   1.622  2.1451  2.4957  0.8668
   71TMC2    H1 1108   2.568   2.511   1.593 -0.7643  3.0628 -1.0774
   71TMC2    H2 1109   2.781   2.807   1.843  1.0036 -0.0615  0.3688
   71TMC2    C7 1110   2.533   2.733   1.770 -0.1596 -0.6625  0.0840
   71TMC2    C8 1111   3.000   2.701   1.806 -0.8144  0.7188  0.2286
   71TMC2    O1 1112   2.554   2.831   1.834  0.7085  0.2766 -0.0250
   71TMC2    O2 1113   3.025   2.811   1.845  0.0492  0.4964 -0.7985
   71TMC2    O5 1114   3.090   2.600   1.819  0.4962  0.0042 -0.2622
   71TMC2    H5 1115   3.059   2.522   1.768  0.6587  0.2434 -0.7312
   72MPD2     C 1116   3.036   2.029   1.277 -0.5848  0.2988  0.3550
   72MPD2    C1 1117   2.922   2.090   1.241 -0.2965  0.0585  0.4933
   72MPD2    C2 1118   2.877   2.198   1.313 -0.0838 -0.0321 -0.0291
   72MPD2    C3 1119   2.934   2.235   1.438  0.4331 -0.7551 -0.3975
   72MPD2    C4 1120   3.040   2.160   1.478  0.1894 -0.3011  0.4570
   72MPD2    C5 1121   3.082   2.052   1.400  0.5592  0.3651  0.5572
   72MPD2     H 1122   2.796   2.256   1.269 -0.7040 -1.0415 -0.2307
   72MPD2    H1 1123   3.090   2.170   1.573 -2.1233 -0.5396  1.7129
   72MPD2    H2 1124   3.085   1.962   1.207  0.7926  1.4057  0.2681
   72MPD2    H3 1125   3.165   1.991   1.434 -0.4176 -1.5017 -0.4316
   72MPD2     N 1126   2.883   2.322   1.530 -1.0050 -0.2965 -0.0037
   72MPD2    H5 1127   2.943   2.335   1.611 -1.2928  0.0622  0.1499
   72MPD2    N1 1128   2.854   2.077   1.119  0.2538  0.1366 -0.1624
   72MPD2    H7 1129   2.768   2.130   1.107 -0.1161 -0.5967 -0.7665
   73TMC2    C1 1130   2.333   4.490  14.100 -0.1786  0.1524  0.2077
   73TMC2    C2 1131   2.224   4.539  14.168 -0.9396  0.2885  0.3684
   73TMC2    C3 1132   2.229   4.538  14.305  0.1139 -0.1136 -1.1177
   73TMC2    C4 1133   2.438   4.441  14.173  0.2152 -0.0244  0.2619
   73TMC2    C5 1134   2.440   4.453  14.310  0.6483  0.3725 -0.0007
   73TMC2    C6 1135   2.342   4.511  14.375 -0.3080 -0.6122 -0.7009
   73TMC2     C 1136   2.377   4.580  13.996 -0.0785  0.7780 -0.1315
   73TMC2     O 1137   2.498   4.579  13.979  0.4861  0.6091 -0.0193
   73TMC2     H 1138   2.137   4.591  14.130 -1.6411 -2.5333 -1.9089
   73TMC2    H1 1139   2.515   4.384  14.122 -0.0797  0.5894 -0.8737
   73TMC2    H2 1140   2.353   4.520  14.482  0.1248  2.5452 -1.0129
   73TMC2    C7 1141   2.577   4.480  14.359 -0.0339 -0.2647 -0.3743
   73TMC2    C8 1142   2.146   4.629  14.374  0.3417 -0.8149  0.3551
   73TMC2    O1 1143   2.607   4.453  14.475  0.0077 -0.3361  0.5681
   73TMC2    O2 1144   2.094   4.720  14.317  0.2284  0.4190 -0.1443
   73TMC2    O5 1145   2.106   4.568  14.486 -0.5009  0.0977  0.5384
   73TMC2    H5 1146   2.141   4.477  14.474  0.9262  0.8466 -0.9255
   74MPD2     C 1147   2.320   0.209  13.652 -0.5180  0.2598  0.2288
   74MPD2    C1 1148   2.428   0.157  13.717 -0.1510 -0.0630  0.1272
   74MPD2    C2 1149   2.420   0.050  13.804 -0.4569 -0.2007 -0.6990
   74MPD2    C3 1150   2.296   4.723  13.819  0.0498 -0.3548 -0.4114
   74MPD2    C4 1151   2.186   0.032  13.748 -0.4268  0.2821  0.3140
   74MPD2    C5 1152   2.199   0.137  13.656  0.1097 -0.3470  0.2189
   74MPD2     H 1153   2.501   0.029  13.873  0.2651 -0.4757 -1.6454
   74MPD2    H1 1154   2.090   4.719  13.756  0.5515 -1.6240  0.6282
   74MPD2    H2 1155   2.331   0.287  13.578  1.0400  1.0777  1.3379
   74MPD2    H3 1156   2.112   0.158  13.594  0.8787  1.2366 -0.3144
   74MPD2     N 1157   2.272   4.635  13.927  0.4339  0.0993 -0.5429
   74MPD2    H5 1158   2.178   4.597  13.942 -0.0441  1.3402 -0.4184
   74MPD2    N1 1159   2.550   0.224  13.687 -0.2826 -0.6776 -0.0821
   74MPD2    H7 1160   2.545   0.304  13.625 -1.9085  0.5555  1.6390
   75TMC2    C1 1161   2.583   0.906  14.100  0.0228 -0.0003  0.1447
   75TMC2    C2 1162   2.475   0.929  14.175  0.4271  0.0686  0.3123
   75TMC2    C3 1163   2.354   0.973  14.123 -0.4721 -0.0614 -0.1476
   75TMC2    C4 1164   2.573   0.926  13.962 -0.0092  0.3180  0.6716
   75TMC2    C5 1165   2.456   0.964  13.909 -0.1871 -0.3627  0.0206
   75TMC2    C6 1166   2.348   0.997  13.989  0.2899  0.0762 -0.1632
   75TMC2     C 1167   2.709   0.883  14.173 -0.0084  0.3131  0.1943
   75TMC2     O 1168   2.707   0.885  14.297  0.1809  0.4233  0.1197
   75TMC2     H 1169   2.479   0.908  14.282 -1.4450  1.0894  0.5789
   75TMC2    H1 1170   2.655   0.895  13.899 -1.7997 -0.9747 -1.0343
   75TMC2    H2 1171   2.259   1.037  13.942  0.1321 -0.2066 -0.1064
   75TMC2    C7 1172   2.463   0.988  13.763  0.5220 -1.1175 -0.2533
   75TMC2    C8 1173   2.240   0.946  14.201 -0.0703  0.6142 -0.6926
   75TMC2    O1 1174   2.564   0.958  13.700  0.3875  0.1862  0.5319
   75TMC2    O2 1175   2.260   0.880  14.303  0.1194  0.2122 -0.5852
   75TMC2    O5 1176   2.149   0.910  14.101 -0.2283 -0.2686 -0.6505
   75TMC2    H5 1177   2.130   0.988  14.045  1.3424  0.3449 -0.3120
   76TMC2    C1 1178   2.151   0.698  11.913 -0.0593 -0.1043  0.7367
   76TMC2    C2 1179   2.093   0.581  11.898 -0.2352 -0.3020 -0.2388
   76TMC2    C3 1180   2.110   0.486  11.989 -0.0460  0.3434 -0.1974
   76TMC2    C4 1181   2.211   0.731  12.035 -0.2373 -0.6675  0.0236
   76TMC2    C5 1182   2.234   0.632  12.126 -0.2225  0.7595 -0.1318
   76TMC2    C6 1183   2.182   0.509  12.107  0.1053  0.5112 -0.6392
   76TMC2     C 1184   2.100   0.801  11.822 -0.2820 -0.4935 -0.0492
   76TMC2     O 1185   1.996   0.777  11.759  0.1027  0.3087  0.0115
   76TMC2     H 1186   2.055   0.552  11.801  1.1693 -1.1432 -0.5374
   76TMC2    H1 1187   2.224   0.835  12.064 -3.1336  0.6650 -3.3853
   76TMC2    H2 1188   2.199   0.428  12.177 -1.5095  0.5758 -0.1799
   76TMC2    C7 1189   2.224   0.672  12.257  0.0956  0.3381  0.3372
   76TMC2    C8 1190   2.128   0.356  11.924  0.0412 -0.2362 -0.4994
   76TMC2    O1 1191   2.137   0.618  12.329 -0.1610 -0.4574  0.0844
   76TMC2    O2 1192   2.198   0.347  11.828 -0.6560 -0.4008 -0.0508
   76TMC2    O5 1193   2.110   0.263  12.016 -0.9977 -0.1608 -0.7200
   76TMC2    H5 1194   2.049   0.297  12.085 -2.5376  1.3500 -2.8047
   77MPD2     C 1195   2.164   1.201  11.513  0.1351 -0.1430 -0.1042
   77MPD2    C1 1196   2.048   1.144  11.571  0.4481 -0.3592  0.4525
   77MPD2    C2 1197   2.064   1.041  11.668 -0.0556 -0.3892 -0.1718
   77MPD2    C3 1198   2.188   0.985  11.696 -0.9450  0.4630  0.1297
   77MPD2    C4 1199   2.305   1.036  11.633  0.3076  0.7772  0.2773
   77MPD2    C5 1200   2.288   1.145  11.552  0.0728  0.5036 -0.1546
   77MPD2     H 1201   1.985   1.012  11.736  0.8114  0.1963  1.0861
   77MPD2    H1 1202   2.406   1.002  11.652 -0.7696 -1.6121  1.8206
   77MPD2    H2 1203   2.168   1.278  11.437  0.7155  0.4726  0.5390
   77MPD2    H3 1204   2.382   1.175  11.507  1.1468 -0.1270  1.6841
   77MPD2     N 1205   2.202   0.892  11.801 -0.1714 -0.2338  0.1580
   77MPD2    H5 1206   2.296   0.883  11.837  1.3218 -0.4231 -3.7687
   77MPD2    N1 1207   1.922   1.207  11.555 -1.1260  0.3006 -0.0737
   77MPD2    H7 1208   1.852   1.176  11.622 -1.2791 -0.4262 -0.5835
   78TMC2    C1 1209   2.738   1.768   1.785 -0.5524  0.0409  0.2303
   78TMC2    C2 1210   2.654   1.877   1.763 -0.7022  0.8137  0.0898
   78TMC2    C3 1211   2.715   2.001   1.778  0.3263 -0.5612  0.0366
   78TMC2    C4 1212   2.873   1.782   1.814  0.0683 -0.2587  0.4818
   78TMC2    C5 1213   2.928   1.906   1.818  0.6496  0.2580 -0.0490
   78TMC2    C6 1214   2.849   2.019   1.793  0.1263  0.6317 -0.6498
   78TMC2     C 1215   2.674   1.645   1.776  0.1141 -0.2873 -0.1815
   78TMC2     O 1216   2.554   1.649   1.752 -0.0740  0.2788 -0.7486
   78TMC2     H 1217   2.549   1.868   1.738 -0.6018  2.5653 -0.9563
   78TMC2    H1 1218   2.933   1.692   1.813 -1.6962 -1.3719 -2.3966
   78TMC2    H2 1219   2.888   2.119   1.804  0.5414  0.1551  2.2358
   78TMC2    C7 1220   3.075   1.923   1.800  0.2585 -0.2942 -0.2040
   78TMC2    C8 1221   2.635   2.121   1.790 -0.2129 -0.3684  0.0926
   78TMC2    O1 1222   3.111   2.034   1.764 -0.1500 -0.1814 -0.2980
   78TMC2    O2 1223   2.676   2.234   1.766 -0.1980  0.0628  0.2381
   78TMC2    O5 1224   2.504   2.096   1.795 -0.0461  0.1104 -0.0563
   78TMC2    H5 1225   2.468   2.012   1.830 -0.5176  0.0247 -0.7713
   79MPD1     C 1226   2.617   1.142   1.873 -0.0400 -0.0417  0.1169
   79MPD1    C1 1227   2.519   1.239   1.844  0.7338 -0.4051  0.6582
   79MPD1    C2 1228   2.561   1.367   1.821 -0.1194  0.1814 -0.5721
   79MPD1    C3 1229   2.692   1.410   1.842  0.3869  0.6559 -0.0796
   79MPD1    C4 1230   2.785   1.307   1.869 -0.0414  0.5994  0.4558
   79MPD1    C5 1231   2.744   1.179   1.876  0.0810 -0.2577 -0.1586
   79MPD1     H 1232   2.483   1.436   1.790 -1.6153 -0.6143  1.4343
   79MPD1    H1 1233   2.891   1.327   1.885 -0.4043  1.3851  1.8290
   79MPD1    H2 1234   2.604   1.035   1.882  1.7787  0.1926  5.3612
   79MPD1    H3 1235   2.817   1.098   1.874 -0.8756 -1.1134 -0.4218
   79MPD1     N 1236   2.748   1.534   1.818 -0.4230  0.1198 -0.6645
   79MPD1    H5 1237   2.849   1.539   1.829 -0.6689  1.4754  0.9286
   79MPD1    N1 1238   2.383   1.201   1.819  0.3117  0.2448  0.5161
   79MPD1    H6 1239   2.314   1.267   1.854  0.4850 -0.0485  1.4156
   79MPD1    H7 1240   2.362   1.111   1.860 -0.5175  1.6110  3.0935
   80TMC2    C1 1241   0.064   0.716  11.939  0.3164  0.3245  0.3107
   80TMC2    C2 1242   0.010   0.828  11.880 -0.7438  1.0381  0.1274
   80TMC2    C3 1243   4.618   0.867  11.920 -0.4854  0.7101 -0.6111
   80TMC2    C4 1244   4.726   0.646  12.028  0.5783 -0.2163 -0.0777
   80TMC2    C5 1245   4.599   0.691  12.068  0.0482  0.4546 -0.0137
   80TMC2    C6 1246   4.547   0.801  12.009  0.4617 -0.7031  0.3988
   80TMC2     C 1247   0.206   0.683  11.908 -0.1375  0.8075 -0.6214
   80TMC2     O 1248   0.235   0.564  11.925 -0.2586 -0.3122 -0.2137
   80TMC2     H 1249   0.063   0.888  11.807 -0.9893  0.8408 -0.2102
   80TMC2    H1 1250   0.026   0.545  12.046  1.2310  0.0654  0.2061
   80TMC2    H2 1251   4.449   0.838  12.038  0.3530 -0.0915 -0.7560
   80TMC2    C7 1252   4.568   0.658  12.203  0.2173 -0.7576 -0.2495
   80TMC2    C8 1253   4.570   0.994  11.885  0.4264  0.5239  0.3984
   80TMC2    O1 1254   4.452   0.669  12.247  0.1788  0.6964 -0.2421
   80TMC2    O2 1255   4.498   1.059  11.961  0.5427 -0.3952  0.0820
   80TMC2    O5 1256   4.591   1.018  11.751  0.1833  0.4505  0.2158
   80TMC2    H5 1257   4.650   0.949  11.713 -0.5358 -1.0587  1.8787
   81MPD2     C 1258   0.477   0.664  11.803 -0.1935 -0.2541 -0.1986
   81MPD2    C1 1259   0.422   0.783  11.841 -0.2154  0.3981 -0.8098
   81MPD2    C2 1260   0.493   0.900  11.844 -0.5788 -0.2637 -0.7350
   81MPD2    C3 1261   0.622   0.900  11.806 -0.1975  0.1870  0.0079
   81MPD2    C4 1262   0.683   0.782  11.773 -0.3636 -0.2820  0.1935
   81MPD2    C5 1263   0.608   0.663  11.773  0.1232 -0.3165 -0.2987
   81MPD2     H 1264   0.439   0.989  11.873  0.4413 -0.4588  1.7543
   81MPD2    H1 1265   0.790   0.775  11.753 -0.1127 -0.1243  1.4619
   81MPD2    H2 1266   0.422   0.570  11.800 -1.5147  0.4615  1.4218
   81MPD2    H3 1267   0.658   0.569  11.752 -0.9182 -1.5467  2.8008
   81MPD2     N 1268   0.707   1.013  11.834 -0.0999 -0.5664 -0.2629
   81MPD2    H5 1269   0.806   0.993  11.830  0.0800  0.6527 -1.8794
   81MPD2    N1 1270   0.283   0.790  11.870  0.4893 -0.1211 -0.0184
   81MPD2    H7 1271   0.243   0.881  11.891  0.3046 -0.2418  0.1524
   82TMC2    C1 1272   3.407   0.293  10.969  0.0078  0.2071  0.2427
   82TMC2    C2 1273   3.524   0.349  11.009 -0.0528 -0.3491 -0.3004
   82TMC2    C3 1274   3.588   0.293  11.124  0.1822  0.2241  0.0997
   82TMC2    C4 1275   3.364   0.180  11.022  0.7523 -0.1038 -0.3546
   82TMC2    C5 1276   3.419   0.133  11.140 -0.0569 -0.0660 -0.4091
   82TMC2    C6 1277   3.539   0.182  11.191 -0.6052  0.4493  0.6130
   82TMC2     C 1278   3.337   0.345  10.849 -0.4648  0.0227 -0.3787
   82TMC2     O 1279   3.218   0.324  10.842  0.1417  0.3639  0.4177
   82TMC2     H 1280   3.563   0.441  10.967  0.3600  0.4954  1.8987
   82TMC2    H1 1281   3.266   0.147  10.990  0.3427  0.4962  0.2747
   82TMC2    H2 1282   3.578   0.131  11.278 -0.1932 -1.5816 -0.7630
   82TMC2    C7 1283   3.351   0.029  11.213  0.2280  0.2558 -0.8990
   82TMC2    C8 1284   3.682   0.379  11.189 -0.0613 -0.4336 -0.6783
   82TMC2    O1 1285   3.376   0.019  11.331 -0.4227  0.3082 -0.2861
   82TMC2    O2 1286   3.786   0.339  11.236 -0.2000 -0.8656 -0.3254
   82TMC2    O5 1287   3.606   0.481  11.228  0.5172  0.1644 -0.6360
   82TMC2    H5 1288   3.526   0.499  11.174  0.4416 -0.9337 -0.8954
   83MPD2     C 1289   3.341   0.612  10.409  0.8002 -0.1295 -0.3331
   83MPD2    C1 1290   3.238   0.543  10.469 -0.0741  0.1369 -0.1668
   83MPD2    C2 1291   3.260   0.464  10.582 -0.0755  0.0722 -0.7534
   83MPD2    C3 1292   3.393   0.459  10.637 -0.7626 -0.8426  0.2262
   83MPD2    C4 1293   3.496   0.524  10.577  0.1357 -0.1630 -0.6086
   83MPD2    C5 1294   3.466   0.604  10.470 -0.9230  0.6998  0.3796
   83MPD2     H 1295   3.182   0.418  10.642 -0.3747 -1.0824 -2.0315
   83MPD2    H1 1296   3.597   0.519  10.616  0.8605  1.5782 -2.2496
   83MPD2    H2 1297   3.325   0.663  10.315 -1.3728  1.8348  1.1185
   83MPD2    H3 1298   3.551   0.646  10.418 -1.0201 -0.2380 -0.5423
   83MPD2     N 1299   3.426   0.399  10.757 -0.2061  0.3018 -0.6472
   83MPD2    H5 1300   3.523   0.404  10.784  0.2900 -2.0766 -1.9804
   83MPD2    N1 1301   3.105   0.561  10.411 -0.7879 -0.1608  0.3040
   83MPD2    H7 1302   3.092   0.593  10.315 -1.7071 -1.0244  0.1357
   84TMC2    C1 1303   0.297   4.523  10.871  0.8608  0.6806 -0.3445
   84TMC2    C2 1304   0.352   4.617  10.792 -0.2260 -0.3826 -0.6347
   84TMC2    C3 1305   0.350   4.603  10.652 -0.4421 -0.5607 -0.3498
   84TMC2    C4 1306   0.243   4.406  10.821 -1.2953 -0.2697 -0.4225
   84TMC2    C5 1307   0.225   4.402  10.683  0.1164 -0.1249  0.9443
   84TMC2    C6 1308   0.270   4.500  10.598 -0.1084  0.2220  0.5643
   84TMC2     C 1309   0.243   4.574  10.995 -0.4958  0.0540  0.0267
   84TMC2     O 1310   0.215   4.691  10.992 -0.3020 -0.2792  0.1983
   84TMC2     H 1311   0.381   4.712  10.833  1.4329 -0.8346 -0.7622
   84TMC2    H1 1312   0.200   4.325  10.879 -0.5926  0.5949  1.3134
   84TMC2    H2 1313   0.254   4.500  10.491 -1.3395  1.9037  0.7414
   84TMC2    C7 1314   0.147   4.292  10.636  0.0261 -1.2869 -0.6472
   84TMC2    C8 1315   0.428   4.691  10.577 -0.2773 -0.8631 -0.6570
   84TMC2    O1 1316   0.119   4.204  10.718  0.8843  0.2540 -0.3163
   84TMC2    O2 1317   0.403   4.697  10.458 -0.1768 -0.0647 -0.0639
   84TMC2    O5 1318   0.550   4.698  10.638 -0.1933 -0.2621 -0.1224
   84TMC2    H5 1319   0.558   4.646  10.721  0.7041 -1.1709 -0.7690
   85TMC2    C1 1320   0.547   2.710  16.056 -0.0736 -0.2360 -0.0099
   85TMC2    C2 1321   0.424   2.753  16.103 -0.2097 -0.0355 -0.0836
   85TMC2    C3 1322   0.383   2.879  16.075  0.5011 -0.3939  0.0222
   85TMC2    C4 1323   0.628   2.794  15.990 -0.5047 -0.3746 -0.1586
   85TMC2    C5 1324   0.586   2.916  15.967  0.5339 -0.3995 -0.4540
   85TMC2    C6 1325   0.457   2.963  16.001 -0.7693  0.4734 -0.3694
   85TMC2     C 1326   0.600   2.580  16.092 -0.1938 -0.2712 -0.3596
   85TMC2     O 1327   0.723   2.572  16.102 -0.1908  0.5939  0.2633
   85TMC2     H 1328   0.358   2.677  16.143 -0.8114  0.6315  0.1988
   85TMC2    H1 1329   0.726   2.760  15.957  0.1129  0.5985  0.6492
   85TMC2    H2 1330   0.423   3.059  15.964  0.0554 -0.7295 -4.3412
   85TMC2    C7 1331   0.656   2.981  15.858  0.5673  0.5913  0.0157
   85TMC2    C8 1332   0.259   2.923  16.128 -0.4207  0.1102 -0.6537
   85TMC2    O1 1333   0.771   2.935  15.834  0.2562  0.1396 -0.2961
   85TMC2    O2 1334   0.203   3.021  16.081 -0.5507 -0.2737 -0.3267
   85TMC2    O5 1335   0.237   2.877  16.257 -0.5109  0.6898  0.3542
   85TMC2    H5 1336   0.317   2.828  16.287 -0.3160  1.4620  1.0959
   86MPD2     C 1337   0.555   2.110  16.287  0.0807  0.1574 -0.6031
   86MPD2    C1 1338   0.448   2.131  16.205 -0.9544 -0.1492  0.4420
   86MPD2    C2 1339   0.435   2.246  16.134 -0.3530 -0.0150 -0.1328
   86MPD2    C3 1340   0.528   2.351  16.152  0.8163 -0.2602  0.1036
   86MPD2    C4 1341   0.644   2.325  16.223  0.1403 -0.9049  0.0251
   86MPD2    C5 1342   0.663   2.199  16.290  0.3407 -1.3308  0.2465
   86MPD2     H 1343   0.354   2.257  16.062  0.6554 -0.1953 -1.3084
   86MPD2    H1 1344   0.721   2.401  16.237 -0.4278 -0.3263  0.0241
   86MPD2    H2 1345   0.559   2.018  16.343  1.9073 -0.2946 -1.4744
   86MPD2    H3 1346   0.751   2.187  16.351  1.5945 -1.1476 -1.5190
   86MPD2     N 1347   0.508   2.477  16.084 -0.3901 -0.0901  0.3467
   86MPD2    H5 1348   0.416   2.493  16.046 -0.4300  1.8299  1.2668
   86MPD2    N1 1349   0.337   2.050  16.197  0.3415  0.6631 -0.0852
   86MPD2    H7 1350   0.274   2.059  16.118  1.5086  0.0925 -1.0788
   87TMC2    C1 1351   3.176   0.547   1.173 -0.1820 -0.1735 -0.7724
   87TMC2    C2 1352   3.307   0.539   1.215  0.3239  0.1812  0.1737
   87TMC2    C3 1353   3.331   0.586   1.337  0.2455 -0.3782  0.4361
   87TMC2    C4 1354   3.078   0.599   1.258  0.2273 -0.2501  0.9541
   87TMC2    C5 1355   3.109   0.639   1.382  0.5423 -0.2720  0.9038
   87TMC2    C6 1356   3.238   0.640   1.425 -0.3533  0.5991  0.7279
   87TMC2     C 1357   3.143   0.483   1.051 -0.0944 -1.1239 -0.5532
   87TMC2     O 1358   3.226   0.399   1.017 -0.0378  0.3326  0.5689
   87TMC2     H 1359   3.385   0.500   1.150 -1.5323  1.1616 -2.6525
   87TMC2    H1 1360   2.978   0.580   1.219  0.1159  1.4081  0.4484
   87TMC2    H2 1361   3.266   0.679   1.522  0.8686 -0.1546  0.6730
   87TMC2    C7 1362   3.022   0.717   1.457  0.2994  0.2033 -0.1513
   87TMC2    C8 1363   3.471   0.590   1.390  0.3093 -0.2166  0.2483
   87TMC2    O1 1364   3.066   0.823   1.506 -0.6807  0.0140  0.3368
   87TMC2    O2 1365   3.496   0.606   1.510 -0.1241  0.0799  0.5494
   87TMC2    O5 1366   3.555   0.623   1.295 -0.9597 -0.0714  0.0999
   87TMC2    H5 1367   3.518   0.639   1.205 -2.0562 -1.4865  0.3107
   88MPD2     C 1368   2.682   0.678   1.590  0.2957  0.4823  0.1515
   88MPD2    C1 1369   2.786   0.739   1.526  0.3905 -0.1019  0.8081
   88MPD2    C2 1370   2.785   0.874   1.498 -0.2142 -0.2519 -0.7136
   88MPD2    C3 1371   2.680   0.946   1.547  0.8707  0.4344  0.0210
   88MPD2    C4 1372   2.575   0.886   1.607  0.2549  0.6017  0.5010
   88MPD2    C5 1373   2.584   0.755   1.632 -0.0437 -0.8306 -0.1988
   88MPD2     H 1374   2.856   0.923   1.433  0.2179  1.0019  0.7108
   88MPD2    H1 1375   2.496   0.942   1.655  0.8443 -0.3485  2.5945
   88MPD2    H2 1376   2.694   0.573   1.617  3.3080  0.1400 -2.4727
   88MPD2    H3 1377   2.509   0.711   1.697  0.4454  0.9690  1.5876
   88MPD2     N 1378   2.670   1.086   1.531 -0.1729  0.1454 -0.1355
   88MPD2    H5 1379   2.584   1.125   1.569  0.8241  1.8826  0.3612
   88MPD2    N1 1380   2.898   0.661   1.474 -0.2710 -0.2079  0.4057
   88MPD2    H7 1381   2.885   0.567   1.438 -0.4590  0.4877 -1.3293
   89TMC2    C1 1382   4.066   3.368   0.993  0.0492 -0.8306 -0.5036
   89TMC2    C2 1383   4.169   3.367   0.899  0.4058 -0.5798  0.2193
   89TMC2    C3 1384   4.182   3.488   0.836 -0.4781 -0.0186  0.1470
   89TMC2    C4 1385   3.999   3.478   1.033 -0.0911  0.2203 -0.7228
   89TMC2    C5 1386   4.015   3.595   0.959  0.4125 -0.3657 -0.1154
   89TMC2    C6 1387   4.112   3.605   0.864 -0.6939 -0.1815  0.6467
   89TMC2     C 1388   4.089   3.256   1.083 -0.1746 -0.0557  0.7412
   89TMC2     O 1389   4.175   3.178   1.041 -0.3233 -0.3368  0.3371
   89TMC2     H 1390   4.226   3.283   0.861 -0.5605 -1.3653  0.5057
   89TMC2    H1 1391   3.925   3.465   1.111  0.8061 -0.5019  0.0031
   89TMC2    H2 1392   4.126   3.690   0.799  0.2189 -1.2993 -0.6125
   89TMC2    C7 1393   3.938   3.708   1.006  0.4089  0.6183  0.3382
   89TMC2    C8 1394   4.262   3.503   0.714 -0.8008 -0.8009 -0.1775
   89TMC2    O1 1395   3.872   3.676   1.104  0.0049  0.2058  0.4354
   89TMC2    O2 1396   4.224   3.585   0.632  0.0503 -0.2717  0.5004
   89TMC2    O5 1397   4.386   3.450   0.729  1.1535  0.3924 -0.7601
   89TMC2    H5 1398   4.391   3.389   0.806  1.3108 -0.0648 -1.1383
   90MPD2     C 1399   3.900   2.865   1.352 -0.1509 -0.6903  0.0803
   90MPD2    C1 1400   3.819   2.973   1.368 -0.4367 -0.1942 -0.2949
   90MPD2    C2 1401   3.860   3.103   1.328  0.5230  0.3560 -0.3968
   90MPD2    C3 1402   3.979   3.122   1.258  0.4814 -0.1527 -0.1827
   90MPD2    C4 1403   4.066   3.010   1.247 -0.3003 -0.3748 -0.1519
   90MPD2    C5 1404   4.031   2.891   1.308  0.2228 -0.1444  0.9737
   90MPD2     H 1405   3.792   3.187   1.340  0.4052  0.0782  0.8726
   90MPD2    H1 1406   4.162   3.004   1.198 -0.3296 -0.6546 -0.1745
   90MPD2    H2 1407   3.868   2.764   1.372 -2.6639 -0.5879 -3.5319
   90MPD2    H3 1408   4.100   2.809   1.293 -2.2907 -2.1764  0.4776
   90MPD2     N 1409   4.005   3.251   1.193 -0.2961  0.4050 -0.0470
   90MPD2    H5 1410   3.937   3.323   1.218 -0.4302  1.1737 -2.5126
   90MPD2    N1 1411   3.692   2.971   1.423  0.2196 -0.0666 -0.2952
   90MPD2    H7 1412   3.645   3.058   1.444  1.4320  0.3145  0.8594
   91TMC2    C1 1413   4.552   3.206  16.076  0.5054  0.6388 -0.2497
   91TMC2    C2 1414   4.614   3.088  16.109 -0.5496  0.3499 -0.0988
   91TMC2    C3 1415   4.568   2.969  16.055  0.3161  0.0299 -0.6115
   91TMC2    C4 1416   4.443   3.207  15.989  0.9984 -0.1653 -0.8860
   91TMC2    C5 1417   4.401   3.085  15.931 -0.5711  0.3142 -0.5525
   91TMC2    C6 1418   4.457   2.970  15.973  0.0255  0.1176  0.0493
   91TMC2     C 1419   4.619   3.333  16.101  0.0428  0.2853  0.4314
   91TMC2     O 1420   4.600   3.431  16.032 -0.3481 -0.2731 -0.9517
   91TMC2     H 1421   4.715   3.085  16.148 -0.6933 -3.1169 -0.0110
   91TMC2    H1 1422   4.412   3.305  15.956 -0.2416  0.3008  1.6421
   91TMC2    H2 1423   4.418   2.879  15.929 -0.0102  0.6236 -0.9634
   91TMC2    C7 1424   4.255   3.077  15.912  0.8627 -0.4462 -0.1089
   91TMC2    C8 1425   4.607   2.843  16.114 -0.0083  0.2185 -1.1791
   91TMC2    O1 1426   4.209   2.966  15.934 -0.4762  0.6409  0.5122
   91TMC2    O2 1427   4.588   2.730  16.064  0.6196  0.4567  0.6798
   91TMC2    O5 1428   4.604   2.867  16.247 -0.4639  0.2331 -0.1937
   91TMC2    H5 1429   4.610   2.959  16.279 -0.1840  0.4017 -0.7317
   92MPD2     C 1430   0.052   3.547  16.210 -0.5018 -0.8209 -0.8793
   92MPD2    C1 1431   0.075   3.411  16.234 -0.5132 -0.5684 -0.5786
   92MPD2    C2 1432   0.187   3.374  16.312 -0.0068  0.2138  0.5633
   92MPD2    C3 1433   0.276   3.467  16.368 -0.7786  0.3542 -0.0753
   92MPD2    C4 1434   0.245   3.599  16.344  0.3413 -0.3919  0.7163
   92MPD2    C5 1435   0.136   3.633  16.268  0.0515 -0.9910 -0.0378
   92MPD2     H 1436   0.207   3.272  16.341 -2.0432 -0.7743 -1.6074
   92MPD2    H1 1437   0.292   3.681  16.397  2.6461 -1.9906  1.1584
   92MPD2    H2 1438   4.704   3.587  16.152  1.8016  2.6043 -1.8558
   92MPD2    H3 1439   0.108   3.738  16.259  0.1923 -0.9122  0.4282
   92MPD2     N 1440   0.381   3.425  16.454  0.0211 -0.0366  0.0192
   92MPD2    H5 1441   0.405   3.326  16.461  0.6752  0.0074 -1.5473
   92MPD2    N1 1442   4.717   3.316  16.196 -0.2465 -0.8427 -0.1748
   92MPD2    H7 1443   4.708   3.227  16.242 -0.1124 -0.0812  1.3318
   93TMC2    C1 1444   2.221   3.333  14.076  0.0353  0.4129  0.8677
   93TMC2    C2 1445   2.188   3.381  14.199  0.3101  0.2434  0.1459
   93TMC2    C3 1446   2.287   3.443  14.272 -0.0928 -0.1176 -0.3012
   93TMC2    C4 1447   2.353   3.334  14.041  0.2515 -0.2411  0.7283
   93TMC2    C5 1448   2.446   3.403  14.118 -1.1032 -0.0976  0.0053
   93TMC2    C6 1449   2.418   3.463  14.237 -0.1036  0.6777 -0.6171
   93TMC2     C 1450   2.125   3.260  13.987 -0.9276  0.5275 -0.7181
   93TMC2     O 1451   2.171   3.216  13.883 -0.0545 -0.1117 -0.3170
   93TMC2     H 1452   2.090   3.403  14.238  1.3574  2.2418  1.6671
   93TMC2    H1 1453   2.382   3.290  13.946  1.2817 -1.1505  1.4725
   93TMC2    H2 1454   2.485   3.514  14.306  1.3260  1.1709 -2.3794
   93TMC2    C7 1455   2.564   3.445  14.038 -0.1879 -0.1104  0.4209
   93TMC2    C8 1456   2.238   3.546  14.366  0.3788 -0.1626  0.1639
   93TMC2    O1 1457   2.584   3.379  13.939  0.1381 -0.4082 -0.3459
   93TMC2    O2 1458   2.213   3.660  14.330  0.2051  0.5378  0.0723
   93TMC2    O5 1459   2.162   3.474  14.446 -0.2326 -0.3514 -0.0057
   93TMC2    H5 1460   2.197   3.384  14.460 -0.5350 -0.6907 -1.4324
   94MPD2     C 1461   1.859   3.244  13.842 -0.2080 -0.1192 -0.0105
   94MPD2    C1 1462   1.877   3.301  13.966 -0.1988 -0.0236  0.4239
   94MPD2    C2 1463   1.764   3.338  14.033  0.0073  0.2573 -0.0948
   94MPD2    C3 1464   1.637   3.337  13.972  0.4851  1.2486 -0.8099
   94MPD2    C4 1465   1.622   3.282  13.845 -0.0420  0.2741 -0.2560
   94MPD2    C5 1466   1.740   3.232  13.784 -0.0645 -0.9486  0.2934
   94MPD2     H 1467   1.771   3.360  14.139  0.3395 -2.5326  0.4838
   94MPD2    H1 1468   1.527   3.289  13.794 -0.5920  2.6866  1.1269
   94MPD2    H2 1469   1.941   3.197  13.788 -0.2256  2.4391 -2.2672
   94MPD2    H3 1470   1.727   3.182  13.688  2.5662 -0.9623 -0.0718
   94MPD2     N 1471   1.522   3.399  14.022 -0.0645 -0.0704 -0.6362
   94MPD2    H5 1472   1.443   3.393  13.959  0.3960 -0.4107 -1.1817
   94MPD2    N1 1473   1.998   3.295  14.031  0.2088  0.1156  0.2354
   94MPD2    H7 1474   1.991   3.333  14.125 -1.4462  1.6117 -0.5066
   95TMC2    C1 1475   2.487   0.098  15.877  0.3359  0.8556  0.0523
   95TMC2    C2 1476   2.436   4.704  15.886  0.1253  0.7704 -0.0531
   95TMC2    C3 1477   2.309   4.703  15.934 -0.3263  0.0968  0.7593
   95TMC2    C4 1478   2.420   0.206  15.926  0.2692 -0.3001  0.3370
   95TMC2    C5 1479   2.306   0.183  15.993 -0.0511 -0.1128  0.0643
   95TMC2    C6 1480   2.241   0.064  15.995  0.2969  0.3927  0.7197
   95TMC2     C 1481   2.622   0.124  15.829 -0.6908  0.1372  0.2346
   95TMC2     O 1482   2.673   0.234  15.844  0.4384 -0.3672 -0.4308
   95TMC2     H 1483   2.475   4.612  15.843  0.9105 -0.1975  2.7125
   95TMC2    H1 1484   2.459   0.307  15.928  0.3815 -0.3144 -1.1575
   95TMC2    H2 1485   2.147   0.034  16.041  0.7846  1.4005  2.3472
   95TMC2    C7 1486   2.254   0.295  16.079 -0.2139 -0.0933 -0.0099
   95TMC2    C8 1487   2.246   4.572  15.936 -0.9630 -0.0451  0.2487
   95TMC2    O1 1488   2.282   0.412  16.049  0.2592  0.2538 -0.0415
   95TMC2    O2 1489   2.307   4.468  15.970 -0.1936  0.4670 -0.2741
   95TMC2    O5 1490   2.123   4.581  15.876  0.7764  0.7400  0.0141
   95TMC2    H5 1491   2.111   4.662  15.822  2.2657  0.7820 -0.2497
   96MPD2     C 1492   3.013   0.037  15.515 -0.6293 -0.6016  0.5215
   96MPD2    C1 1493   2.939   0.150  15.535 -0.1606 -0.3735 -0.5790
   96MPD2    C2 1494   2.833   0.145  15.624  0.0599 -0.5968 -0.8140
   96MPD2    C3 1495   2.789   0.024  15.676 -0.5537  0.6204 -0.3242
   96MPD2    C4 1496   2.847   4.645  15.631 -0.6358  0.3358 -0.2919
   96MPD2    C5 1497   2.959   4.647  15.547 -0.5147 -0.2189  0.4728
   96MPD2     H 1498   2.768   0.231  15.639  0.3034  0.1648 -4.0822
   96MPD2    H1 1499   2.818   4.548  15.670 -0.8071  0.8351  0.8019
   96MPD2    H2 1500   3.096   0.043  15.446 -0.0703  0.0483  1.2559
   96MPD2    H3 1501   3.001   4.551  15.519 -0.4840 -0.1006  0.1271
   96MPD2     N 1502   2.678   0.021  15.765 -0.5233  0.5975  0.4982
   96MPD2    H5 1503   2.651   4.660  15.784 -0.4406  0.0784 -2.0923
   96MPD2    N1 1504   2.979   0.266  15.464 -0.1799  0.3764  0.6599
   96MPD2    H7 1505   3.062   0.253  15.407 -1.4297  1.0887 -1.3076
   97TMC2    C1 1506   0.191   3.163   0.099 -0.5135 -0.3182  0.8106
   97TMC2    C2 1507   0.155   3.117  17.717 -0.2481 -0.3168  0.7748
   97TMC2    C3 1508   0.141   3.210  17.621 -0.0955  0.0925  0.9483
   97TMC2    C4 1509   0.218   3.296   0.128  0.0962 -0.3016  0.3363
   97TMC2    C5 1510   0.195   3.383   0.028 -0.0410 -0.1080 -0.2195
   97TMC2    C6 1511   0.150   3.344  17.637  0.9899  0.5319 -0.0283
   97TMC2     C 1512   0.145   3.079   0.204 -0.4797 -0.3777  0.4449
   97TMC2     O 1513   0.149   2.957   0.182  0.1376  0.4517 -0.3228
   97TMC2     H 1514   0.155   3.011  17.697  0.6547  0.4883 -3.4819
   97TMC2    H1 1515   0.229   3.321   0.233 -0.6105 -1.7727  0.7623
   97TMC2    H2 1516   0.130   3.417  17.560 -0.3912 -1.5013 -1.5936
   97TMC2    C7 1517   0.199   3.521   0.067 -0.1612  0.0291  0.3725
   97TMC2    C8 1518   0.075   3.171  17.501  0.2759 -0.4732  0.0183
   97TMC2    O1 1519   0.255   3.554   0.173  0.0928 -0.1904 -0.7185
   97TMC2    O2 1520   0.130   3.173  17.392 -0.9524  0.3252 -0.0479
   97TMC2    O5 1521   4.721   3.079  17.542  0.3233  0.0536 -0.6383
   97TMC2    H5 1522   4.687   3.116  17.626 -1.0457 -0.6014 -0.8949
   98MPD2     C 1523   4.618   2.970   0.631 -0.1069  0.6371 -0.0093
   98MPD2    C1 1524   4.685   2.882   0.550 -0.3995 -0.0921  0.1207
   98MPD2    C2 1525   0.010   2.930   0.433 -0.7230  0.4444 -0.1277
   98MPD2    C3 1526   0.016   3.068   0.417  0.1295 -0.0543  0.0902
   98MPD2    C4 1527   4.687   3.155   0.500  0.5271 -0.7454  0.1971
   98MPD2    C5 1528   4.608   3.101   0.596 -0.4973 -0.5080 -0.5772
   98MPD2     H 1529   0.059   2.857   0.370 -2.4451  0.5448 -1.5871
   98MPD2    H1 1530   4.696   3.261   0.479  3.0111 -1.1605 -0.8053
   98MPD2    H2 1531   4.548   2.941   0.708 -1.4807 -0.3114 -1.5997
   98MPD2    H3 1532   4.544   3.167   0.652 -0.5608  1.1557 -2.6173
   98MPD2     N 1533   0.083   3.137   0.311 -0.0749 -0.5107 -0.4757
   98MPD2    H5 1534   0.074   3.238   0.304 -0.0329 -0.2946  2.6606
   98MPD2    N1 1535   4.672   2.746   0.592  0.6666 -0.3146 -0.1576
   98MPD2    H7 1536   4.613   2.729   0.673  1.9889 -0.0537  0.8667
   99TMC2    C1 1537   4.056   4.647   1.595  0.4892 -0.3039 -0.1058
   99TMC2    C2 1538   4.115   4.652   1.720  0.5278 -0.0576 -0.9305
   99TMC2    C3 1539   4.070   4.562   1.815  0.3926  0.3457  0.2501
   99TMC2    C4 1540   3.964   4.552   1.564  0.0130  0.1576  0.1363
   99TMC2    C5 1541   3.906   4.482   1.666 -0.6240  0.1131 -0.0361
   99TMC2    C6 1542   3.960   4.478   1.794 -0.0562  0.1974 -0.4238
   99TMC2     C 1543   4.102   0.014   1.504 -0.3409  0.2179 -0.2139
   99TMC2     O 1544   4.200   0.083   1.535  0.7783 -0.3317  0.3187
   99TMC2     H 1545   4.193   4.722   1.747  1.6209 -1.2240 -1.0723
   99TMC2    H1 1546   3.922   4.548   1.465 -0.0521 -4.7807  0.3943
   99TMC2    H2 1547   3.915   4.414   1.870  0.6008 -1.1828 -1.1893
   99TMC2    C7 1548   3.808   4.379   1.641  1.2449  0.5447 -0.7727
   99TMC2    C8 1549   4.101   4.596   1.955  0.6862 -0.3765  0.3319
   99TMC2    O1 1550   3.807   4.286   1.723 -0.3551  0.3894  0.4461
   99TMC2    O2 1551   4.023   4.570   2.047  0.0462 -0.3457  0.2257
   99TMC2    O5 1552   4.238   4.610   1.957  0.3632  0.3580 -0.5995
   99TMC2    H5 1553   4.287   4.610   1.872  0.9984  1.6418 -0.2265
  100MPD2     C 1554   4.152   0.204   1.277  1.0410  1.1003 -0.6521
  100MPD2    C1 1555   4.048   0.110   1.276  0.0449  0.3016  0.0358
  100MPD2    C2 1556   3.985   0.084   1.158  0.1440 -0.9423  0.0750
  100MPD2    C3 1557   4.016   0.155   1.044  0.3361 -0.1447  0.0841
  100MPD2    C4 1558   4.117   0.247   1.050 -0.5859 -0.1050 -0.7686
  100MPD2    C5 1559   4.183   0.270   1.163  0.1868  0.1109  0.0084
  100MPD2     H 1560   3.909   0.007   1.151 -1.8974  1.1765 -1.1110
  100MPD2    H1 1561   4.144   0.305   0.962 -0.7778  0.1357 -0.6700
  100MPD2    H2 1562   4.211   0.228   1.365 -0.7117 -2.0085  1.3623
  100MPD2    H3 1563   4.262   0.344   1.168  0.2592  0.0291  0.0837
  100MPD2     N 1564   3.936   0.145   0.925 -0.2356  0.1736 -0.3128
  100MPD2    H5 1565   3.864   0.075   0.940  0.3748 -0.8280 -2.0174
  100MPD2    N1 1566   4.026   0.021   1.390  0.1922  0.4386  0.6188
  100MPD2    H7 1567   3.955   4.687   1.371  2.3631 -0.8938 -2.5461
  101TMC2    C1 1568   4.275   1.496  12.488 -0.2364  0.0207 -0.3581
  101TMC2    C2 1569   4.165   1.560  12.428  0.6975  1.0452 -0.2467
  101TMC2    C3 1570   4.191   1.662  12.343 -1.0886 -0.0499 -0.6277
  101TMC2    C4 1571   4.400   1.537  12.467 -0.1122 -0.1241 -0.0290
  101TMC2    C5 1572   4.418   1.639  12.380 -0.3172  0.4280  0.3967
  101TMC2    C6 1573   4.315   1.702  12.314 -1.0302 -0.5664  0.0901
  101TMC2     C 1574   4.242   1.393  12.585 -0.1406  0.0766 -0.1985
  101TMC2     O 1575   4.133   1.391  12.625  0.3696  0.0273  0.1560
  101TMC2     H 1576   4.064   1.538  12.461  0.6844  0.1817 -0.8513
  101TMC2    H1 1577   4.483   1.502  12.527 -0.6056  0.5838  1.0762
  101TMC2    H2 1578   4.336   1.796  12.264 -1.6602 -2.2522 -3.3439
  101TMC2    C7 1579   4.549   1.658  12.319  0.2229  0.1300  0.3189
  101TMC2    C8 1580   4.070   1.730  12.307 -0.1442  0.1398  0.1183
  101TMC2    O1 1581   4.560   1.738  12.227 -0.1717 -0.5711  0.0721
  101TMC2    O2 1582   3.959   1.687  12.333  0.2222  0.3381 -0.2427
  101TMC2    O5 1583   4.094   1.814  12.206  0.4870 -0.1603  0.0025
  101TMC2    H5 1584   4.181   1.802  12.163 -0.3271 -2.0296 -1.0926
  102MPD2     C 1585   4.440   1.104  12.704 -0.3157  0.2687 -0.2706
  102MPD2    C1 1586   4.339   1.196  12.700 -0.2780  0.1468  0.4147
  102MPD2    C2 1587   4.240   1.183  12.795  0.1021  0.3967 -0.0191
  102MPD2    C3 1588   4.231   1.070  12.878 -1.0713  0.1023  0.3504
  102MPD2    C4 1589   4.335   0.976  12.872  0.0641 -0.2113 -0.4132
  102MPD2    C5 1590   4.439   0.998  12.788  0.1274 -0.2458  0.2941
  102MPD2     H 1591   4.165   1.259  12.812 -0.2103  0.8190 -3.1133
  102MPD2    H1 1592   4.337   0.887  12.934 -1.8861  0.0682  0.0761
  102MPD2    H2 1593   4.514   1.117  12.626 -0.8628  1.3935 -0.6077
  102MPD2    H3 1594   4.520   0.926  12.794  1.1400  0.9869  1.6329
  102MPD2     N 1595   4.123   1.045  12.969 -0.6416  0.2165 -0.5224
  102MPD2    H5 1596   4.070   1.123  13.007  0.0468  0.3359  0.1880
  102MPD2    N1 1597   4.343   1.306  12.605  0.2765 -0.2996 -0.1985
  102MPD2    H7 1598   4.419   1.320  12.540  0.3403 -3.4456 -0.8107
  103TMC2    C1 1599   2.666   1.295  12.535 -0.3991 -0.0575  0.2102
  103TMC2    C2 1600   2.767   1.337  12.459  1.2206  0.3520 -0.1291
  103TMC2    C3 1601   2.880   1.398  12.515  0.4209 -0.4229 -0.4800
  103TMC2    C4 1602   2.661   1.327  12.669 -0.2463  0.4451 -0.2441
  103TMC2    C5 1603   2.771   1.381  12.720  0.6672  0.1332 -0.2553
  103TMC2    C6 1604   2.884   1.421  12.646 -0.1516 -0.6559  0.1760
  103TMC2     C 1605   2.569   1.199  12.476 -0.0985  0.5132  0.4818
  103TMC2     O 1606   2.607   1.151  12.368  0.0200 -0.0089 -0.0353
  103TMC2     H 1607   2.766   1.327  12.351  3.6547 -1.1454 -0.0132
  103TMC2    H1 1608   2.589   1.285  12.738 -0.5336 -1.5675 -1.7912
  103TMC2    H2 1609   2.972   1.474  12.683  0.6533 -0.7492 -1.5688
  103TMC2    C7 1610   2.760   1.415  12.858  0.1202  0.2126  0.2360
  103TMC2    C8 1611   3.000   1.420  12.441  0.2471 -0.6497 -1.1748
  103TMC2    O1 1612   2.707   1.334  12.937 -0.1360 -0.1541 -1.1405
  103TMC2    O2 1613   3.015   1.356  12.341  0.3908  0.5107  0.6342
  103TMC2    O5 1614   3.068   1.528  12.484  0.6681 -0.0278 -0.5003
  103TMC2    H5 1615   3.009   1.587  12.536  1.4393  2.5943 -2.5808
  104MPD2     C 1616   2.260   1.041  12.616 -0.7645 -0.2693  0.2587
  104MPD2    C1 1617   2.362   1.061  12.524  0.1092  0.3898  0.1667
  104MPD2    C2 1618   2.374   0.972  12.424 -0.6860 -0.4061 -0.1736
  104MPD2    C3 1619   2.284   0.864  12.406  0.0694  0.3107  0.5344
  104MPD2    C4 1620   2.186   0.839  12.505  0.3671  0.0669 -0.3922
  104MPD2    C5 1621   2.179   0.933  12.604  0.5133 -0.0492 -0.2796
  104MPD2     H 1622   2.456   0.976  12.353 -0.8514 -0.9399 -0.3982
  104MPD2    H1 1623   2.117   0.755  12.507  0.0363  0.2617 -4.3275
  104MPD2    H2 1624   2.249   1.104  12.703  1.8467 -1.2975  1.3393
  104MPD2    H3 1625   2.099   0.926  12.677  0.9499 -1.1027  0.0896
  104MPD2     N 1626   2.301   0.782  12.286 -0.2769  0.0278 -0.6904
  104MPD2    H5 1627   2.382   0.801  12.227 -0.4531 -0.0824 -0.9640
  104MPD2    N1 1628   2.455   1.167  12.551 -0.7708  0.2355  0.2028
  104MPD2    H7 1629   2.441   1.216  12.639 -1.1159  0.7570 -0.1402
  105TMC2    C1 1630   3.218   0.022   0.221 -0.0464 -0.3643 -0.0912
  105TMC2    C2 1631   3.291   4.685   0.314  0.0761 -0.3786 -0.0738
  105TMC2    C3 1632   3.269   4.709   0.445  0.2964  0.0355 -0.2411
  105TMC2    C4 1633   3.134   0.114   0.267  0.8663 -0.4467 -0.0989
  105TMC2    C5 1634   3.121   0.133   0.403  0.1754  0.0870  0.6574
  105TMC2    C6 1635   3.187   0.064   0.499  0.7249 -0.5925 -0.3711
  105TMC2     C 1636   3.202   4.700   0.087  0.6546 -0.1748  1.3549
  105TMC2     O 1637   3.243   4.583   0.073 -0.3181  0.0957 -0.3429
  105TMC2     H 1638   3.360   4.610   0.277  0.7468 -0.8941  2.2696
  105TMC2    H1 1639   3.060   0.160   0.202  0.1288 -0.4575  0.7322
  105TMC2    H2 1640   3.179   0.082   0.606 -0.1182  0.5998 -0.6302
  105TMC2    C7 1641   3.026   0.236   0.446 -0.2629 -0.4808 -0.8460
  105TMC2    C8 1642   3.359   4.657   0.541 -0.0842 -0.5010 -0.8188
  105TMC2    O1 1643   2.933   0.269   0.375  0.0160  0.1306 -0.0583
  105TMC2    O2 1644   3.397   4.713   0.641 -0.0265 -0.1647 -0.7440
  105TMC2    O5 1645   3.386   4.526   0.515  0.0769  0.2369  0.1281
  105TMC2    H5 1646   3.339   4.487   0.437  0.4240 -0.3510  0.2133
  106MPD2     C 1647   3.186   0.012  17.318  0.3456  0.3562  0.2373
  106MPD2    C1 1648   3.191   0.139  17.374 -1.0000 -0.3527  0.0501
  106MPD2    C2 1649   3.163   0.146  17.516  0.2678  0.0559 -0.5857
  106MPD2    C3 1650   3.152   0.037  17.594  0.0389  0.3389 -0.9098
  106MPD2    C4 1651   3.167   4.646  17.538 -0.7664  0.2286  0.0793
  106MPD2    C5 1652   3.182   4.635  17.399 -0.7585 -0.1216  0.4778
  106MPD2     H 1653   3.157   0.250  17.547  3.8148 -0.2029  0.9388
  106MPD2    H1 1654   3.171   4.552  17.592 -1.0819  0.1143 -0.0996
  106MPD2    H2 1655   3.208   4.735  17.212 -2.9451  0.7304 -0.4781
  106MPD2    H3 1656   3.176   4.538  17.352 -2.0699 -0.0986  0.6039
  106MPD2     N 1657   3.148   0.054  17.735  0.3628  0.1407  0.1383
  106MPD2    H5 1658   3.135   0.149   0.026  1.4082  1.0160 -2.0321
  106MPD2    N1 1659   3.228   0.253  17.302  0.6612  0.3067  0.6859
  106MPD2    H7 1660   3.234   0.341  17.352 -0.0618 -0.0835  1.4791
  107TMC2    C1 1661   4.331   0.279  11.587 -0.3203 -0.2683 -0.1517
  107TMC2    C2 1662   4.381   0.381  11.518  0.2266  0.2086 -0.4128
  107TMC2    C3 1663   4.504   0.371  11.458 -0.7571 -1.1659  0.1424
  107TMC2    C4 1664   4.407   0.167  11.608 -1.3164  0.4222  0.3735
  107TMC2    C5 1665   4.516   0.149  11.524  0.1761  0.1493  0.0926
  107TMC2    C6 1666   4.568   0.252  11.444  0.1773  0.3137 -0.1323
  107TMC2     C 1667   4.208   0.297  11.658 -0.4306  0.4816  0.2576
  107TMC2     O 1668   4.195   0.229  11.760 -0.3113 -0.3787 -0.0104
  107TMC2     H 1669   4.330   0.475  11.506  3.0940  1.5550 -2.0534
  107TMC2    H1 1670   4.373   0.086  11.673 -1.8968  0.9039  0.6731
  107TMC2    H2 1671   4.661   0.252  11.388  0.3309 -0.3719  0.1184
  107TMC2    C7 1672   4.572   0.006  11.506 -0.2201 -0.0364  0.2147
  107TMC2    C8 1673   4.556   0.479  11.381 -0.4516 -0.2355  0.0902
  107TMC2    O1 1674   4.557   4.669  11.605  0.0219  0.3658  0.5638
  107TMC2    O2 1675   4.482   0.537  11.306 -0.1198 -0.2481 -0.4265
  107TMC2    O5 1676   4.689   0.493  11.410 -0.1276 -0.2343 -0.3405
  107TMC2    H5 1677   4.703   0.432  11.486 -0.6677 -0.0516 -0.0974
  108MPD2     C 1678   3.909   0.477  11.558  0.0582 -0.1167 -0.1729
  108MPD2    C1 1679   3.986   0.413  11.654  0.5628 -0.0366 -0.4293
  108MPD2    C2 1680   3.940   0.373  11.770 -0.1892 -0.2994 -0.3588
  108MPD2    C3 1681   3.802   0.379  11.796  0.5253 -0.8317 -0.7058
  108MPD2    C4 1682   3.722   0.444  11.707 -0.0295 -0.5171 -0.2839
  108MPD2    C5 1683   3.771   0.494  11.587  0.4219 -0.3635  0.6087
  108MPD2     H 1684   4.006   0.344  11.851 -0.3740 -0.4894 -0.2777
  108MPD2    H1 1685   3.617   0.460  11.727  0.3277 -0.7542  1.7883
  108MPD2    H2 1686   3.950   0.499  11.460  0.6310 -1.5191 -0.2370
  108MPD2    H3 1687   3.704   0.534  11.512  1.3958  1.4598  0.7207
  108MPD2     N 1688   3.750   0.334  11.919 -0.8589 -0.2305 -0.3313
  108MPD2    H5 1689   3.652   0.354  11.932 -0.9949  0.5746 -2.6682
  108MPD2    N1 1690   4.119   0.386  11.604  0.1826  0.1239 -0.1693
  108MPD2    H7 1691   4.147   0.426  11.515 -1.2219  0.5367 -0.4378
  109TMC2    C1 1692   3.671   2.098   0.523 -0.3916  0.2122 -0.3475
  109TMC2    C2 1693   3.628   1.989   0.456 -0.5544  0.4585  0.4033
  109TMC2    C3 1694   3.722   1.929   0.372  1.0012 -1.2427 -0.1781
  109TMC2    C4 1695   3.799   2.142   0.513  0.0626 -0.2850 -0.2574
  109TMC2    C5 1696   3.889   2.065   0.443  1.0746 -0.5397 -0.0226
  109TMC2    C6 1697   3.847   1.966   0.359  0.4810  0.3655  0.1125
  109TMC2     C 1698   3.585   2.174   0.612 -0.5953  0.0857  0.2491
  109TMC2     O 1699   3.480   2.212   0.561  0.1951 -0.3483 -0.6396
  109TMC2     H 1700   3.526   1.953   0.456  0.4366 -2.3954  2.5064
  109TMC2    H1 1701   3.832   2.221   0.579 -2.6311  1.3456 -0.8673
  109TMC2    H2 1702   3.902   1.917   0.279  0.6626 -1.1221  1.1533
  109TMC2    C7 1703   4.026   2.097   0.459  0.4100  0.1222 -0.0486
  109TMC2    C8 1704   3.681   1.821   0.278  0.0763  0.6511 -0.2779
  109TMC2    O1 1705   4.055   2.209   0.508  0.2120 -0.5832  0.7084
  109TMC2    O2 1706   3.743   1.799   0.173 -0.5828 -0.1941  0.2433
  109TMC2    O5 1707   3.664   1.717   0.371 -0.0097  0.9346 -0.3963
  109TMC2    H5 1708   3.628   1.730   0.461 -1.0456 -2.6400 -0.3020
  110MPD2     C 1709   3.525   2.395   1.069  0.4487  0.0977 -0.0047
  110MPD2    C1 1710   3.636   2.316   1.078 -0.2914  0.4541  0.4832
  110MPD2    C2 1711   3.664   2.236   0.971  0.5219 -0.3744  0.1489
  110MPD2    C3 1712   3.606   2.262   0.848  0.6006 -0.0750 -0.8422
  110MPD2    C4 1713   3.513   2.364   0.832  0.4340 -0.2556  0.9818
  110MPD2    C5 1714   3.475   2.424   0.946  0.6545  0.2007  0.0592
  110MPD2     H 1715   3.710   2.138   0.978  1.8402  0.4097  2.6167
  110MPD2    H1 1716   3.469   2.393   0.737  1.6034 -1.6097  0.0411
  110MPD2    H2 1717   3.482   2.438   1.159  1.1904  1.4638 -0.2916
  110MPD2    H3 1718   3.403   2.506   0.947 -1.3966 -1.5666 -2.2012
  110MPD2     N 1719   3.643   2.177   0.735 -0.4772 -0.3682 -0.2772
  110MPD2    H5 1720   3.715   2.111   0.761 -0.3294  0.1412  0.6128
  110MPD2    N1 1721   3.684   2.282   1.201 -0.4149  0.0682 -0.0886
  110MPD2    H7 1722   3.638   2.324   1.282 -2.2798  0.1102 -1.1761
  111TMC2    C1 1723   4.076   1.720  11.553  0.0553 -0.1331 -0.5366
  111TMC2    C2 1724   4.015   1.787  11.658 -0.1177 -0.5269  0.2749
  111TMC2    C3 1725   4.094   1.877  11.729  0.0463 -0.1073 -0.4257
  111TMC2    C4 1726   4.202   1.747  11.515 -0.4434 -0.1945  0.3507
  111TMC2    C5 1727   4.277   1.836  11.590 -0.1206 -0.7165  0.5224
  111TMC2    C6 1728   4.223   1.908  11.698 -0.0208 -0.5401 -0.0887
  111TMC2     C 1729   3.998   1.645  11.462  0.4888  0.6269 -0.6053
  111TMC2     O 1730   4.047   1.600  11.358  0.1388 -0.1151  0.3456
  111TMC2     H 1731   3.915   1.776  11.698 -0.3270 -0.0983 -0.1300
  111TMC2    H1 1732   4.238   1.716  11.418  0.1554 -2.6738  1.3631
  111TMC2    H2 1733   4.285   1.970  11.761 -0.5971 -0.2929  0.2373
  111TMC2    C7 1734   4.419   1.841  11.576  0.0562  0.4080 -0.2725
  111TMC2    C8 1735   4.039   1.920  11.855  0.0235 -0.0810  0.4445
  111TMC2    O1 1736   4.480   1.917  11.651  0.1009 -0.8347 -0.0132
  111TMC2    O2 1737   3.945   1.855  11.904  0.2778  0.1869  0.4080
  111TMC2    O5 1738   4.045   2.058  11.851 -0.1169 -0.1624  0.0602
  111TMC2    H5 1739   4.105   2.091  11.781  0.3341 -0.2369  0.4103
  112MPD2     C 1740   3.513   1.540  11.332 -0.6583  1.0551  0.5186
  112MPD2    C1 1741   3.623   1.567  11.251  0.1314 -0.3294 -0.2371
  112MPD2    C2 1742   3.743   1.581  11.309 -0.5901  0.3359 -0.2461
  112MPD2    C3 1743   3.756   1.585  11.443 -0.5280 -0.5229 -0.2964
  112MPD2    C4 1744   3.644   1.568  11.520 -0.0724 -0.0465 -0.3444
  112MPD2    C5 1745   3.526   1.542  11.464  0.1374 -0.4602 -0.4591
  112MPD2     H 1746   3.820   1.627  11.248 -1.7495 -0.0768 -2.0135
  112MPD2    H1 1747   3.647   1.570  11.628 -1.5488  0.5666 -0.3263
  112MPD2    H2 1748   3.411   1.540  11.295 -0.1550  1.2284 -0.8836
  112MPD2    H3 1749   3.437   1.534  11.525 -0.5166 -1.2685 -1.5186
  112MPD2     N 1750   3.868   1.642  11.507  0.2656 -0.1854  0.5390
  112MPD2    H5 1751   3.849   1.683  11.598  1.1962  0.2811  0.5191
  112MPD2    N1 1752   3.618   1.566  11.108  0.1644  0.1044 -0.2691
  112MPD2    H7 1753   3.706   1.593  11.065  1.2768 -2.5706  0.2649
  113TMC2    C1 1754   2.382   0.100   0.506 -0.1304 -0.2994 -0.3606
  113TMC2    C2 1755   2.302   0.201   0.543  0.2718 -0.4186  0.4986
  113TMC2    C3 1756   2.175   0.207   0.502 -0.2855 -0.1206 -0.2532
  113TMC2    C4 1757   2.330   4.726   0.440  0.1302  0.4056 -0.5805
  113TMC2    C5 1758   2.194   4.731   0.413 -0.0278 -0.4470  0.2943
  113TMC2    C6 1759   2.111   0.096   0.447  0.3981  0.1186 -0.2334
  113TMC2     C 1760   2.510   0.088   0.577  0.4254  0.1955 -0.2807
  113TMC2     O 1761   2.521   0.154   0.681 -0.0453  0.0011 -0.2664
  113TMC2     H 1762   2.334   0.288   0.600 -1.3855  0.3803  0.2300
  113TMC2    H1 1763   2.397   4.643   0.421  1.7511  2.4278 -3.6500
  113TMC2    H2 1764   2.007   0.084   0.420  1.3483 -1.9352 -3.0203
  113TMC2    C7 1765   2.126   4.614   0.363  0.0568 -0.7585  0.0098
  113TMC2    C8 1766   2.088   0.303   0.567 -0.1177 -0.1139 -0.0875
  113TMC2    O1 1767   2.025   4.630   0.299  0.2719 -0.0087 -0.0487
  113TMC2    O2 1768   2.133   0.393   0.641 -0.3767  0.1726 -0.2267
  113TMC2    O5 1769   1.962   0.291   0.528 -0.1605  0.9510 -0.6029
  113TMC2    H5 1770   1.958   0.238   0.446 -2.3286 -3.1344  2.1667
  114MPD2     C 1771   2.967   4.628   0.662  1.2764  1.0013  0.6012
  114MPD2    C1 1772   2.899   4.732   0.719 -0.1091 -0.7085  0.1464
  114MPD2    C2 1773   2.784   0.042   0.657  0.6363 -0.1788 -0.8000
  114MPD2    C3 1774   2.724   4.705   0.554 -0.3137  0.2395 -0.2923
  114MPD2    C4 1775   2.788   4.592   0.514 -0.1155 -0.1794  0.4940
  114MPD2    C5 1776   2.910   4.556   0.559  0.2075 -0.0049 -0.0534
  114MPD2     H 1777   2.741   0.130   0.703 -1.2000  0.2399 -3.3412
  114MPD2    H1 1778   2.733   4.532   0.442 -0.6165 -0.2597  0.9406
  114MPD2    H2 1779   3.064   4.593   0.694  2.3890  1.0832 -2.6751
  114MPD2    H3 1780   2.970   4.475   0.519 -1.4384 -0.7729 -0.9712
  114MPD2     N 1781   2.589   4.731   0.519 -0.3459 -0.7970  0.0336
  114MPD2    H5 1782   2.545   4.673   0.449 -2.1937  0.1800  0.3500
  114MPD2    N1 1783   2.933   0.058   0.839  0.2289 -0.9454  0.2374
  114MPD2    H7 1784   2.872   0.132   0.873  3.7415  1.6957  0.9362
  115TMC2    C1 1785   3.544   2.950   0.127 -0.2213 -0.0674  0.1714
  115TMC2    C2 1786   3.637   2.907   0.041 -0.0283  0.2390  1.0523
  115TMC2    C3 1787   3.680   2.995  17.691 -0.4637 -0.1257 -0.5141
  115TMC2    C4 1788   3.506   3.078   0.132  0.8028  0.2496  0.4531
  115TMC2    C5 1789   3.561   3.165   0.039 -0.1596 -0.0004 -0.5071
  115TMC2    C6 1790   3.653   3.129  17.683 -0.3130  0.4149 -0.1544
  115TMC2     C 1791   3.497   2.853   0.227  0.1440  0.9850  0.0063
  115TMC2     O 1792   3.557   2.748   0.250 -0.0066 -0.0758  0.4283
  115TMC2     H 1793   3.672   2.804   0.041 -1.0053 -0.0959  1.8092
  115TMC2    H1 1794   3.430   3.111   0.201 -0.2248 -0.9770 -0.1010
  115TMC2    H2 1795   3.667   3.190  17.595 -1.2849  1.0356  0.1190
  115TMC2    C7 1796   3.554   3.301   0.066 -0.3993  0.6141  0.0063
  115TMC2    C8 1797   3.763   2.934  17.593 -0.9802  0.3850 -0.4418
  115TMC2    O1 1798   3.491   3.332   0.165 -0.3461  0.3185 -0.4847
  115TMC2    O2 1799   3.776   2.812  17.582 -0.0740 -0.5371  0.0574
  115TMC2    O5 1800   3.818   3.019  17.506 -0.4025 -0.6275  0.5869
  115TMC2    H5 1801   3.805   3.115  17.524  3.7530  0.1008 -0.4176
  116MPD2     C 1802   3.063   2.701   0.444  0.4936  0.0693  0.1436
  116MPD2    C1 1803   3.174   2.631   0.400 -0.4953  0.7881 -0.1835
  116MPD2    C2 1804   3.294   2.692   0.365  0.6402  0.1427 -0.7642
  116MPD2    C3 1805   3.299   2.828   0.371 -0.1657 -0.2657 -0.0957
  116MPD2    C4 1806   3.191   2.903   0.408  0.7604 -0.7227  0.5669
  116MPD2    C5 1807   3.075   2.840   0.442 -0.6172  0.3322 -0.3583
  116MPD2     H 1808   3.378   2.635   0.326  1.3758  0.4890  0.3342
  116MPD2    H1 1809   3.202   3.011   0.402 -0.4473 -0.8080 -3.2895
  116MPD2    H2 1810   2.973   2.649   0.473 -0.1913  2.1697  1.8198
  116MPD2    H3 1811   2.990   2.900   0.476 -1.6423 -1.7051  0.6994
  116MPD2     N 1812   3.398   2.902   0.304  0.4692  0.6812  0.0249
  116MPD2    H5 1813   3.375   3.001   0.308 -1.5608  0.2230 -0.2869
  116MPD2    N1 1814   3.147   2.488   0.389  0.1641 -0.0757 -0.1530
  116MPD2    H7 1815   3.054   2.451   0.403 -0.0823  0.5739 -0.0713
  117TMC2    C1 1816   1.630   3.827  14.430 -0.0442  0.3956 -0.4321
  117TMC2    C2 1817   1.750   3.779  14.466  0.2247  0.0846  0.2080
  117TMC2    C3 1818   1.850   3.870  14.485 -1.0676 -0.5314  0.2672
  117TMC2    C4 1819   1.593   3.964  14.439  0.3808  0.2302 -0.1480
  117TMC2    C5 1820   1.699   4.052  14.472 -0.1567  0.0299 -0.4148
  117TMC2    C6 1821   1.823   4.002  14.482  0.2288 -0.4313 -0.3776
  117TMC2     C 1822   1.519   3.733  14.447  0.4559 -0.0570 -0.2092
  117TMC2     O 1823   1.537   3.623  14.498 -0.6463  0.3135 -0.3935
  117TMC2     H 1824   1.772   3.674  14.476  1.7662  0.6113  2.3388
  117TMC2    H1 1825   1.494   4.003  14.422  1.3941  2.3105 -1.2992
  117TMC2    H2 1826   1.902   4.076  14.485 -0.9522  0.7085  2.4846
  117TMC2    C7 1827   1.688   4.194  14.440 -1.0315  0.2780  0.6258
  117TMC2    C8 1828   1.979   3.831  14.535  0.8467  0.1767 -0.0823
  117TMC2    O1 1829   1.776   4.273  14.470  0.4853 -0.3336 -0.5880
  117TMC2    O2 1830   2.084   3.896  14.532 -0.0546 -1.1637  0.1392
  117TMC2    O5 1831   1.953   3.735  14.622 -0.3138 -0.3339  0.1620
  117TMC2    H5 1832   1.860   3.731  14.651 -1.1492 -2.5094 -2.7659
  118MPD2     C 1833   1.405   4.343  14.253 -0.0806  0.5031  0.4488
  118MPD2    C1 1834   1.529   4.337  14.313  0.0264 -0.0683  0.2345
  118MPD2    C2 1835   1.581   4.459  14.356  0.0294 -0.1783 -0.4435
  118MPD2    C3 1836   1.510   4.576  14.318 -0.6108  0.4966  0.2116
  118MPD2    C4 1837   1.389   4.569  14.255  0.6710 -0.2380  0.0663
  118MPD2    C5 1838   1.336   4.450  14.216  0.3205 -0.6566 -0.4350
  118MPD2     H 1839   1.673   4.462  14.413  0.4177  0.2710 -1.0882
  118MPD2    H1 1840   1.325   4.654  14.236  0.2581 -0.5019  0.2776
  118MPD2    H2 1841   1.356   4.247  14.240 -1.2743  1.0126  1.1409
  118MPD2    H3 1842   1.238   4.451  14.169  0.0077 -1.2939  0.2068
  118MPD2     N 1843   1.544   4.703  14.358 -0.3056 -0.0614 -0.3679
  118MPD2    H5 1844   1.483   0.046  14.338  1.2517  1.2191 -0.0854
  118MPD2    N1 1845   1.581   4.213  14.357  0.2895  0.3195  0.6323
  118MPD2    H7 1846   1.521   4.132  14.344 -1.4100  1.5683  0.5534
  119TMC2    C1 1847   0.449   0.036  13.128  0.6489  0.3879 -0.6155
  119TMC2    C2 1848   0.557   4.703  13.167 -0.0269 -0.6921 -0.8776
  119TMC2    C3 1849   0.550   4.575  13.202  0.1317  0.6693  0.8151
  119TMC2    C4 1850   0.327   4.716  13.139  0.4982  0.7677  0.2371
  119TMC2    C5 1851   0.321   4.582  13.176  0.2511 -0.6028  0.2035
  119TMC2    C6 1852   0.432   4.507  13.195  0.8155 -0.1789 -0.1682
  119TMC2     C 1853   0.444   0.181  13.152  0.0184  0.1482 -0.3307
  119TMC2     O 1854   0.531   0.215  13.233  0.1779  0.6552 -0.4244
  119TMC2     H 1855   0.655   0.011  13.183 -1.2483  1.4861  0.6975
  119TMC2    H1 1856   0.236   0.037  13.125  1.9710  3.1586  0.4433
  119TMC2    H2 1857   0.414   4.403  13.216  0.4712 -0.3862 -1.4477
  119TMC2    C7 1858   0.202   4.505  13.138  0.3276 -0.6921  0.3022
  119TMC2    C8 1859   0.684   4.508  13.204 -0.1398  0.4720  0.8548
  119TMC2    O1 1860   0.217   4.395  13.089 -0.0613  0.1678 -0.0504
  119TMC2    O2 1861   0.786   4.560  13.246  0.0661  0.5023  0.2367
  119TMC2    O5 1862   0.674   4.379  13.162 -0.0604 -0.6683 -0.4284
  119TMC2    H5 1863   0.588   4.332  13.158  0.5422 -1.8156  0.1974
  120MPD2     C 1864   0.179   0.613  13.177 -0.4437  0.6377 -0.1209
  120MPD2    C1 1865   0.273   0.552  13.261 -0.4328 -0.2214 -0.0147
  120MPD2    C2 1866   0.336   0.440  13.225 -0.6375  0.7478  0.2405
  120MPD2    C3 1867   0.308   0.384  13.106  0.3249  0.2362 -0.1260
  120MPD2    C4 1868   0.209   0.441  13.023 -0.2683 -0.0559  0.0330
  120MPD2    C5 1869   0.146   0.553  13.057  0.0571  0.3074 -0.2598
  120MPD2     H 1870   0.410   0.398  13.293 -0.5446 -3.3249 -2.3726
  120MPD2    H1 1871   0.182   0.394  12.930  0.2580 -0.6432  0.1777
  120MPD2    H2 1872   0.117   0.695  13.211  4.4042  3.5505  1.6982
  120MPD2    H3 1873   0.075   0.608  12.997  1.5778  0.5076 -1.8737
  120MPD2     N 1874   0.355   0.258  13.078  0.1949 -0.0895 -0.0386
  120MPD2    H5 1875   0.301   0.208  13.008 -0.2218 -3.1693  2.4523
  120MPD2    N1 1876   0.273   0.601  13.395  0.5595 -0.5793  0.1575
  120MPD2    H7 1877   0.208   0.676  13.416 -0.8372 -0.9944 -2.7187
  121TMC2    C1 1878   1.679   2.728  14.543  1.1193  0.0273 -0.0637
  121TMC2    C2 1879   1.756   2.763  14.647  0.3130  0.1816 -0.3517
  121TMC2    C3 1880   1.797   2.669  14.736  0.5588 -0.5504  0.5345
  121TMC2    C4 1881   1.650   2.592  14.518 -0.3619  0.0804 -0.3738
  121TMC2    C5 1882   1.692   2.509  14.612 -0.8193  0.0952  0.4742
  121TMC2    C6 1883   1.752   2.546  14.728 -0.8683 -0.3789  0.4751
  121TMC2     C 1884   1.646   2.828  14.438 -0.4065 -0.2769 -0.0288
  121TMC2     O 1885   1.631   2.944  14.471  0.2664 -0.2223 -0.2633
  121TMC2     H 1886   1.777   2.869  14.661 -0.9995  0.3283  0.4882
  121TMC2    H1 1887   1.586   2.554  14.439  2.4959 -1.1150 -2.0691
  121TMC2    H2 1888   1.771   2.477  14.809  0.5193 -1.3018 -0.6240
  121TMC2    C7 1889   1.651   2.369  14.609  0.1102  0.1834  0.4220
  121TMC2    C8 1890   1.865   2.713  14.861  0.3504  0.3810  0.0142
  121TMC2    O1 1891   1.691   2.296  14.701  1.0031  0.0556  0.1871
  121TMC2    O2 1892   1.840   2.818  14.923  0.1967 -0.0727 -0.5671
  121TMC2    O5 1893   1.980   2.643  14.864 -0.3169  0.1268 -0.1093
  121TMC2    H5 1894   1.998   2.581  14.791  1.6549  1.1109 -0.4616
  122MPD2     C 1895   1.552   2.967  14.190  0.6351  0.7783  0.6851
  122MPD2    C1 1896   1.618   2.847  14.193  0.0701 -0.0644  0.1430
  122MPD2    C2 1897   1.658   2.793  14.067 -0.1726  0.4452  0.1623
  122MPD2    C3 1898   1.631   2.865  13.950 -0.8260  0.6863  0.1312
  122MPD2    C4 1899   1.556   2.983  13.954  0.4536 -0.5891  0.1682
  122MPD2    C5 1900   1.523   3.034  14.075 -0.9731 -0.1493  0.4099
  122MPD2     H 1901   1.714   2.700  14.069 -0.3522  0.3486  0.7994
  122MPD2    H1 1902   1.535   3.051  13.873  1.8322 -1.6361 -1.0610
  122MPD2    H2 1903   1.511   3.015  14.279 -0.9426 -0.2138  0.4805
  122MPD2    H3 1904   1.471   3.128  14.085 -1.1097 -0.1989  0.1741
  122MPD2     N 1905   1.681   2.815  13.827  0.1035 -0.3216 -0.7468
  122MPD2    H5 1906   1.675   2.880  13.749 -0.1036 -1.4867 -1.7181
  122MPD2    N1 1907   1.644   2.780  14.315 -0.0626  0.3533  0.5329
  122MPD2    H7 1908   1.686   2.688  14.314 -2.9923 -0.9816  0.0054
  123TMC2    C1 1909   4.587   0.116  10.579 -0.1242 -0.0289  1.3542
  123TMC2    C2 1910   4.652   0.234  10.596 -0.8368 -0.1878 -0.0489
  123TMC2    C3 1911   0.035   0.241  10.523  0.0123 -0.1076 -0.2983
  123TMC2    C4 1912   4.639   0.007  10.516  0.1893  0.9750 -0.1153
  123TMC2    C5 1913   0.015   0.029  10.437 -0.3610  0.6639  0.6067
  123TMC2    C6 1914   0.087   0.138  10.450  0.6607 -0.2875 -0.1330
  123TMC2     C 1915   4.491   0.095  10.686 -0.5292 -0.1531 -0.0470
  123TMC2     O 1916   4.499   0.168  10.784  0.5707 -0.2908  0.4222
  123TMC2     H 1917   4.611   0.314  10.656 -0.8600 -0.7174  0.6377
  123TMC2    H1 1918   4.596   4.644  10.530  2.0094  0.4387  1.9175
  123TMC2    H2 1919   0.183   0.153  10.402 -0.3486 -0.0938 -2.1205
  123TMC2    C7 1920   0.050   4.672  10.344 -0.3256  0.0997  0.5152
  123TMC2    C8 1921   0.133   0.339  10.566  0.1052 -0.2602 -0.3696
  123TMC2    O1 1922   0.016   4.560  10.370 -0.0646 -0.5479 -0.0938
  123TMC2    O2 1923   0.182   0.424  10.494 -0.5702 -0.4334 -0.3071
  123TMC2    O5 1924   0.203   0.289  10.673  0.0104  0.3268 -0.3092
  123TMC2    H5 1925   0.168   0.212  10.723  0.1351 -0.0155 -0.7533
  124MPD2     C 1926   4.075   4.564  10.849 -0.1954 -0.3663 -0.4315
  124MPD2    C1 1927   4.130   4.497  10.738  0.2119 -0.1910 -0.1645
  124MPD2    C2 1928   4.241   4.555  10.677 -0.4209 -1.0203  0.1424
  124MPD2    C3 1929   4.304   4.668  10.734 -0.2531  0.3496  1.3161
  124MPD2    C4 1930   4.249   4.731  10.845  0.6217 -0.0638  0.3620
  124MPD2    C5 1931   4.136   4.677  10.903 -0.5547  0.3493  0.1788
  124MPD2     H 1932   4.279   4.515  10.584 -0.9004 -1.4142  0.1132
  124MPD2    H1 1933   4.291   0.077  10.902  0.0066  0.4662  0.0639
  124MPD2    H2 1934   3.990   4.519  10.900 -1.0923  0.8382 -0.8500
  124MPD2    H3 1935   4.075   4.727  10.977 -1.7278 -0.5367 -0.1754
  124MPD2     N 1936   4.408   4.722  10.657  0.2671  0.4003 -0.3761
  124MPD2    H5 1937   4.429   4.671  10.572  1.3356  0.6966 -0.2804
  124MPD2    N1 1938   4.060   4.385  10.685 -0.5388 -0.2380  0.4354
  124MPD2    H7 1939   3.980   4.357  10.742  0.3006 -0.6823  1.3900
  125TMC2    C1 1940   0.389   0.820   9.388  0.6402  0.0267  0.5944
  125TMC2    C2 1941   0.296   0.779   9.294  0.2887 -0.1935  0.2540
  125TMC2    C3 1942   0.345   0.711   9.186  0.2103 -0.2919 -0.3143
  125TMC2    C4 1943   0.524   0.806   9.372 -0.4271  0.6811 -0.5853
  125TMC2    C5 1944   0.570   0.762   9.253 -0.6384 -0.2751  0.0519
  125TMC2    C6 1945   0.484   0.713   9.160  0.9090  0.1675  0.1869
  125TMC2     C 1946   0.337   0.879   9.508  0.4668 -0.0362  0.6490
  125TMC2     O 1947   0.400   0.973   9.550 -0.7271  0.0394 -0.1116
  125TMC2     H 1948   0.190   0.791   9.312  0.1454  0.0339 -0.7687
  125TMC2    H1 1949   0.590   0.847   9.447 -0.3983  1.4738 -1.0358
  125TMC2    H2 1950   0.517   0.671   9.066  1.4201 -0.1030  0.4873
  125TMC2    C7 1951   0.710   0.775   9.212  0.4903 -0.1957  0.0778
  125TMC2    C8 1952   0.258   0.648   9.091  0.0972  0.5913  0.2191
  125TMC2    O1 1953   0.749   0.693   9.132  0.5562  0.1897 -0.1174
  125TMC2    O2 1954   0.142   0.681   9.094 -0.5435 -0.1885  0.3304
  125TMC2    O5 1955   0.302   0.526   9.077 -0.3305  0.3805 -0.0105
  125TMC2    H5 1956   0.396   0.512   9.099 -0.6752 -1.6387  0.2398
  126MPD1     C 1957   0.071   0.853   9.952  0.6651 -0.1019  0.4368
  126MPD1    C1 1958   0.035   0.741   9.876  0.5256  0.3903  0.0408
  126MPD1    C2 1959   0.095   0.730   9.750  0.3252 -0.3093 -0.6128
  126MPD1    C3 1960   0.178   0.823   9.696  0.2073  0.7102 -0.1135
  126MPD1    C4 1961   0.200   0.939   9.770  0.5922 -0.3170 -0.3614
  126MPD1    C5 1962   0.149   0.953   9.900 -0.5631 -0.0995 -0.0202
  126MPD1     H 1963   0.079   0.635   9.699  1.8549 -0.9966  0.1640
  126MPD1    H1 1964   0.257   1.023   9.730  0.7836 -0.1550  0.2404
  126MPD1    H2 1965   0.040   0.873  10.054 -0.2908 -3.0946  0.7112
  126MPD1    H3 1966   0.169   1.042   9.957 -0.0934  0.6422 -1.3251
  126MPD1     N 1967   0.225   0.810   9.567  0.5369 -0.1992 -0.5849
  126MPD1    H5 1968   0.201   0.728   9.512  0.7873  0.4244 -1.6211
  126MPD1    N1 1969   4.687   0.639   9.930  0.2374  0.1381  0.2552
  126MPD1    H6 1970   4.653   0.576   9.858  0.2827 -0.1352  0.4747
  126MPD1    H7 1971   4.599   0.666   9.973 -0.8142 -0.4971 -1.5420
  127TMC2    C1 1972   1.331   0.600  10.585  0.6547 -0.2378  0.7721
  127TMC2    C2 1973   1.396   0.503  10.646  0.2631  0.1243  0.0843
  127TMC2    C3 1974   1.342   0.380  10.650 -0.0384 -0.1253  0.0948
  127TMC2    C4 1975   1.212   0.575  10.522 -0.5045 -0.3353 -0.1500
  127TMC2    C5 1976   1.157   0.446  10.533  0.2016  0.2382 -0.3959
  127TMC2    C6 1977   1.223   0.344  10.589  0.4285  0.4969 -0.3867
  127TMC2     C 1978   1.404   0.719  10.542  0.0646 -0.6029 -0.4160
  127TMC2     O 1979   1.523   0.733  10.578 -0.4605  0.3616  0.0659
  127TMC2     H 1980   1.484   0.525  10.706 -0.1582  0.7997  0.4498
  127TMC2    H1 1981   1.151   0.654  10.480 -0.2341 -0.4231 -0.7122
  127TMC2    H2 1982   1.190   0.241  10.585 -1.6069  1.1164  0.2110
  127TMC2    C7 1983   1.045   0.413  10.444 -0.0518 -0.3657  0.4474
  127TMC2    C8 1984   1.416   0.285  10.731  0.0248  0.0923  0.0097
  127TMC2    O1 1985   1.021   0.493  10.353  0.0451  0.0848 -0.1725
  127TMC2    O2 1986   1.532   0.303  10.764 -0.2804 -0.7324  0.9994
  127TMC2    O5 1987   1.313   0.244  10.811 -0.2006 -0.0710 -0.0718
  127TMC2    H5 1988   1.223   0.243  10.773  0.1404 -1.9111 -0.8073
  128MPD2     C 1989   1.266   0.997  10.353 -1.2474 -0.0633 -0.5111
  128MPD2    C1 1990   1.367   0.910  10.388  0.2290  0.8769 -0.4189
  128MPD2    C2 1991   1.499   0.930  10.341 -0.1549 -0.0760  0.5735
  128MPD2    C3 1992   1.532   1.047  10.274 -0.4909 -0.0089  0.5703
  128MPD2    C4 1993   1.424   1.127  10.237  0.2710 -0.2462  0.8000
  128MPD2    C5 1994   1.292   1.107  10.286  0.0072  0.1746 -0.9652
  128MPD2     H 1995   1.581   0.860  10.359  0.6076  0.4602 -0.8611
  128MPD2    H1 1996   1.443   1.225  10.195  0.1541 -1.2821 -1.6690
  128MPD2    H2 1997   1.167   0.982  10.394 -1.4246  2.0161 -0.1891
  128MPD2    H3 1998   1.212   1.171  10.251 -0.0840  0.8430  0.4515
  128MPD2     N 1999   1.666   1.079  10.237  0.3301 -0.1716 -0.4484
  128MPD2    H5 2000   1.744   1.018  10.260 -0.8235 -1.2664  0.5968
  128MPD2    N1 2001   1.329   0.807  10.472 -0.0037  0.0442  0.2662
  128MPD2    H7 2002   1.231   0.793  10.497  0.4759  0.9578  2.7206
  129TMC2    C1 2003   0.782   1.600   1.764 -0.6210  0.5769 -0.0048
  129TMC2    C2 2004   0.698   1.706   1.801  0.5556  0.3943 -0.4366
  129TMC2    C3 2005   0.565   1.683   1.825  0.0931 -0.7190 -0.1236
  129TMC2    C4 2006   0.735   1.473   1.751 -0.3785  0.3179  0.6093
  129TMC2    C5 2007   0.599   1.455   1.769  0.1672  0.0884 -0.2551
  129TMC2    C6 2008   0.514   1.555   1.806 -0.5637  0.7499  0.1919
  129TMC2     C 2009   0.909   1.635   1.702  0.0435 -0.0380  0.8065
  129TMC2     O 2010   0.984   1.539   1.677  0.0650 -0.0302 -0.3713
  129TMC2     H 2011   0.733   1.808   1.812  1.8360  0.1200 -1.8960
  129TMC2    H1 2012   0.799   1.394   1.712 -2.1847 -0.6545 -0.4118
  129TMC2    H2 2013   0.407   1.543   1.819 -0.8642  0.4118 -2.7332
  129TMC2    C7 2014   0.536   1.337   1.707  0.4198  0.0390 -0.1445
  129TMC2    C8 2015   0.476   1.776   1.899  0.3032  0.1555  0.3461
  129TMC2    O1 2016   0.419   1.344   1.685 -0.2127 -0.5385  0.6523
  129TMC2    O2 2017   0.401   1.738   1.984  0.3182 -0.1993 -0.2461
  129TMC2    O5 2018   0.514   1.901   1.870 -0.7508  0.1880 -0.0064
  129TMC2    H5 2019   0.554   1.901   1.780 -1.6335 -1.0682 -0.4025
  130MPD2     C 2020   1.164   1.766   1.668 -0.2154  0.7293 -0.4174
  130MPD2    C1 2021   1.043   1.832   1.657  0.0283 -0.1128  0.0956
  130MPD2    C2 2022   1.035   1.955   1.602  0.1156 -0.0127 -0.0770
  130MPD2    C3 2023   1.147   2.024   1.555 -0.0967 -0.6559  0.7927
  130MPD2    C4 2024   1.268   1.964   1.579 -0.0206 -0.1985 -0.0486
  130MPD2    C5 2025   1.277   1.832   1.626  0.2782  0.1864 -0.4795
  130MPD2     H 2026   0.936   1.988   1.575 -0.9413 -3.3453 -0.2563
  130MPD2    H1 2027   1.356   2.008   1.535 -0.1549  0.4901  0.3756
  130MPD2    H2 2028   1.178   1.682   1.736 -0.1414  0.2249 -1.0520
  130MPD2    H3 2029   1.379   1.797   1.634 -0.4307 -2.0726 -1.4781
  130MPD2     N 2030   1.119   2.145   1.480  0.9330  0.2103  0.5247
  130MPD2    H5 2031   1.027   2.186   1.482  1.0881  0.7447 -2.8825
  130MPD2    N1 2032   0.926   1.769   1.692  0.4652 -0.0384  0.3017
  130MPD2    H7 2033   0.849   1.831   1.714 -1.7937 -1.8572 -2.5051
  131TMC2    C1 2034   4.243   0.002   9.781  0.5182  0.3127 -0.4569
  131TMC2    C2 2035   4.285   4.722   9.651 -0.3953 -0.1835  0.9504
  131TMC2    C3 2036   4.322   0.105   9.589 -0.2266 -0.2629  0.5639
  131TMC2    C4 2037   4.228   0.124   9.842  0.1218 -0.6598  0.8702
  131TMC2    C5 2038   4.282   0.237   9.777  1.4735  0.1281  0.5911
  131TMC2    C6 2039   4.329   0.230   9.654  0.0668  0.3925  0.3244
  131TMC2     C 2040   4.191   4.621   9.844  0.1653 -0.3681 -0.2265
  131TMC2     O 2041   4.219   4.614   9.961  0.6290  0.0289  0.2271
  131TMC2     H 2042   4.301   4.629   9.598  1.3210 -0.0996  1.3163
  131TMC2    H1 2043   4.212   0.126   9.949 -2.4157 -0.6929  0.4896
  131TMC2    H2 2044   4.360   0.319   9.600  1.0169 -0.1512 -0.0422
  131TMC2    C7 2045   4.241   0.362   9.837  0.3078 -0.1354 -0.1035
  131TMC2    C8 2046   4.369   0.100   9.445  0.0442 -0.5258 -0.3075
  131TMC2    O1 2047   4.142   0.354   9.907 -0.2464  0.3933  0.3162
  131TMC2    O2 2048   4.436   0.180   9.387  0.3292 -0.0999 -0.1716
  131TMC2    O5 2049   4.291   0.016   9.372  0.1096  0.0379 -0.3414
  131TMC2    H5 2050   4.238   4.699   9.435 -0.7842  0.2573 -0.9129
  132MPD2     C 2051   3.966   4.347   9.732 -0.3814  0.8411 -0.0953
  132MPD2    C1 2052   4.032   4.432   9.818 -0.0486 -0.0269  0.4721
  132MPD2    C2 2053   4.026   4.396   9.955 -0.4950 -0.5861  0.5413
  132MPD2    C3 2054   3.954   4.281   9.991 -0.2903  0.8542  0.6021
  132MPD2    C4 2055   3.876   4.210   9.902 -0.1998 -0.0848  0.0610
  132MPD2    C5 2056   3.893   4.239   9.774 -0.2087 -0.0003 -0.2572
  132MPD2     H 2057   4.089   4.445  10.029  0.6322 -0.0289 -0.7821
  132MPD2    H1 2058   3.819   4.122   9.932 -1.3053  0.6678  0.1804
  132MPD2    H2 2059   3.964   4.356   9.624  0.1300  0.8715 -0.1034
  132MPD2    H3 2060   3.834   4.179   9.706 -1.8601  0.0128  1.1807
  132MPD2     N 2061   3.955   4.260  10.129 -0.2167  0.1456  0.2159
  132MPD2    H5 2062   4.010   4.318  10.192 -0.2859 -0.6347  0.9939
  132MPD2    N1 2063   4.113   4.538   9.763  0.2082 -0.4980  0.1744
  132MPD2    H7 2064   4.108   4.551   9.663  0.1511 -2.3219 -0.0719
  133TMC2    C1 2065   3.699   1.438   9.282 -0.2676  0.2183 -0.3365
  133TMC2    C2 2066   3.728   1.571   9.322 -0.5316 -0.1030  0.6477
  133TMC2    C3 2067   3.853   1.609   9.343 -0.0004 -0.6918  0.4062
  133TMC2    C4 2068   3.790   1.351   9.239 -0.6506 -0.4676  0.1117
  133TMC2    C5 2069   3.924   1.395   9.261 -0.1008 -0.1255  0.6113
  133TMC2    C6 2070   3.956   1.514   9.317  0.0065 -0.2896 -0.7616
  133TMC2     C 2071   3.555   1.406   9.270  0.0240  0.0722  0.0214
  133TMC2     O 2072   3.535   1.300   9.212  0.4111  0.0895 -0.1731
  133TMC2     H 2073   3.646   1.641   9.334 -1.3175 -0.7291 -0.9950
  133TMC2    H1 2074   3.756   1.253   9.208 -3.0368  0.1779  0.7234
  133TMC2    H2 2075   4.057   1.552   9.311 -0.3831  0.9954  1.1628
  133TMC2    C7 2076   4.038   1.301   9.237  0.3009  0.0494 -0.1868
  133TMC2    C8 2077   3.879   1.745   9.388 -0.2219 -0.4761  0.0498
  133TMC2    O1 2078   4.148   1.328   9.289 -0.5055  0.0911  0.0921
  133TMC2    O2 2079   3.804   1.840   9.386  0.5615  0.7279  0.2275
  133TMC2    O5 2080   3.993   1.751   9.460 -0.3832 -0.1809  0.0082
  133TMC2    H5 2081   4.043   1.667   9.458  2.8432  1.7088  1.6712
  134MPD2     C 2082   3.250   1.554   9.431 -0.5076  0.0666  0.3232
  134MPD2    C1 2083   3.321   1.463   9.358  0.0065  0.2257 -0.4963
  134MPD2    C2 2084   3.255   1.345   9.318  0.5899  0.1099  0.1225
  134MPD2    C3 2085   3.119   1.330   9.337  0.4839 -0.1319 -0.5647
  134MPD2    C4 2086   3.050   1.435   9.382  0.3757  0.1081  0.2332
  134MPD2    C5 2087   3.111   1.550   9.431  0.7156 -0.4429  0.2035
  134MPD2     H 2088   3.313   1.260   9.283  0.7737  0.5001 -0.5187
  134MPD2    H1 2089   2.942   1.426   9.391  0.2273  0.6836 -1.0758
  134MPD2    H2 2090   3.295   1.644   9.472 -0.1021 -0.6072  1.3469
  134MPD2    H3 2091   3.053   1.632   9.471 -0.5804 -2.6518  2.8162
  134MPD2     N 2092   3.042   1.206   9.322  0.1483 -0.3585  0.7515
  134MPD2    H5 2093   2.953   1.201   9.371 -1.6287  0.6262 -2.3301
  134MPD2    N1 2094   3.463   1.486   9.345 -0.2820  0.6579 -0.2889
  134MPD2    H7 2095   3.499   1.567   9.394  0.3323 -0.4457  1.0711
  135TMC2    C1 2096   0.252   2.381   9.509  0.6042  0.5072 -0.4855
  135TMC2    C2 2097   0.253   2.349   9.379  0.2582 -0.5946 -0.1414
  135TMC2    C3 2098   0.142   2.299   9.322 -0.6592  0.7639  0.1804
  135TMC2    C4 2099   0.148   2.348   9.596  0.3166  0.6323  0.6066
  135TMC2    C5 2100   0.041   2.283   9.541  0.0376  0.2082  0.5129
  135TMC2    C6 2101   0.039   2.262   9.404 -0.4436 -0.5603  0.0825
  135TMC2     C 2102   0.373   2.426   9.570 -0.2353  0.2577  0.4296
  135TMC2     O 2103   0.383   2.503   9.666  0.0053  0.2976  0.2680
  135TMC2     H 2104   0.321   2.395   9.308  0.5247 -2.3735 -1.0284
  135TMC2    H1 2105   0.151   2.372   9.702 -0.1215  0.6766  0.6075
  135TMC2    H2 2106   4.681   2.228   9.360 -1.2238 -0.0666  1.3723
  135TMC2    C7 2107   4.652   2.252   9.607  0.4264 -0.5772 -0.6838
  135TMC2    C8 2108   0.121   2.277   9.185 -0.5543  0.2925  0.3463
  135TMC2    O1 2109   4.558   2.262   9.527  0.0996  0.4008  0.6453
  135TMC2    O2 2110   0.006   2.265   9.153  0.1241 -0.0181 -0.3718
  135TMC2    O5 2111   0.226   2.213   9.120 -0.1718 -0.2340  0.2102
  135TMC2    H5 2112   0.314   2.223   9.162  1.0928 -1.9228 -2.0634
  136MPD2     C 2113   0.669   2.517   9.605  0.0908 -0.3500 -0.6004
  136MPD2    C1 2114   0.619   2.416   9.524  0.0716 -0.0269 -0.2699
  136MPD2    C2 2115   0.708   2.335   9.450  0.3520  0.3234 -0.2001
  136MPD2    C3 2116   0.844   2.357   9.457  0.3001  0.1726 -0.0448
  136MPD2    C4 2117   0.889   2.466   9.528 -0.1484  0.2147 -0.2007
  136MPD2    C5 2118   0.805   2.548   9.598  0.7824 -0.3909  0.7999
  136MPD2     H 2119   0.660   2.286   9.367 -0.1546  1.0537 -0.3382
  136MPD2    H1 2120   0.995   2.488   9.530 -0.1637  0.4283 -2.9437
  136MPD2    H2 2121   0.603   2.576   9.666  0.2563  1.1294 -1.8437
  136MPD2    H3 2122   0.848   2.631   9.653  0.0150  0.5958 -0.0925
  136MPD2     N 2123   0.942   2.279   9.387  0.3047  0.1666 -0.6651
  136MPD2    H5 2124   1.036   2.312   9.409  0.3722  1.4510 -2.9090
  136MPD2    N1 2125   0.482   2.380   9.504  0.6533  0.2630 -0.1872
  136MPD2    H7 2126   0.472   2.306   9.434 -1.2576  1.5823 -1.2978
  137TMC2    C1 2127   0.581   1.693   8.944  0.2119 -0.0887 -0.0970
  137TMC2    C2 2128   0.704   1.670   8.898  0.2413  0.0030 -0.3014
  137TMC2    C3 2129   0.740   1.557   8.833  0.8933 -0.6724 -0.1875
  137TMC2    C4 2130   0.503   1.582   8.958 -0.0992  0.2141 -0.1785
  137TMC2    C5 2131   0.539   1.464   8.892  0.7944 -0.5189 -0.7102
  137TMC2    C6 2132   0.663   1.445   8.823  0.0444  0.2855 -0.0002
  137TMC2     C 2133   0.578   1.797   9.044 -0.1028  0.2738 -0.6727
  137TMC2     O 2134   0.686   1.838   9.081  0.2512  0.0188 -0.6206
  137TMC2     H 2135   0.787   1.740   8.898 -0.6360  1.0103  1.1368
  137TMC2    H1 2136   0.401   1.598   8.993  0.9106  0.2758  2.7255
  137TMC2    H2 2137   0.697   1.350   8.785 -1.7716  0.3242 -1.7546
  137TMC2    C7 2138   0.466   1.345   8.900 -0.5750 -0.4979 -0.3541
  137TMC2    C8 2139   0.880   1.545   8.793 -0.1927 -0.0897  0.1927
  137TMC2    O1 2140   0.499   1.253   8.831  0.3398 -0.1799 -0.0693
  137TMC2    O2 2141   0.948   1.643   8.774  0.2086  0.3703 -0.4304
  137TMC2    O5 2142   0.909   1.415   8.778  0.3515  0.6127  0.0615
  137TMC2    H5 2143   0.887   1.360   8.856 -1.9273 -0.2609 -1.2207
  138MPD2     C 2144   0.294   1.917   9.234  0.6128  0.3181  0.2584
  138MPD2    C1 2145   0.420   1.885   9.214 -1.0393  0.7372  0.6533
  138MPD2    C2 2146   0.511   1.902   9.315  0.2563 -0.3344 -1.5651
  138MPD2    C3 2147   0.462   1.965   9.430  0.2376  1.0299 -0.7248
  138MPD2    C4 2148   0.333   1.993   9.450 -0.6841 -0.8386  0.5008
  138MPD2    C5 2149   0.249   1.972   9.344  0.3742 -0.6159 -1.0181
  138MPD2     H 2150   0.618   1.883   9.307  0.2594 -0.5499 -0.9768
  138MPD2    H1 2151   0.290   2.039   9.539  1.5929  0.0300  1.1496
  138MPD2    H2 2152   0.218   1.897   9.159 -0.3330 -0.6052  1.4824
  138MPD2    H3 2153   0.142   1.985   9.358  0.4489  0.6074 -1.5400
  138MPD2     N 2154   0.556   1.988   9.533  0.2878 -0.2138 -0.4899
  138MPD2    H5 2155   0.652   1.961   9.515  0.4165 -0.9758  1.2906
  138MPD2    N1 2156   0.454   1.828   9.087 -0.2966 -0.1648 -0.9229
  138MPD2    H7 2157   0.377   1.809   9.024 -0.3931 -1.8120 -0.3257
  139TMC2    C1 2158   1.787   4.621  13.650 -0.2276  0.1856 -0.3625
  139TMC2    C2 2159   1.852   4.650  13.530  0.4312  0.4711 -0.2478
  139TMC2    C3 2160   1.784   4.717  13.435 -0.0511 -0.1717 -0.3758
  139TMC2    C4 2161   1.649   4.647  13.668 -0.4987 -1.2280  0.3969
  139TMC2    C5 2162   1.587   4.716  13.565 -0.2103  0.2538 -0.5036
  139TMC2    C6 2163   1.656   0.029  13.454 -0.1654 -0.3836  0.5721
  139TMC2     C 2164   1.869   4.546  13.743  0.0770  0.5231  0.2044
  139TMC2     O 2165   1.980   4.509  13.703  0.3642 -0.3088 -0.7165
  139TMC2     H 2166   1.955   4.626  13.506  0.0488  0.2276 -1.6966
  139TMC2    H1 2167   1.597   4.623  13.760  1.1455 -0.1567  1.6062
  139TMC2    H2 2168   1.618   0.082  13.368 -1.1004 -0.3136  1.0269
  139TMC2    C7 2169   1.463   0.051  13.588  0.2820  0.0751  0.1315
  139TMC2    C8 2170   1.823   4.690  13.299 -0.5456 -0.0070  0.4989
  139TMC2    O1 2171   1.442   0.141  13.512 -0.4869 -0.1737 -0.3233
  139TMC2    O2 2172   1.843   0.035  13.210 -0.1856 -1.2615  0.3889
  139TMC2    O5 2173   1.847   4.554  13.290  0.3863 -0.3212  0.1487
  139TMC2    H5 2174   1.792   4.507  13.357  1.3847 -1.1417  0.3929
  140MPD2     C 2175   1.834   4.469  14.099 -0.1852  0.0085 -0.0386
  140MPD2    C1 2176   1.881   4.449  13.971  0.0614  0.2141 -0.0181
  140MPD2    C2 2177   1.993   4.370  13.953  0.2371  0.0334  0.3172
  140MPD2    C3 2178   2.045   4.296  14.054 -0.1807 -0.3173  0.3409
  140MPD2    C4 2179   2.012   4.337  14.184  0.2626 -0.0412 -0.4220
  140MPD2    C5 2180   1.903   4.416  14.209 -0.0010 -0.0171 -0.3924
  140MPD2     H 2181   2.035   4.358  13.854 -0.6968 -3.5428  0.3589
  140MPD2    H1 2182   2.065   4.290  14.266  0.2704 -3.6515 -2.4885
  140MPD2    H2 2183   1.760   4.546  14.115 -0.4855 -0.3885  0.4736
  140MPD2    H3 2184   1.892   4.441  14.314  0.6512 -0.9593 -0.1004
  140MPD2     N 2185   2.154   4.205  14.021 -0.0115 -0.0959 -0.0051
  140MPD2    H5 2186   2.167   4.190  13.922 -0.5101  2.1679 -0.4116
  140MPD2    N1 2187   1.824   4.535  13.868 -0.0496  0.3195  0.4657
  140MPD2    H7 2188   1.743   4.590  13.894  0.2094  1.2596 -0.7283
  141TMC2    C1 2189   1.949   1.270  14.306  0.3399  0.2591  0.0841
  141TMC2    C2 2190   1.842   1.226  14.232 -0.2845 -0.4691 -0.8197
  141TMC2    C3 2191   1.719   1.223  14.293  0.1893 -0.2317 -0.1967
  141TMC2    C4 2192   1.925   1.355  14.409 -0.3092  0.1359  0.4996
  141TMC2    C5 2193   1.798   1.376  14.457  0.0804 -0.6216  0.0482
  141TMC2    C6 2194   1.693   1.304  14.401  0.2072 -0.2756  1.1509
  141TMC2     C 2195   2.083   1.268  14.237 -0.2697 -0.1968 -0.1743
  141TMC2     O 2196   2.078   1.226  14.126  0.5271  0.6178 -0.4851
  141TMC2     H 2197   1.863   1.169  14.142  0.5166 -2.9869  0.9640
  141TMC2    H1 2198   2.009   1.397  14.463 -0.4049 -0.9043  1.4556
  141TMC2    H2 2199   1.593   1.324  14.436 -0.5220 -1.1033 -0.4788
  141TMC2    C7 2200   1.763   1.502  14.521  0.1794  0.2388  0.1431
  141TMC2    C8 2201   1.604   1.178  14.218  0.6541 -0.4700  0.0621
  141TMC2    O1 2202   1.675   1.568  14.471  0.0796  0.6861  0.0343
  141TMC2    O2 2203   1.490   1.229  14.233  0.0432 -0.3777 -0.0847
  141TMC2    O5 2204   1.629   1.049  14.190  0.1042  0.2610  0.2690
  141TMC2    H5 2205   1.723   1.023  14.199  0.0778 -0.3190 -1.1412
  142TMC2    C1 2206   4.252   4.129   9.989  0.1829  0.6452 -1.0859
  142TMC2    C2 2207   4.248   4.101   9.856 -0.5383 -0.0468  0.2701
  142TMC2    C3 2208   4.306   4.182   9.767 -0.4235 -0.4297  0.2937
  142TMC2    C4 2209   4.312   4.243  10.034 -0.2466 -0.1615  0.2862
  142TMC2    C5 2210   4.378   4.315   9.938 -0.4184  0.0696  0.2434
  142TMC2    C6 2211   4.378   4.289   9.805 -0.1972  0.0729  0.4366
  142TMC2     C 2212   4.227   4.021  10.079  0.2035 -0.0727  0.0360
  142TMC2     O 2213   4.141   3.939  10.049 -0.0929 -0.5091  0.0464
  142TMC2     H 2214   4.194   4.013   9.826 -2.5179 -0.1850  4.2909
  142TMC2    H1 2215   4.310   4.265  10.140 -0.3758  1.1933 -0.0036
  142TMC2    H2 2216   4.440   4.325   9.723 -1.3073  1.2052  0.1002
  142TMC2    C7 2217   4.475   4.400   9.994  0.7146 -0.4836  0.1002
  142TMC2    C8 2218   4.257   4.174   9.626  0.4797  0.4171  0.3861
  142TMC2    O1 2219   4.453   4.416  10.111 -0.2822 -0.3845  0.1607
  142TMC2    O2 2220   4.265   4.268   9.552  0.4446  0.0410  0.3333
  142TMC2    O5 2221   4.255   4.043   9.583 -0.1875 -0.0022 -0.3552
  142TMC2    H5 2222   4.281   3.974   9.648  0.3903  0.5342 -0.0271
  143MPD2     C 2223   4.318   3.782  10.533  0.5963 -0.3907  0.0925
  143MPD2    C1 2224   4.248   3.740  10.418 -0.3021  0.5741 -0.0028
  143MPD2    C2 2225   4.228   3.821  10.304 -0.2507  0.3446 -0.3194
  143MPD2    C3 2226   4.287   3.944  10.306  0.0482 -0.0198  0.2807
  143MPD2    C4 2227   4.362   3.982  10.419 -0.2296  0.0040 -0.3549
  143MPD2    C5 2228   4.385   3.897  10.524  0.4496 -0.2641  0.1572
  143MPD2     H 2229   4.196   3.774  10.212  1.1399 -1.8603  0.3295
  143MPD2    H1 2230   4.417   4.075  10.427 -1.0357  0.2991  1.5868
  143MPD2    H2 2231   4.321   3.732  10.629  0.0730 -1.1525 -0.2858
  143MPD2    H3 2232   4.427   3.930  10.618  0.7807 -1.8044  0.5537
  143MPD2     N 2233   4.288   4.040  10.206 -0.6747  0.1478 -0.2750
  143MPD2    H5 2234   4.345   4.122  10.224  0.7181 -0.3570 -2.3885
  143MPD2    N1 2235   4.207   3.602  10.419 -0.5995  0.2931 -0.1836
  143MPD2    H7 2236   4.239   3.558  10.505  0.8271  2.4806  0.3987
  144TMC2    C1 2237   2.864   3.542   0.506 -0.3738 -0.6737  0.3877
  144TMC2    C2 2238   2.902   3.412   0.527 -0.1870 -0.5440 -0.4428
  144TMC2    C3 2239   3.038   3.390   0.513 -0.0521  0.0431  0.1363
  144TMC2    C4 2240   2.948   3.653   0.476  0.4166 -0.1535  0.4043
  144TMC2    C5 2241   3.077   3.632   0.482 -0.1203 -0.2378  0.5104
  144TMC2    C6 2242   3.127   3.496   0.497  0.8219 -0.0168  0.8016
  144TMC2     C 2243   2.721   3.555   0.479  0.5279 -0.2398 -0.2559
  144TMC2     O 2244   2.654   3.456   0.467  0.5754 -0.2154  0.8822
  144TMC2     H 2245   2.829   3.335   0.552 -0.4033  0.3127  1.4975
  144TMC2    H1 2246   2.917   3.751   0.444  1.2839  0.2790  0.8850
  144TMC2    H2 2247   3.235   3.486   0.503  0.9378  0.0657 -1.3049
  144TMC2    C7 2248   3.162   3.754   0.477  0.3768 -0.0567  0.1376
  144TMC2    C8 2249   3.077   3.251   0.540  0.3777  0.5983  0.5622
  144TMC2    O1 2250   3.274   3.727   0.448 -0.5662 -0.2965 -0.1634
  144TMC2    O2 2251   3.004   3.163   0.584 -0.4607 -0.0458 -0.1068
  144TMC2    O5 2252   3.178   3.232   0.455 -0.1574  0.3395  0.3557
  144TMC2    H5 2253   3.231   3.313   0.437 -3.1409  2.8126  2.7875
  145MPD2     C 2254   2.304   3.831   0.354  0.0304  0.1326  0.1789
  145MPD2    C1 2255   2.322   3.695   0.351 -0.0894 -0.1266 -0.2484
  145MPD2    C2 2256   2.449   3.649   0.381  0.5148  0.1735 -0.0036
  145MPD2    C3 2257   2.552   3.731   0.433  0.3708 -0.0454 -0.3451
  145MPD2    C4 2258   2.533   3.863   0.433 -0.3349 -0.3778  0.3476
  145MPD2    C5 2259   2.408   3.914   0.400 -0.0758  0.7099 -0.3300
  145MPD2     H 2260   2.473   3.544   0.371 -0.2103 -0.3249  3.3492
  145MPD2    H1 2261   2.606   3.938   0.462  1.7672 -3.1377  2.1399
  145MPD2    H2 2262   2.215   3.877   0.313 -0.5092 -2.0877 -1.0945
  145MPD2    H3 2263   2.388   4.020   0.391 -0.4263  0.6792  0.0660
  145MPD2     N 2264   2.684   3.689   0.465 -0.1616 -0.0420  0.2593
  145MPD2    H5 2265   2.758   3.753   0.493 -1.2333  0.2895  2.3059
  145MPD2    N1 2266   2.227   3.612   0.294 -0.3004  0.3609  0.6580
  145MPD2    H7 2267   2.251   3.513   0.290 -0.4414  0.3684 -0.3978
  146TMC2    C1 2268   3.871   2.478  12.666  0.0938  1.0091  0.5102
  146TMC2    C2 2269   3.754   2.546  12.635  0.1637  0.1463  0.3782
  146TMC2    C3 2270   3.705   2.533  12.512 -0.1373  0.1947  0.5656
  146TMC2    C4 2271   3.923   2.400  12.569  0.2464 -0.7078  0.6742
  146TMC2    C5 2272   3.868   2.393  12.449 -0.0063 -0.3446 -0.1449
  146TMC2    C6 2273   3.745   2.451  12.411  0.9404  0.7095  0.0403
  146TMC2     C 2274   3.941   2.513  12.787 -0.1237  0.1245 -0.6321
  146TMC2     O 2275   3.893   2.597  12.862 -0.6836  0.5505  0.0439
  146TMC2     H 2276   3.698   2.597  12.712 -0.5712 -1.1255  0.6828
  146TMC2    H1 2277   4.026   2.368  12.582  0.4710 -0.4619 -0.4641
  146TMC2    H2 2278   3.714   2.453  12.308 -0.4699  1.1383  0.4816
  146TMC2    C7 2279   3.953   2.353  12.341  0.8222 -0.4456 -0.4637
  146TMC2    C8 2280   3.583   2.607  12.489 -0.2749  0.1106 -0.2787
  146TMC2    O1 2281   3.948   2.416  12.237  0.0364 -0.0922 -0.2821
  146TMC2    O2 2282   3.545   2.695  12.561 -0.1326 -0.0288 -0.6209
  146TMC2    O5 2283   3.494   2.548  12.409 -0.0271  0.2173 -0.0914
  146TMC2    H5 2284   3.496   2.450  12.417 -0.7007  0.1997 -0.1626
  147MPD2     C 2285   4.380   2.120  12.174 -0.6515  0.5387  0.0159
  147MPD2    C1 2286   4.364   2.101  12.311  0.3881 -0.0105  0.1486
  147MPD2    C2 2287   4.255   2.147  12.375  0.3627 -0.3258  0.3778
  147MPD2    C3 2288   4.152   2.216  12.303  0.0830  0.2112 -0.2064
  147MPD2    C4 2289   4.166   2.234  12.171 -0.9075 -0.5992 -0.3905
  147MPD2    C5 2290   4.276   2.182  12.107  0.1322  0.5448  0.0472
  147MPD2     H 2291   4.250   2.144  12.483 -1.2761  1.7062  0.3590
  147MPD2    H1 2292   4.093   2.289  12.113  0.8094  1.2799 -0.7955
  147MPD2    H2 2293   4.458   2.082  12.108 -0.4482  1.3363 -0.1998
  147MPD2    H3 2294   4.270   2.202  12.000  1.3531 -0.4155 -0.2048
  147MPD2     N 2295   4.044   2.264  12.384  0.1872  0.4440 -0.3169
  147MPD2    H5 2296   4.037   2.229  12.479 -2.7836  1.8764 -0.0097
  147MPD2    N1 2297   4.474   2.042  12.370  0.1061  0.1606 -0.7279
  147MPD2    H7 2298   4.554   2.022  12.310 -0.5251  1.6300 -2.0686
  148TMC2    C1 2299   4.451   0.832  10.382 -0.3709 -0.3945  0.1508
  148TMC2    C2 2300   4.580   0.881  10.371  0.2532  0.7368 -0.1215
  148TMC2    C3 2301   4.678   0.791  10.385  0.3024  0.6013  0.0009
  148TMC2    C4 2302   4.424   0.697  10.417  0.3620 -0.1102  0.2490
  148TMC2    C5 2303   4.531   0.615  10.438 -0.4737  0.2182  0.3368
  148TMC2    C6 2304   4.651   0.659  10.419 -0.0813  0.2721  0.8136
  148TMC2     C 2305   4.345   0.915  10.335 -0.2668  0.0302  0.1295
  148TMC2     O 2306   4.356   1.037  10.342  0.3861 -0.0007 -0.2974
  148TMC2     H 2307   4.599   0.984  10.345 -0.4444  1.0325  0.5263
  148TMC2    H1 2308   4.324   0.659  10.432  0.8342 -1.4503  0.0383
  148TMC2    H2 2309   4.732   0.587  10.427 -0.1564  0.1258  0.2528
  148TMC2    C7 2310   4.497   0.486  10.407  0.2091 -0.0809  0.2965
  148TMC2    C8 2311   0.062   0.820  10.316  0.2933 -0.1054 -0.7179
  148TMC2    O1 2312   4.394   0.447  10.455  0.5684  0.0496 -0.3315
  148TMC2    O2 2313   0.136   0.733  10.271 -0.4738 -0.4908 -0.1786
  148TMC2    O5 2314   0.098   0.948  10.339 -0.2398  0.0313  0.2249
  148TMC2    H5 2315   0.048   1.011  10.395 -0.7331  0.8060 -1.0904
  149MPD2     C 2316   4.056   1.008  10.288  0.0458  0.1669  0.1693
  149MPD2    C1 2317   4.102   0.882  10.268  0.2445 -0.4154  0.6992
  149MPD2    C2 2318   4.013   0.784  10.227 -0.3571 -0.2800  0.3279
  149MPD2    C3 2319   3.884   0.817  10.189 -0.5063 -1.0927  0.6858
  149MPD2    C4 2320   3.846   0.942  10.200  0.4718 -0.0280 -0.0814
  149MPD2    C5 2321   3.925   1.043  10.256 -0.1183  0.0890  0.2993
  149MPD2     H 2322   4.057   0.685  10.233  1.0703  0.4273  1.7219
  149MPD2    H1 2323   3.745   0.970  10.172  0.6655  1.5914  0.8554
  149MPD2    H2 2324   4.125   1.078  10.333 -1.3875  0.7976  1.3690
  149MPD2    H3 2325   3.882   1.142  10.266  4.1423  2.1002 -1.2974
  149MPD2     N 2326   3.783   0.724  10.155  0.1376 -0.4369  0.1120
  149MPD2    H5 2327   3.685   0.751  10.150  0.3383  0.5509  1.3523
  149MPD2    N1 2328   4.238   0.840  10.292  0.6380  0.4596  0.3943
  149MPD2    H7 2329   4.257   0.741  10.285  1.1332  0.4970  1.1718
  150TMC2    C1 2330   1.649   4.722  12.242  0.4740  0.3426  0.2319
  150TMC2    C2 2331   1.618   4.727  12.106 -0.7402  0.2752  0.3139
  150TMC2    C3 2332   1.701   0.073  12.032  0.2393  0.7468 -0.3957
  150TMC2    C4 2333   1.763   0.021  12.296 -0.2779 -0.3229 -0.0106
  150TMC2    C5 2334   1.846   0.091  12.209 -0.4505 -0.1738  0.7868
  150TMC2    C6 2335   1.815   0.124  12.079 -0.5512  0.6977 -0.3740
  150TMC2     C 2336   1.548   4.660  12.319 -0.7476  0.0459 -0.1759
  150TMC2     O 2337   1.591   4.602  12.417  0.1015 -0.0264 -0.5631
  150TMC2     H 2338   1.535   4.670  12.065  0.8532 -0.9316 -1.2182
  150TMC2    H1 2339   1.783   0.008  12.402  0.3163 -0.8622 -0.1877
  150TMC2    H2 2340   1.879   0.194  12.025  1.5769 -1.1429 -0.2205
  150TMC2    C7 2341   1.942   0.183  12.269 -0.2443  0.7549  0.6103
  150TMC2    C8 2342   1.679   0.062  11.891 -0.2179  0.7588 -0.4914
  150TMC2    O1 2343   1.939   0.294  12.225 -0.0397  0.0124 -0.4000
  150TMC2    O2 2344   1.568   0.041  11.846  0.5293  0.3052  0.6002
  150TMC2    O5 2345   1.787   4.718  11.864 -0.2552  0.2770  0.0833
  150TMC2    H5 2346   1.863   4.725  11.926 -1.0452 -2.4080  1.3632
  151MPD2     C 2347   1.063   4.505  12.394 -0.4493 -0.1373  0.4014
  151MPD2    C1 2348   1.063   4.597  12.289  0.1033 -0.0845 -0.1565
  151MPD2    C2 2349   1.181   4.663  12.256  0.2900 -0.5763 -0.3583
  151MPD2    C3 2350   1.299   4.619  12.321 -0.3974  0.0419  0.1215
  151MPD2    C4 2351   1.301   4.511  12.404 -0.5013 -0.0655  0.7561
  151MPD2    C5 2352   1.182   4.461  12.446 -0.0782 -0.0317 -0.3394
  151MPD2     H 2353   1.184   0.014  12.190  2.4373  0.4035  1.0325
  151MPD2    H1 2354   1.388   4.464  12.448 -0.5128 -0.6200  0.1889
  151MPD2    H2 2355   0.976   4.445  12.419  0.7511 -2.1772 -0.3797
  151MPD2    H3 2356   1.184   4.391  12.529 -3.5930  0.7162  0.3986
  151MPD2     N 2357   1.417   4.680  12.273 -0.5636 -0.0107  0.4463
  151MPD2    H5 2358   1.394   0.024  12.215  1.6971 -0.7398 -1.4359
  151MPD2    N1 2359   0.932   4.618  12.227 -0.3662 -0.6691  0.3911
  151MPD2    H7 2360   0.847   4.572  12.259  0.9693 -2.5871  1.1825
  152TMC2    C1 2361   1.364   0.012  12.735  0.5763  0.4785  0.4245
  152TMC2    C2 2362   1.407   4.617  12.717 -0.4552  0.9127  0.3361
  152TMC2    C3 2363   1.542   4.595  12.705 -0.1661  1.1195  0.0723
  152TMC2    C4 2364   1.459   0.118  12.720 -0.3298 -0.4742 -0.1592
  152TMC2    C5 2365   1.593   0.083  12.711 -0.3445 -0.1906  0.7130
  152TMC2    C6 2366   1.638   4.689  12.699 -0.0817 -0.4524  0.2201
  152TMC2     C 2367   1.223   0.040  12.733 -0.2463 -0.2759 -1.0571
  152TMC2     O 2368   1.185   0.144  12.675 -0.4571 -0.4366 -0.3770
  152TMC2     H 2369   1.336   4.535  12.717  1.1310 -0.4466  1.8200
  152TMC2    H1 2370   1.424   0.220  12.713 -3.3796 -1.5229 -0.3026
  152TMC2    H2 2371   1.742   4.661  12.687 -0.1491  0.3431 -2.3644
  152TMC2    C7 2372   1.666   0.191  12.661 -0.3865  0.6101  0.3074
  152TMC2    C8 2373   1.583   4.457  12.721  0.1728 -0.1599  0.3654
  152TMC2    O1 2374   1.613   0.259  12.574  0.1667  0.0915 -0.3498
  152TMC2    O2 2375   1.538   4.374  12.797 -0.0432  0.3670 -0.0861
  152TMC2    O5 2376   1.646   4.424  12.611  0.5445  0.5553 -0.0842
  152TMC2    H5 2377   1.645   4.502  12.552  1.4249  1.0501  0.5555
  153MPD2     C 2378   0.943   4.553  12.854  0.3135 -0.0985  0.4472
  153MPD2    C1 2379   1.002   4.671  12.803  0.0159 -1.0806  0.2443
  153MPD2    C2 2380   0.921   0.041  12.780 -0.2478  0.2064 -0.0015
  153MPD2    C3 2381   0.785   0.033  12.796 -0.7173  0.7265  0.3857
  153MPD2    C4 2382   0.724   4.657  12.849  0.0523  0.4824  0.1584
  153MPD2    C5 2383   0.809   4.556  12.883 -0.0444  0.0691  0.3255
  153MPD2     H 2384   0.962   0.135  12.745 -0.1617 -0.5679 -1.9625
  153MPD2    H1 2385   0.620   4.658  12.878  0.2243 -0.0132  0.8232
  153MPD2    H2 2386   1.000   4.465  12.880  1.3141  1.0496  2.1125
  153MPD2    H3 2387   0.766   4.466  12.924  1.4153 -0.3747  0.8890
  153MPD2     N 2388   0.713   0.155  12.776 -0.1538 -0.4014 -0.3572
  153MPD2    H5 2389   0.770   0.236  12.755  0.8043 -0.8461  0.5305
  153MPD2    N1 2390   1.144   4.673  12.786 -0.4258  0.3399  0.4006
  153MPD2    H7 2391   1.180   4.581  12.808  0.3785  0.7498  0.7864
  154TMC2    C1 2392   2.542   0.075   0.057  0.5063 -0.1537  0.2269
  154TMC2    C2 2393   2.639   0.008   0.125 -0.2145 -0.5805 -0.3853
  154TMC2    C3 2394   2.706   4.649   0.061 -0.0463  0.4245 -0.3426
  154TMC2    C4 2395   2.504   0.037  17.672 -0.8934 -0.1869 -0.6514
  154TMC2    C5 2396   2.569   4.667  17.617 -0.3021  0.2793 -0.6999
  154TMC2    C6 2397   2.670   4.601  17.678  0.8908 -0.3209  1.4549
  154TMC2     C 2398   2.459   0.171   0.131 -0.7622 -0.6690  0.3237
  154TMC2     O 2399   2.515   0.230   0.218 -0.0019  0.1239  0.0167
  154TMC2     H 2400   2.666   0.040   0.225 -0.2223 -1.7151 -0.0216
  154TMC2    H1 2401   2.419   0.077  17.619 -0.6433  0.6702 -0.4100
  154TMC2    H2 2402   2.731   4.532  17.620  1.8513  0.0617  2.0170
  154TMC2    C7 2403   2.486   4.587  17.527  0.1347  0.1106 -0.4964
  154TMC2    C8 2404   2.792   4.574   0.152 -0.0059 -0.6587  1.1367
  154TMC2    O1 2405   2.404   4.647  17.460 -0.6185  0.6896  0.0936
  154TMC2    O2 2406   2.831   4.460   0.132  0.3513 -0.1432 -0.4973
  154TMC2    O5 2407   2.887   4.672   0.181  0.0492 -0.3037  0.1191
  154TMC2    H5 2408   2.863   0.028   0.158  0.2347 -0.7654 -1.8843
  155MPD2     C 2409   2.171   0.374   0.019 -0.5078 -0.1587 -0.2921
  155MPD2    C1 2410   2.268   0.330   0.105  0.2494  0.4487  0.9000
  155MPD2    C2 2411   2.280   0.384   0.229  0.7147 -0.3691  0.3225
  155MPD2    C3 2412   2.217   0.499   0.260 -0.2257 -0.3339  0.3381
  155MPD2    C4 2413   2.130   0.553   0.163  0.0376  0.2961  0.6337
  155MPD2    C5 2414   2.108   0.492   0.047 -0.2452  0.6741  0.1603
  155MPD2     H 2415   2.352   0.349   0.302 -1.0481 -1.1480  1.6743
  155MPD2    H1 2416   2.074   0.641   0.192  0.9509  0.9105  0.5307
  155MPD2    H2 2417   2.148   0.322  17.668 -0.6093 -0.1762 -0.2575
  155MPD2    H3 2418   2.039   0.527  17.713 -0.0623 -0.6514 -0.6349
  155MPD2     N 2419   2.244   0.557   0.388 -0.0368  0.0857 -0.4198
  155MPD2    H5 2420   2.304   0.507   0.453 -1.6862 -1.2711  0.0415
  155MPD2    N1 2421   2.346   0.213   0.070 -0.0419  0.1941 -0.6489
  155MPD2    H7 2422   2.312   0.170  17.725  0.2688 -0.9295 -0.2089
  156TMC2    C1 2423   1.275   2.135  11.850  0.3538 -1.0574  0.4390
  156TMC2    C2 2424   1.295   2.079  11.728 -0.6598 -0.1378  0.4560
  156TMC2    C3 2425   1.189   2.103  11.638  0.2444 -0.0044  0.6625
  156TMC2    C4 2426   1.166   2.207  11.891  0.6292  0.0760  0.1046
  156TMC2    C5 2427   1.080   2.240  11.788  0.1469 -0.1306  0.3897
  156TMC2    C6 2428   1.092   2.196  11.664 -0.6414 -0.0037 -0.2470
  156TMC2     C 2429   1.389   2.142  11.939  0.0235  0.3265  0.9466
  156TMC2     O 2430   1.358   2.176  12.050 -0.2557  0.5436  0.9757
  156TMC2     H 2431   1.388   2.025  11.714 -0.7944 -0.4960  0.9414
  156TMC2    H1 2432   1.164   2.278  11.973  0.1557  1.7183 -1.3057
  156TMC2    H2 2433   1.032   2.241  11.586 -0.2356  0.1001 -0.5053
  156TMC2    C7 2434   0.962   2.320  11.820 -0.2013 -0.7804 -0.3067
  156TMC2    C8 2435   1.200   2.078  11.498 -0.6051  0.0962  0.3020
  156TMC2    O1 2436   0.912   2.386  11.731 -0.2819 -0.0149  0.0431
  156TMC2    O2 2437   1.104   2.065  11.425 -0.5523 -0.3213 -0.3281
  156TMC2    O5 2438   1.329   2.048  11.461  0.1126 -0.2757  0.3786
  156TMC2    H5 2439   1.396   2.083  11.524  1.3308 -0.7473 -0.6694
  157MPD2     C 2440   1.737   2.073  11.896  0.3594  0.0710 -0.2679
  157MPD2    C1 2441   1.623   2.128  11.953 -0.1366  0.0489  0.8055
  157MPD2    C2 2442   1.639   2.200  12.067  0.5205 -0.4336 -0.4975
  157MPD2    C3 2443   1.765   2.198  12.127 -0.2733  0.1027 -0.6216
  157MPD2    C4 2444   1.879   2.138  12.063 -0.3897  0.6332  0.5502
  157MPD2    C5 2445   1.862   2.077  11.945 -0.6871 -0.5936  0.0041
  157MPD2     H 2446   1.567   2.258  12.124  0.5433  0.0837 -0.9974
  157MPD2    H1 2447   1.975   2.131  12.112 -0.5667  0.9747  0.9529
  157MPD2    H2 2448   1.721   2.023  11.801 -2.1776 -2.3573  1.4270
  157MPD2    H3 2449   1.939   2.028  11.887  1.3033  1.1830  1.1491
  157MPD2     N 2450   1.761   2.283  12.239  0.7993 -0.2294  0.1716
  157MPD2    H5 2451   1.685   2.350  12.248  0.9660 -0.1093  0.6570
  157MPD2    N1 2452   1.507   2.117  11.883 -0.4588  0.4984  0.6637
  157MPD2    H7 2453   1.513   2.083  11.787  1.0361 -0.7226  1.1794
  158TMC2    C1 2454   1.833   0.820  13.263  0.3823 -0.1846  0.2070
  158TMC2    C2 2455   1.893   0.791  13.142 -0.4934 -0.1846 -0.4079
  158TMC2    C3 2456   1.844   0.861  13.040  0.1807 -0.6362 -0.1688
  158TMC2    C4 2457   1.743   0.923  13.285  0.4060 -0.1119  0.0515
  158TMC2    C5 2458   1.704   0.993  13.176 -0.1066  0.2256  0.5211
  158TMC2    C6 2459   1.756   0.968  13.054  0.4068  0.4897 -0.5701
  158TMC2     C 2460   1.906   0.765  13.378 -0.8403 -0.1567  0.0185
  158TMC2     O 2461   2.023   0.715  13.370 -0.2547 -0.2038 -0.0605
  158TMC2     H 2462   1.961   0.707  13.131  1.2880  1.4408 -1.5199
  158TMC2    H1 2463   1.708   0.955  13.383  0.2010  0.4781 -0.2161
  158TMC2    H2 2464   1.718   1.007  12.960  1.8786 -1.2197 -1.8794
  158TMC2    C7 2465   1.564   1.059  13.169 -0.5153 -0.0914  0.1064
  158TMC2    C8 2466   1.896   0.847  12.901 -0.1645 -0.0128  0.2982
  158TMC2    O1 2467   1.525   1.126  13.077  0.8250 -0.2649  0.1467
  158TMC2    O2 2468   1.843   0.881  12.795  0.2642 -0.0941 -0.0279
  158TMC2    O5 2469   2.022   0.796  12.914 -0.3528 -0.0445 -0.5369
  158TMC2    H5 2470   2.057   0.802  13.006 -0.1382 -1.6065 -0.5176
  159MPD2     C 2471   1.918   0.726  13.890 -0.5779 -0.3873  0.1288
  159MPD2    C1 2472   1.787   0.717  13.855 -0.2354  0.0552 -0.3375
  159MPD2    C2 2473   1.752   0.724  13.720 -0.2115 -0.4018 -0.4629
  159MPD2    C3 2474   1.848   0.743  13.623 -0.2738 -0.1118  0.6891
  159MPD2    C4 2475   1.979   0.756  13.660 -0.3129  0.9569  0.2520
  159MPD2    C5 2476   2.016   0.742  13.793  0.1609 -0.4076  0.5360
  159MPD2     H 2477   1.647   0.731  13.694 -0.3938  0.0708  0.4209
  159MPD2    H1 2478   2.058   0.787  13.593 -1.5209 -0.1618 -1.6884
  159MPD2    H2 2479   1.945   0.730  13.995  2.5167 -0.3985 -0.6640
  159MPD2    H3 2480   2.121   0.744  13.821  0.5768  1.1780 -1.2046
  159MPD2     N 2481   1.817   0.767  13.486  0.2552 -1.0554 -0.2467
  159MPD2    H5 2482   1.717   0.780  13.468  0.1815 -1.4729 -0.1335
  159MPD2    N1 2483   1.688   0.702  13.959 -0.0193 -0.2263  0.2260
  159MPD2    H7 2484   1.728   0.683  14.050  1.8143 -2.3835 -1.0326
  160TMC2    C1 2485   1.696   4.186   1.401 -0.2150 -0.2790  0.2005
  160TMC2    C2 2486   1.588   4.102   1.406  0.0778 -0.2205 -0.2704
  160TMC2    C3 2487   1.567   4.006   1.311  0.6036 -0.2058  0.4471
  160TMC2    C4 2488   1.783   4.181   1.293  0.4240  0.0621  0.8364
  160TMC2    C5 2489   1.747   4.090   1.187 -0.4020 -0.4342 -0.3154
  160TMC2    C6 2490   1.642   4.004   1.195 -1.2280 -0.4325  0.0935
  160TMC2     C 2491   1.679   4.312   1.469 -0.3634  0.5670  0.4444
  160TMC2     O 2492   1.783   4.368   1.506  0.1274 -0.7297  0.0690
  160TMC2     H 2493   1.515   4.115   1.486 -0.1378  0.6282 -0.6011
  160TMC2    H1 2494   1.857   4.260   1.299 -0.7486  1.1687  0.7187
  160TMC2    H2 2495   1.619   3.940   1.111 -0.7309 -0.5304  0.0301
  160TMC2    C7 2496   1.794   4.129   1.057  0.5825 -0.2986 -0.3490
  160TMC2    C8 2497   1.438   3.938   1.316 -0.3170  0.2639  0.6591
  160TMC2    O1 2498   1.727   4.085   0.964  0.0302 -0.5235  0.1724
  160TMC2    O2 2499   1.339   3.979   1.378 -0.1489 -0.5379  0.3555
  160TMC2    O5 2500   1.429   3.838   1.225 -0.2242  0.5321  0.1447
  160TMC2    H5 2501   1.522   3.810   1.211 -0.0333  0.2461  1.9469
  161MPD2     C 2502   1.591   4.586   1.561 -0.5850 -0.5926 -0.0731
  161MPD2    C1 2503   1.537   4.511   1.454 -0.8566 -0.6071  0.2028
  161MPD2    C2 2504   1.433   4.567   1.382 -0.4729 -0.5888 -0.1223
  161MPD2    C3 2505   1.386   4.695   1.412 -0.0211 -0.0625 -0.3072
  161MPD2    C4 2506   1.446   0.030   1.510 -0.2203 -0.1326 -0.5929
  161MPD2    C5 2507   1.551   4.709   1.582  0.1808 -1.0653 -0.1401
  161MPD2     H 2508   1.401   4.500   1.303 -0.6288 -0.7165  0.0471
  161MPD2    H1 2509   1.411   0.132   1.526 -3.6542 -1.1706 -1.4159
  161MPD2    H2 2510   1.657   4.530   1.626  0.7581 -0.2236 -1.1403
  161MPD2    H3 2511   1.592   0.028   1.666  2.5122  1.6718 -3.0634
  161MPD2     N 2512   1.302   0.034   1.326  0.6048  0.0404 -0.4222
  161MPD2    H5 2513   1.299   0.134   1.344 -2.7920 -0.0045 -0.7725
  161MPD2    N1 2514   1.576   4.379   1.418  0.1340  0.3824  0.8886
  161MPD2    H7 2515   1.523   4.323   1.352  1.3443  0.5761 -0.2524
  162TMC2    C1 2516   3.823   1.353   1.176 -0.2466  0.5296  0.0157
  162TMC2    C2 2517   3.717   1.354   1.260 -0.4337  0.1730  0.4521
  162TMC2    C3 2518   3.730   1.397   1.387 -0.4377  0.1473 -0.3345
  162TMC2    C4 2519   3.943   1.370   1.230  0.0780  0.1219 -0.7936
  162TMC2    C5 2520   3.955   1.391   1.364  1.2373 -0.4141  0.2667
  162TMC2    C6 2521   3.849   1.414   1.446 -0.5592  0.4267 -0.1704
  162TMC2     C 2522   3.799   1.301   1.039  0.4252 -0.0931  0.1532
  162TMC2     O 2523   3.898   1.240   1.001  0.8275 -0.2574 -0.1985
  162TMC2     H 2524   3.618   1.336   1.219 -0.0930  1.0495 -0.7593
  162TMC2    H1 2525   4.024   1.377   1.158 -0.2280 -2.8521 -1.4490
  162TMC2    H2 2526   3.860   1.448   1.548 -1.4580 -0.3111  0.1761
  162TMC2    C7 2527   4.088   1.410   1.417 -1.0222  0.3398 -0.1729
  162TMC2    C8 2528   3.607   1.444   1.447 -0.6170 -0.1185 -0.1452
  162TMC2    O1 2529   4.103   1.506   1.492 -0.3530 -1.1063  0.1308
  162TMC2    O2 2530   3.499   1.450   1.385 -0.1656  0.0816 -0.5512
  162TMC2    O5 2531   3.638   1.501   1.567 -0.2169  0.0795  0.4026
  162TMC2    H5 2532   3.720   1.463   1.605 -1.1784 -1.1421  1.2701
  163MPD2     C 2533   3.602   1.405   0.578 -0.2182  0.0237 -0.3121
  163MPD2    C1 2534   3.716   1.335   0.613 -0.7898 -0.0059  0.6048
  163MPD2    C2 2535   3.740   1.300   0.744 -0.5606  0.3038  0.3625
  163MPD2    C3 2536   3.653   1.345   0.840 -0.8483  0.0280  0.7302
  163MPD2    C4 2537   3.538   1.418   0.805 -0.2167  0.0532 -0.0799
  163MPD2    C5 2538   3.517   1.448   0.675 -0.0258  0.1375  0.2713
  163MPD2     H 2539   3.837   1.260   0.773 -0.3901  1.0927  0.8889
  163MPD2    H1 2540   3.477   1.462   0.883 -1.4741 -0.4380 -0.7965
  163MPD2    H2 2541   3.582   1.432   0.475  2.2471  3.3819  0.0705
  163MPD2    H3 2542   3.430   1.505   0.643 -0.1330 -0.6417 -0.8532
  163MPD2     N 2543   3.680   1.345   0.982 -0.3556 -0.8141 -0.5425
  163MPD2    H5 2544   3.611   1.391   1.039 -0.0747  1.0834 -1.7273
  163MPD2    N1 2545   3.801   1.300   0.508 -0.1960 -0.4739  0.3473
  163MPD2    H7 2546   3.783   1.330   0.413 -3.4279 -0.0958  1.0914
  164TMC2    C1 2547   4.263   0.651  11.014  0.1814  0.4421  0.7222
  164TMC2    C2 2548   4.393   0.678  11.052 -0.4622 -0.6652  0.5533
  164TMC2    C3 2549   4.438   0.805  11.074 -0.6358 -0.1602 -0.2029
  164TMC2    C4 2550   4.173   0.752  10.998  0.4316  0.0242  0.2270
  164TMC2    C5 2551   4.222   0.878  11.020 -0.3115 -0.2871 -0.1123
  164TMC2    C6 2552   4.353   0.912  11.056  0.2502 -0.0144  0.5912
  164TMC2     C 2553   4.206   0.539  11.084  0.5112 -0.5251  0.2830
  164TMC2     O 2554   4.085   0.542  11.098  0.3464 -0.4483  0.0510
  164TMC2     H 2555   4.471   0.603  11.063  0.1061  0.2714  3.0119
  164TMC2    H1 2556   4.069   0.734  10.973 -0.2022  1.6398  1.6733
  164TMC2    H2 2557   4.386   1.011  11.084  0.0557  1.3563 -4.0679
  164TMC2    C7 2558   4.120   0.985  11.032  0.6544  0.0140 -0.1850
  164TMC2    C8 2559   4.574   0.827  11.121  0.2074  0.7015 -0.4711
  164TMC2    O1 2560   4.045   1.010  10.939 -0.3784  0.6538 -0.3120
  164TMC2    O2 2561   4.632   0.930  11.085 -0.2384 -0.1225 -0.0969
  164TMC2    O5 2562   4.589   0.769  11.237  0.3178  0.1599 -0.2208
  164TMC2    H5 2563   4.528   0.694  11.253  2.5970 -1.4547  0.7543
  165TMC2    C1 2564   0.896   3.964   0.892  0.5711 -0.2835 -0.0008
  165TMC2    C2 2565   0.875   4.082   0.823 -0.2107 -0.6973  0.1869
  165TMC2    C3 2566   0.979   4.158   0.779  0.2161  0.2497  0.0052
  165TMC2    C4 2567   1.026   3.925   0.928 -0.2810 -0.0439  0.3967
  165TMC2    C5 2568   1.127   4.013   0.882 -1.0776  0.2339  0.6154
  165TMC2    C6 2569   1.106   4.130   0.809 -0.2178 -0.3503 -0.3903
  165TMC2     C 2570   0.781   3.879   0.922 -0.0457  0.2152  0.2170
  165TMC2     O 2571   0.807   3.768   0.967 -0.3719 -0.0977  0.7666
  165TMC2     H 2572   0.777   4.103   0.783 -0.4918  0.2829  1.3950
  165TMC2    H1 2573   1.039   3.831   0.980  1.7676  0.3050  0.5311
  165TMC2    H2 2574   1.189   4.197   0.789 -0.5195 -0.6755 -2.6869
  165TMC2    C7 2575   1.268   3.972   0.888 -0.1114  0.0854  0.0787
  165TMC2    C8 2576   0.945   4.271   0.700 -0.2782 -0.2493 -0.7314
  165TMC2    O1 2577   1.359   4.055   0.878 -0.0410  0.1381 -0.2106
  165TMC2    O2 2578   0.833   4.318   0.701 -0.4362 -0.0606  0.2830
  165TMC2    O5 2579   1.057   4.335   0.651  0.1962  0.4464 -0.7920
  165TMC2    H5 2580   1.132   4.274   0.636 -0.8377 -0.1956 -3.4688
  166MPD2     C 2581   0.288   3.779   1.026 -0.7245  0.2206 -0.2185
  166MPD2    C1 2582   0.397   3.689   1.034 -0.0347 -0.0038 -0.2375
  166MPD2    C2 2583   0.525   3.737   0.995 -0.3878  0.3424  0.7200
  166MPD2    C3 2584   0.545   3.878   0.960  0.1092 -0.2494 -0.0586
  166MPD2    C4 2585   0.426   3.956   0.945  0.1920  0.6907 -0.0530
  166MPD2    C5 2586   0.302   3.904   0.971  0.0715  0.1562  0.7152
  166MPD2     H 2587   0.609   3.668   0.997 -1.6347 -1.2654 -1.8261
  166MPD2    H1 2588   0.433   4.062   0.922  1.2964  0.5091 -0.5976
  166MPD2    H2 2589   0.190   3.756   1.068 -0.0685  0.0860  1.2272
  166MPD2    H3 2590   0.219   3.973   0.958  1.4082  1.4359 -0.9618
  166MPD2     N 2591   0.666   3.946   0.936 -0.0679 -0.0675 -0.5154
  166MPD2    H5 2592   0.670   4.046   0.922 -1.0012  0.7346  4.9194
  166MPD2    N1 2593   0.370   3.560   1.059  0.4186 -0.5533 -0.3505
  166MPD2    H7 2594   0.273   3.539   1.083  0.4763 -1.9207 -1.3215
  167TMC2    C1 2595   4.103   1.006  12.531  0.2341 -0.2501  0.5882
  167TMC2    C2 2596   4.014   1.092  12.591  0.3071 -0.1725 -0.2872
  167TMC2    C3 2597   3.931   1.022  12.681  0.3110 -0.1237  0.1992
  167TMC2    C4 2598   4.122   0.877  12.562  0.8817  0.0360 -0.3632
  167TMC2    C5 2599   4.035   0.815  12.642  0.0514 -0.1013  0.3330
  167TMC2    C6 2600   3.937   0.888  12.699  0.4761 -0.0469 -0.1390
  167TMC2     C 2601   4.178   1.056  12.419  0.2767 -0.3794  0.2863
  167TMC2     O 2602   4.282   1.001  12.390  0.2924 -0.3139 -0.6463
  167TMC2     H 2603   4.004   1.197  12.563 -0.2457 -0.3103 -0.6151
  167TMC2    H1 2604   4.203   0.823  12.515  0.8905  0.1250 -0.4527
  167TMC2    H2 2605   3.859   0.836  12.753  0.3871  0.0494 -0.1749
  167TMC2    C7 2606   4.024   0.670  12.657  0.1087  0.5796  0.5893
  167TMC2    C8 2607   3.817   1.090  12.733 -0.7501  0.2792 -0.1033
  167TMC2    O1 2608   3.939   0.630  12.737 -0.1971 -0.6580 -0.0792
  167TMC2    O2 2609   3.777   1.065  12.845 -0.3968 -0.0874 -0.2591
  167TMC2    O5 2610   3.757   1.160  12.638 -0.8788  0.2730 -0.3753
  167TMC2    H5 2611   3.816   1.172  12.561  0.9762  0.6643  1.1024
  168MPD2     C 2612   4.291   1.258  12.198 -0.1109 -0.5108 -1.0365
  168MPD2    C1 2613   4.157   1.236  12.239 -0.0139 -0.6266 -0.0138
  168MPD2    C2 2614   4.063   1.316  12.181 -0.6898  0.1370  0.7830
  168MPD2    C3 2615   4.093   1.417  12.087  0.3232  0.1056 -0.6080
  168MPD2    C4 2616   4.226   1.433  12.048 -0.2966  0.0881  0.0305
  168MPD2    C5 2617   4.325   1.357  12.108  0.2947 -0.0885 -0.7438
  168MPD2     H 2618   3.959   1.305  12.207 -0.6585 -2.3676 -0.1384
  168MPD2    H1 2619   4.256   1.515  11.985 -0.3121  1.2373  1.5013
  168MPD2    H2 2620   4.366   1.186  12.230 -1.0884 -0.8999  0.3610
  168MPD2    H3 2621   4.427   1.371  12.076  1.3018 -0.9934  2.0560
  168MPD2     N 2622   3.990   1.490  12.033 -0.1511 -0.2365  0.7650
  168MPD2    H5 2623   3.903   1.473  12.081 -0.0457  1.9420  1.7591
  168MPD2    N1 2624   4.112   1.152  12.347 -0.8161  0.2619 -0.0186
  168MPD2    H7 2625   4.012   1.156  12.368 -1.2506  0.4586 -2.1677
  169MPD1     C 2626   0.110   1.455  10.033  0.5420 -0.4115  0.5880
  169MPD1    C1 2627   0.140   1.376  10.138 -0.7482  0.0157  0.8495
  169MPD1    C2 2628   0.238   1.287  10.130  0.6054 -0.2427 -0.4865
  169MPD1    C3 2629   0.325   1.276  10.018  0.0249 -0.1995  0.2784
  169MPD1    C4 2630   0.292   1.355   9.906  0.0854 -0.4242  0.4636
  169MPD1    C5 2631   0.189   1.445   9.924  0.0257 -0.2125 -0.5108
  169MPD1     H 2632   0.253   1.224  10.216 -0.8302 -1.3695 -1.0651
  169MPD1    H1 2633   0.350   1.356   9.814 -0.9160  0.0135 -0.1707
  169MPD1    H2 2634   0.039   1.537  10.028 -0.1451 -0.9895  0.9479
  169MPD1    H3 2635   0.166   1.512   9.842  0.2016  1.0771  0.4957
  169MPD1     N 2636   0.418   1.176  10.022 -0.4051  0.4018  0.3787
  169MPD1    H5 2637   0.411   1.110  10.099 -0.3034 -1.8431 -1.5111
  169MPD1    N1 2638   0.042   1.368  10.242  0.3883 -0.1552  0.1102
  169MPD1    H6 2639   0.001   1.461  10.250  0.4306 -0.1781  0.5767
  169MPD1    H7 2640   0.084   1.350  10.333 -0.6356  0.9456  0.7947
  170MPD1     C 2641   0.342   2.992  13.043 -0.2029  0.2917 -1.1399
  170MPD1    C1 2642   0.277   3.118  13.028  0.2037 -0.0101  0.7496
  170MPD1    C2 2643   0.200   3.164  13.131 -1.1452 -0.2242 -1.0258
  170MPD1    C3 2644   0.174   3.090  13.246  0.1993 -0.2051 -0.2631
  170MPD1    C4 2645   0.227   2.958  13.250 -0.3750  0.6035  0.0720
  170MPD1    C5 2646   0.305   2.913  13.147 -0.6319 -0.4608 -0.8556
  170MPD1     H 2647   0.148   3.258  13.117  1.7428  1.8790  2.4191
  170MPD1    H1 2648   0.196   2.888  13.327  0.7402 -0.2967 -0.2972
  170MPD1    H2 2649   0.411   2.952  12.970  0.0366 -0.5723 -0.4451
  170MPD1    H3 2650   0.339   2.810  13.141  0.3972 -0.2534  1.2794
  170MPD1     N 2651   0.077   3.144  13.339  0.4487 -0.5335 -0.1232
  170MPD1    H5 2652   0.025   3.229  13.319 -1.2498 -1.9589 -1.7543
  170MPD1    N1 2653   0.326   3.205  12.927  0.1157 -0.0156  0.1037
  170MPD1    H6 2654   0.263   3.279  12.896 -0.4588  0.4188  2.3101
  170MPD1    H7 2655   0.344   3.150  12.844  1.9654 -0.3817  0.7621
  171MPD1     C 2656   3.396   0.039  15.108 -0.4391  0.3645  0.2979
  171MPD1    C1 2657   3.467   0.053  15.227 -0.4278 -0.8580  0.4692
  171MPD1    C2 2658   3.439   4.705  15.335 -0.1359  0.4619  0.7968
  171MPD1    C3 2659   3.347   4.606  15.330 -0.5773  0.0282 -0.5208
  171MPD1    C4 2660   3.279   4.599  15.216  0.3360 -0.5271 -0.6603
  171MPD1    C5 2661   3.292   4.683  15.113 -0.2231  0.1852 -0.1649
  171MPD1     H 2662   3.503   4.718  15.422  1.4765  0.3613 -0.3619
  171MPD1    H1 2663   3.203   4.523  15.199 -0.6648  0.3152 -0.0086
  171MPD1    H2 2664   3.419   0.089  15.015 -1.9672  0.9382  0.2200
  171MPD1    H3 2665   3.232   4.680  15.023 -2.5045 -0.2857  1.3595
  171MPD1     N 2666   3.343   4.509  15.431 -0.4299  0.0782  0.1386
  171MPD1    H5 2667   3.417   4.508  15.501 -1.0638 -0.1923  0.8146
  171MPD1    N1 2668   3.554   0.165  15.242  0.5991 -0.4324  0.3318
  171MPD1    H6 2669   3.626   0.149  15.312 -0.2546 -3.3665  0.5328
  171MPD1    H7 2670   3.600   0.197  15.157 -0.9357  1.2196  0.1128
  172MPD1     C 2671   2.400   3.025   0.127 -0.9434 -0.7918 -1.0275
  172MPD1    C1 2672   2.335   3.137   0.085  0.8455 -0.4164 -0.4449
  172MPD1    C2 2673   2.412   3.247   0.073  0.0750 -0.3654 -0.2075
  172MPD1    C3 2674   2.551   3.238   0.074  0.2967  0.7455 -0.3337
  172MPD1    C4 2675   2.610   3.115   0.098  0.0531 -0.1166  0.1721
  172MPD1    C5 2676   2.534   3.008   0.130  0.2971  0.2123 -0.1200
  172MPD1     H 2677   2.366   3.341   0.046 -0.0239 -0.2327  0.4330
  172MPD1    H1 2678   2.715   3.110   0.122 -0.2353 -0.5249  1.3392
  172MPD1    H2 2679   2.349   2.934   0.156 -1.9719 -0.3948 -1.5657
  172MPD1    H3 2680   2.580   2.916   0.167  1.2948 -0.1449 -2.2522
  172MPD1     N 2681   2.638   3.352   0.057  0.6650  0.7927  0.8173
  172MPD1    H5 2682   2.737   3.334   0.072  0.6717  0.6692  0.6170
  172MPD1    N1 2683   2.197   3.136   0.099  0.7012  0.5265  0.3792
  172MPD1    H6 2684   2.147   3.050   0.078  2.0029  0.1727 -1.3408
  172MPD1    H7 2685   2.142   3.207   0.051 -0.7071 -0.4892  0.5091
  173MPD1     C 2686   3.960   3.541  13.375  0.2203 -0.3636  0.4295
  173MPD1    C1 2687   3.832   3.517  13.402  0.0164 -0.3159 -0.0994
  173MPD1    C2 2688   3.791   3.510  13.535 -0.5678 -0.3586  0.0785
  173MPD1    C3 2689   3.882   3.516  13.639 -0.3093  1.2609 -0.3020
  173MPD1    C4 2690   4.017   3.537  13.605 -0.3624 -0.1239 -1.1036
  173MPD1    C5 2691   4.056   3.548  13.476  0.0546  0.0190  0.5075
  173MPD1     H 2692   3.690   3.483  13.562 -0.7426  0.7518  0.5440
  173MPD1    H1 2693   4.101   3.552  13.672 -1.1601 -0.4541 -0.0217
  173MPD1    H2 2694   3.998   3.535  13.273 -2.3362  1.9852 -0.6611
  173MPD1    H3 2695   4.159   3.564  13.446 -0.4926  1.5440 -0.5702
  173MPD1     N 2696   3.834   3.502  13.776 -0.2758  0.2871  0.2075
  173MPD1    H5 2697   3.736   3.482  13.792 -1.2252  2.9266 -2.3094
  173MPD1    N1 2698   3.742   3.488  13.296 -0.4560 -0.5749 -0.5399
  173MPD1    H6 2699   3.766   3.513  13.201  1.1680 -0.2194 -0.0236
  173MPD1    H7 2700   3.650   3.530  13.310  0.2607  0.8942 -0.2369
  174MPD1     C 2701   4.457   3.417  14.570  0.1033  0.4197 -0.6512
  174MPD1    C1 2702   4.332   3.401  14.623 -0.5133 -0.1155 -0.0356
  174MPD1    C2 2703   4.218   3.401  14.546 -0.7550  0.0128 -0.0179
  174MPD1    C3 2704   4.239   3.405  14.411 -0.2614 -0.4576  0.0952
  174MPD1    C4 2705   4.364   3.401  14.353  0.1223  0.0265  0.1797
  174MPD1    C5 2706   4.475   3.415  14.435 -0.3631 -0.5181 -0.2318
  174MPD1     H 2707   4.119   3.385  14.587 -0.3600 -0.0434  0.9116
  174MPD1    H1 2708   4.390   3.393  14.248 -0.4138  0.1101  0.0390
  174MPD1    H2 2709   4.540   3.425  14.640 -0.8824  1.3855  0.3960
  174MPD1    H3 2710   4.573   3.427  14.391 -0.0707 -1.5534  0.1393
  174MPD1     N 2711   4.127   3.409  14.317 -0.0844  0.2025  0.4198
  174MPD1    H5 2712   4.151   3.399  14.219  1.4835  0.5467  0.7685
  174MPD1    N1 2713   4.332   3.412  14.763 -0.4371  0.0700  0.5005
  174MPD1    H6 2714   4.257   3.356  14.803 -0.8638 -0.1854 -0.6330
  174MPD1    H7 2715   4.414   3.375  14.810 -0.7942 -2.3643 -0.7547
  175MPD1     C 2716   2.048   4.400  15.315 -0.3288  0.1203 -0.4461
  175MPD1    C1 2717   2.111   4.283  15.346 -0.4470  0.1453  0.3470
  175MPD1    C2 2718   2.118   4.255  15.484  0.2606  0.5675  0.5307
  175MPD1    C3 2719   2.085   4.355  15.575 -0.2309  1.0200 -0.0846
  175MPD1    C4 2720   2.039   4.474  15.539  0.1880 -0.1642 -0.1616
  175MPD1    C5 2721   2.017   4.492  15.408  0.4950  0.3005  0.5181
  175MPD1     H 2722   2.166   4.162  15.514 -0.4548  0.3559  1.0163
  175MPD1    H1 2723   2.007   4.553  15.607  2.5185 -0.0164  0.7763
  175MPD1    H2 2724   2.036   4.432  15.212 -1.4913  1.9929  0.2797
  175MPD1    H3 2725   1.972   4.582  15.369  0.7500  0.8355  1.4582
  175MPD1     N 2726   2.091   4.334  15.713 -0.6054 -0.2201 -0.6506
  175MPD1    H5 2727   2.067   4.412  15.774 -0.7118  0.4826 -1.5867
  175MPD1    N1 2728   2.124   4.179  15.251  0.2674 -0.1822 -0.0818
  175MPD1    H6 2729   2.151   4.216  15.160 -1.4105 -3.9869 -2.1505
  175MPD1    H7 2730   2.190   4.109  15.283  0.0253 -0.8746 -1.0830
  176MPD1     C 2731   0.017   2.066   0.064 -0.0847  0.4392 -0.6713
  176MPD1    C1 2732   0.027   2.145  17.688  0.1822  0.1933 -0.3354
  176MPD1    C2 2733   4.657   2.232  17.666  0.0487 -0.0172 -0.3560
  176MPD1    C3 2734   4.568   2.265   0.021  0.0932  0.3920  0.3528
  176MPD1    C4 2735   4.573   2.195   0.142  0.3712 -0.5499  1.0581
  176MPD1    C5 2736   4.666   2.102   0.159 -1.0012 -0.7043 -0.0439
  176MPD1     H 2737   4.658   2.269  17.564 -0.2685  0.7249 -0.0861
  176MPD1    H1 2738   4.498   2.219   0.217  0.6380 -0.4027  1.2757
  176MPD1    H2 2739   0.093   1.991   0.086 -0.1374  0.8449  0.8638
  176MPD1    H3 2740   4.669   2.062   0.260  3.0625  0.4595  0.2884
  176MPD1     N 2741   4.462   2.349  17.725 -0.7513 -0.5208 -0.4390
  176MPD1    H5 2742   4.464   2.383  17.629  0.5931  1.0455  0.1609
  176MPD1    N1 2743   0.125   2.117  17.589 -0.0662 -0.8890  0.1339
  176MPD1    H6 2744   0.215   2.091  17.629  1.6381  0.9041 -2.4811
  176MPD1    H7 2745   0.145   2.201  17.535 -0.2866  0.7317  2.5892
  177MPD1     C 2746   2.275   1.293  10.744 -0.7205  0.3129  0.3359
  177MPD1    C1 2747   2.225   1.174  10.713  0.5958 -0.3788 -0.2633
  177MPD1    C2 2748   2.188   1.148  10.579 -0.0466 -0.3876  0.3804
  177MPD1    C3 2749   2.189   1.249  10.486 -0.1426  0.3680  0.1960
  177MPD1    C4 2750   2.253   1.369  10.516 -0.7660  0.0682 -0.6435
  177MPD1    C5 2751   2.284   1.390  10.650 -0.3076 -0.1145 -0.1067
  177MPD1     H 2752   2.155   1.046  10.561 -0.2499 -0.5600  1.7137
  177MPD1    H1 2753   2.263   1.452  10.447 -1.6560  0.5899 -0.1391
  177MPD1    H2 2754   2.326   1.313  10.837 -3.2124  1.4591  1.4424
  177MPD1    H3 2755   2.314   1.492  10.671  3.1967 -1.1357 -0.1091
  177MPD1     N 2756   2.130   1.225  10.360  0.7767 -0.1146  0.4703
  177MPD1    H5 2757   2.091   1.132  10.350 -0.3443  0.3097  0.7618
  177MPD1    N1 2758   2.239   1.065  10.807  0.0611 -0.9027 -0.4667
  177MPD1    H6 2759   2.232   1.100  10.902 -0.2464  1.0935 -1.2242
  177MPD1    H7 2760   2.172   0.992  10.786 -0.7532 -0.4436  0.5570
  178MPD1     C 2761   0.593   3.037   0.134 -0.2475  0.2009  0.2116
  178MPD1    C1 2762   0.498   2.942   0.118 -0.1542  0.2090 -0.0477
  178MPD1    C2 2763   0.441   2.916  17.738 -0.1367 -0.0945 -0.6950
  178MPD1    C3 2764   0.489   2.977  17.625  0.6945  0.1145 -0.1519
  178MPD1    C4 2765   0.585   3.075  17.641 -0.1959  0.2790 -0.1730
  178MPD1    C5 2766   0.631   3.103   0.028  0.1485  0.4202  0.2438
  178MPD1     H 2767   0.356   2.849  17.736  0.4919 -0.9435  0.9764
  178MPD1    H1 2768   0.623   3.125  17.553 -1.4937  0.9505 -0.3512
  178MPD1    H2 2769   0.642   3.063   0.226 -1.7117  1.7842  0.5534
  178MPD1    H3 2770   0.708   3.179   0.032  0.6647 -0.0495 -0.7240
  178MPD1     N 2771   0.442   2.955  17.492  0.0566  0.2844  0.0597
  178MPD1    H5 2772   0.491   3.000  17.415  0.9705 -1.1350 -0.2005
  178MPD1    N1 2773   0.449   2.880   0.228 -0.4594 -0.0406  0.7549
  178MPD1    H6 2774   0.448   2.948   0.304 -0.1228  1.1866 -0.3270
  178MPD1    H7 2775   0.354   2.856   0.198  0.6657 -0.7071 -2.2789
  179MPD1     C 2776   4.343   1.148  16.950 -0.8456 -0.0832 -0.5127
  179MPD1    C1 2777   4.265   1.208  16.859  0.1935 -0.4372  0.3740
  179MPD1    C2 2778   4.232   1.141  16.739  0.6150 -0.5465 -0.0185
  179MPD1    C3 2779   4.261   1.010  16.724  0.0206 -0.7508 -0.5030
  179MPD1    C4 2780   4.340   0.947  16.828 -0.1441 -1.3945 -0.1888
  179MPD1    C5 2781   4.377   1.015  16.938 -0.0776 -0.4715 -0.3486
  179MPD1     H 2782   4.174   1.186  16.659 -0.0129  1.1494  1.3814
  179MPD1    H1 2783   4.375   0.844  16.824  0.0659 -1.2684 -1.6190
  179MPD1    H2 2784   4.380   1.203  17.035  3.3289 -0.3504 -2.1707
  179MPD1    H3 2785   4.435   0.974  17.019  2.3699  2.5133 -0.5800
  179MPD1     N 2786   4.230   0.927  16.608  0.1509  0.4866  0.2297
  179MPD1    H5 2787   4.278   0.838  16.595  0.1161  0.6146 -0.7475
  179MPD1    N1 2788   4.253   1.349  16.866  0.4660 -0.1778 -0.0597
  179MPD1    H6 2789   4.181   1.378  16.801  0.3492 -2.1882 -0.8163
  179MPD1    H7 2790   4.239   1.385  16.960  0.4530 -2.0359  0.6501
  180MPD1     C 2791   3.514   2.169  14.546 -0.4835  0.0667 -0.2035
  180MPD1    C1 2792   3.625   2.256  14.536 -1.0073  0.5019 -1.1915
  180MPD1    C2 2793   3.708   2.246  14.417  0.0287 -0.1261 -0.7571
  180MPD1    C3 2794   3.675   2.157  14.314 -0.3215  0.4808 -0.0588
  180MPD1    C4 2795   3.549   2.091  14.321  0.3139  0.2633  0.2764
  180MPD1    C5 2796   3.474   2.104  14.439 -0.3810  0.0063  0.0468
  180MPD1     H 2797   3.798   2.306  14.418 -1.4212  2.0091  0.9153
  180MPD1    H1 2798   3.516   2.027  14.241 -0.5744 -0.0363  0.8824
  180MPD1    H2 2799   3.464   2.158  14.641  0.0942 -0.2232  0.0704
  180MPD1    H3 2800   3.381   2.049  14.445  0.1187 -0.8221  0.1524
  180MPD1     N 2801   3.775   2.141  14.210 -0.2942  0.0439 -0.3234
  180MPD1    H5 2802   3.855   2.201  14.227  0.8684 -1.1198 -1.7936
  180MPD1    N1 2803   3.670   2.336  14.645  0.0796 -0.7435  0.3405
  180MPD1    H6 2804   3.601   2.372  14.710 -0.1201 -0.9536  0.2435
  180MPD1    H7 2805   3.723   2.415  14.609  2.3955 -2.5426 -0.2146
  181MPD1     C 2806   4.241   3.290   9.671  0.1582 -0.0317 -0.1897
  181MPD1    C1 2807   4.290   3.404   9.610 -0.4419  0.3603 -0.3011
  181MPD1    C2 2808   4.426   3.414   9.588  0.5293  0.3369 -0.1026
  181MPD1    C3 2809   4.511   3.323   9.644  0.5937  0.1626  0.3530
  181MPD1    C4 2810   4.464   3.219   9.721 -0.3937  0.2949  0.0027
  181MPD1    C5 2811   4.329   3.200   9.724 -1.2390  0.3752  0.2808
  181MPD1     H 2812   4.456   3.489   9.517  1.7050 -0.2076 -0.1838
  181MPD1    H1 2813   4.534   3.148   9.764 -0.9369 -0.1870  0.0870
  181MPD1    H2 2814   4.134   3.275   9.680  0.0024  0.5295 -1.0727
  181MPD1    H3 2815   4.285   3.115   9.775  0.3866  1.1907  3.0242
  181MPD1     N 2816   4.651   3.329   9.631 -0.1861  0.1486 -0.4244
  181MPD1    H5 2817   4.712   3.254   9.661 -1.1199 -0.8205 -0.9921
  181MPD1    N1 2818   4.205   3.501   9.553  0.2111 -0.9093  0.4157
  181MPD1    H6 2819   4.252   3.591   9.545  1.1370 -1.6427 -2.2182
  181MPD1    H7 2820   4.120   3.508   9.610  0.7118  2.4325  0.7152
  182MPD1     C 2821   2.076   2.958   1.311  0.3631  0.2444  0.7395
  182MPD1    C1 2822   2.078   2.848   1.225  0.2130  0.0449 -0.0077
  182MPD1    C2 2823   2.025   2.870   1.099  0.1590  0.3772 -0.6601
  182MPD1    C3 2824   1.996   2.993   1.046 -0.2998 -0.2719 -0.1696
  182MPD1    C4 2825   1.989   3.098   1.132 -0.5683  0.2738  0.0188
  182MPD1    C5 2826   2.032   3.082   1.262  0.1992 -0.3705  1.1940
  182MPD1     H 2827   2.010   2.788   1.031  0.7952 -0.0624 -0.2724
  182MPD1    H1 2828   1.961   3.197   1.095  0.8629  1.3530  1.8414
  182MPD1    H2 2829   2.098   2.934   1.415 -1.7786 -0.8644  0.9529
  182MPD1    H3 2830   2.027   3.167   1.330  1.5782 -0.3308  1.2472
  182MPD1     N 2831   1.960   3.019   0.915 -0.7781 -0.1320 -0.3143
  182MPD1    H5 2832   1.943   3.117   0.894  2.1257  0.6340  0.8900
  182MPD1    N1 2833   2.102   2.716   1.273 -0.1330  0.4340 -0.3956
  182MPD1    H6 2834   2.162   2.712   1.355 -1.7256 -1.0690  0.6969
  182MPD1    H7 2835   2.130   2.653   1.198 -1.1659 -1.5217  0.8418
  183MPD1     C 2836   1.775   2.616   9.136 -0.3331 -0.5153  0.2262
  183MPD1    C1 2837   1.667   2.681   9.187 -0.7365 -1.1587 -0.9614
  183MPD1    C2 2838   1.693   2.798   9.260 -0.1102 -0.3018 -0.0335
  183MPD1    C3 2839   1.820   2.839   9.298  0.6735  0.1721  0.0525
  183MPD1    C4 2840   1.922   2.760   9.249  0.1469  0.2946  0.5486
  183MPD1    C5 2841   1.901   2.657   9.163 -0.1721  0.6432 -0.7712
  183MPD1     H 2842   1.610   2.860   9.292 -0.2484 -0.1080 -0.7870
  183MPD1    H1 2843   2.026   2.784   9.267  0.2028  0.4023  0.0762
  183MPD1    H2 2844   1.767   2.530   9.070 -2.5810 -1.0660  1.2188
  183MPD1    H3 2845   1.989   2.604   9.129 -0.2886  0.6346 -1.0584
  183MPD1     N 2846   1.835   2.956   9.371 -0.1765  0.3353  0.5199
  183MPD1    H5 2847   1.752   3.010   9.396 -0.4169 -0.2742  1.0639
  183MPD1    N1 2848   1.541   2.647   9.147 -0.1611 -0.6060  0.2744
  183MPD1    H6 2849   1.525   2.547   9.136  0.3536 -1.0195  3.2866
  183MPD1    H7 2850   1.462   2.681   9.203  0.3782  2.1340 -0.6154
  184MPD1     C 2851   0.851   0.912  10.308  0.7063  0.3792 -0.1454
  184MPD1    C1 2852   0.733   0.978  10.311 -0.3312  0.7521 -0.1020
  184MPD1    C2 2853   0.721   1.105  10.260 -0.3895 -0.5368  0.1341
  184MPD1    C3 2854   0.826   1.161  10.193  0.5347  0.0062  0.1807
  184MPD1    C4 2855   0.937   1.089  10.156 -0.1313  0.5903 -0.0829
  184MPD1    C5 2856   0.949   0.969  10.226  1.2644  0.0132  0.0705
  184MPD1     H 2857   0.627   1.160  10.267 -0.4055 -0.9108  2.8842
  184MPD1    H1 2858   1.020   1.131  10.100  0.5027  1.2933  1.3674
  184MPD1    H2 2859   0.866   0.820  10.363 -1.6731 -0.1599 -0.4280
  184MPD1    H3 2860   1.046   0.920  10.220  1.8476  1.1986 -0.0718
  184MPD1     N 2861   0.823   1.298  10.152  0.2381  0.1586  0.6873
  184MPD1    H5 2862   0.902   1.315  10.091  1.2344 -0.6723  1.7629
  184MPD1    N1 2863   0.623   0.920  10.384  0.5303 -0.5309 -0.5646
  184MPD1    H6 2864   0.618   0.819  10.380  0.1420 -0.6244  2.0276
  184MPD1    H7 2865   0.533   0.960  10.356  0.6661  2.0787  2.7453
  185MPD1     C 2866   0.042   1.881   9.882  1.0766  0.2480 -0.3433
  185MPD1    C1 2867   0.126   1.848   9.779 -0.0456  0.1600  0.0735
  185MPD1    C2 2868   0.242   1.784   9.812 -0.0316  0.1989 -0.4753
  185MPD1    C3 2869   0.282   1.767   9.941 -0.3963  0.0883 -0.5946
  185MPD1    C4 2870   0.196   1.804  10.048  0.1743  0.0894 -0.5112
  185MPD1    C5 2871   0.074   1.862  10.012  0.2866  0.3538  0.1088
  185MPD1     H 2872   0.306   1.750   9.731 -0.5939 -0.1750 -0.7623
  185MPD1    H1 2873   0.206   1.783  10.154  0.8385  0.6064 -0.4756
  185MPD1    H2 2874   4.679   1.920   9.860  0.5606  0.5462  2.4844
  185MPD1    H3 2875   0.003   1.893  10.088  0.5904  0.3848  0.3830
  185MPD1     N 2876   0.405   1.718   9.978  0.4482  0.3070  0.4444
  185MPD1    H5 2877   0.406   1.701  10.078  0.6464 -0.4908  0.3013
  185MPD1    N1 2878   0.078   1.846   9.646  0.9849  0.2925  0.4189
  185MPD1    H6 2879   0.010   1.770   9.646  0.4323  0.7797 -0.7932
  185MPD1    H7 2880   0.145   1.823   9.573  1.8328  2.4277  0.5301
  186MPD1     C 2881   4.683   0.658  15.890  0.0190 -0.3380  0.3502
  186MPD1    C1 2882   4.566   0.687  15.953 -0.1890 -0.5427  0.8177
  186MPD1    C2 2883   4.569   0.778  16.057 -0.0768 -0.3689  0.0661
  186MPD1    C3 2884   4.687   0.825  16.108 -0.8040 -0.3531 -0.5806
  186MPD1    C4 2885   0.071   0.795  16.047  0.3707  0.0470  0.0965
  186MPD1    C5 2886   0.068   0.705  15.943 -1.0691  0.4010 -0.4397
  186MPD1     H 2887   4.472   0.814  16.090  2.1175  1.6218  4.2370
  186MPD1    H1 2888   0.168   0.825  16.086 -0.0079  3.9398 -1.9692
  186MPD1    H2 2889   4.679   0.592  15.804  1.6670  0.4156 -0.2859
  186MPD1    H3 2890   0.161   0.675  15.895 -1.8510  0.7033 -2.1269
  186MPD1     N 2891   4.693   0.914  16.212  0.0119  0.0532 -0.2135
  186MPD1    H5 2892   0.049   0.954  16.231  0.2168 -0.0323 -1.0319
  186MPD1    N1 2893   4.438   0.652  15.907 -0.5465 -0.0004  0.4051
  186MPD1    H6 2894   4.437   0.572  15.844 -1.0109  0.4824 -0.1925
  186MPD1    H7 2895   4.371   0.645  15.983  0.4174 -0.8919  1.1906
  187MPD1     C 2896   4.463   2.791   0.194 -0.1144 -0.6802  0.2880
  187MPD1    C1 2897   4.351   2.878   0.181 -0.0360  0.2520 -0.6930
  187MPD1    C2 2898   4.338   2.937   0.066  0.1382  0.9088  0.2674
  187MPD1    C3 2899   4.417   2.915  17.699  0.2302  0.1887 -0.1198
  187MPD1    C4 2900   4.524   2.824  17.708  0.5843 -0.1949 -0.0875
  187MPD1    C5 2901   4.545   2.763   0.088 -0.4073 -0.0195  0.5204
  187MPD1     H 2902   4.252   3.003   0.055 -1.4245 -1.0057  1.1291
  187MPD1    H1 2903   4.596   2.789  17.634 -0.6026  1.1381 -1.8513
  187MPD1    H2 2904   4.487   2.744   0.288  1.4119 -0.3507  0.0635
  187MPD1    H3 2905   4.623   2.688   0.093 -0.4194 -0.1473 -1.1042
  187MPD1     N 2906   4.407   2.983  17.576 -0.1424  0.7853  0.5273
  187MPD1    H5 2907   4.481   2.983  17.507  0.9155 -0.5066  1.6449
  187MPD1    N1 2908   4.273   2.918   0.294 -0.4380 -0.4550 -0.3284
  187MPD1    H6 2909   4.246   2.840   0.354  1.4104 -1.0193 -0.2280
  187MPD1    H7 2910   4.186   2.969   0.279 -0.4670  0.0109  1.4756
  188MPD1     C 2911   3.526   2.336   9.820  0.1402  0.7344 -0.1966
  188MPD1    C1 2912   3.567   2.301   9.948 -0.3059  0.2522  1.0213
  188MPD1    C2 2913   3.560   2.169   9.985 -0.1042  0.5472  0.2987
  188MPD1    C3 2914   3.543   2.065   9.897 -0.9848 -0.2427 -0.1870
  188MPD1    C4 2915   3.522   2.099   9.762  0.1759  0.5945 -0.1048
  188MPD1    C5 2916   3.501   2.236   9.727 -0.1908  0.9439 -0.4543
  188MPD1     H 2917   3.575   2.141  10.088  1.3280 -1.6168 -0.5083
  188MPD1    H1 2918   3.482   2.023   9.696  1.1192  0.5693 -0.6376
  188MPD1    H2 2919   3.549   2.435   9.784  0.3569  0.6050 -0.4102
  188MPD1    H3 2920   3.485   2.256   9.622 -0.5998  0.3929 -0.4957
  188MPD1     N 2921   3.535   1.927   9.934 -0.3513 -0.5230 -0.1180
  188MPD1    H5 2922   3.489   1.866   9.868  0.6196 -0.2739 -1.0202
  188MPD1    N1 2923   3.590   2.395  10.052 -0.4250 -0.2715 -0.3072
  188MPD1    H6 2924   3.665   2.364  10.113 -0.3868 -1.2633 -0.8541
  188MPD1    H7 2925   3.617   2.489  10.023 -2.2445 -0.5131 -2.7244
  189MPD1     C 2926   1.082   3.741   0.591  0.0861 -0.6503 -0.4183
  189MPD1    C1 2927   0.950   3.721   0.633 -0.5933  0.0285  0.0389
  189MPD1    C2 2928   0.862   3.818   0.586  0.4797  0.1821  0.5712
  189MPD1    C3 2929   0.894   3.936   0.515  0.3650 -0.0546  0.0421
  189MPD1    C4 2930   1.030   3.955   0.486  0.3296  0.0476  0.1770
  189MPD1    C5 2931   1.123   3.857   0.529  0.6203  0.1651  0.5677
  189MPD1     H 2932   0.757   3.809   0.609  0.3552  0.2887  0.0400
  189MPD1    H1 2933   1.066   4.035   0.422 -3.5336  2.0927  0.5449
  189MPD1    H2 2934   1.158   3.664   0.599  0.2235 -0.7881 -3.1391
  189MPD1    H3 2935   1.227   3.868   0.500  0.2456  1.7496 -0.1305
  189MPD1     N 2936   0.781   4.013   0.471 -0.4181 -0.0740 -0.0743
  189MPD1    H5 2937   0.685   3.992   0.495 -0.8987  1.6158 -0.5466
  189MPD1    N1 2938   0.899   3.602   0.695  0.2059  0.3052  0.2184
  189MPD1    H6 2939   0.811   3.625   0.741 -0.4957  0.1988 -1.0648
  189MPD1    H7 2940   0.960   3.561   0.764  1.2890  1.9757  0.2489
  190MPD1     C 2941   4.015   2.484  15.167  0.4244 -0.1882  0.3731
  190MPD1    C1 2942   4.012   2.479  15.307 -0.1071  1.1351 -0.2128
  190MPD1    C2 2943   4.128   2.441  15.372 -0.3829  0.8541  0.2883
  190MPD1    C3 2944   4.235   2.386  15.307 -0.4306 -0.3678 -0.1052
  190MPD1    C4 2945   4.231   2.375  15.173  0.4829  0.2963 -1.0965
  190MPD1    C5 2946   4.127   2.434  15.105  0.4883  0.3791  0.1161
  190MPD1     H 2947   4.124   2.442  15.480 -1.0746 -1.4214  0.2835
  190MPD1    H1 2948   4.304   2.318  15.118  0.9838  0.0534 -0.1821
  190MPD1    H2 2949   3.930   2.512  15.106  0.1256 -1.5339  0.1638
  190MPD1    H3 2950   4.138   2.436  14.997  1.2635 -0.4198  0.1802
  190MPD1     N 2951   4.341   2.326  15.383  0.5424 -0.9365 -0.0798
  190MPD1    H5 2952   4.328   2.346  15.481  1.6637  0.5219 -0.2194
  190MPD1    N1 2953   3.910   2.542  15.376  0.0838  0.2445  0.5949
  190MPD1    H6 2954   3.831   2.556  15.312  1.1207 -0.4844 -0.8541
  190MPD1    H7 2955   3.881   2.503  15.465  1.6134 -2.6248 -0.1595
  191MPD1     C 2956   3.540   3.812  11.082  0.4349  0.0462  0.6842
  191MPD1    C1 2957   3.487   3.720  11.169 -0.1786 -0.6501  0.4949
  191MPD1    C2 2958   3.557   3.701  11.285  0.4976  0.7877  0.1745
  191MPD1    C3 2959   3.647   3.792  11.329 -0.0797  0.5439  0.3365
  191MPD1    C4 2960   3.694   3.892  11.245 -0.3697 -0.0361 -0.1485
  191MPD1    C5 2961   3.642   3.896  11.116 -0.4368  0.4026  0.7978
  191MPD1     H 2962   3.535   3.612  11.344 -1.1477  0.3888 -1.0195
  191MPD1    H1 2963   3.781   3.955  11.261  0.0148 -1.2785  2.6321
  191MPD1    H2 2964   3.502   3.799  10.982  0.9284 -2.1112  0.7872
  191MPD1    H3 2965   3.693   3.958  11.043 -1.5800  0.5026  0.0915
  191MPD1     N 2966   3.697   3.785  11.465 -0.4669 -0.3553  0.2027
  191MPD1    H5 2967   3.660   3.714  11.527 -1.1780 -0.9173 -0.8751
  191MPD1    N1 2968   3.394   3.625  11.133 -0.1445 -0.3640  0.0500
  191MPD1    H6 2969   3.336   3.658  11.056  0.3983  0.6052  0.0520
  191MPD1    H7 2970   3.340   3.575  11.204 -0.3661 -0.9553 -0.5363
  192MPD1     C 2971   3.783   3.010  11.798  0.4806  0.0763  0.5266
  192MPD1    C1 2972   3.671   3.083  11.764  0.6903 -0.3701 -0.0525
  192MPD1    C2 2973   3.687   3.216  11.737 -0.9642 -0.6069  0.9952
  192MPD1    C3 2974   3.798   3.286  11.774 -0.0214  0.3583  0.1448
  192MPD1    C4 2975   3.907   3.209  11.813 -0.3971  0.4146 -0.1306
  192MPD1    C5 2976   3.898   3.072  11.812  0.2913 -0.1770 -0.3635
  192MPD1     H 2977   3.600   3.270  11.701 -0.6310  0.0046  1.0967
  192MPD1    H1 2978   4.000   3.265  11.819 -0.1861  0.1943 -1.5045
  192MPD1    H2 2979   3.774   2.904  11.817  1.7979 -0.5516 -2.3744
  192MPD1    H3 2980   3.990   3.015  11.824 -0.7530 -1.3158  2.2199
  192MPD1     N 2981   3.791   3.422  11.774 -0.0481  0.2799  0.3422
  192MPD1    H5 2982   3.712   3.456  11.720  0.2189  3.8596  2.2104
  192MPD1    N1 2983   3.553   3.020  11.719  0.7564  0.1633  0.1089
  192MPD1    H6 2984   3.556   2.922  11.746  0.6906 -0.1334 -0.9518
  192MPD1    H7 2985   3.460   3.061  11.717  0.2613 -0.8843  1.6787
  193MPD1     C 2986   3.070   4.085  15.952 -0.4586 -0.2188  0.3815
  193MPD1    C1 2987   3.002   4.206  15.976  0.3824  0.5666  0.1465
  193MPD1    C2 2988   3.056   4.293  16.072  0.6423  0.2592 -0.4015
  193MPD1    C3 2989   3.171   4.272  16.137 -0.4693  0.8694  0.3176
  193MPD1    C4 2990   3.240   4.160  16.103 -0.5159 -0.3504  0.2745
  193MPD1    C5 2991   3.191   4.073  16.015 -0.5582  0.0898  0.5330
  193MPD1     H 2992   3.006   4.387  16.090 -0.8549 -1.3144  3.6535
  193MPD1    H1 2993   3.332   4.133  16.153 -0.6174 -1.7729 -0.3095
  193MPD1    H2 2994   3.035   4.014  15.878 -1.3760 -0.0806  0.6756
  193MPD1    H3 2995   3.235   3.976  15.992  0.8812  0.4917  1.6219
  193MPD1     N 2996   3.241   4.367  16.217  0.2846 -0.8170 -0.2792
  193MPD1    H5 2997   3.332   4.336  16.251  0.6535 -1.2236 -1.6275
  193MPD1    N1 2998   2.868   4.225  15.925  0.0456  0.3377  0.3308
  193MPD1    H6 2999   2.846   4.152  15.857 -0.3162  0.7926 -0.0433
  193MPD1    H7 3000   2.832   4.317  15.901 -1.0495  0.0023  0.6888
  194MPD1     C 3001   1.214   1.802  16.692  0.0520 -0.3936  0.1099
  194MPD1    C1 3002   1.328   1.807  16.776  0.1681 -0.0756 -0.0540
  194MPD1    C2 3003   1.371   1.696  16.841  0.2690 -0.0643  0.2762
  194MPD1    C3 3004   1.330   1.569  16.801  0.4393  0.4713 -0.0430
  194MPD1    C4 3005   1.233   1.563  16.705 -0.7734 -0.4521  0.1180
  194MPD1    C5 3006   1.173   1.679  16.659  0.0905 -0.1448  0.3119
  194MPD1     H 3007   1.434   1.708  16.929  2.2639 -0.1434 -1.1515
  194MPD1    H1 3008   1.189   1.471  16.669  0.0718 -0.5183 -0.7623
  194MPD1    H2 3009   1.165   1.890  16.651  0.6878 -0.8891 -1.7345
  194MPD1    H3 3010   1.087   1.670  16.593  0.6446 -1.5896 -0.2240
  194MPD1     N 3011   1.392   1.445  16.839  0.5931 -0.0952 -0.4780
  194MPD1    H5 3012   1.377   1.370  16.772  1.6258  0.3427 -1.2020
  194MPD1    N1 3013   1.381   1.932  16.815 -0.0766  0.0024 -0.4996
  194MPD1    H6 3014   1.481   1.927  16.838  0.0770  1.5874 -0.8445
  194MPD1    H7 3015   1.360   2.004  16.747  2.1233  1.6280  0.5458
  195MPD1     C 3016   3.243   3.753   0.846 -0.2467  0.0675 -0.0752
  195MPD1    C1 3017   3.189   3.640   0.910  0.4795  0.2387  0.3812
  195MPD1    C2 3018   3.250   3.516   0.891  0.0988 -0.9000  0.4786
  195MPD1    C3 3019   3.356   3.501   0.805  0.6097 -0.0406  0.5146
  195MPD1    C4 3020   3.403   3.607   0.737  0.0906  0.0671  0.1807
  195MPD1    C5 3021   3.350   3.734   0.762 -0.2790 -0.6482  0.0725
  195MPD1     H 3022   3.210   3.435   0.952 -1.0792 -0.5274  0.1839
  195MPD1    H1 3023   3.492   3.597   0.675  1.1852 -1.7725  2.0557
  195MPD1    H2 3024   3.220   3.857   0.867 -0.5528  0.2197 -1.1582
  195MPD1    H3 3025   3.398   3.815   0.708 -2.2169  1.3523  1.3908
  195MPD1     N 3026   3.428   3.380   0.788 -0.9848  0.3673  0.2133
  195MPD1    H5 3027   3.506   3.378   0.723 -1.1705  1.0344 -0.0247
  195MPD1    N1 3028   3.107   3.662   1.016  0.4991 -0.8424  0.0640
  195MPD1    H6 3029   3.081   3.580   1.070 -1.4859 -0.2124  0.0750
  195MPD1    H7 3030   3.032   3.730   1.010  1.0056 -0.2950 -0.0192
  196MPD1     C 3031   2.733   1.584   0.154 -0.2170 -0.5441 -0.0405
  196MPD1    C1 3032   2.721   1.721   0.138 -0.1608  0.4311  0.3832
  196MPD1    C2 3033   2.724   1.801   0.251 -0.5898  0.2265 -0.2287
  196MPD1    C3 3034   2.726   1.746   0.377  0.2926  0.7957 -0.4668
  196MPD1    C4 3035   2.746   1.610   0.389 -0.4695 -0.1772  0.4553
  196MPD1    C5 3036   2.747   1.534   0.276 -0.3131 -0.5518  0.5704
  196MPD1     H 3037   2.721   1.909   0.243  4.1454  0.4059 -0.0698
  196MPD1    H1 3038   2.749   1.567   0.489 -1.0612  0.1652  0.6212
  196MPD1    H2 3039   2.754   1.507   0.081 -2.6373 -1.0030 -0.2600
  196MPD1    H3 3040   2.760   1.427   0.282 -1.8924 -0.8906 -1.7778
  196MPD1     N 3041   2.713   1.832   0.482  0.2853  0.5063 -0.1823
  196MPD1    H5 3042   2.710   1.930   0.454  1.1128  0.0091 -2.0108
  196MPD1    N1 3043   2.686   1.773   0.017 -0.3452  0.1468  0.7149
  196MPD1    H6 3044   2.723   1.868   0.014  0.3752 -0.1787 -0.8078
  196MPD1    H7 3045   2.724   1.726  17.676 -0.0558  0.6052  0.5875
  197MPD1     C 3046   1.481   4.286  17.245 -0.2512 -0.3037 -0.3627
  197MPD1    C1 3047   1.575   4.333  17.331  0.3448  0.1443  0.1552
  197MPD1    C2 3048   1.696   4.369  17.276 -0.4769 -0.2356 -0.4841
  197MPD1    C3 3049   1.738   4.336  17.155 -0.0910  0.2175 -1.0529
  197MPD1    C4 3050   1.648   4.273  17.075  0.0282  0.3269  0.8236
  197MPD1    C5 3051   1.520   4.243  17.125  0.2903 -0.2824 -0.2294
  197MPD1     H 3052   1.769   4.411  17.345 -2.1054  2.3417 -0.3231
  197MPD1    H1 3053   1.672   4.247  16.972  1.1893  4.3171  0.0739
  197MPD1    H2 3054   1.378   4.270  17.275 -0.4291 -0.3977 -1.0202
  197MPD1    H3 3055   1.455   4.193  17.054  2.7147 -2.1027 -1.1521
  197MPD1     N 3056   1.864   4.370  17.095 -0.4328 -0.1659 -0.4022
  197MPD1    H5 3057   1.894   4.334  17.005 -2.0539  0.6122 -1.2610
  197MPD1    N1 3058   1.535   4.376  17.459 -0.0401 -0.7210  0.3848
  197MPD1    H6 3059   1.461   4.321  17.502 -1.0978  0.0520 -0.4478
  197MPD1    H7 3060   1.613   4.375  17.525  0.9904 -0.0906 -0.8315
  198MPD1     C 3061   3.780   3.216  14.988 -0.4028 -0.2354  0.0688
  198MPD1    C1 3062   3.867   3.325  15.006 -0.4946  0.3737 -0.1662
  198MPD1    C2 3063   3.821   3.415  15.098 -0.1805  0.0963  0.3800
  198MPD1    C3 3064   3.718   3.390  15.181  0.0047 -0.1120 -0.8830
  198MPD1    C4 3065   3.641   3.276  15.176 -0.4734 -0.0779  0.3345
  198MPD1    C5 3066   3.679   3.186  15.078 -0.1650 -0.5131 -0.7628
  198MPD1     H 3067   3.870   3.511  15.110  0.7560 -0.4814  1.1355
  198MPD1    H1 3068   3.556   3.255  15.239  0.0226  0.1047  1.0648
  198MPD1    H2 3069   3.796   3.138  14.915  1.6684  0.4063 -0.1645
  198MPD1    H3 3070   3.630   3.090  15.075 -0.6343 -0.2391 -2.3033
  198MPD1     N 3071   3.693   3.492  15.272 -0.3993  0.0179  0.1409
  198MPD1    H5 3072   3.763   3.566  15.276  0.0843 -0.2895 -2.8173
  198MPD1    N1 3073   3.964   3.360  14.908  0.3073 -0.0199 -0.2417
  198MPD1    H6 3074   4.020   3.276  14.897  0.6131  0.3256 -1.3640
  198MPD1    H7 3075   4.028   3.430  14.943  0.2536 -0.7398  1.2732
  199MPD1     C 3076   0.716   3.938  10.376  0.3861 -0.1458 -0.0965
  199MPD1    C1 3077   0.785   4.060  10.365 -0.2064 -0.3547  0.9242
  199MPD1    C2 3078   0.756   4.151  10.265 -0.1995 -0.1538  0.3881
  199MPD1    C3 3079   0.646   4.130  10.186 -0.0001  0.2399  0.6426
  199MPD1    C4 3080   0.579   4.013  10.202  0.4242  0.8805 -0.1818
  199MPD1    C5 3081   0.611   3.920  10.292 -0.5197 -0.7424 -0.1340
  199MPD1     H 3082   0.811   4.244  10.258 -1.0136  0.4875  2.3679
  199MPD1    H1 3083   0.504   3.992  10.127 -0.0983 -1.9355  1.1052
  199MPD1    H2 3084   0.750   3.863  10.445 -1.1491 -1.5470 -0.8709
  199MPD1    H3 3085   0.551   3.830  10.300 -2.6773  0.8500  1.6177
  199MPD1     N 3086   0.600   4.214  10.090  0.2546  0.5474  0.1240
  199MPD1    H5 3087   0.515   4.189  10.041  0.8618 -1.6949  0.1962
  199MPD1    N1 3088   0.886   4.088  10.456  0.7341  0.6474 -0.6240
  199MPD1    H6 3089   0.950   4.156  10.416  2.9852 -0.4145  1.2363
  199MPD1    H7 3090   0.944   4.009  10.481  1.6509  1.5548  0.1119
  200MPD1     C 3091   4.001   4.437  14.880 -0.5373 -1.1060  0.0993
  200MPD1    C1 3092   4.030   4.453  14.748  0.6096  0.5899 -0.5168
  200MPD1    C2 3093   4.154   4.444  14.691  0.2779 -0.2251  0.6200
  200MPD1    C3 3094   4.264   4.434  14.778  0.4899  0.0061  0.1725
  200MPD1    C4 3095   4.240   4.422  14.912 -0.5839  0.1464  1.2592
  200MPD1    C5 3096   4.110   4.427  14.962 -0.0920  0.4443 -0.1136
  200MPD1     H 3097   4.175   4.448  14.585  1.4821 -0.8910  0.8264
  200MPD1    H1 3098   4.324   4.405  14.979 -0.0667  1.2230  0.8970
  200MPD1    H2 3099   3.899   4.433  14.917  0.3824  1.6721  3.0440
  200MPD1    H3 3100   4.082   4.398  15.062 -1.1130  1.0898 -0.2100
  200MPD1     N 3101   4.393   4.441  14.725 -0.3673  0.1632 -0.4218
  200MPD1    H5 3102   4.392   4.443  14.624 -0.2224  0.0861 -0.4251
  200MPD1    N1 3103   3.922   4.459  14.661  0.4153  0.3310  0.6567
  200MPD1    H6 3104   3.833   4.485  14.703 -0.9660  0.6373 -2.4245
  200MPD1    H7 3105   3.943   4.504  14.572 -0.2930  0.8834  0.7671
  201MPD1     C 3106   2.484   2.556  13.324 -0.1007  0.5333  0.0731
  201MPD1    C1 3107   2.580   2.520  13.420  0.2926  0.1133  0.7064
  201MPD1    C2 3108   2.713   2.517  13.382  0.3682 -0.2047 -0.6891
  201MPD1    C3 3109   2.752   2.579  13.267  0.3044 -0.7141  0.8798
  201MPD1    C4 3110   2.657   2.630  13.183  0.8458  0.7832 -0.6188
  201MPD1    C5 3111   2.522   2.616  13.207 -0.2136  0.0579  0.2397
  201MPD1     H 3112   2.784   2.475  13.452 -0.7559  0.1848  0.6812
  201MPD1    H1 3113   2.692   2.686  13.097 -1.1102  1.6569 -0.8356
  201MPD1    H2 3114   2.381   2.524  13.326  0.2847 -0.7293 -0.1627
  201MPD1    H3 3115   2.451   2.652  13.133 -0.8810 -0.4932  0.6238
  201MPD1     N 3116   2.889   2.585  13.243 -0.2138  0.1084 -0.4702
  201MPD1    H5 3117   2.956   2.541  13.305  0.0652 -1.7927 -2.1060
  201MPD1    N1 3118   2.545   2.465  13.542 -0.9244 -0.0619  0.7176
  201MPD1    H6 3119   2.447   2.478  13.563 -1.4047 -0.3153 -1.4146
  201MPD1    H7 3120   2.610   2.476  13.620 -0.7086  0.0664  0.5199
  202MPD1     C 3121   1.808   2.110   9.735  0.1078 -0.4407  0.8794
  202MPD1    C1 3122   1.804   2.172   9.859 -0.0605  0.4645  0.4355
  202MPD1    C2 3123   1.930   2.213   9.906 -0.0349 -0.5688  0.3754
  202MPD1    C3 3124   2.054   2.160   9.862 -0.3411  0.7360  0.1150
  202MPD1    C4 3125   2.051   2.085   9.746  0.1660 -0.8827  0.0596
  202MPD1    C5 3126   1.928   2.067   9.680 -0.6182  0.3759 -0.7616
  202MPD1     H 3127   1.936   2.259  10.004 -0.2435 -1.5741  0.8603
  202MPD1    H1 3128   2.139   2.038   9.704  0.4963  0.2092 -0.4855
  202MPD1    H2 3129   1.719   2.096   9.675 -0.0085 -1.2420  1.2475
  202MPD1    H3 3130   1.929   2.020   9.582  0.9978  1.6914 -1.3876
  202MPD1     N 3131   2.180   2.184   9.921 -0.0381  0.0867  0.0258
  202MPD1    H5 3132   2.255   2.125   9.889  1.4592  2.0049  0.0226
  202MPD1    N1 3133   1.695   2.245   9.897  0.2954  0.1321 -0.0485
  202MPD1    H6 3134   1.609   2.193   9.880 -0.7416  1.0780  2.2731
  202MPD1    H7 3135   1.709   2.262   9.996  0.4070 -0.8062  0.0968
  203MPD1     C 3136   2.097   4.249  12.812 -0.4330 -1.3007  0.1101
  203MPD1    C1 3137   1.983   4.211  12.747  0.1424  0.2754  0.7112
  203MPD1    C2 3138   1.947   4.078  12.765 -0.1921 -0.0671  0.2040
  203MPD1    C3 3139   2.024   3.978  12.821  0.5821 -0.4524 -0.6709
  203MPD1    C4 3140   2.140   4.019  12.877  0.3682  0.0923  0.1273
  203MPD1    C5 3141   2.173   4.149  12.874  0.2390 -0.2002  0.8784
  203MPD1     H 3142   1.850   4.044  12.732 -0.1491  0.8463 -0.9092
  203MPD1    H1 3143   2.207   3.952  12.930 -0.7752  1.4418  3.2880
  203MPD1    H2 3144   2.134   4.351  12.817 -2.4071 -0.7483  3.1649
  203MPD1    H3 3145   2.269   4.175  12.916  1.0385 -0.0595 -1.0380
  203MPD1     N 3146   1.992   3.841  12.809  0.5833  0.0865 -0.4566
  203MPD1    H5 3147   1.913   3.813  12.751 -0.0524 -2.6459  1.7148
  203MPD1    N1 3148   1.892   4.304  12.700 -1.3620 -0.3496  1.4871
  203MPD1    H6 3149   1.936   4.395  12.681  1.0501 -1.9405 -0.5418
  203MPD1    H7 3150   1.837   4.265  12.624  0.7936  0.2710 -0.4220
  204MPD1     C 3151   1.407   0.909  17.418  0.1414 -0.1214  0.1128
  204MPD1    C1 3152   1.459   0.830  17.316  0.0896 -0.3181  0.2093
  204MPD1    C2 3153   1.435   0.697  17.319  0.1227 -0.6035 -0.1524
  204MPD1    C3 3154   1.358   0.638  17.417  0.0887 -0.3300 -0.0923
  204MPD1    C4 3155   1.313   0.714  17.518  0.4934 -0.6325 -0.1206
  204MPD1    C5 3156   1.330   0.849  17.514 -0.7854  0.3296 -0.0145
  204MPD1     H 3157   1.490   0.642  17.244 -1.0005 -1.5851 -0.2533
  204MPD1    H1 3158   1.267   0.685  17.612 -1.4733  1.5420 -0.3992
  204MPD1    H2 3159   1.441   1.011  17.434 -0.6421  0.0983  0.3448
  204MPD1    H3 3160   1.296   0.902  17.602  0.6811 -1.0785  1.3789
  204MPD1     N 3161   1.346   0.497  17.405  0.6899  0.5992 -0.2247
  204MPD1    H5 3162   1.386   0.457  17.321  1.1028  0.6219 -0.0422
  204MPD1    N1 3163   1.555   0.889  17.229  0.3815  0.3818 -0.8081
  204MPD1    H6 3164   1.574   0.848  17.138  0.2763  1.6972 -1.4191
  204MPD1    H7 3165   1.521   0.982  17.206  2.9737  1.8911  1.4254
  205MPD1     C 3166   1.975   3.931  17.256 -0.4971  0.6351  0.0292
  205MPD1    C1 3167   1.913   3.818  17.217  0.0436  0.1340 -0.7557
  205MPD1    C2 3168   1.777   3.810  17.251  0.4687  0.8141 -0.0484
  205MPD1    C3 3169   1.705   3.909  17.315  0.3495 -0.2668 -0.4861
  205MPD1    C4 3170   1.779   4.020  17.355 -0.3900  0.2704  0.6962
  205MPD1    C5 3171   1.913   4.027  17.338  0.0568 -0.3184  0.1595
  205MPD1     H 3172   1.719   3.723  17.225 -1.7150  1.4380  2.6742
  205MPD1    H1 3173   1.730   4.105  17.400  1.5426  0.4073  2.5000
  205MPD1    H2 3174   2.078   3.957  17.236 -0.2566  1.9551  2.8993
  205MPD1    H3 3175   1.963   4.119  17.366 -1.9175  0.6354  0.5644
  205MPD1     N 3176   1.563   3.919  17.337 -0.2974 -0.5493 -0.2641
  205MPD1    H5 3177   1.528   4.006  17.377 -1.1399 -0.6356 -0.8128
  205MPD1    N1 3178   1.986   3.719  17.149 -0.2159 -0.2235 -0.2520
  205MPD1    H6 3179   2.081   3.709  17.186  0.0416 -0.0978 -0.8752
  205MPD1    H7 3180   1.933   3.632  17.143  2.4641 -1.9086  0.1414
  206MPD1     C 3181   1.906   1.751  16.956  0.0786 -0.2320 -0.6808
  206MPD1    C1 3182   1.884   1.635  16.891 -0.0042 -0.4596  0.3378
  206MPD1    C2 3183   1.791   1.630  16.786  0.6354  0.5449  0.2743
  206MPD1    C3 3184   1.710   1.738  16.743  0.2834 -0.2119 -0.3829
  206MPD1    C4 3185   1.720   1.856  16.821 -0.2018 -1.0320  0.4044
  206MPD1    C5 3186   1.824   1.864  16.919 -0.6735 -0.5220 -0.2824
  206MPD1     H 3187   1.771   1.540  16.729  2.0572  1.2989 -1.4016
  206MPD1    H1 3188   1.660   1.946  16.809  2.1169  0.2786 -1.1851
  206MPD1    H2 3189   1.984   1.761  17.030 -1.0016  1.2860  0.2565
  206MPD1    H3 3190   1.835   1.963  16.961 -0.1193 -0.0233 -1.6019
  206MPD1     N 3191   1.623   1.729  16.630  0.2198 -0.5886  0.1439
  206MPD1    H5 3192   1.594   1.819  16.593 -0.6105 -1.7406 -2.0249
  206MPD1    N1 3193   1.969   1.527  16.915  0.1251 -0.6692 -0.1721
  206MPD1    H6 3194   2.012   1.525  17.007  0.3205 -0.8626 -0.2680
  206MPD1    H7 3195   1.919   1.438  16.910 -2.6395  0.9362 -1.0077
  207MPD1     C 3196   3.359   3.168  10.152  0.3627 -0.5704  0.1584
  207MPD1    C1 3197   3.391   3.115  10.269  0.0021  0.2532 -0.1101
  207MPD1    C2 3198   3.525   3.130  10.300  0.3996 -0.1241 -0.1460
  207MPD1    C3 3199   3.614   3.190  10.216 -0.2624  0.5557  0.1813
  207MPD1    C4 3200   3.578   3.240  10.093  0.1760  0.4417  0.1802
  207MPD1    C5 3201   3.445   3.233  10.072 -0.4585  0.0441  0.1680
  207MPD1     H 3202   3.552   3.076  10.390 -1.3149 -1.8406 -0.6523
  207MPD1    H1 3203   3.638   3.308  10.034 -1.2439  3.0673  1.7354
  207MPD1    H2 3204   3.255   3.173  10.120  1.3714  3.8687 -2.4638
  207MPD1    H3 3205   3.405   3.272   9.979 -0.0975  1.3158  0.5453
  207MPD1     N 3206   3.750   3.212  10.247 -0.5372  0.0167  0.0187
  207MPD1    H5 3207   3.803   3.272  10.184 -1.0028 -0.1387 -0.5314
  207MPD1    N1 3208   3.296   3.072  10.361  0.0307  0.4199  0.1999
  207MPD1    H6 3209   3.338   2.987  10.396 -2.5723 -0.2772  1.6139
  207MPD1    H7 3210   3.212   3.045  10.311  1.6671 -1.6985 -1.3700
  208MPD1     C 3211   1.170   2.015  17.366 -0.8898 -0.2140  0.0716
  208MPD1    C1 3212   1.236   2.023  17.482  0.1761  0.1113  0.1455
  208MPD1    C2 3213   1.242   2.149  17.543  0.0217 -0.1327  0.0110
  208MPD1    C3 3214   1.187   2.264  17.488  0.9000 -0.2243 -0.0470
  208MPD1    C4 3215   1.111   2.243  17.371 -0.0061  0.5023 -1.2270
  208MPD1    C5 3216   1.112   2.123  17.312 -0.2329  0.4806  0.0822
  208MPD1     H 3217   1.282   2.153  17.644  1.5387  2.2005 -0.6632
  208MPD1    H1 3218   1.077   2.325  17.309  0.5014  0.4327 -1.5980
  208MPD1    H2 3219   1.164   1.918  17.319 -2.4391 -0.1013  0.0113
  208MPD1    H3 3220   1.057   2.108  17.219 -0.7179  6.4143 -0.6073
  208MPD1     N 3221   1.195   2.386  17.555 -0.8435  0.3573  0.3007
  208MPD1    H5 3222   1.256   2.386  17.636 -0.0202  2.3617 -0.3403
  208MPD1    N1 3223   1.278   1.910  17.551 -0.2720  0.3691  0.3590
  208MPD1    H6 3224   1.298   1.828  17.495 -0.3036  1.3066 -1.0315
  208MPD1    H7 3225   1.331   1.917  17.638  1.1043  0.6592 -0.4919
  209MPD1     C 3226   4.665   2.580  11.898  0.2479 -0.3075 -0.3168
  209MPD1    C1 3227   4.573   2.668  11.950 -0.1277 -0.4418  0.1365
  209MPD1    C2 3228   4.521   2.759  11.864  0.6539  0.4031  0.1730
  209MPD1    C3 3229   4.561   2.769  11.733  0.2347  0.0639  0.3359
  209MPD1    C4 3230   4.649   2.679  11.682  0.0578 -0.3107  1.2284
  209MPD1    C5 3231   4.703   2.586  11.769 -0.4845 -0.9576  0.9809
  209MPD1     H 3232   4.449   2.834  11.895  0.0978  1.6228 -4.0610
  209MPD1    H1 3233   4.686   2.663  11.581  0.7640  1.2899  1.2315
  209MPD1    H2 3234   4.723   2.518  11.965  1.5524 -0.1744 -1.3234
  209MPD1    H3 3235   0.027   2.503  11.732 -2.7371 -1.4577 -1.5112
  209MPD1     N 3236   4.519   2.876  11.651 -0.7782  0.6131  0.0480
  209MPD1    H5 3237   4.461   2.944  11.700 -1.3580 -0.4987  0.9267
  209MPD1    N1 3238   4.519   2.648  12.069 -0.0192 -0.7218  0.5363
  209MPD1    H6 3239   4.584   2.595  12.126  1.5402  0.9588  0.2927
  209MPD1    H7 3240   4.493   2.739  12.106  0.3213 -1.1218  1.7541
  210MPD1     C 3241   4.126   3.797  11.528 -0.0710 -0.6201 -0.0695
  210MPD1    C1 3242   4.086   3.729  11.414 -0.3731  0.0246  0.6369
  210MPD1    C2 3243   4.137   3.606  11.387  0.5684  0.0551 -0.2779
  210MPD1    C3 3244   4.209   3.539  11.484 -0.0820 -0.7275 -0.1072
  210MPD1    C4 3245   4.220   3.597  11.606  0.4780  1.1269 -0.2167
  210MPD1    C5 3246   4.181   3.728  11.633 -0.6037 -0.0776 -0.0521
  210MPD1     H 3247   4.127   3.564  11.287 -2.4669  3.2158 -1.2788
  210MPD1    H1 3248   4.277   3.549  11.685 -3.8326 -0.6404  1.7739
  210MPD1    H2 3249   4.099   3.900  11.545 -2.4675 -1.4140  1.0821
  210MPD1    H3 3250   4.196   3.773  11.730 -0.8605  1.6609 -0.8305
  210MPD1     N 3251   4.268   3.416  11.449  0.4657  0.2042  0.8423
  210MPD1    H5 3252   4.243   3.376  11.359 -0.7280 -0.5054  1.4926
  210MPD1    N1 3253   4.050   3.811  11.309  0.0305  0.4275 -0.0216
  210MPD1    H6 3254   4.013   3.747  11.239  2.0256 -1.9022  1.0465
  210MPD1    H7 3255   3.983   3.882  11.335  1.2433  1.5427  0.0781
  211MPD1     C 3256   0.933   2.697  16.406 -0.8320  0.1868 -0.0707
  211MPD1    C1 3257   1.019   2.802  16.420 -0.0037  0.8472 -0.3425
  211MPD1    C2 3258   0.973   2.926  16.464 -0.1430  0.0574 -0.0620
  211MPD1    C3 3259   0.839   2.948  16.502 -0.0584  0.6150  0.4756
  211MPD1    C4 3260   0.757   2.834  16.498 -0.1178 -0.0584  0.1736
  211MPD1    C5 3261   0.806   2.712  16.455  0.2772  0.1794  0.1416
  211MPD1     H 3262   1.048   3.002  16.483 -0.2261 -0.2258  1.4051
  211MPD1    H1 3263   0.657   2.846  16.539 -0.5664 -0.4614 -0.8042
  211MPD1    H2 3264   0.960   2.597  16.374  2.1737  1.5431 -1.7244
  211MPD1    H3 3265   0.733   2.632  16.443 -0.7471  1.5030 -2.6057
  211MPD1     N 3266   0.802   3.074  16.556 -0.1726  0.5402  0.1367
  211MPD1    H5 3267   0.872   3.146  16.544 -0.7324  1.3108  1.5118
  211MPD1    N1 3268   1.150   2.794  16.368  0.2476  0.1708 -0.3938
  211MPD1    H6 3269   1.203   2.708  16.375  1.2046  0.6305 -1.9030
  211MPD1    H7 3270   1.206   2.875  16.395  1.3104 -0.4048 -0.8761
  212MPD1     C 3271   0.939   1.665  16.221 -0.8551  0.8665  0.4016
  212MPD1    C1 3272   0.868   1.757  16.294  0.7365  0.2076  0.2215
  212MPD1    C2 3273   0.789   1.710  16.402  0.4872  0.0771 -0.3150
  212MPD1    C3 3274   0.809   1.578  16.444 -0.4481 -0.2321 -0.2822
  212MPD1    C4 3275   0.890   1.491  16.375 -0.1299  0.5881 -0.0631
  212MPD1    C5 3276   0.952   1.536  16.264  0.2512  0.5612  0.9179
  212MPD1     H 3277   0.736   1.784  16.459  4.2044  2.0619  0.5719
  212MPD1    H1 3278   0.913   1.389  16.404 -1.8514  0.1711 -0.1374
  212MPD1    H2 3279   0.985   1.696  16.128 -0.3803  0.0883  0.3753
  212MPD1    H3 3280   1.012   1.469  16.203 -2.1653  0.3495 -1.2058
  212MPD1     N 3281   0.770   1.541  16.573  0.3583 -0.4936 -0.3110
  212MPD1    H5 3282   0.795   1.445  16.598 -0.1490 -0.4975  0.1736
  212MPD1    N1 3283   0.867   1.886  16.246 -0.0610  0.0871  0.6755
  212MPD1    H6 3284   0.860   1.963  16.313  0.3171  0.4870  0.2601
  212MPD1    H7 3285   0.948   1.899  16.185  0.8141  0.5249  1.9215
  213MPD1     C 3286   3.545   2.507  15.812 -0.1470 -0.2000  0.3240
  213MPD1    C1 3287   3.461   2.402  15.774 -0.2276 -0.1823 -0.1262
  213MPD1    C2 3288   3.386   2.444  15.665  0.0589  0.5864 -0.4995
  213MPD1    C3 3289   3.361   2.575  15.622  0.3367 -0.4025 -0.5011
  213MPD1    C4 3290   3.435   2.672  15.687 -0.3002 -0.9096 -0.2829
  213MPD1    C5 3291   3.540   2.636  15.774  0.3235  1.1254 -0.5737
  213MPD1     H 3292   3.337   2.365  15.610  1.5313 -0.7569  0.1421
  213MPD1    H1 3293   3.433   2.776  15.653  0.5711 -0.4681  1.0294
  213MPD1    H2 3294   3.633   2.482  15.871 -0.6566 -1.3599  0.5867
  213MPD1    H3 3295   3.615   2.710  15.802 -0.7562  1.2799  1.9596
  213MPD1     N 3296   3.269   2.593  15.515 -0.3672  0.4205  0.2806
  213MPD1    H5 3297   3.237   2.506  15.475 -0.0667  0.1508  0.6351
  213MPD1    N1 3298   3.513   2.268  15.780  0.4623 -0.7545  0.3251
  213MPD1    H6 3299   3.443   2.198  15.756 -1.5516  1.9714 -1.6477
  213MPD1    H7 3300   3.562   2.244  15.866 -1.6640 -0.4878  1.5901
  214MPD1     C 3301   2.473   2.405  15.136  0.2822  0.6938  0.3675
  214MPD1    C1 3302   2.569   2.322  15.078 -0.8201 -0.8721  0.6029
  214MPD1    C2 3303   2.697   2.337  15.124  0.2173 -0.4884  0.0491
  214MPD1    C3 3304   2.738   2.443  15.201  0.1929 -0.3177 -0.1405
  214MPD1    C4 3305   2.640   2.528  15.246  0.2660 -0.1931 -0.6665
  214MPD1    C5 3306   2.505   2.502  15.224  0.3671 -0.0379  0.0256
  214MPD1     H 3307   2.774   2.272  15.083  2.0131  2.4020 -1.1786
  214MPD1    H1 3308   2.652   2.621  15.300 -0.8285 -0.2562 -0.3077
  214MPD1    H2 3309   2.367   2.390  15.119  1.1520 -1.6553 -3.1328
  214MPD1    H3 3310   2.429   2.557  15.277 -0.2154 -0.0847 -0.7446
  214MPD1     N 3311   2.869   2.480  15.225 -0.1789  0.5481  0.2004
  214MPD1    H5 3312   2.885   2.562  15.282 -1.5656  0.1231  1.1875
  214MPD1    N1 3313   2.540   2.207  15.006  0.1778  0.2674 -0.4122
  214MPD1    H6 3314   2.468   2.226  14.937  0.9659  1.1312 -0.9851
  214MPD1    H7 3315   2.620   2.169  14.956  1.4627 -0.4217  2.1665
  215MPD1     C 3316   3.711   2.267  10.432  0.0889  0.7763 -0.2597
  215MPD1    C1 3317   3.795   2.244  10.537 -0.4397 -0.1473  0.3170
  215MPD1    C2 3318   3.815   2.347  10.630 -0.0983  0.0636  0.5185
  215MPD1    C3 3319   3.759   2.470  10.608 -0.6500  0.4800 -0.6235
  215MPD1    C4 3320   3.682   2.487  10.500 -0.6062  0.1689 -0.2707
  215MPD1    C5 3321   3.654   2.392  10.405  0.5123  0.1820  0.5247
  215MPD1     H 3322   3.863   2.340  10.727  2.5809  0.8665 -0.7523
  215MPD1    H1 3323   3.647   2.587  10.478 -0.4466  0.0545 -1.0760
  215MPD1    H2 3324   3.691   2.183  10.367  0.7140  0.3487  0.1033
  215MPD1    H3 3325   3.594   2.403  10.315  1.5233 -1.1073 -0.3036
  215MPD1     N 3326   3.779   2.572  10.704  0.3251  0.0474  0.6311
  215MPD1    H5 3327   3.835   2.542  10.783 -0.3200 -0.7837  0.7807
  215MPD1    N1 3328   3.837   2.111  10.564 -0.0853  0.1907 -0.1201
  215MPD1    H6 3329   3.853   2.067  10.473  2.0160 -0.8717  0.7737
  215MPD1    H7 3330   3.930   2.105  10.606 -0.0854  0.0867 -0.1364
  216MPD1     C 3331   0.685   2.033   0.253  0.4438 -0.2476 -0.0150
  216MPD1    C1 3332   0.733   1.931   0.331 -0.0719 -0.1133  0.6347
  216MPD1    C2 3333   0.762   1.810   0.272  0.0693  0.0759 -0.2306
  216MPD1    C3 3334   0.713   1.780   0.150 -0.2329 -0.0819 -0.3015
  216MPD1    C4 3335   0.664   1.881   0.070  0.0187 -0.1034 -0.4827
  216MPD1    C5 3336   0.651   2.011   0.122 -0.2535 -0.4363  0.0160
  216MPD1     H 3337   0.807   1.736   0.338  1.4871  0.9423 -0.2236
  216MPD1    H1 3338   0.644   1.870  17.706 -0.0921 -1.4929 -0.3141
  216MPD1    H2 3339   0.658   2.129   0.295 -1.1784  0.0072 -1.6301
  216MPD1    H3 3340   0.617   2.090   0.056  0.1810 -0.3211 -0.0662
  216MPD1     N 3341   0.729   1.649   0.107 -0.1669  0.3183 -0.3471
  216MPD1    H5 3342   0.788   1.588   0.163  0.8836  1.2400 -0.4559
  216MPD1    N1 3343   0.782   1.954   0.456  0.2313  0.2599  0.3595
  216MPD1    H6 3344   0.744   2.034   0.506  0.7582  0.8692 -0.2256
  216MPD1    H7 3345   0.792   1.868   0.510  1.2930  0.3510  0.3126
  217MPD1     C 3346   0.742   1.349   9.166  0.6191  1.0613 -0.6918
  217MPD1    C1 3347   0.867   1.360   9.114 -0.1125 -0.8353 -0.6284
  217MPD1    C2 3348   0.936   1.477   9.137  0.6673 -1.1954 -0.5486
  217MPD1    C3 3349   0.874   1.591   9.190 -0.7169 -0.3782 -0.1078
  217MPD1    C4 3350   0.747   1.570   9.239  0.1219  0.3773 -0.5487
  217MPD1    C5 3351   0.682   1.449   9.238  0.2392 -0.3832 -0.1288
  217MPD1     H 3352   1.043   1.478   9.117  0.5010 -0.3910 -1.4050
  217MPD1    H1 3353   0.696   1.656   9.282 -0.7779 -0.0532 -0.7557
  217MPD1    H2 3354   0.687   1.256   9.164  1.5156  0.4919  0.7614
  217MPD1    H3 3355   0.580   1.441   9.275  1.1757 -3.1928  1.8437
  217MPD1     N 3356   0.932   1.719   9.190 -0.3012 -0.3640 -0.3724
  217MPD1    H5 3357   0.865   1.790   9.218  1.5592  0.9673  0.6814
  217MPD1    N1 3358   0.910   1.269   9.022 -0.7821 -0.2264 -0.1832
  217MPD1    H6 3359   0.878   1.178   9.051 -0.6552 -0.1168  0.2928
  217MPD1    H7 3360   1.011   1.270   9.004 -0.4060  1.4712  2.0456
  218MPD1     C 3361   3.902   4.261  12.808  0.8053 -1.0653 -0.4968
  218MPD1    C1 3362   3.906   4.133  12.858 -0.9487  0.3825  0.3248
  218MPD1    C2 3363   3.906   4.029  12.773  0.6489  0.2092 -0.0045
  218MPD1    C3 3364   3.880   4.049  12.643 -0.4129 -0.1448  0.5406
  218MPD1    C4 3365   3.878   4.173  12.589  0.1907  0.0801 -0.0525
  218MPD1    C5 3366   3.887   4.277  12.676 -0.2445  0.4771 -0.2679
  218MPD1     H 3367   3.929   3.934  12.819 -0.2817  0.3331  0.7135
  218MPD1    H1 3368   3.872   4.192  12.483  0.5461  0.7368  0.0484
  218MPD1    H2 3369   3.915   4.353  12.863  0.7119 -2.2159  1.4467
  218MPD1    H3 3370   3.887   4.374  12.629  0.5660  0.9533  0.7188
  218MPD1     N 3371   3.885   3.931  12.564 -0.0775  0.3055 -0.0380
  218MPD1    H5 3372   3.911   3.849  12.618  0.5443  1.2441  1.0812
  218MPD1    N1 3373   3.948   4.128  12.991 -0.0386 -0.9358  0.2776
  218MPD1    H6 3374   3.914   4.200  13.056 -1.9927  0.4619 -2.2830
  218MPD1    H7 3375   3.934   4.040  13.040  0.2013 -0.9986  0.2322
  219MPD1     C 3376   3.412   3.853  11.670  0.0715 -0.3874 -0.4482
  219MPD1    C1 3377   3.393   3.732  11.729  0.7771  0.2381  0.0397
  219MPD1    C2 3378   3.458   3.694  11.847 -0.1110  0.4764 -0.2620
  219MPD1    C3 3379   3.544   3.785  11.902  0.4392 -0.6882 -0.4962
  219MPD1    C4 3380   3.546   3.914  11.854  0.0242  0.4703  0.0686
  219MPD1    C5 3381   3.479   3.942  11.735  0.1962 -0.1186  0.5034
  219MPD1     H 3382   3.447   3.595  11.889  0.3930  1.7293  2.8389
  219MPD1    H1 3383   3.606   3.989  11.906  0.0349  0.5932 -0.1225
  219MPD1    H2 3384   3.365   3.878  11.576  0.5628  1.2322 -0.2750
  219MPD1    H3 3385   3.495   4.039  11.688 -0.4126 -0.1812  0.1708
  219MPD1     N 3386   3.630   3.765  12.011 -0.3301 -0.0611 -0.3728
  219MPD1    H5 3387   3.666   3.850  12.054  0.1463 -1.7023  2.4665
  219MPD1    N1 3388   3.326   3.632  11.652  0.3479  0.4573 -0.6654
  219MPD1    H6 3389   3.290   3.550  11.700  1.3498  0.8180  0.6885
  219MPD1    H7 3390   3.256   3.679  11.595  0.1863  0.0730 -0.7836
  220MPD1     C 3391   3.099   3.453   9.475  0.2700  0.1398  0.3310
  220MPD1    C1 3392   2.997   3.409   9.570 -0.6065 -0.3668  1.0309
  220MPD1    C2 3393   3.033   3.416   9.707 -0.2508  0.2984  0.4126
  220MPD1    C3 3394   3.159   3.465   9.747 -0.1799 -0.2460  0.0121
  220MPD1    C4 3395   3.249   3.508   9.647  0.7934 -0.3244  0.0222
  220MPD1    C5 3396   3.221   3.496   9.513 -0.2143 -0.2374  0.7258
  220MPD1     H 3397   2.950   3.395   9.773  1.0314 -1.9701  1.3275
  220MPD1    H1 3398   3.346   3.550   9.671  1.3456 -0.4054 -2.0888
  220MPD1    H2 3399   3.084   3.445   9.368  1.7591  2.5806 -0.0754
  220MPD1    H3 3400   3.290   3.519   9.433 -2.1857  3.3047  0.0239
  220MPD1     N 3401   3.185   3.476   9.887  0.2096  0.8468  0.4468
  220MPD1    H5 3402   3.109   3.435   9.940  0.5996  0.0775  0.4084
  220MPD1    N1 3403   2.869   3.402   9.519 -0.6408  0.1385 -0.2200
  220MPD1    H6 3404   2.880   3.383   9.419  0.5147 -0.3472  0.0084
  220MPD1    H7 3405   2.831   3.323   9.570  0.7700 -0.3807  0.0198
  221MPD1     C 3406   1.524   3.091  16.396 -0.0456  0.3394  0.6203
  221MPD1    C1 3407   1.444   3.012  16.466 -0.1291  0.3909 -0.2724
  221MPD1    C2 3408   1.442   2.875  16.436  0.0864  0.5530 -0.7292
  221MPD1    C3 3409   1.530   2.813  16.361  0.0172  0.6316  0.2583
  221MPD1    C4 3410   1.618   2.902  16.291  0.2363 -0.8217 -0.0878
  221MPD1    C5 3411   1.616   3.037  16.305  0.0610 -0.6579 -0.1441
  221MPD1     H 3412   1.374   2.809  16.488 -0.7539 -0.6451 -3.3304
  221MPD1    H1 3413   1.695   2.857  16.229 -1.1042 -0.8297 -1.7388
  221MPD1    H2 3414   1.515   3.197  16.419  0.8580  0.5760 -0.1249
  221MPD1    H3 3415   1.691   3.099  16.257  1.8146 -1.5654  1.3844
  221MPD1     N 3416   1.548   2.673  16.359 -0.3632 -0.2163  0.1149
  221MPD1    H5 3417   1.626   2.637  16.305 -0.4146 -0.3797  0.1500
  221MPD1    N1 3418   1.356   3.069  16.554 -0.6265  0.1988 -0.6099
  221MPD1    H6 3419   1.302   3.006  16.613  1.5001 -0.3058  0.8332
  221MPD1    H7 3420   1.406   3.130  16.619  1.3629 -0.8921 -1.1090
  222MPD1     C 3421   0.895   1.820  16.917 -0.1009  0.1056 -0.6392
  222MPD1    C1 3422   0.806   1.902  16.979 -0.3415 -0.0111  0.1296
  222MPD1    C2 3423   0.784   1.897  17.118 -0.6234 -0.4183  0.2567
  222MPD1    C3 3424   0.871   1.817  17.197  0.4370 -0.0624  0.1030
  222MPD1    C4 3425   0.961   1.736  17.129 -0.0496  0.3509 -0.0662
  222MPD1    C5 3426   0.972   1.736  16.998  0.3993 -0.8952 -0.6922
  222MPD1     H 3427   0.712   1.962  17.166  1.3085 -0.4879  3.2254
  222MPD1    H1 3428   1.026   1.668  17.183 -1.6527 -0.2576  1.0915
  222MPD1    H2 3429   0.915   1.821  16.810 -2.4132 -0.9135 -1.0757
  222MPD1    H3 3430   1.036   1.668  16.942  1.9107  1.0446 -1.3652
  222MPD1     N 3431   0.880   1.826  17.337  0.4473  0.2669 -0.4820
  222MPD1    H5 3432   0.954   1.772  17.380  0.9931  1.1796 -0.2541
  222MPD1    N1 3433   0.709   1.972  16.902 -0.0527 -0.2979  0.2725
  222MPD1    H6 3434   0.744   1.998  16.810  0.0577  1.3903  0.7810
  222MPD1    H7 3435   0.664   2.047  16.953 -0.9959 -0.8898  0.3164
  223MPD1     C 3436   1.263   1.478   0.457  0.9810 -0.1523  0.5902
  223MPD1    C1 3437   1.174   1.573   0.498  0.3879 -0.0037  0.1414
  223MPD1    C2 3438   1.124   1.665   0.409  0.0255  0.3976 -0.1269
  223MPD1    C3 3439   1.151   1.647   0.273  0.5112 -0.1422  0.1931
  223MPD1    C4 3440   1.238   1.555   0.228 -0.1564  0.0397 -0.6051
  223MPD1    C5 3441   1.304   1.479   0.322  0.4934 -0.4031 -0.8932
  223MPD1     H 3442   1.052   1.742   0.433 -0.4043  0.4566 -1.5987
  223MPD1    H1 3443   1.264   1.545   0.123 -2.0231  2.3148 -1.2980
  223MPD1    H2 3444   1.314   1.407   0.520  1.1496 -1.4857 -1.0451
  223MPD1    H3 3445   1.377   1.412   0.279  1.2273 -0.2963  0.1913
  223MPD1     N 3446   1.093   1.749   0.187 -0.6446  0.0586 -0.2184
  223MPD1    H5 3447   1.055   1.829   0.237 -1.0023  0.7411 -1.5979
  223MPD1    N1 3448   1.137   1.574   0.633 -0.2229 -0.2187  0.0201
  223MPD1    H6 3449   1.107   1.668   0.658  0.0915  0.5906 -2.6508
  223MPD1    H7 3450   1.219   1.559   0.692  0.8633  0.6260 -1.2538
  224MPD1     C 3451   1.167   2.101   8.880 -0.4936 -0.8502  0.0141
  224MPD1    C1 3452   1.031   2.125   8.905  0.7901  1.0606 -0.7156
  224MPD1    C2 3453   0.995   2.238   8.974 -0.4762 -0.0361  0.5747
  224MPD1    C3 3454   1.093   2.332   9.021 -0.8588 -0.1483 -0.2554
  224MPD1    C4 3455   1.224   2.297   8.995  0.0978 -0.4147 -0.0324
  224MPD1    C5 3456   1.259   2.193   8.913  0.4314 -0.2625 -0.0339
  224MPD1     H 3457   0.891   2.257   9.001 -1.5602 -3.2436 -1.3293
  224MPD1    H1 3458   1.293   2.353   9.057  1.2838 -2.7068  0.6796
  224MPD1    H2 3459   1.207   2.013   8.830  0.6450 -0.8245  0.8705
  224MPD1    H3 3460   1.364   2.168   8.903 -0.0389 -3.0176  1.9715
  224MPD1     N 3461   1.069   2.451   9.092 -0.2549 -0.3835  0.2929
  224MPD1    H5 3462   1.149   2.507   9.120 -0.5243 -0.6819  1.6771
  224MPD1    N1 3463   0.942   2.027   8.866  0.2277  0.1609 -0.3245
  224MPD1    H6 3464   0.850   2.059   8.839  1.2815  2.3088 -1.3790
  224MPD1    H7 3465   0.976   1.970   8.789  0.3634 -1.9734  1.2977
  225MPD1     C 3466   3.670   3.304  12.790  0.0745  0.0914 -0.2159
  225MPD1    C1 3467   3.723   3.425  12.756  0.2690 -0.3259 -0.5427
  225MPD1    C2 3468   3.643   3.524  12.694 -0.3884 -0.0253 -0.4951
  225MPD1    C3 3469   3.502   3.506  12.676 -0.1897 -0.1845 -0.1584
  225MPD1    C4 3470   3.451   3.386  12.713 -0.2410  1.0995 -0.1664
  225MPD1    C5 3471   3.538   3.296  12.773  0.0233 -0.0059  0.3328
  225MPD1     H 3472   3.681   3.625  12.688 -1.7602  0.4952 -0.4272
  225MPD1    H1 3473   3.348   3.357  12.695 -0.1588  0.1038  0.9273
  225MPD1    H2 3474   3.728   3.226  12.839 -0.2213  1.1155  1.7634
  225MPD1    H3 3475   3.492   3.205  12.810 -1.8558  1.1935  0.9808
  225MPD1     N 3476   3.414   3.600  12.610  0.5092  0.0599  0.0485
  225MPD1    H5 3477   3.314   3.583  12.608  0.3006  1.0889  1.8620
  225MPD1    N1 3478   3.855   3.456  12.799  0.3454  0.5004 -0.2287
  225MPD1    H6 3479   3.912   3.372  12.801 -0.6504 -0.1452  0.8992
  225MPD1    H7 3480   3.895   3.535  12.747  3.3167 -0.7627  0.1638
  226MPD1     C 3481   0.849   2.901   8.914 -0.4108  0.5602  0.8769
  226MPD1    C1 3482   0.729   2.959   8.955 -1.0159 -0.4691  0.0022
  226MPD1    C2 3483   0.722   3.035   9.075  0.1987  0.2577  0.0237
  226MPD1    C3 3484   0.838   3.057   9.147  0.0716 -0.2544 -0.3951
  226MPD1    C4 3485   0.961   3.010   9.095  0.4614  0.0512 -0.1771
  226MPD1    C5 3486   0.964   2.932   8.985  0.5664  0.6912 -0.0453
  226MPD1     H 3487   0.626   3.068   9.113  0.3012  2.2777 -1.4923
  226MPD1    H1 3488   1.057   3.024   9.144 -0.7909  0.5459  2.1606
  226MPD1    H2 3489   0.858   2.840   8.825 -1.2783  0.8895  0.5689
  226MPD1    H3 3490   1.056   2.893   8.944  0.4824  1.5315 -1.0457
  226MPD1     N 3491   0.829   3.131   9.270 -0.5561 -0.4150  0.3059
  226MPD1    H5 3492   0.737   3.167   9.294  0.4202 -0.3976  3.9433
  226MPD1    N1 3493   0.610   2.907   8.903 -0.4337 -0.0732  0.0397
  226MPD1    H6 3494   0.530   2.970   8.908 -0.7288 -0.3952 -0.6525
  226MPD1    H7 3495   0.627   2.883   8.805 -0.4156  1.0129 -0.2234
  227MPD1     C 3496   0.163   3.606   9.313  0.2344  0.1567 -0.2819
  227MPD1    C1 3497   0.194   3.477   9.297  0.2571  0.1816 -0.0517
  227MPD1    C2 3498   0.319   3.431   9.333 -0.3689  0.2173  0.8439
  227MPD1    C3 3499   0.409   3.516   9.399 -0.0342 -0.3131 -0.2185
  227MPD1    C4 3500   0.371   3.647   9.423 -0.2227  0.2236 -0.6881
  227MPD1    C5 3501   0.252   3.692   9.377  0.2563  0.3182 -0.7197
  227MPD1     H 3502   0.345   3.326   9.322  2.3163  1.1673 -1.7354
  227MPD1    H1 3503   0.435   3.712   9.481  1.6327 -2.0021 -0.2233
  227MPD1    H2 3504   0.069   3.645   9.278 -0.1144  1.8250  2.5206
  227MPD1    H3 3505   0.210   3.791   9.391  0.1685  0.0913  0.7048
  227MPD1     N 3506   0.526   3.451   9.445 -0.3628  0.5028  0.5443
  227MPD1    H5 3507   0.546   3.360   9.405 -0.1739 -0.3448  2.6167
  227MPD1    N1 3508   0.103   3.406   9.216 -0.4660 -0.3364 -0.3791
  227MPD1    H6 3509   0.004   3.425   9.227 -0.2505  0.3819  0.3288
  227MPD1    H7 3510   0.106   3.307   9.240  0.7216 -0.3604 -0.6082
  228MPD1     C 3511   0.472   2.329  12.037  0.4449 -0.9931  0.2253
  228MPD1    C1 3512   0.348   2.291  11.998 -0.7544 -0.5090 -0.1746
  228MPD1    C2 3513   0.261   2.221  12.079  0.0975 -0.3362  0.3057
  228MPD1    C3 3514   0.305   2.172  12.198 -0.2674  0.7404 -0.1906
  228MPD1    C4 3515   0.438   2.194  12.228  0.7498  0.0545 -0.1259
  228MPD1    C5 3516   0.522   2.272  12.151  0.0229  0.4529  0.2184
  228MPD1     H 3517   0.155   2.221  12.056  0.6630  2.0963 -2.3301
  228MPD1    H1 3518   0.490   2.148  12.310  0.7666 -1.3567 -0.9365
  228MPD1    H2 3519   0.539   2.399  11.988 -2.3598 -0.5311 -2.8830
  228MPD1    H3 3520   0.621   2.289  12.191  1.2071  0.4809 -2.7343
  228MPD1     N 3521   0.216   2.101  12.285  0.8301 -0.4164 -0.0080
  228MPD1    H5 3522   0.122   2.084  12.251  0.2397  0.6421  1.1186
  228MPD1    N1 3523   0.301   2.357  11.884  0.8054  0.4222  0.1652
  228MPD1    H6 3524   0.232   2.307  11.829 -0.5993  1.6624  0.8087
  228MPD1    H7 3525   0.376   2.397  11.828  1.5076  0.6130  1.2249
  229MPD1     C 3526   4.253   0.948  13.910 -0.5687 -0.2175 -0.1408
  229MPD1    C1 3527   4.235   0.815  13.936  0.6839  0.2343  0.1310
  229MPD1    C2 3528   4.228   0.776  14.070  0.5871  0.1171  0.8890
  229MPD1    C3 3529   4.224   0.869  14.174 -0.1959 -0.1567 -0.8333
  229MPD1    C4 3530   4.227   1.001  14.146  0.9448  0.3078  0.8337
  229MPD1    C5 3531   4.250   1.040  14.016 -0.8958 -0.4616 -0.0219
  229MPD1     H 3532   4.203   0.673  14.090 -0.4986  0.2504  0.1919
  229MPD1    H1 3533   4.216   1.074  14.225 -1.0766  1.6089 -0.6287
  229MPD1    H2 3534   4.282   0.989  13.813  0.2527 -1.9691 -0.6386
  229MPD1    H3 3535   4.264   1.146  14.000  0.5794 -0.7634 -0.6593
  229MPD1     N 3536   4.226   0.832  14.310  0.3509 -0.1521  0.8226
  229MPD1    H5 3537   4.226   0.905  14.381  2.6260  1.4876 -0.8863
  229MPD1    N1 3538   4.233   0.724  13.828 -0.2252  0.3571 -0.1646
  229MPD1    H6 3539   4.191   0.633  13.844  0.3783  0.1394  0.2073
  229MPD1    H7 3540   4.199   0.765  13.741 -1.1070 -0.8194 -0.3745
  230MPD1     C 3541   4.162   1.020  15.298  0.0110  0.5027  0.5485
  230MPD1    C1 3542   4.289   0.974  15.275  0.0065 -0.1536 -0.3284
  230MPD1    C2 3543   4.323   0.932  15.146  0.0546 -0.3047  0.9464
  230MPD1    C3 3544   4.231   0.927  15.041  0.4704  0.4574  0.0025
  230MPD1    C4 3545   4.106   0.973  15.074 -0.3154  0.2406  0.5165
  230MPD1    C5 3546   4.074   1.027  15.196 -0.9475  0.3291  0.0102
  230MPD1     H 3547   4.423   0.892  15.135 -0.5655 -1.6726  0.3933
  230MPD1    H1 3548   4.029   0.995  15.001 -0.2617  0.3019  0.4784
  230MPD1    H2 3549   4.123   1.065  15.389 -0.9561  0.7410  0.0132
  230MPD1    H3 3550   3.974   1.067  15.207 -0.3837  1.4779  0.9335
  230MPD1     N 3551   4.272   0.877  14.914  0.0769  0.2130  0.3510
  230MPD1    H5 3552   4.366   0.840  14.912 -0.4898 -1.0227 -3.1981
  230MPD1    N1 3553   4.390   1.000  15.374 -0.0007  0.0470  0.0139
  230MPD1    H6 3554   4.467   0.934  15.366  0.7556  0.8255  1.0058
  230MPD1    H7 3555   4.357   0.993  15.470  0.8868  2.2059  0.4706
  231MPD1     C 3556   2.555   2.893  15.323  0.0869 -0.5492  0.0288
  231MPD1    C1 3557   2.506   2.838  15.207 -0.1256  0.3917 -0.1115
  231MPD1    C2 3558   2.591   2.836  15.101  0.3060 -0.5205 -0.3160
  231MPD1    C3 3559   2.724   2.863  15.120  0.2822 -0.8462 -0.5802
  231MPD1    C4 3560   2.771   2.914  15.238 -0.7017  0.4096 -0.3865
  231MPD1    C5 3561   2.685   2.931  15.343 -0.2001 -0.3315  1.1016
  231MPD1     H 3562   2.558   2.814  15.000 -0.2702 -1.0237 -0.0173
  231MPD1    H1 3563   2.877   2.936  15.250 -0.5935  0.6557 -1.7545
  231MPD1    H2 3564   2.488   2.899  15.408  0.0980 -2.7947  0.1786
  231MPD1    H3 3565   2.722   2.971  15.436 -0.3432 -0.8971  1.4016
  231MPD1     N 3566   2.806   2.847  15.010  0.2628 -0.6803 -0.2269
  231MPD1    H5 3567   2.757   2.809  14.930 -2.7747 -0.4173  1.5184
  231MPD1    N1 3568   2.366   2.829  15.188  0.0443  0.2674 -1.0090
  231MPD1    H6 3569   2.312   2.815  15.273 -1.5040  1.9221 -1.7102
  231MPD1    H7 3570   2.343   2.764  15.113 -2.1301  0.0361 -0.1311
  232MPD1     C 3571   0.323   0.589   0.337 -0.4622  0.5356 -0.3448
  232MPD1    C1 3572   0.239   0.691   0.316 -0.2594  0.4274 -0.1624
  232MPD1    C2 3573   0.116   0.666   0.267  0.7932 -0.7292  0.2359
  232MPD1    C3 3574   0.079   0.528   0.241  0.1346  0.9326  0.1788
  232MPD1    C4 3575   0.171   0.426   0.257  0.1917 -0.6527 -0.4263
  232MPD1    C5 3576   0.289   0.462   0.307  0.6970  0.1116  0.7083
  232MPD1     H 3577   0.054   0.752   0.245  1.0180 -0.0713  2.1536
  232MPD1    H1 3578   0.156   0.319   0.245  1.0019 -0.8040 -0.0847
  232MPD1    H2 3579   0.423   0.590   0.379 -1.3365 -1.6805  1.7534
  232MPD1    H3 3580   0.361   0.385   0.331  1.3920  1.0623  1.6464
  232MPD1     N 3581   4.686   0.504   0.191  0.4672 -0.2982 -0.3172
  232MPD1    H5 3582   4.630   0.589   0.181 -0.5729 -0.9376  0.0741
  232MPD1    N1 3583   0.291   0.819   0.313 -0.2233  0.5398 -0.1861
  232MPD1    H6 3584   0.370   0.821   0.378 -0.1358 -0.6740 -0.2553
  232MPD1    H7 3585   0.221   0.891   0.327  1.2227  1.7510  0.8429
  233MPD1     C 3586   0.245   2.848   0.806 -0.7010 -0.1095 -0.2036
  233MPD1    C1 3587   0.309   2.963   0.771  0.1996  0.6252 -0.3712
  233MPD1    C2 3588   0.444   2.975   0.818  0.9376 -0.0272 -0.6046
  233MPD1    C3 3589   0.512   2.869   0.867  0.6169 -0.2924  0.1652
  233MPD1    C4 3590   0.448   2.750   0.881  0.1900 -0.2642  0.1853
  233MPD1    C5 3591   0.315   2.739   0.851 -0.5522  0.5365 -0.4126
  233MPD1     H 3592   0.491   3.073   0.808  0.6198  0.1998  0.1280
  233MPD1    H1 3593   0.499   2.665   0.924  0.6685 -0.3339 -0.5174
  233MPD1    H2 3594   0.142   2.843   0.774 -1.1534  2.8517  0.7905
  233MPD1    H3 3595   0.261   2.651   0.886  0.5916  0.3343  0.8640
  233MPD1     N 3596   0.647   2.881   0.906 -0.2445  0.4495  0.0871
  233MPD1    H5 3597   0.685   2.795   0.946 -0.4931 -0.9223 -2.6421
  233MPD1    N1 3598   0.244   3.064   0.706  0.5709 -0.3738 -0.8090
  233MPD1    H6 3599   0.305   3.111   0.639  1.5309 -0.2791  0.1214
  233MPD1    H7 3600   0.158   3.045   0.656 -0.0280 -1.5792  0.6764
  234MPD1     C 3601   2.655   2.251   9.668 -0.0871  0.8974  0.1572
  234MPD1    C1 3602   2.561   2.178   9.607 -0.9809  0.2810  0.5054
  234MPD1    C2 3603   2.431   2.228   9.597  0.0741  0.0982  0.3438
  234MPD1    C3 3604   2.396   2.349   9.656 -0.0770  0.3068  0.0215
  234MPD1    C4 3605   2.493   2.419   9.722 -0.1550  0.0640  0.3239
  234MPD1    C5 3606   2.622   2.377   9.717  0.2357  0.3508  0.8273
  234MPD1     H 3607   2.359   2.169   9.541  0.8258 -0.0535 -0.4758
  234MPD1    H1 3608   2.471   2.511   9.774  0.4341  1.3397 -1.6738
  234MPD1    H2 3609   2.752   2.209   9.695  0.1128  0.7927 -0.7252
  234MPD1    H3 3610   2.687   2.423   9.790  0.6646 -1.4717  1.5973
  234MPD1     N 3611   2.263   2.383   9.658 -0.2989 -0.1492  0.0030
  234MPD1    H5 3612   2.205   2.313   9.613  1.4728 -0.7500 -1.3566
  234MPD1    N1 3613   2.600   2.059   9.539 -0.0947 -0.5251  0.0615
  234MPD1    H6 3614   2.534   1.982   9.532 -0.0860 -0.7835  2.6807
  234MPD1    H7 3615   2.670   2.003   9.588 -1.5092 -1.5125  0.9610
  235MPD1     C 3616   3.110   4.367  10.552 -0.3827 -0.2136  0.1136
  235MPD1    C1 3617   3.150   4.330  10.426  0.0158  0.0754 -0.0844
  235MPD1    C2 3618   3.279   4.304  10.403 -0.4587 -0.0677  0.0300
  235MPD1    C3 3619   3.378   4.303  10.504 -0.4307  0.7260 -0.1115
  235MPD1    C4 3620   3.347   4.364  10.623  0.8648  0.3102 -0.2499
  235MPD1    C5 3621   3.214   4.385  10.640 -0.0292 -0.2184  1.1130
  235MPD1     H 3622   3.299   4.270  10.302 -0.5164 -1.8096  0.6160
  235MPD1    H1 3623   3.410   4.376  10.711 -0.5755 -2.3468  1.1266
  235MPD1    H2 3624   3.007   4.385  10.581 -0.4744 -0.0202 -0.3410
  235MPD1    H3 3625   3.185   4.451  10.721  1.8871  0.9885  0.8119
  235MPD1     N 3626   3.510   4.264  10.465  0.1577  0.6531 -0.4753
  235MPD1    H5 3627   3.525   4.240  10.368 -1.4749 -0.2739 -0.4941
  235MPD1    N1 3628   3.068   4.348  10.316  0.0012  0.2199 -0.4480
  235MPD1    H6 3629   3.082   4.282  10.240  1.0530 -1.9209  1.5728
  235MPD1    H7 3630   2.970   4.348  10.343 -0.0514 -0.4803 -0.6432
  236MPD1     C 3631   2.931   0.472   9.733 -0.2943  0.0343 -0.2003
  236MPD1    C1 3632   3.014   0.579   9.738  0.0442  0.4858  0.8107
  236MPD1    C2 3633   3.113   0.579   9.837  0.0506 -0.2829  0.5372
  236MPD1    C3 3634   3.144   0.465   9.911  0.1072  0.5197 -0.0695
  236MPD1    C4 3635   3.072   0.355   9.888 -0.9295  0.5178  0.4786
  236MPD1    C5 3636   2.970   0.363   9.805  0.7224  0.1649 -0.7292
  236MPD1     H 3637   3.157   0.673   9.867 -0.9691  0.1242  0.7698
  236MPD1    H1 3638   3.084   0.265   9.947  1.2535  1.7260  1.8816
  236MPD1    H2 3639   2.843   0.464   9.669 -1.3556  2.9305  0.8762
  236MPD1    H3 3640   2.909   0.274   9.799 -0.1292  0.8058 -1.6346
  236MPD1     N 3641   3.263   0.460   9.984 -0.0611 -0.5904 -0.4036
  236MPD1    H5 3642   3.289   0.367  10.015  1.6286  0.4296  1.1847
  236MPD1    N1 3643   2.967   0.705   9.683  0.0338 -0.1327 -0.5421
  236MPD1    H6 3644   2.923   0.685   9.593  1.1220 -1.1150 -0.8615
  236MPD1    H7 3645   3.042   0.772   9.667 -1.1375  0.9749 -1.3740
  237MPD1     C 3646   3.602   4.245  14.984  0.0528  1.3829  0.6018
  237MPD1    C1 3647   3.574   4.119  14.932  0.1248 -0.1598 -0.0934
  237MPD1    C2 3648   3.449   4.062  14.957 -0.0057  0.0833  0.0489
  237MPD1    C3 3649   3.360   4.125  15.045 -0.4044  0.1425  0.1152
  237MPD1    C4 3650   3.396   4.246  15.105 -0.2834  0.4077  0.1218
  237MPD1    C5 3651   3.519   4.301  15.080 -0.0736  0.2671  0.6528
  237MPD1     H 3652   3.428   3.965  14.914  2.4402 -0.7633  0.7927
  237MPD1    H1 3653   3.346   4.305  15.181 -1.6857 -0.5504 -0.0733
  237MPD1    H2 3654   3.695   4.292  14.955 -0.7009  1.1647 -2.1398
  237MPD1    H3 3655   3.541   4.395  15.129 -0.3635  1.9364 -2.4463
  237MPD1     N 3656   3.235   4.074  15.090  0.5334  0.3486  0.3179
  237MPD1    H5 3657   3.179   4.135  15.148 -1.3696 -1.3162  0.2380
  237MPD1    N1 3658   3.650   4.073  14.826 -0.0985  0.3423 -0.0959
  237MPD1    H6 3659   3.660   3.972  14.828  1.1043  0.4493 -0.5866
  237MPD1    H7 3660   3.741   4.116  14.812 -1.1610  2.2003 -1.3066
  238MPD1     C 3661   0.069   2.791  15.082  0.4447  0.0872  0.4386
  238MPD1    C1 3662   4.698   2.732  15.149  0.0754  0.1840 -0.0322
  238MPD1    C2 3663   4.576   2.731  15.084  0.8052  0.3673 -0.1519
  238MPD1    C3 3664   4.559   2.795  14.961 -0.6850  0.2421 -0.5818
  238MPD1    C4 3665   4.668   2.849  14.893 -0.0277 -0.6868  0.2852
  238MPD1    C5 3666   0.052   2.839  14.955 -0.1788 -0.1253  0.0282
  238MPD1     H 3667   4.505   2.667  15.135  2.3987 -1.1054  0.2516
  238MPD1    H1 3668   4.659   2.870  14.787 -1.1630 -0.9564  0.3271
  238MPD1    H2 3669   0.169   2.810  15.120  1.3050  0.2756 -1.8840
  238MPD1    H3 3670   0.143   2.868  14.903  0.6980  0.2575  1.7909
  238MPD1     N 3671   4.438   2.791  14.890 -0.2767 -0.3883 -0.1877
  238MPD1    H5 3672   4.441   2.843  14.804 -0.6435  0.5368  0.3623
  238MPD1    N1 3673   4.704   2.653  15.267  0.7448 -0.1483 -0.4026
  238MPD1    H6 3674   0.044   2.683  15.329  0.7084 -0.5899 -0.1377
  238MPD1    H7 3675   4.618   2.663  15.320  1.6389 -1.5010  1.3413
  239MPD1     C 3676   4.665   3.745  14.971 -0.3743  0.9372 -0.1494
  239MPD1    C1 3677   0.036   3.767  14.887 -0.1940 -0.2499  0.3028
  239MPD1    C2 3678   0.019   3.772  14.754  0.1228 -0.6786  0.6132
  239MPD1    C3 3679   4.625   3.741  14.701 -0.0166  0.3773 -0.6098
  239MPD1    C4 3680   4.521   3.713  14.789  0.0599 -0.3556  0.1448
  239MPD1    C5 3681   4.543   3.715  14.917  0.2756 -0.5485 -0.1629
  239MPD1     H 3682   0.106   3.772  14.690  0.0363  0.8014  0.4876
  239MPD1    H1 3683   4.423   3.697  14.746 -0.8001 -1.1882  2.4539
  239MPD1    H2 3684   4.672   3.721  15.076 -0.5162  0.8704 -0.1556
  239MPD1    H3 3685   4.451   3.710  14.974  1.9779 -1.3151  2.5583
  239MPD1     N 3686   4.596   3.740  14.562 -0.0784 -0.3077  0.0693
  239MPD1    H5 3687   4.502   3.719  14.529  1.3042 -3.6368 -1.7019
  239MPD1    N1 3688   0.159   3.731  14.942  0.6438  0.4340  0.1730
  239MPD1    H6 3689   0.174   3.753  15.040 -0.0423 -0.9444  0.5770
  239MPD1    H7 3690   0.232   3.772  14.884  0.2354 -0.2982 -0.8554
  240MPD1     C 3691   4.528   2.792  13.494  0.8116 -0.2106  0.3371
  240MPD1    C1 3692   4.569   2.813  13.623 -0.4451 -0.4468  0.6074
  240MPD1    C2 3693   4.469   2.797  13.722  0.4879  0.1176 -0.6454
  240MPD1    C3 3694   4.334   2.807  13.685  0.8925 -0.2682  0.0477
  240MPD1    C4 3695   4.297   2.799  13.552  0.5292  0.0111 -0.8611
  240MPD1    C5 3696   4.396   2.785  13.453 -0.7114  0.7763 -0.1590
  240MPD1     H 3697   4.491   2.792  13.828  1.4553  3.6158 -0.6753
  240MPD1    H1 3698   4.194   2.793  13.520 -0.1929  2.5645  1.0491
  240MPD1    H2 3699   4.609   2.804  13.423  0.1022 -0.8007 -0.5718
  240MPD1    H3 3700   4.362   2.786  13.350 -0.7377 -3.0601 -0.1690
  240MPD1     N 3701   4.234   2.822  13.787 -0.1790  0.6852 -0.0946
  240MPD1    H5 3702   4.264   2.837  13.883  3.0255 -1.1929 -0.7887
  240MPD1    N1 3703   4.704   2.784  13.656  0.2345  0.3824  0.8846
  240MPD1    H6 3704   0.036   2.830  13.595 -0.1979 -0.6492 -0.3775
  240MPD1    H7 3705   4.721   2.825  13.747  0.9688  1.0329  0.4609
  241MPD1     C 3706   4.242   3.085  14.714 -0.3002 -0.5582 -0.0529
  241MPD1    C1 3707   4.319   3.060  14.604 -0.1506  0.2761 -0.4684
  241MPD1    C2 3708   4.255   3.035  14.478  0.0369  0.4730 -0.2968
  241MPD1    C3 3709   4.119   3.044  14.467 -0.1976 -0.3215  0.8512
  241MPD1    C4 3710   4.040   3.066  14.581  0.7997  0.0489  0.9129
  241MPD1    C5 3711   4.107   3.084  14.701 -0.0604 -0.1586 -0.4060
  241MPD1     H 3712   4.318   2.998  14.397 -0.4761 -1.1251  0.0381
  241MPD1    H1 3713   3.933   3.072  14.567  0.9053 -0.9029 -0.3868
  241MPD1    H2 3714   4.283   3.097  14.814  1.2775 -0.2811 -0.7478
  241MPD1    H3 3715   4.044   3.082  14.789  0.0360 -1.2916 -0.3693
  241MPD1     N 3716   4.052   3.026  14.346 -0.0029 -1.0586 -0.4685
  241MPD1    H5 3717   3.951   3.033  14.351  0.0232 -1.2568  0.3380
  241MPD1    N1 3718   4.457   3.047  14.617  0.3993  0.3917  0.8773
  241MPD1    H6 3719   4.496   3.100  14.694 -1.8135  1.0177  1.5681
  241MPD1    H7 3720   4.509   3.068  14.532 -4.0311  1.1526 -1.6558
  242MPD1     C 3721   3.570   1.859  15.751  0.3033 -1.0293 -0.4940
  242MPD1    C1 3722   3.539   1.744  15.704  0.5664  0.4274 -0.0145
  242MPD1    C2 3723   3.625   1.671  15.621  0.0804  0.7546 -0.3534
  242MPD1    C3 3724   3.739   1.722  15.570 -0.3997 -0.0757  0.5902
  242MPD1    C4 3725   3.778   1.837  15.624 -0.3013  0.1956  0.2462
  242MPD1    C5 3726   3.697   1.903  15.715 -0.8162 -0.6639  0.0192
  242MPD1     H 3727   3.589   1.574  15.586  1.0813  0.8587 -1.6672
  242MPD1    H1 3728   3.869   1.881  15.586 -1.4668  2.7177  0.3759
  242MPD1    H2 3729   3.527   1.907  15.838 -1.2181  1.3450 -2.5780
  242MPD1    H3 3730   3.736   1.997  15.753  1.5309 -0.3514 -3.1233
  242MPD1     N 3731   3.812   1.659  15.471  0.5341 -0.3915 -0.0931
  242MPD1    H5 3732   3.903   1.696  15.448  0.2447  1.1167  1.1487
  242MPD1    N1 3733   3.432   1.682  15.769  0.0703 -0.6150  0.5457
  242MPD1    H6 3734   3.377   1.753  15.817 -0.0565 -1.1303  1.1765
  242MPD1    H7 3735   3.377   1.631  15.700  1.1172 -1.1974  0.1389
  243MPD1     C 3736   0.495   1.133   0.451 -0.3278  0.3185 -0.2196
  243MPD1    C1 3737   0.558   1.026   0.507 -0.4620 -0.5472  0.6869
  243MPD1    C2 3738   0.660   0.968   0.433 -0.7925 -0.6870  0.2371
  243MPD1    C3 3739   0.688   1.004   0.297  0.3051 -0.3240 -0.4748
  243MPD1    C4 3740   0.601   1.099   0.241  0.2240 -0.2074 -0.0657
  243MPD1    C5 3741   0.499   1.156   0.316 -0.3247 -0.7078 -0.3120
  243MPD1     H 3742   0.719   0.890   0.480  1.0713 -0.4961 -1.7867
  243MPD1    H1 3743   0.609   1.138   0.140 -0.1643  1.2178  0.4600
  243MPD1    H2 3744   0.426   1.188   0.513 -0.4577  0.2842 -0.3333
  243MPD1    H3 3745   0.449   1.245   0.280  1.2377  0.6042  0.7597
  243MPD1     N 3746   0.800   0.952   0.227  0.5923  0.2065 -0.5425
  243MPD1    H5 3747   0.850   0.881   0.280 -3.1781 -1.6729  0.5400
  243MPD1    N1 3748   0.544   1.001   0.640 -0.2572  0.5944 -0.5711
  243MPD1    H6 3749   0.569   0.904   0.660  1.3474  0.5739 -2.6722
  243MPD1    H7 3750   0.447   1.014   0.670 -0.6203 -0.9870 -1.0651
  244MPD1     C 3751   1.068   0.014   0.122 -0.2878  0.5898  0.5979
  244MPD1    C1 3752   1.175   0.098   0.123 -0.2678  0.4952  0.0451
  244MPD1    C2 3753   1.161   0.236   0.106  0.3670  0.6794 -0.6646
  244MPD1    C3 3754   1.033   0.284   0.076 -0.0147 -0.2412  0.6182
  244MPD1    C4 3755   0.923   0.204   0.079  0.3457  0.1268 -0.6714
  244MPD1    C5 3756   0.941   0.072   0.101  0.0442 -0.2082 -0.3689
  244MPD1     H 3757   1.248   0.299   0.107  1.8135 -1.3019 -0.9235
  244MPD1    H1 3758   0.822   0.244   0.082  0.3881  0.2789 -1.3702
  244MPD1    H2 3759   1.060   4.651   0.167 -0.2493  0.7484  0.9544
  244MPD1    H3 3760   0.849   0.016   0.100  0.4065 -0.8381  1.3264
  244MPD1     N 3761   1.034   0.431   0.055  0.3657  0.5287 -0.2446
  244MPD1    H5 3762   1.127   0.470   0.044 -0.3424  2.0772 -0.6448
  244MPD1    N1 3763   1.303   0.040   0.148  0.0478  0.6680 -0.4701
  244MPD1    H6 3764   1.382   0.099   0.123  2.5101 -2.0199  0.9300
  244MPD1    H7 3765   1.306   4.679   0.117 -0.4516  0.9078 -1.2537
  245MPD1     C 3766   3.312   4.716  13.735  0.4361  0.0266 -0.0416
  245MPD1    C1 3767   3.281   0.071  13.838 -0.0692  0.2076 -0.7537
  245MPD1    C2 3768   3.344   0.189  13.843  0.4557  0.0390  0.0624
  245MPD1    C3 3769   3.412   0.234  13.729 -0.6727  0.0147 -0.4129
  245MPD1    C4 3770   3.418   0.151  13.617  0.5254 -0.3856  0.2957
  245MPD1    C5 3771   3.372   0.023  13.622  0.0438  0.1121 -1.1449
  245MPD1     H 3772   3.338   0.257  13.927  1.9120 -2.0336  1.8274
  245MPD1    H1 3773   3.460   0.182  13.522  0.0311 -0.2744  0.1120
  245MPD1    H2 3774   3.272   4.615  13.738  2.0952 -0.6530 -0.3428
  245MPD1    H3 3775   3.395   4.683  13.548  0.0112  0.6588 -1.7106
  245MPD1     N 3776   3.458   0.367  13.724  0.7722  0.3061 -0.1049
  245MPD1    H5 3777   3.449   0.417  13.812  0.0491 -1.6288  0.9117
  245MPD1    N1 3778   3.218   0.024  13.956  0.4146  0.0372 -0.3711
  245MPD1    H6 3779   3.151   4.686  13.934  0.4217 -1.0439  3.1098
  245MPD1    H7 3780   3.173   0.105  13.998  1.6542  1.0714 -1.0345
  246MPD1     C 3781   4.237   0.871   9.016 -0.0066 -0.2080 -0.2827
  246MPD1    C1 3782   4.099   0.875   8.987  0.1139  0.0981 -0.3002
  246MPD1    C2 3783   4.032   0.988   9.023  0.0427  0.0091 -0.0492
  246MPD1    C3 3784   4.087   1.091   9.101  0.1951 -0.2754  0.1011
  246MPD1    C4 3785   4.225   1.097   9.115  0.0664 -1.2116 -1.2294
  246MPD1    C5 3786   4.295   0.985   9.071  0.6177 -0.1349 -0.0731
  246MPD1     H 3787   3.929   0.988   8.989  0.9449  0.7606 -2.7184
  246MPD1    H1 3788   4.280   1.172   9.171  0.0295 -1.2052 -1.2017
  246MPD1    H2 3789   4.295   0.798   8.961  0.5204 -0.3620  0.4810
  246MPD1    H3 3790   4.400   0.973   9.094  0.5364  1.7473  1.2506
  246MPD1     N 3791   3.999   1.198   9.151  0.4707  0.0608  0.5508
  246MPD1    H5 3792   3.901   1.201   9.123  0.1038 -0.3762  1.7588
  246MPD1    N1 3793   4.051   0.784   8.889  0.7716  0.1058 -0.3861
  246MPD1    H6 3794   3.950   0.782   8.886  0.7059  0.0010  1.9317
  246MPD1    H7 3795   4.084   0.690   8.909  1.8705  0.8739  1.4336
  247MPD1     C 3796   2.105   0.421  16.545 -0.5672  0.5355  0.2506
  247MPD1    C1 3797   2.143   0.508  16.444  0.4321  0.5167 -0.5309
  247MPD1    C2 3798   2.184   0.449  16.326 -0.2344  0.3304  0.3329
  247MPD1    C3 3799   2.172   0.307  16.307  0.3270 -0.3441 -0.3549
  247MPD1    C4 3800   2.138   0.225  16.412 -0.1365  0.2295 -0.6312
  247MPD1    C5 3801   2.098   0.280  16.531 -0.0498 -0.3586  0.2322
  247MPD1     H 3802   2.229   0.509  16.247 -1.3342 -1.8504 -1.9358
  247MPD1    H1 3803   2.129   0.117  16.410 -0.2895  0.2407 -0.5641
  247MPD1    H2 3804   2.070   0.457  16.641 -2.9093  0.4925 -0.5785
  247MPD1    H3 3805   2.074   0.217  16.615 -1.0162 -1.7274 -1.0826
  247MPD1     N 3806   2.201   0.237  16.191  0.1790 -0.0786  0.1379
  247MPD1    H5 3807   2.177   0.138  16.199  2.3661 -0.5120  1.5257
  247MPD1    N1 3808   2.125   0.645  16.452 -0.7377 -0.1723 -0.0447
  247MPD1    H6 3809   2.149   0.684  16.543  0.1741  1.1303 -0.8492
  247MPD1    H7 3810   2.194   0.692  16.394 -2.1454 -0.3244 -1.8530
  248MPD1     C 3811   2.248   4.150  17.432  1.1731 -0.2571 -1.1192
  248MPD1    C1 3812   2.369   4.117  17.475  0.2480 -0.0256  0.0843
  248MPD1    C2 3813   2.449   4.218  17.529  0.2689  0.9655  0.7580
  248MPD1    C3 3814   2.413   4.352  17.501  0.1239 -0.9552  0.0261
  248MPD1    C4 3815   2.298   4.379  17.436  0.2335  0.5700 -0.0739
  248MPD1    C5 3816   2.205   4.279  17.418 -0.1494  0.9770  0.0625
  248MPD1     H 3817   2.542   4.197  17.580  0.8899  2.7250  0.3335
  248MPD1    H1 3818   2.257   4.478  17.418  0.9231  0.7403 -0.7167
  248MPD1    H2 3819   2.176   4.070  17.415  1.2775 -0.4001 -0.8971
  248MPD1    H3 3820   2.106   4.297  17.379  0.2634 -0.7126 -1.7410
  248MPD1     N 3821   2.495   4.453  17.550 -0.4054  0.1064  0.4229
  248MPD1    H5 3822   2.561   4.433  17.624  0.8316  0.6475 -0.5509
  248MPD1    N1 3823   2.387   3.984  17.518 -0.3357  0.2565 -0.3488
  248MPD1    H6 3824   2.485   3.963  17.533  0.6579  4.0768 -1.5439
  248MPD1    H7 3825   2.345   3.921  17.450  1.0393 -0.3009 -0.6787
  249MPD1     C 3826   0.041   3.142  11.115 -0.2951  0.6612  0.1622
  249MPD1    C1 3827   4.699   3.073  11.020 -0.3261 -0.0685  0.1924
  249MPD1    C2 3828   4.658   3.134  10.905 -0.6907  0.6923 -0.0808
  249MPD1    C3 3829   4.674   3.267  10.895  0.7356  0.8469  0.2742
  249MPD1    C4 3830   4.735   3.350  10.995 -0.4214 -0.0288 -0.2651
  249MPD1    C5 3831   0.043   3.282  11.105  0.4911 -0.4752 -0.2421
  249MPD1     H 3832   4.625   3.082  10.816 -1.2245  0.8467  0.0234
  249MPD1    H1 3833   0.008   3.458  10.990  1.0356 -0.0924  0.6493
  249MPD1    H2 3834   0.092   3.086  11.192  1.9751 -0.0920 -1.8985
  249MPD1    H3 3835   0.100   3.336  11.180 -3.6569  0.1030  2.4881
  249MPD1     N 3836   4.636   3.325  10.765  0.1345 -0.2999 -0.6171
  249MPD1    H5 3837   4.591   3.262  10.700 -0.0257 -1.3393  0.5044
  249MPD1    N1 3838   4.696   2.937  11.025  0.2977  0.3551  0.5427
  249MPD1    H6 3839   4.707   2.888  11.113  0.7329 -1.4159 -0.4920
  249MPD1    H7 3840   4.603   2.907  10.997  0.5210  0.2342 -0.0755
  250MPD2     C 3841   1.754   3.531  13.385  0.1120  0.6658 -0.0188
  250MPD2    C1 3842   1.739   3.592  13.259 -0.2127  0.1920 -0.6233
  250MPD2    C2 3843   1.676   3.529  13.158  0.1083 -0.0479  0.1167
  250MPD2    C3 3844   1.633   3.401  13.178 -0.0828 -0.1403  0.2397
  250MPD2    C4 3845   1.643   3.338  13.298 -0.6329  0.0543 -0.5385
  250MPD2    C5 3846   1.701   3.404  13.403  0.7772 -0.1182 -0.1933
  250MPD2     H 3847   1.674   3.577  13.061 -1.2945 -1.9983 -0.8275
  250MPD2    H1 3848   1.608   3.238  13.320 -0.6569 -0.5168 -3.2020
  250MPD2    H2 3849   1.789   3.571  13.479  2.2917 -1.3483  0.0166
  250MPD2    H3 3850   1.698   3.359  13.501  1.8657  0.9663  0.3379
  250MPD2     N 3851   1.577   3.322  13.073  0.4087  0.7446  0.5942
  250MPD2    H5 3852   1.569   3.222  13.089 -2.6107  0.9772  0.4016
  250MPD2    N1 3853   1.786   3.730  13.248  0.0797  0.4602  0.0408
  250MPD2    H7 3854   1.850   3.760  13.320 -0.2022  1.0158  0.0585
  251TMC3    C1 3855   1.800   3.946  13.133 -0.4672  0.4887 -0.5086
  251TMC3    C2 3856   1.712   4.040  13.084 -0.1652  0.6393  0.2987
  251TMC3    C3 3857   1.744   4.173  13.093  0.1812  0.0094  0.1359
  251TMC3    C4 3858   1.905   3.981  13.206  0.3251  0.6061  0.8851
  251TMC3    C5 3859   1.927   4.112  13.226  0.1301  0.0824 -0.1417
  251TMC3    C6 3860   1.850   4.211  13.167  0.0186  0.2149  0.1691
  251TMC3     C 3861   1.745   3.814  13.142 -0.4275  0.0587  0.4958
  251TMC3     O 3862   1.657   3.794  13.060  0.1440  0.4350 -0.1165
  251TMC3     H 3863   1.618   4.020  13.035 -0.9248  0.6448  1.7574
  251TMC3    H1 3864   1.972   3.906  13.246  1.0788  1.3642  1.0262
  251TMC3    H2 3865   1.863   4.316  13.190 -0.2423  0.3205 -0.1610
  251TMC3    C7 3866   2.023   4.142  13.335  0.1743 -0.8787 -0.1842
  251TMC3    C8 3867   1.621   4.255  13.115 -0.3825 -0.4178 -0.1867
  251TMC3    O1 3868   2.065   4.049  13.398  0.2274 -0.3095  0.2663
  251TMC3    O2 3869   1.514   4.200  13.140  0.3666  0.0677  0.3557
  252TMC3    C1 3870   0.574   1.026   9.946  1.1998  0.0429  1.1071
  252TMC3    C2 3871   0.701   1.010   9.901 -0.1132  0.7009  0.5685
  252TMC3    C3 3872   0.757   0.885   9.884  0.8723  0.0906  0.1150
  252TMC3    C4 3873   0.495   0.919   9.983 -0.6167  0.1831  0.7266
  252TMC3    C5 3874   0.556   0.797   9.974  0.0465 -0.2935 -0.3402
  252TMC3    C6 3875   0.682   0.772   9.922 -0.8022  0.3250 -0.4397
  252TMC3     C 3876   0.510   1.152   9.925  0.2442  0.0125 -0.1846
  252TMC3     O 3877   0.538   1.218   9.829  0.3114 -0.2043  0.2106
  252TMC3     H 3878   0.766   1.097   9.897 -0.8206  1.1886 -0.2509
  252TMC3    H1 3879   0.392   0.932  10.016 -0.2866  3.7817  0.2398
  252TMC3    H2 3880   0.724   0.673   9.905 -0.7332  0.5249 -1.4315
  252TMC3    C7 3881   0.491   0.693  10.052  0.4411  0.5217 -0.6317
  252TMC3    C8 3882   0.891   0.860   9.911 -0.5202 -0.3767 -0.1388
  252TMC3    O1 3883   0.412   0.734  10.137  0.8219  0.2924 -0.2645
  252TMC3    O2 3884   0.921   0.763   9.981 -0.2107 -0.0139  0.0540
  253MPD2     C 3885   1.929   3.611  14.967  0.7055 -0.4106 -0.3402
  253MPD2    C1 3886   1.826   3.672  15.046  0.5175 -0.5934 -0.2355
  253MPD2    C2 3887   1.851   3.723  15.176 -0.1271 -0.4429  0.1481
  253MPD2    C3 3888   1.978   3.714  15.230 -0.1203  0.8689  0.4737
  253MPD2    C4 3889   2.070   3.641  15.159 -0.1943 -0.3681 -0.0465
  253MPD2    C5 3890   2.043   3.585  15.037  0.2668 -0.8213 -0.3452
  253MPD2     H 3891   1.768   3.773  15.226 -0.4703  0.4048 -1.2393
  253MPD2    H1 3892   2.164   3.619  15.207  0.0673  1.7287  0.4172
  253MPD2    H2 3893   1.912   3.568  14.868  2.8532 -0.3032 -0.7477
  253MPD2    H3 3894   2.121   3.519  15.002 -1.0633 -2.5388 -0.1145
  253MPD2     N 3895   2.017   3.772  15.347  0.1888  0.2464 -0.8910
  253MPD2    H5 3896   2.116   3.760  15.364 -0.3764 -0.6244  1.8074
  253MPD2    N1 3897   1.700   3.709  14.993 -0.0868  0.2981  0.4331
  253MPD2    H7 3898   1.633   3.737  15.064  0.3750 -0.1818  1.0581
  254TMC3    C1 3899   1.985   3.898  15.550 -0.3844  0.2598 -0.6622
  254TMC3    C2 3900   1.896   3.991  15.598  0.2082  0.1958 -0.1144
  254TMC3    C3 3901   1.855   3.969  15.728 -0.0185  0.5040 -0.5380
  254TMC3    C4 3902   2.042   3.805  15.629  0.8783  0.1097  0.0162
  254TMC3    C5 3903   1.987   3.787  15.754 -0.6030 -0.3980  0.2448
  254TMC3    C6 3904   1.893   3.870  15.808  0.1848  0.0123  0.8142
  254TMC3     C 3905   1.938   3.857  15.420 -0.3406  0.2448  0.6634
  254TMC3     O 3906   1.822   3.893  15.402 -0.0329 -0.4389 -0.0640
  254TMC3     H 3907   1.840   4.061  15.537  0.0842  0.3979  0.2300
  254TMC3    H1 3908   2.124   3.742  15.596  0.7258 -0.0185 -0.1158
  254TMC3    H2 3909   1.857   3.862  15.910  0.9451 -1.1537  0.9951
  254TMC3    C7 3910   2.068   3.724  15.854  0.3439 -0.8367  0.0314
  254TMC3    C8 3911   1.785   4.070  15.800 -0.1290  0.7843  0.0993
  254TMC3    O1 3912   2.011   3.689  15.954 -0.2392 -0.2206 -0.1121
  254TMC3    O2 3913   1.769   4.047  15.920 -0.8795  0.1453  0.6195
  255MPD2     C 3914   0.425   1.793  10.437  0.3806 -0.0494 -0.0010
  255MPD2    C1 3915   0.347   1.892  10.380 -0.3215  0.3942 -1.1271
  255MPD2    C2 3916   0.405   1.969  10.283 -0.0203 -0.3188 -0.2735
  255MPD2    C3 3917   0.533   1.945  10.233  0.7681  0.5906 -0.0399
  255MPD2    C4 3918   0.605   1.841  10.287 -0.3725  0.9466  0.4242
  255MPD2    C5 3919   0.555   1.772  10.396  1.1408 -0.7254  0.4756
  255MPD2     H 3920   0.356   2.057  10.243  2.2574  0.2428 -1.8343
  255MPD2    H1 3921   0.703   1.812  10.251 -0.0270 -0.5064  2.5245
  255MPD2    H2 3922   0.386   1.734  10.519 -1.1972  0.1878 -0.5766
  255MPD2    H3 3923   0.613   1.691  10.439 -0.0198 -1.4284  0.6979
  255MPD2     N 3924   0.585   2.030  10.127 -0.1799  0.2293  0.6810
  255MPD2    H5 3925   0.526   2.098  10.079 -0.4224 -0.6461 -0.2554
  255MPD2    N1 3926   0.215   1.902  10.420 -0.1673  0.4119 -0.6704
  255MPD2    H7 3927   0.181   1.843  10.495 -1.4211  1.4787 -0.4093
  256TMC3    C1 3928   4.716   1.944  10.430  0.3284 -0.2662 -0.1529
  256TMC3    C2 3929   4.624   2.038  10.408 -0.3677  0.7154 -0.3245
  256TMC3    C3 3930   4.490   1.999  10.391  0.1667 -0.4753  0.1959
  256TMC3    C4 3931   4.682   1.807  10.421 -0.4965  0.6087 -0.2090
  256TMC3    C5 3932   4.549   1.776  10.394 -0.2077 -0.4291 -0.4471
  256TMC3    C6 3933   4.452   1.868  10.405 -0.2819 -0.0039 -0.4790
  256TMC3     C 3934   0.110   1.979  10.375 -0.6396 -0.6949  0.0859
  256TMC3     O 3935   0.101   2.060  10.285  0.1327 -0.2228  0.1841
  256TMC3     H 3936   4.653   2.141  10.390 -0.4661  0.6210 -1.0097
  256TMC3    H1 3937   0.024   1.734  10.403 -1.0386 -0.5638  2.1921
  256TMC3    H2 3938   4.347   1.843  10.403 -0.1924 -0.4101 -0.0658
  256TMC3    C7 3939   4.521   1.687  10.279 -0.9055 -0.0791 -1.3825
  256TMC3    C8 3940   4.435   2.058  10.273  0.1999  0.4699  0.3083
  256TMC3    O1 3941   4.590   1.582  10.279  0.0613  0.0074 -0.1413
  256TMC3    O2 3942   4.329   2.007  10.247  0.3902  0.0729  0.0520
  257MPD2     C 3943   4.180   3.456  12.950  0.2935 -0.2987  0.4124
  257MPD2    C1 3944   4.315   3.475  12.953  0.0742  0.0251  0.8886
  257MPD2    C2 3945   4.380   3.437  13.068  0.0210 -0.2715 -0.3699
  257MPD2    C3 3946   4.311   3.380  13.180 -0.1501  0.0955 -0.0170
  257MPD2    C4 3947   4.176   3.374  13.169 -0.0716 -0.4386  0.6550
  257MPD2    C5 3948   4.109   3.412  13.059  0.6584  0.2456 -0.2700
  257MPD2     H 3949   4.487   3.446  13.079 -0.0690  1.6997 -1.0420
  257MPD2    H1 3950   4.121   3.336  13.254 -1.7292 -1.8748 -1.0834
  257MPD2    H2 3951   4.127   3.486  12.861  1.0598 -0.8698 -0.2331
  257MPD2    H3 3952   4.001   3.406  13.052  0.7314 -0.3297 -0.8609
  257MPD2     N 3953   4.383   3.330  13.290 -0.3399  1.2443  0.2409
  257MPD2    H5 3954   4.484   3.329  13.283 -0.5897 -0.0500 -3.2317
  257MPD2    N1 3955   4.372   3.536  12.837 -0.0870  0.0787 -0.4698
  257MPD2    H7 3956   4.304   3.548  12.763  0.6533 -0.0483 -1.1766
  258TMC3    C1 3957   4.434   3.220  13.491  0.4728 -0.0102  0.9344
  258TMC3    C2 3958   4.556   3.189  13.428 -0.4433 -0.2370 -0.1752
  258TMC3    C3 3959   4.655   3.152  13.514  0.8698 -0.6312 -0.4184
  258TMC3    C4 3960   4.409   3.212  13.625  0.5437 -0.8023  0.1928
  258TMC3    C5 3961   4.515   3.179  13.705 -0.1438  0.8847 -0.1827
  258TMC3    C6 3962   4.635   3.141  13.650 -0.3205  0.3380  0.0196
  258TMC3     C 3963   4.332   3.266  13.403 -0.1787 -0.1303  0.3567
  258TMC3     O 3964   4.219   3.272  13.443 -0.0009 -0.6257  0.7174
  258TMC3     H 3965   4.566   3.152  13.326 -1.5672 -1.7777  0.2851
  258TMC3    H1 3966   4.313   3.242  13.666 -0.6118 -2.1449 -1.4858
  258TMC3    H2 3967   4.713   3.096  13.710  1.9798  3.4453 -0.6767
  258TMC3    C7 3968   4.487   3.158  13.843  1.1143 -0.2074 -0.0075
  258TMC3    C8 3969   0.039   3.087  13.461 -0.0306 -0.2120  0.3273
  258TMC3    O1 3970   4.375   3.132  13.882 -0.3786 -0.3165  0.4291
  258TMC3    O2 3971   0.100   3.005  13.534  0.9289 -0.0506  0.0756
  259MPD2     C 3972   3.511   1.010   0.575 -0.3554  0.2550 -0.9927
  259MPD2    C1 3973   3.623   0.957   0.509 -0.1547  0.1738 -0.2892
  259MPD2    C2 3974   3.640   0.972   0.372  0.2505  0.2567  0.5842
  259MPD2    C3 3975   3.544   1.031   0.301  0.0181 -0.0708 -0.2208
  259MPD2    C4 3976   3.431   1.079   0.359 -0.8041  0.4687 -0.5187
  259MPD2    C5 3977   3.419   1.074   0.495 -0.0889 -0.3744  0.3537
  259MPD2     H 3978   3.735   0.947   0.327 -0.2159 -1.0649  0.3324
  259MPD2    H1 3979   3.351   1.125   0.302  0.0796  1.2063 -1.1672
  259MPD2    H2 3980   3.490   1.004   0.681  0.3066  0.4525 -0.8519
  259MPD2    H3 3981   3.333   1.118   0.545  0.0652  0.9347 -0.5286
  259MPD2     N 3982   3.567   1.051   0.161 -0.2059 -0.1801 -0.2773
  259MPD2    H5 3983   3.650   1.010   0.118  0.4708 -0.4549  1.3121
  259MPD2    N1 3984   3.701   0.872   0.592 -0.0237  0.4539 -0.2758
  259MPD2    H7 3985   3.681   0.879   0.691  0.4449 -0.9461 -0.0871
  260TMC3    C1 3986   3.515   1.059  17.678  0.3038  0.7387 -0.0331
  260TMC3    C2 3987   3.626   1.135  17.636 -0.2236 -0.0247  0.0488
  260TMC3    C3 3988   3.702   1.064  17.543 -0.8816 -0.1059  0.3299
  260TMC3    C4 3989   3.497   0.922  17.647 -0.8130  0.6958  0.2633
  260TMC3    C5 3990   3.583   0.867  17.563 -0.1614 -0.0034 -0.7042
  260TMC3    C6 3991   3.693   0.934  17.503 -0.0507 -0.5018 -0.1211
  260TMC3     C 3992   3.472   1.092   0.067  0.6721  0.2714 -0.2848
  260TMC3     O 3993   3.350   1.095   0.070  0.2916  0.3798  0.0496
  260TMC3     H 3994   3.636   1.232  17.684 -1.0904  0.2028 -0.2226
  260TMC3    H1 3995   3.405   0.874  17.678  1.1058 -1.1871  3.1020
  260TMC3    H2 3996   3.747   0.892  17.418  1.0897  0.2310  0.2471
  260TMC3    C7 3997   3.558   0.724  17.526  0.6171  0.0665  0.3866
  260TMC3    C8 3998   3.840   1.107  17.557  0.4428 -0.0527  0.8510
  260TMC3    O1 3999   3.640   0.687  17.437 -0.5193 -0.3935  0.7210
  260TMC3    O2 4000   3.858   1.222  17.596  0.0348  0.3202 -0.0153
  261MPD2     C 4001   0.849   3.348  12.778 -0.1077 -0.2220 -0.7606
  261MPD2    C1 4002   0.953   3.402  12.719 -1.1722 -0.0176 -0.1174
  261MPD2    C2 4003   0.939   3.515  12.644  0.1212  0.3355 -0.6316
  261MPD2    C3 4004   0.816   3.575  12.629  0.2540  0.5212  0.0223
  261MPD2    C4 4005   0.714   3.529  12.707  0.4019  0.1018 -0.1295
  261MPD2    C5 4006   0.733   3.417  12.779  0.5113 -0.2814  0.6111
  261MPD2     H 4007   1.023   3.548  12.585  1.1656 -0.5789  0.3444
  261MPD2    H1 4008   0.619   3.581  12.706  0.2836 -0.0827  1.0469
  261MPD2    H2 4009   0.850   3.257  12.837  0.3441 -0.4180 -1.0773
  261MPD2    H3 4010   0.663   3.387  12.856  0.8383 -1.3213  0.5047
  261MPD2     N 4011   0.808   3.665  12.527 -0.1419 -0.3597  0.4168
  261MPD2    H5 4012   0.887   3.665  12.463 -0.6532  2.0780 -0.1767
  261MPD2    N1 4013   1.082   3.348  12.732  0.1232  0.0237 -0.3380
  261MPD2    H7 4014   1.162   3.393  12.689  0.1905 -0.2903 -0.5415
  262TMC3    C1 4015   0.708   3.803  12.379 -0.8279  0.2477 -0.3100
  262TMC3    C2 4016   0.601   3.887  12.351 -0.3470  0.5405 -0.2286
  262TMC3    C3 4017   0.575   3.914  12.219 -0.6160  0.0340  0.4466
  262TMC3    C4 4018   0.793   3.760  12.281 -0.1426 -0.3330 -0.3392
  262TMC3    C5 4019   0.758   3.795  12.152 -0.0464 -0.7782 -0.0493
  262TMC3    C6 4020   0.645   3.863  12.117  0.3969 -0.4131  0.2130
  262TMC3     C 4021   0.696   3.742  12.507 -0.6915 -0.2801  0.5630
  262TMC3     O 4022   0.592   3.752  12.575  0.2558  0.3951 -0.3094
  262TMC3     H 4023   0.536   3.919  12.432  1.5564  1.6366  0.8550
  262TMC3    H1 4024   0.874   3.688  12.289 -0.3124 -0.3212  1.3754
  262TMC3    H2 4025   0.624   3.888  12.013 -0.0377  0.0733  0.4135
  262TMC3    C7 4026   0.859   3.751  12.048 -0.6120 -0.7532  0.2032
  262TMC3    C8 4027   0.490   4.026  12.186 -0.1722 -0.5876 -0.0477
  262TMC3    O1 4028   0.948   3.670  12.078 -0.1118  0.0447  0.9141
  262TMC3    O2 4029   0.489   4.063  12.071  0.5402  0.2947 -0.5657
  263MPD2     C 4030   1.286   3.076  11.693 -0.7774 -0.3768 -0.0934
  263MPD2    C1 4031   1.403   3.020  11.666  0.3463  0.2664  0.1919
  263MPD2    C2 4032   1.424   2.958  11.536 -0.0344 -0.2961 -0.4873
  263MPD2    C3 4033   1.319   2.956  11.446 -0.2875 -0.3727  0.0678
  263MPD2    C4 4034   1.194   3.020  11.475 -0.3294  0.1428 -0.1120
  263MPD2    C5 4035   1.184   3.076  11.602  0.0216 -0.1797  0.3184
  263MPD2     H 4036   1.509   2.893  11.514  1.7004  1.2377  1.7099
  263MPD2    H1 4037   1.110   3.031  11.407 -0.0581  0.8557 -0.3372
  263MPD2    H2 4038   1.257   3.096  11.795  0.2838 -1.3275  0.3979
  263MPD2    H3 4039   1.088   3.113  11.636 -1.0477 -2.2878 -0.3933
  263MPD2     N 4040   1.340   2.891  11.321 -0.1102 -0.0474 -0.6964
  263MPD2    H5 4041   1.439   2.876  11.304  0.1334  0.7873 -0.0345
  263MPD2    N1 4042   1.491   3.011  11.773  0.4268  0.2434 -0.0805
  263MPD2    H7 4043   1.478   3.081  11.845 -0.3283  2.6961 -2.5833
  264TMC3    C1 4044   1.322   2.844  11.099 -0.1270 -0.2184 -0.7167
  264TMC3    C2 4045   1.272   2.918  10.989 -0.8576 -0.5227  0.4440
  264TMC3    C3 4046   1.372   2.944  10.893  0.0608 -0.4173 -0.3448
  264TMC3    C4 4047   1.455   2.805  11.117  0.6768  0.0927 -0.2214
  264TMC3    C5 4048   1.546   2.825  11.011  0.7935 -0.3438 -0.4942
  264TMC3    C6 4049   1.501   2.893  10.895  0.1230 -0.3829  0.2292
  264TMC3     C 4050   1.247   2.863  11.225 -0.5987  0.1632  0.7156
  264TMC3     O 4051   1.132   2.899  11.220  0.3665  0.0925  0.4974
  264TMC3     H 4052   1.178   2.972  10.995 -0.8885 -0.5011 -0.2733
  264TMC3    H1 4053   1.494   2.748  11.200 -0.3596  3.4081  2.5450
  264TMC3    H2 4054   1.568   2.899  10.810  0.7284 -1.0219  0.6638
  264TMC3    C7 4055   1.672   2.881  11.066  0.2195 -0.1515  0.5829
  264TMC3    C8 4056   1.369   3.078  10.837  0.7540 -0.5967 -0.2332
  264TMC3    O1 4057   1.665   2.884  11.190 -0.0535  0.6440 -0.5079
  264TMC3    O2 4058   1.464   3.097  10.756  0.2987  0.3535  0.5482
  265MPD2     C 4059   3.253   3.697  15.404 -1.6855  0.1837  0.5125
  265MPD2    C1 4060   3.334   3.794  15.347 -0.2041 -0.1705  0.0570
  265MPD2    C2 4061   3.386   3.767  15.221  0.2628  0.1266 -0.0081
  265MPD2    C3 4062   3.356   3.647  15.149 -0.0381  0.0614  1.3125
  265MPD2    C4 4063   3.279   3.553  15.210 -0.5516  0.1329  0.0051
  265MPD2    C5 4064   3.232   3.582  15.336  0.6510  0.5682  0.3268
  265MPD2     H 4065   3.439   3.848  15.173  1.9333 -1.5945 -1.0593
  265MPD2    H1 4066   3.241   3.463  15.163  0.8785 -2.2040  3.3637
  265MPD2    H2 4067   3.225   3.703  15.509 -0.3168  1.4417  0.8074
  265MPD2    H3 4068   3.171   3.510  15.388 -1.3377  0.7928 -1.6807
  265MPD2     N 4069   3.406   3.615  15.016  0.7919  0.0388  0.8418
  265MPD2    H5 4070   3.380   3.523  14.983  2.3176 -0.1971  0.3214
  265MPD2    N1 4071   3.369   3.912  15.427  0.0329  0.4304  0.2964
  265MPD2    H7 4072   3.417   3.989  15.380 -1.1248  0.1758 -1.3251
  266TMC3    C1 4073   3.332   4.078  15.591  0.4736  0.5766 -1.0786
  266TMC3    C2 4074   3.371   4.106  15.715 -0.2086 -0.2369  0.0917
  266TMC3    C3 4075   3.375   4.243  15.756  0.0032  0.0032 -0.6901
  266TMC3    C4 4076   3.295   4.170  15.505  0.3410  0.4619 -0.2135
  266TMC3    C5 4077   3.313   4.299  15.536 -0.7130  0.6038  0.3760
  266TMC3    C6 4078   3.363   4.337  15.659 -0.5187  0.1639 -0.5549
  266TMC3     C 4079   3.328   3.938  15.554 -0.1834  0.1034  0.3226
  266TMC3     O 4080   3.317   3.858  15.644 -0.2158 -0.1666  0.0903
  266TMC3     H 4081   3.417   4.028  15.774 -3.5988 -2.3772 -0.0593
  266TMC3    H1 4082   3.251   4.136  15.411 -2.2058  0.8215  0.8402
  266TMC3    H2 4083   3.373   4.439  15.694  2.2685 -0.2423 -0.1696
  266TMC3    C7 4084   3.263   4.394  15.437 -0.2227 -0.5333  0.4122
  266TMC3    C8 4085   3.464   4.260  15.873 -0.5976 -0.3403 -0.3836
  266TMC3    O1 4086   3.176   4.355  15.363 -0.0479 -0.1118 -0.8291
  266TMC3    O2 4087   3.523   4.159  15.909 -0.4807 -0.0702  0.3453
  267MPD2     C 4088   1.230   1.098   0.470  0.2511 -0.1360  0.3024
  267MPD2    C1 4089   1.301   1.138   0.358  0.1097 -0.3342 -0.2218
  267MPD2    C2 4090   1.231   1.193   0.258  0.1833  0.3609  0.3185
  267MPD2    C3 4091   1.101   1.226   0.269  0.6829  0.3125  0.1778
  267MPD2    C4 4092   1.033   1.182   0.380  0.6806 -0.2931  0.4123
  267MPD2    C5 4093   1.103   1.121   0.480 -0.0077  0.0546  0.8159
  267MPD2     H 4094   1.275   1.222   0.163  0.5033 -0.5982  0.1747
  267MPD2    H1 4095   0.925   1.197   0.382  0.9856  1.9288  0.4023
  267MPD2    H2 4096   1.274   1.054   0.558  2.0161 -0.4076 -0.7234
  267MPD2    H3 4097   1.052   1.081   0.567  1.6904 -1.9462  0.8857
  267MPD2     N 4098   1.018   1.284   0.170  0.0740  0.2075  0.0508
  267MPD2    H5 4099   0.922   1.304   0.195 -0.3422 -0.0564 -1.3380
  267MPD2    N1 4100   1.436   1.098   0.343 -0.1032 -0.3020  0.2947
  267MPD2    H7 4101   1.473   1.050   0.424 -1.7361  0.5513  1.5387
  268TMC3    C1 4102   1.657   1.055   0.250  0.0394 -0.3283  0.7016
  268TMC3    C2 4103   1.748   1.072   0.150  0.0574  0.5751 -0.5642
  268TMC3    C3 4104   1.862   1.004   0.156 -0.1226  0.6894 -0.0210
  268TMC3    C4 4105   1.674   0.968   0.353  0.0678  0.3738 -0.2985
  268TMC3    C5 4106   1.794   0.905   0.360  0.5200  0.3761  0.2817
  268TMC3    C6 4107   1.880   0.920   0.261  0.3882  0.6370 -0.6296
  268TMC3     C 4108   1.524   1.116   0.233  0.2366  0.3668 -0.0532
  268TMC3     O 4109   1.506   1.176   0.128 -0.0358 -0.9181 -0.3571
  268TMC3     H 4110   1.724   1.149   0.078 -2.7947  0.0027 -0.2312
  268TMC3    H1 4111   1.607   0.951   0.437  0.2368 -0.1340 -0.2663
  268TMC3    H2 4112   1.978   0.873   0.262 -0.2090 -0.5742  0.6570
  268TMC3    C7 4113   1.828   0.830   0.478  0.6286 -0.5034 -0.0141
  268TMC3    C8 4114   1.957   1.008   0.050  0.4391 -0.5974 -0.4357
  268TMC3    O1 4115   1.878   0.718   0.444 -0.2937  0.0119  0.0025
  268TMC3    O2 4116   2.076   0.984   0.072 -0.4007  0.1083  0.5988
  269MPD2     C 4117   1.511   4.136  15.420 -0.3324 -1.2532 -0.1284
  269MPD2    C1 4118   1.457   4.149  15.548  0.5605 -0.4717 -0.5337
  269MPD2    C2 4119   1.425   4.274  15.591  0.4397 -0.2700 -0.2476
  269MPD2    C3 4120   1.425   4.385  15.503 -1.1158  0.3792 -0.7497
  269MPD2    C4 4121   1.464   4.367  15.380 -0.4464  0.0792 -0.4440
  269MPD2    C5 4122   1.515   4.248  15.339  0.6326 -0.7704  0.8897
  269MPD2     H 4123   1.399   4.288  15.695 -1.3473  0.4302 -0.7755
  269MPD2    H1 4124   1.449   4.443  15.304  1.6084 -0.1183 -1.0453
  269MPD2    H2 4125   1.548   4.044  15.375 -1.0983 -0.7922 -1.6902
  269MPD2    H3 4126   1.558   4.236  15.241 -1.6054  1.0892 -0.3323
  269MPD2     N 4127   1.373   4.502  15.555  0.2316 -0.2836  0.0972
  269MPD2    H5 4128   1.341   4.514  15.650  0.1188 -3.6182  0.4722
  269MPD2    N1 4129   1.462   4.031  15.633 -0.3871  0.2804  0.6043
  269MPD2    H7 4130   1.483   3.942  15.591  1.2399  0.8136  0.2989
  270TMC3    C1 4131   1.388   3.882  15.806  0.1060 -0.0843  0.5813
  270TMC3    C2 4132   1.292   3.854  15.904  0.1931 -0.8243  0.4820
  270TMC3    C3 4133   1.284   3.734  15.969 -0.0373 -0.3343  0.1307
  270TMC3    C4 4134   1.474   3.786  15.771  0.0921  0.5466  0.1532
  270TMC3    C5 4135   1.475   3.671  15.847  0.4174  0.7057 -0.1431
  270TMC3    C6 4136   1.382   3.637  15.939 -0.7600 -0.6413  0.9106
  270TMC3     C 4137   1.380   4.018  15.748  0.0770 -0.0686 -0.5876
  270TMC3     O 4138   1.302   4.097  15.792  0.8593  0.1738 -0.2862
  270TMC3     H 4139   1.222   3.931  15.937  0.0343 -0.5171 -0.5690
  270TMC3    H1 4140   1.559   3.800  15.705 -1.0352 -0.7276 -1.5926
  270TMC3    H2 4141   1.388   3.540  15.987 -1.8360 -0.6594  0.9952
  270TMC3    C7 4142   1.573   3.570  15.825 -0.0767  0.2037  0.0239
  270TMC3    C8 4143   1.150   3.683  15.969 -0.2904 -0.2766 -0.1771
  270TMC3    O1 4144   1.607   3.514  15.928 -0.7295  0.6365 -0.3562
  270TMC3    O2 4145   1.067   3.758  15.926  0.3541  0.1823  0.1632
  271MPD2     C 4146   0.500   3.726  13.999  0.0795  0.2037  0.6612
  271MPD2    C1 4147   0.412   3.782  14.083 -0.0393 -1.1291 -0.0931
  271MPD2    C2 4148   0.285   3.810  14.041 -0.0709 -0.2502  0.0261
  271MPD2    C3 4149   0.249   3.792  13.906  0.4824 -0.2614  0.7651
  271MPD2    C4 4150   0.339   3.743  13.815 -0.0663 -0.0937  0.5202
  271MPD2    C5 4151   0.462   3.710  13.868  0.3203 -0.1672 -0.2422
  271MPD2     H 4152   0.222   3.863  14.112  0.4670  0.1968  0.1710
  271MPD2    H1 4153   0.309   3.725  13.712 -0.0145 -3.0939  1.0088
  271MPD2    H2 4154   0.603   3.698  14.018 -0.1161 -1.2323 -0.4166
  271MPD2    H3 4155   0.532   3.671  13.795  0.3616  0.9084 -0.7637
  271MPD2     N 4156   0.126   3.842  13.858 -0.1595  0.0427 -0.4504
  271MPD2    H5 4157   0.106   3.814  13.763 -1.8935 -2.1053  0.5481
  271MPD2    N1 4158   0.444   3.824  14.213  0.3252 -0.1590 -0.2560
  271MPD2    H7 4159   0.374   3.880  14.262  0.4028 -0.3120  0.0272
  272TMC3    C1 4160   0.567   3.846  14.414 -0.0265  0.1650  0.2207
  272TMC3    C2 4161   0.684   3.836  14.487 -0.0199 -0.5241 -0.2271
  272TMC3    C3 4162   0.688   3.887  14.611  0.2653 -0.6867  0.2291
  272TMC3    C4 4163   0.457   3.887  14.481  0.2396 -0.0003  0.1147
  272TMC3    C5 4164   0.462   3.930  14.609  0.1219  0.3903 -0.3724
  272TMC3    C6 4165   0.577   3.930  14.681 -0.4747 -0.5599 -0.2915
  272TMC3     C 4166   0.564   3.803  14.272 -0.8512 -0.6679 -0.2488
  272TMC3     O 4167   0.665   3.746  14.245 -0.4747  0.1151 -0.1065
  272TMC3     H 4168   0.776   3.800  14.442  0.4873 -1.2006  1.3542
  272TMC3    H1 4169   0.359   3.873  14.437 -0.0309  0.6604  0.5265
  272TMC3    H2 4170   0.589   3.989  14.771  0.6027 -1.3691  0.0944
  272TMC3    C7 4171   0.342   3.984  14.664 -0.6307  0.2875  0.1669
  272TMC3    C8 4172   0.817   3.916  14.664 -0.2961  0.6647  0.1622
  272TMC3    O1 4173   0.258   4.023  14.587  0.5143  0.2935 -0.2448
  272TMC3    O2 4174   0.879   3.986  14.581  0.1687  0.4665 -0.2989
  273MPD2     C 4175   1.885   1.711  11.681 -0.0302  0.2139 -0.7408
  273MPD2    C1 4176   2.003   1.736  11.744 -0.1163 -0.9752  0.1956
  273MPD2    C2 4177   2.083   1.831  11.684  0.5702 -0.3769  0.1549
  273MPD2    C3 4178   2.047   1.898  11.573 -0.1049 -0.2140  0.2918
  273MPD2    C4 4179   1.933   1.865  11.507 -0.1951  0.3886 -0.1419
  273MPD2    C5 4180   1.853   1.770  11.565  0.4779 -0.5002 -0.6881
  273MPD2     H 4181   2.184   1.841  11.721  0.9997 -0.2139 -1.0748
  273MPD2    H1 4182   1.898   1.919  11.421  1.0320 -0.4493 -1.1645
  273MPD2    H2 4183   1.811   1.648  11.728 -0.7859 -0.2559 -2.5386
  273MPD2    H3 4184   1.754   1.761  11.522  0.8599 -3.1324 -0.9754
  273MPD2     N 4185   2.131   1.996  11.511  0.2415 -0.1940 -0.7528
  273MPD2    H5 4186   2.104   2.010  11.414  0.1516  1.4461 -0.5065
  273MPD2    N1 4187   2.043   1.674  11.865  0.5861  0.6497 -0.3759
  273MPD2    H7 4188   1.986   1.594  11.892  0.1902  0.2363 -2.4081
  274TMC3    C1 4189   2.313   2.147  11.495 -0.3046 -0.5637  0.1745
  274TMC3    C2 4190   2.282   2.164  11.364  0.3947 -0.0786 -0.0859
  274TMC3    C3 4191   2.305   2.283  11.306 -0.4211  0.1680 -0.2793
  274TMC3    C4 4192   2.367   2.247  11.565  0.4244 -1.0449  0.5092
  274TMC3    C5 4193   2.398   2.365  11.496  0.9322  0.2252  0.0579
  274TMC3    C6 4194   2.386   2.380  11.364  0.2975 -0.5017 -0.3256
  274TMC3     C 4195   2.239   2.054  11.570 -0.1714 -0.0452 -0.2240
  274TMC3     O 4196   2.255   2.061  11.694 -0.2675  0.1176 -0.3586
  274TMC3     H 4197   2.234   2.087  11.303  0.7007  0.4555 -0.9992
  274TMC3    H1 4198   2.364   2.255  11.673  1.7324  0.4243  0.4371
  274TMC3    H2 4199   2.418   2.477  11.328 -0.3869  0.1086  0.7230
  274TMC3    C7 4200   2.442   2.479  11.563 -0.1150  0.1761 -0.2319
  274TMC3    C8 4201   2.211   2.316  11.191  0.1130  0.2843  0.3731
  274TMC3    O1 4202   2.552   2.527  11.545 -0.1253 -0.2621 -0.3663
  274TMC3    O2 4203   2.117   2.242  11.181  0.7731  0.0836 -0.0318
  275MPD2     C 4204   1.688   0.256  14.785 -0.1304  0.3897  0.2291
  275MPD2    C1 4205   1.726   0.122  14.776 -0.6719  0.7930  0.4365
  275MPD2    C2 4206   1.620   0.035  14.767  0.5193 -0.5139  0.2786
  275MPD2    C3 4207   1.485   0.073  14.756 -0.4296  0.0264 -0.5534
  275MPD2    C4 4208   1.457   0.207  14.762 -0.1224 -0.5983  0.2962
  275MPD2    C5 4209   1.558   0.298  14.779 -0.2746  0.1412 -0.8379
  275MPD2     H 4210   1.640   4.664  14.759  0.0914 -0.6763  1.2937
  275MPD2    H1 4211   1.353   0.236  14.751  0.8318  2.7263  0.0970
  275MPD2    H2 4212   1.760   0.337  14.783  1.3584 -0.9908 -1.6842
  275MPD2    H3 4213   1.537   0.404  14.772 -0.2038  0.3189  1.4130
  275MPD2     N 4214   1.385   4.713  14.715  0.1220  0.1868  0.6184
  275MPD2    H5 4215   1.298   0.024  14.691  1.4896  1.5654 -1.7763
  275MPD2    N1 4216   1.853   0.074  14.777  0.0671  0.2377  0.2627
  275MPD2    H7 4217   1.856   4.709  14.771 -1.5474  0.1708  0.7776
  276TMC3    C1 4218   2.089   0.065  14.799  0.4672 -0.2995 -0.3165
  276TMC3    C2 4219   2.085   4.664  14.795  0.0424  0.2517 -0.5159
  276TMC3    C3 4220   2.193   4.590  14.841  0.4455  0.1918 -0.6220
  276TMC3    C4 4221   2.197   0.139  14.839 -0.5186 -0.3036  0.4423
  276TMC3    C5 4222   2.296   0.060  14.889 -0.1136 -0.4656 -0.6753
  276TMC3    C6 4223   2.298   4.655  14.895  0.9003 -0.0445  0.1328
  276TMC3     C 4224   1.967   0.147  14.788 -0.6909 -0.4723  0.6215
  276TMC3     O 4225   1.987   0.265  14.766  0.3695  0.5129  0.1901
  276TMC3     H 4226   2.012   4.617  14.730 -0.2044 -0.2115  0.0966
  276TMC3    H1 4227   2.188   0.246  14.855 -2.2193 -0.7704  2.6602
  276TMC3    H2 4228   2.388   4.604  14.929  1.3011 -0.9721 -2.3439
  276TMC3    C7 4229   2.420   0.133  14.917  0.3171 -0.1574 -0.3732
  276TMC3    C8 4230   2.179   4.459  14.884  0.3486 -0.3231  0.4072
  276TMC3    O1 4231   2.512   0.068  14.957  0.5815  0.6514 -0.3183
  276TMC3    O2 4232   2.275   4.412  14.944  0.1762 -0.5452 -0.3811
  277MPD2     C 4233   3.454   3.881  12.868  0.1232 -0.6608 -0.3853
  277MPD2    C1 4234   3.356   3.956  12.929 -0.2709 -0.4004  0.8317
  277MPD2    C2 4235   3.316   3.911  13.055  1.4276  0.2992 -0.5987
  277MPD2    C3 4236   3.378   3.805  13.119  0.1054 -0.2353  0.1606
  277MPD2    C4 4237   3.474   3.730  13.055 -0.0651  0.3398  0.8231
  277MPD2    C5 4238   3.517   3.775  12.934  0.4493 -0.8523 -0.1286
  277MPD2     H 4239   3.238   3.960  13.112  1.7479 -1.0908  1.0427
  277MPD2    H1 4240   3.514   3.639  13.099  1.0804 -0.7677 -2.5734
  277MPD2    H2 4241   3.508   3.914  12.780  0.1217 -1.2623 -0.6169
  277MPD2    H3 4242   3.594   3.716  12.885 -1.2973 -3.3843  0.2275
  277MPD2     N 4243   3.329   3.775  13.246 -0.1279  0.0394  0.0355
  277MPD2    H5 4244   3.250   3.832  13.272 -0.7719 -1.4916  1.4722
  277MPD2    N1 4245   3.312   4.080  12.870  0.0760  0.0149 -0.2991
  277MPD2    H7 4246   3.388   4.109  12.809  1.5026 -1.0673  0.9671
  278TMC3    C1 4247   3.306   3.631  13.440  0.1223  0.3905 -0.0385
  278TMC3    C2 4248   3.338   3.504  13.485 -0.2932 -0.8937  0.4141
  278TMC3    C3 4249   3.237   3.432  13.545  0.1661  0.3753  0.7691
  278TMC3    C4 4250   3.186   3.692  13.471 -0.6844 -0.2776 -0.0566
  278TMC3    C5 4251   3.092   3.618  13.544 -0.6372 -0.4397 -0.0037
  278TMC3    C6 4252   3.117   3.486  13.589 -1.1484  0.3031  0.2431
  278TMC3     C 4253   3.383   3.681  13.327  0.1705  0.0685  1.0892
  278TMC3     O 4254   3.491   3.625  13.311 -0.2823  0.5458 -0.0250
  278TMC3     H 4255   3.435   3.461  13.464  0.0681  0.4113 -0.5833
  278TMC3    H1 4256   3.163   3.783  13.415  2.3075  0.1513 -0.5658
  278TMC3    H2 4257   3.051   3.431  13.655 -1.4898 -0.6653 -0.9089
  278TMC3    C7 4258   3.012   3.702  13.627 -0.1093  0.0393 -0.0868
  278TMC3    C8 4259   3.250   3.288  13.570 -0.4045  0.0118 -0.3278
  278TMC3    O1 4260   3.053   3.820  13.628 -0.2356  0.8325 -0.3005
  278TMC3    O2 4261   3.154   3.219  13.547  0.0175  0.0395  0.9426
  279MPD2     C 4262   3.350   3.779  17.596  0.4045 -0.7414 -0.5923
  279MPD2    C1 4263   3.219   3.748  17.556  0.6753 -0.0909 -0.5575
  279MPD2    C2 4264   3.160   3.810  17.447 -0.3694  0.8561 -0.2681
  279MPD2    C3 4265   3.220   3.905  17.368  0.3757 -0.8872  0.0796
  279MPD2    C4 4266   3.351   3.932  17.405  0.2613  0.0414 -0.2990
  279MPD2    C5 4267   3.406   3.880  17.516 -0.1609 -0.1780  0.0856
  279MPD2     H 4268   3.055   3.797  17.426 -0.1352  0.2424 -1.0771
  279MPD2    H1 4269   3.416   3.994  17.344 -1.1904  1.3495 -0.5183
  279MPD2    H2 4270   3.399   3.735  17.682  1.1267  0.7906 -0.2242
  279MPD2    H3 4271   3.508   3.911  17.534  0.6593 -3.1931  0.7340
  279MPD2     N 4272   3.157   3.973  17.255  0.2111  0.6492  0.2719
  279MPD2    H5 4273   3.212   4.047  17.214 -1.2272  0.4092 -2.1356
  279MPD2    N1 4274   3.154   3.662  17.647  0.4674  0.2404  0.3778
  279MPD2    H7 4275   3.191   3.666   0.000 -0.4954 -1.1462  0.8200
  280TMC3    C1 4276   2.938   3.607   0.010  0.0593 -0.2736  0.0387
  280TMC3    C2 4277   2.824   3.534  17.720 -0.0867 -0.3597 -0.5070
  280TMC3    C3 4278   2.714   3.569   0.048 -0.9219  1.0123 -0.4018
  280TMC3    C4 4279   2.939   3.720   0.090  0.3410 -0.4548  0.4620
  280TMC3    C5 4280   2.815   3.760   0.134  0.7906  0.5220  0.4074
  280TMC3    C6 4281   2.702   3.686   0.118  0.7770  0.0914  0.0123
  280TMC3     C 4282   3.029   3.608  17.635  0.0406  0.0893 -0.0777
  280TMC3     O 4283   2.965   3.584  17.532 -0.2328  0.0229 -0.3119
  280TMC3     H 4284   2.834   3.445  17.659 -0.6820 -0.6275 -0.2125
  280TMC3    H1 4285   3.021   3.791   0.088  2.0373 -2.4289 -0.2299
  280TMC3    H2 4286   2.605   3.709   0.161  0.7408  1.1413 -0.6467
  280TMC3    C7 4287   2.802   3.898   0.185  0.3060  0.1821  0.5456
  280TMC3    C8 4288   2.601   3.488   0.057 -1.0312  0.6265  0.3726
  280TMC3    O1 4289   2.894   3.949   0.245  0.3581  0.1086  0.2164
  280TMC3    O2 4290   2.491   3.539   0.060  0.4536 -0.1627  0.2709
  281TMC3    C1 4291   2.330   4.051  14.041 -0.9424  0.3127 -0.4739
  281TMC3    C2 4292   2.379   4.109  13.935  0.6840  0.2967 -0.7800
  281TMC3    C3 4293   2.433   4.035  13.835 -0.2671 -0.8024  0.0247
  281TMC3    C4 4294   2.315   3.911  14.046  0.6555 -0.2629 -0.9972
  281TMC3    C5 4295   2.370   3.839  13.944 -0.9003  0.0982  0.5116
  281TMC3    C6 4296   2.434   3.902  13.847  0.1144  0.3421 -0.1749
  281TMC3     C 4297   2.233   4.131  14.110 -0.1896  0.5831 -0.1589
  281TMC3     O 4298   2.207   4.115  14.230  0.1495  0.1112  0.1725
  281TMC3     H 4299   2.383   4.217  13.937  0.6458  0.2874 -0.0288
  281TMC3    H1 4300   2.278   3.865  14.138 -0.6465  2.2244 -0.2671
  281TMC3    H2 4301   2.467   3.843  13.762 -1.4995 -0.6866 -0.0870
  281TMC3    C7 4302   2.294   3.729  13.889  0.6418 -0.1767 -0.6165
  281TMC3    C8 4303   2.405   4.079  13.698 -0.5694  0.1465  0.3455
  281TMC3    O1 4304   2.317   3.661  13.786 -0.6490  0.1294 -0.0151
  281TMC3    O2 4305   2.383   3.999  13.607  0.0136 -0.3105 -0.0604
  282MPD2     C 4306   3.687   0.985  15.229 -0.0757 -0.5168 -0.2946
  282MPD2    C1 4307   3.576   1.062  15.221  0.0364 -0.4667 -0.6509
  282MPD2    C2 4308   3.538   1.098  15.096 -0.0358  0.1339 -0.4141
  282MPD2    C3 4309   3.594   1.047  14.977 -0.5365  0.2006 -0.1416
  282MPD2    C4 4310   3.704   0.966  14.992 -0.1284 -0.6594 -0.4256
  282MPD2    C5 4311   3.756   0.943  15.118  0.4321  0.1417  0.9251
  282MPD2     H 4312   3.463   1.175  15.083 -1.4948 -1.3512 -0.8215
  282MPD2    H1 4313   3.755   0.931  14.903 -0.6640 -1.9040 -0.2447
  282MPD2    H2 4314   3.718   0.950  15.327 -3.8863  0.5556  1.2931
  282MPD2    H3 4315   3.845   0.882  15.128  1.4615  1.6456  0.9449
  282MPD2     N 4316   3.539   1.077  14.851  0.4597 -0.1131  0.1406
  282MPD2    H5 4317   3.469   1.149  14.841  1.7065  1.2659  1.3295
  282MPD2    N1 4318   3.500   1.099  15.335  0.2917  0.0271  0.0673
  282MPD2    H7 4319   3.417   1.154  15.315 -0.7248 -0.9597  1.5402
  283TMC3    C1 4320   3.359   1.034  15.505 -0.4623  0.5706 -0.1934
  283TMC3    C2 4321   3.336   1.160  15.546 -0.2262  0.1084 -0.4115
  283TMC3    C3 4322   3.257   1.173  15.655 -0.0407 -0.0329  0.1974
  283TMC3    C4 4323   3.303   0.921  15.564  0.4868  0.1527 -0.4714
  283TMC3    C5 4324   3.216   0.939  15.662  0.3046 -0.0760  0.3559
  283TMC3    C6 4325   3.195   1.063  15.710 -0.1463 -0.2071 -0.6711
  283TMC3     C 4326   3.491   1.019  15.444 -0.1184  0.1591  0.0447
  283TMC3     O 4327   3.567   0.938  15.499 -0.0566  0.1325  0.4342
  283TMC3     H 4328   3.386   1.248  15.509 -1.1367  0.5639 -0.5647
  283TMC3    H1 4329   3.337   0.822  15.536 -0.5685 -0.5707  0.8225
  283TMC3    H2 4330   3.123   1.076  15.789 -0.1319 -0.9327 -0.5414
  283TMC3    C7 4331   3.175   0.828  15.755 -0.3623 -0.6081  0.8824
  283TMC3    C8 4332   3.209   1.306  15.698 -0.0106  0.3174  0.0453
  283TMC3    O1 4333   3.123   0.865  15.859 -0.3947  0.1405  0.3980
  283TMC3    O2 4334   3.166   1.308  15.814  0.3137  0.4890 -0.2423
  284MPD2     C 4335   1.364   4.346  11.915  0.1828 -0.0400  0.4146
  284MPD2    C1 4336   1.482   4.401  11.891 -0.2768  0.4841  0.1535
  284MPD2    C2 4337   1.579   4.409  11.991 -0.1130  1.3005 -0.2759
  284MPD2    C3 4338   1.565   4.333  12.103  0.2717  0.0288  0.4872
  284MPD2    C4 4339   1.449   4.263  12.121 -0.4319  0.3287  0.0149
  284MPD2    C5 4340   1.348   4.274  12.029 -0.1296  0.4440  0.7019
  284MPD2     H 4341   1.674   4.460  11.976  0.8513 -0.6768 -0.8370
  284MPD2    H1 4342   1.438   4.209  12.215  0.3285  0.4558  0.1781
  284MPD2    H2 4343   1.281   4.361  11.847  1.5644 -0.5924 -1.3853
  284MPD2    H3 4344   1.251   4.233  12.053  0.3619 -0.6816  0.7685
  284MPD2     N 4345   1.681   4.319  12.193 -0.2254 -0.1480  0.8014
  284MPD2    H5 4346   1.764   4.373  12.169 -1.1758  0.9605 -0.0159
  284MPD2    N1 4347   1.520   4.462  11.763 -0.3759 -0.9117  0.1763
  284MPD2    H7 4348   1.603   4.520  11.764  0.7232 -2.4898  0.5074
  285TMC3    C1 4349   1.528   4.490  11.535  0.2653  0.0126  0.0413
  285TMC3    C2 4350   1.548   4.419  11.417  0.5441  0.1634 -0.1654
  285TMC3    C3 4351   1.652   4.452  11.333 -0.1349 -0.0720  0.6260
  285TMC3    C4 4352   1.597   4.607  11.551 -0.4751 -0.4248  0.2928
  285TMC3    C5 4353   1.684   4.637  11.461 -0.1202  0.2586  0.0241
  285TMC3    C6 4354   1.713   4.569  11.344 -1.2872 -0.1212  0.2107
  285TMC3     C 4355   1.454   4.433  11.643 -0.1185 -0.3823  0.2313
  285TMC3     O 4356   1.368   4.350  11.616 -0.2526  0.2296 -0.1882
  285TMC3     H 4357   1.509   4.320  11.399  0.7436  0.3293 -1.4903
  285TMC3    H1 4358   1.583   4.673  11.637 -1.7860  1.4654 -1.3779
  285TMC3    H2 4359   1.789   4.609  11.277 -1.1439  0.3104  0.6310
  285TMC3    C7 4360   1.742   0.030  11.482  0.1191  0.6718 -0.3591
  285TMC3    C8 4361   1.721   4.341  11.263 -0.4970  0.0326  0.2962
  285TMC3    O1 4362   1.670   0.108  11.546 -0.4118 -0.0855 -0.0341
  285TMC3    O2 4363   1.665   4.233  11.251 -0.0146 -0.5247 -0.0479
  286MPD2     C 4364   2.557   3.705   1.196 -0.1162  0.0442  0.3331
  286MPD2    C1 4365   2.438   3.650   1.173  0.1313  1.0336 -0.5502
  286MPD2    C2 4366   2.432   3.513   1.166 -0.0004  0.3173  0.0787
  286MPD2    C3 4367   2.530   3.428   1.198  0.4707  0.4503 -0.8184
  286MPD2    C4 4368   2.653   3.486   1.216  0.2039  0.4285 -0.4097
  286MPD2    C5 4369   2.666   3.623   1.217 -0.7473  0.3632  0.6158
  286MPD2     H 4370   2.333   3.473   1.144 -0.6142  0.7962  2.0125
  286MPD2    H1 4371   2.744   3.433   1.243 -0.7384 -0.8050  0.3582
  286MPD2    H2 4372   2.585   3.810   1.202  0.7510 -0.2452  1.2403
  286MPD2    H3 4373   2.759   3.664   1.254 -2.2356  3.2435  1.1804
  286MPD2     N 4374   2.517   3.288   1.200  0.6142  0.6210  0.1592
  286MPD2    H5 4375   2.600   3.233   1.219 -0.0946 -0.8855 -1.0269
  286MPD2    N1 4376   2.323   3.718   1.122 -0.1165  0.0484 -0.0343
  286MPD2    H7 4377   2.243   3.671   1.081 -1.4779  0.6535  1.8804
  287TMC3    C1 4378   2.440   3.081   1.149 -0.0032 -0.4915 -1.1182
  287TMC3    C2 4379   2.370   3.020   1.049  0.3059 -0.2696  0.6966
  287TMC3    C3 4380   2.385   2.886   1.033  0.2922  0.1746 -0.1781
  287TMC3    C4 4381   2.524   3.017   1.232 -0.1621 -0.6219 -0.2914
  287TMC3    C5 4382   2.541   2.884   1.206 -0.3481 -0.2580 -0.1108
  287TMC3    C6 4383   2.472   2.819   1.110  0.5526 -0.4072  0.2415
  287TMC3     C 4384   2.404   3.219   1.167  0.1688  0.8092  0.2555
  287TMC3     O 4385   2.299   3.261   1.123  0.3931  0.1400 -0.3050
  287TMC3     H 4386   2.288   3.069   0.996  2.0468 -0.3373 -2.0764
  287TMC3    H1 4387   2.570   3.066   1.317  0.8484  0.5804 -1.5335
  287TMC3    H2 4388   2.486   2.713   1.095 -0.9699 -0.4753 -0.7177
  287TMC3    C7 4389   2.658   2.816   1.268  0.0486  0.0374  0.5689
  287TMC3    C8 4390   2.341   2.820   0.910  0.4445 -0.0108 -0.0653
  287TMC3    O1 4391   2.709   2.869   1.366 -0.0361 -0.1034  0.8230
  287TMC3    O2 4392   2.336   2.695   0.916  0.0782  0.0104  0.3312
  288TMC3    C1 4393   3.907   3.391  14.230 -0.3679 -0.5239  0.7123
  288TMC3    C2 4394   3.777   3.359  14.247  0.5204 -0.7235 -0.1999
  288TMC3    C3 4395   3.689   3.394  14.147  0.0315 -0.2549  0.2057
  288TMC3    C4 4396   3.949   3.451  14.113 -0.8351 -0.2357 -0.0985
  288TMC3    C5 4397   3.860   3.483  14.015 -0.0667  0.5722  0.2412
  288TMC3    C6 4398   3.728   3.456  14.032 -0.3150 -0.6499 -0.3991
  288TMC3     C 4399   3.989   3.409  14.341 -0.0103  0.0103 -0.2081
  288TMC3     O 4400   3.933   3.431  14.451 -0.4003 -0.2220 -0.0606
  288TMC3     H 4401   3.743   3.329  14.345 -2.2134 -5.4854 -2.5805
  288TMC3    H1 4402   4.051   3.475  14.086 -1.6533  1.7098 -1.4487
  288TMC3    H2 4403   3.658   3.491  13.957  0.3303  2.5932  0.5186
  288TMC3    C7 4404   3.917   3.525  13.886 -0.4113  0.8376  0.5175
  288TMC3    C8 4405   3.555   3.432  14.193  0.9770 -0.0662  1.1429
  288TMC3    O1 4406   4.035   3.553  13.884  0.5928 -0.3233  0.1231
  288TMC3    O2 4407   3.532   3.553  14.182  0.2673 -0.4842  0.5178
  289MPD2     C 4408   3.638   2.641  14.444  1.2299 -0.7180 -0.3468
  289MPD2    C1 4409   3.623   2.661  14.306  0.4818 -0.3151  0.2126
  289MPD2    C2 4410   3.497   2.661  14.248  0.0155 -0.1646 -0.2155
  289MPD2    C3 4411   3.386   2.628  14.328 -0.0805 -0.5158 -0.4737
  289MPD2    C4 4412   3.406   2.589  14.454 -0.0704 -0.7397 -0.5844
  289MPD2    C5 4413   3.531   2.599  14.514  0.1421  0.0460  0.2584
  289MPD2     H 4414   3.484   2.698  14.147 -1.7594  0.1610  0.1310
  289MPD2    H1 4415   3.325   2.553  14.516 -0.7014  0.8930 -0.4568
  289MPD2    H2 4416   3.736   2.650  14.490 -0.4026 -0.3069  3.0521
  289MPD2    H3 4417   3.542   2.577  14.619 -0.7812 -1.1195  0.1173
  289MPD2     N 4418   3.256   2.596  14.285  0.3801  0.2543 -0.6022
  289MPD2    H5 4419   3.185   2.567  14.352  1.7680  0.0510  0.7770
  289MPD2    N1 4420   3.742   2.696  14.227  0.2650 -0.5158  0.3825
  289MPD2    H7 4421   3.834   2.705  14.270 -0.3509 -0.3738  1.6615
  290TMC3    C1 4422   3.054   2.661  14.187  0.1462  0.4732 -0.0908
  290TMC3    C2 4423   2.992   2.779  14.155  0.2770  0.0845  0.5013
  290TMC3    C3 4424   2.850   2.770  14.163  0.1881  0.4807  0.1898
  290TMC3    C4 4425   2.993   2.543  14.215  0.2267 -0.6771 -0.1624
  290TMC3    C5 4426   2.859   2.536  14.194 -0.1018 -0.2076 -0.2981
  290TMC3    C6 4427   2.791   2.649  14.167 -0.2168 -0.3164  0.0978
  290TMC3     C 4428   3.202   2.653  14.173 -0.2153 -0.3485  0.3391
  290TMC3     O 4429   3.258   2.731  14.095  0.3983 -0.2933 -0.0915
  290TMC3     H 4430   3.048   2.871  14.139 -0.3042  0.3336 -0.1243
  290TMC3    H1 4431   3.051   2.455  14.239 -0.8584 -0.8253  1.8881
  290TMC3    H2 4432   2.682   2.647  14.163 -0.1897 -3.3040  0.6755
  290TMC3    C7 4433   2.799   2.403  14.183  0.1074 -0.4785  0.0163
  290TMC3    C8 4434   2.782   2.890  14.212 -0.6143 -0.0293 -0.2827
  290TMC3    O1 4435   2.675   2.395  14.175 -0.5443  0.6295 -0.1310
  290TMC3    O2 4436   2.685   2.878  14.283 -0.4248 -0.1721 -0.1772
  291MPD2     C 4437   2.990   2.475   0.786 -0.3186  0.2816  0.4402
  291MPD2    C1 4438   3.124   2.459   0.782  0.5137 -0.3018  0.2487
  291MPD2    C2 4439   3.208   2.569   0.770  0.0699  0.3940 -0.0021
  291MPD2    C3 4440   3.159   2.701   0.763 -0.3656  0.3140  0.6427
  291MPD2    C4 4441   3.023   2.719   0.769 -0.2077  0.2777 -0.3860
  291MPD2    C5 4442   2.947   2.604   0.776 -0.3653  0.5612  0.0978
  291MPD2     H 4443   3.315   2.550   0.771  0.0253  0.1767  1.2149
  291MPD2    H1 4444   2.974   2.815   0.778  0.6641  0.6589  0.2862
  291MPD2    H2 4445   2.911   2.401   0.781  0.7382 -0.8711  0.6789
  291MPD2    H3 4446   2.841   2.620   0.763 -0.5362 -2.0253 -1.8519
  291MPD2     N 4447   3.246   2.816   0.757 -0.6305  0.1279 -0.1869
  291MPD2    H5 4448   3.198   2.905   0.759  0.4358  0.7211 -1.9696
  291MPD2    N1 4449   3.181   2.333   0.790 -0.0588 -0.4834 -0.3252
  291MPD2    H7 4450   3.281   2.337   0.809  0.0271 -0.1936 -0.8352
  292TMC3    C1 4451   3.195   2.096   0.767 -0.0369 -0.7626 -0.4825
  292TMC3    C2 4452   3.271   2.082   0.883 -0.3222 -0.2620 -0.0965
  292TMC3    C3 4453   3.309   1.956   0.913 -0.3597 -0.2176  0.2143
  292TMC3    C4 4454   3.157   1.994   0.683 -0.1249 -0.6912  0.4361
  292TMC3    C5 4455   3.186   1.864   0.723 -0.5337  0.9448 -0.2826
  292TMC3    C6 4456   3.266   1.850   0.837 -0.2541 -0.5508 -0.4145
  292TMC3     C 4457   3.115   2.214   0.757 -0.1765 -0.3131 -0.2150
  292TMC3     O 4458   2.999   2.201   0.717  0.3120 -0.0222  0.0404
  292TMC3     H 4459   3.261   2.157   0.960 -1.1690 -2.0647  1.5520
  292TMC3    H1 4460   3.086   2.011   0.603  0.3054 -0.0159  0.1993
  292TMC3    H2 4461   3.283   1.748   0.871 -1.2042 -0.7505 -0.5224
  292TMC3    C7 4462   3.141   1.755   0.641  0.4683  0.3138 -0.1070
  292TMC3    C8 4463   3.356   1.926   1.051  0.1407 -0.6378  0.2553
  292TMC3    O1 4464   3.138   1.784   0.524  0.1470 -0.1341  0.4502
  292TMC3    O2 4465   3.406   2.019   1.116 -0.7093 -1.1050  0.5890
  293MPD2     C 4466   0.243   3.470  12.460  0.6511 -0.4410 -0.0052
  293MPD2    C1 4467   0.112   3.443  12.505  0.0383 -0.2858 -0.4800
  293MPD2    C2 4468   0.079   3.463  12.643 -0.1183  0.3455  0.2291
  293MPD2    C3 4469   0.173   3.521  12.728 -0.1250  0.8353  0.6410
  293MPD2    C4 4470   0.300   3.545  12.677  0.0031 -0.0936  0.3615
  293MPD2    C5 4471   0.336   3.527  12.546  0.0460 -0.3553  0.1171
  293MPD2     H 4472   4.721   3.431  12.687  0.0595  0.4993  0.7180
  293MPD2    H1 4473   0.384   3.563  12.743 -2.0698 -0.3904  3.0615
  293MPD2    H2 4474   0.267   3.459  12.354 -0.3878 -0.5561 -0.2276
  293MPD2    H3 4475   0.438   3.546  12.515 -0.3812  0.3167 -0.9242
  293MPD2     N 4476   0.136   3.548  12.861  0.0186  0.2482  0.2457
  293MPD2    H5 4477   0.038   3.537  12.884 -0.2922  1.3755 -0.5256
  293MPD2    N1 4478   0.026   3.394  12.403 -0.2487 -0.2136 -0.3244
  293MPD2    H7 4479   0.067   3.398  12.311  2.7053 -0.1609  0.9835
  294TMC3    C1 4480   4.585   3.302  12.302 -0.6071 -0.7453 -0.1769
  294TMC3    C2 4481   4.491   3.208  12.312  0.3381 -0.4712  0.1247
  294TMC3    C3 4482   4.463   3.141  12.199  0.3513  0.3197  0.7854
  294TMC3    C4 4483   4.651   3.327  12.179 -0.0893 -0.2172  0.4069
  294TMC3    C5 4484   4.623   3.245  12.075 -0.3901  0.2388  0.8740
  294TMC3    C6 4485   4.536   3.141  12.087 -0.3002  0.6138  0.1516
  294TMC3     C 4486   4.634   3.359  12.424  0.3200 -1.0719 -0.2871
  294TMC3     O 4487   4.561   3.329  12.523  0.4943  0.1189  0.2786
  294TMC3     H 4488   4.430   3.192  12.401 -1.1979 -1.9454 -1.2016
  294TMC3    H1 4489   4.711   3.415  12.161 -0.3246  0.0334  0.8526
  294TMC3    H2 4490   4.511   3.069  12.009 -0.7048  0.5255  0.3643
  294TMC3    C7 4491   4.677   3.265  11.950  0.1507  0.2959  0.4618
  294TMC3    C8 4492   4.407   3.007  12.227 -0.5953 -0.2820 -0.7475
  294TMC3    O1 4493   4.727   3.376  11.924 -0.3649 -0.5871  1.3477
  294TMC3    O2 4494   4.453   2.913  12.160  0.6756  0.2135 -0.0575
  295MPD2     C 4495   1.561   2.751   0.812 -0.1499 -0.1553  0.3466
  295MPD2    C1 4496   1.422   2.744   0.785 -0.2598  0.0088  0.4576
  295MPD2    C2 4497   1.333   2.684   0.876 -0.2246  0.4685 -0.3842
  295MPD2    C3 4498   1.371   2.638   0.999  0.4430 -0.6295 -0.6446
  295MPD2    C4 4499   1.506   2.637   1.021 -0.4273  0.6762  0.1207
  295MPD2    C5 4500   1.594   2.680   0.926  0.9207  0.0097 -0.2735
  295MPD2     H 4501   1.227   2.685   0.853 -0.5505  0.8568  1.1283
  295MPD2    H1 4502   1.560   2.590   1.102  0.5741  2.4443  0.4916
  295MPD2    H2 4503   1.636   2.789   0.743  0.4240 -1.1287  0.4344
  295MPD2    H3 4504   1.697   2.691   0.957  0.1228  1.0294  2.0265
  295MPD2     N 4505   1.287   2.562   1.086  0.3538 -0.1075  0.2117
  295MPD2    H5 4506   1.339   2.520   1.162  1.2450 -3.0555 -2.0045
  295MPD2    N1 4507   1.368   2.794   0.662  0.3955 -0.6551  0.1811
  295MPD2    H7 4508   1.275   2.767   0.633 -0.5303  0.2713  2.2685
  296TMC3    C1 4509   1.100   2.480   1.190  0.4971 -0.3414 -0.8051
  296TMC3    C2 4510   0.978   2.518   1.248 -0.3217  0.7164 -0.7350
  296TMC3    C3 4511   0.948   2.464   1.362  0.3426 -0.0863 -0.0216
  296TMC3    C4 4512   1.182   2.392   1.246  0.6004  0.5717 -0.2068
  296TMC3    C5 4513   1.146   2.342   1.368  0.3521 -0.1654 -0.4081
  296TMC3    C6 4514   1.029   2.379   1.432  0.0903  0.3956  0.5554
  296TMC3     C 4515   1.151   2.553   1.073 -0.2759  0.1184  0.7121
  296TMC3     O 4516   1.070   2.616   1.010 -0.4057 -0.0242 -0.5650
  296TMC3     H 4517   0.908   2.573   1.187 -0.7751 -0.6195 -1.4134
  296TMC3    H1 4518   1.271   2.354   1.198  1.2035  0.4657  1.0175
  296TMC3    H2 4519   0.996   2.340   1.528 -2.4484 -0.2836 -0.6089
  296TMC3    C7 4520   1.207   2.217   1.405 -0.4820  0.5574  0.1843
  296TMC3    C8 4521   0.816   2.484   1.415 -0.2048 -0.2850 -0.0566
  296TMC3    O1 4522   1.319   2.185   1.368  0.3347 -0.2004 -0.6254
  296TMC3    O2 4523   0.780   2.410   1.504 -0.5592 -0.4967  0.1677
  297MPD2     C 4524   2.516   4.282  16.371  0.3129 -0.3737 -0.0404
  297MPD2    C1 4525   2.497   4.297  16.235 -0.3859  0.1620  0.2295
  297MPD2    C2 4526   2.592   4.373  16.172  0.4519 -0.5941 -0.3810
  297MPD2    C3 4527   2.708   4.417  16.234 -0.3525 -0.1390  1.1563
  297MPD2    C4 4528   2.728   4.396  16.366 -0.4784  0.1038  0.5982
  297MPD2    C5 4529   2.632   4.325  16.437  0.6057  0.0788  0.2595
  297MPD2     H 4530   2.580   4.409  16.070 -0.0551 -0.5823 -0.3193
  297MPD2    H1 4531   2.812   4.446  16.415  0.8459  0.5957 -2.1684
  297MPD2    H2 4532   2.435   4.243  16.432  0.7129 -1.6007 -0.3061
  297MPD2    H3 4533   2.634   4.303  16.543  3.3070  0.2868  0.2578
  297MPD2     N 4534   2.785   4.514  16.177  0.4286 -0.7638 -0.5344
  297MPD2    H5 4535   2.861   4.552  16.232  1.0379 -0.5348 -1.5360
  297MPD2    N1 4536   2.395   4.240  16.161  0.4150  0.3644 -0.0926
  297MPD2    H7 4537   2.377   4.289  16.074  0.1804  4.2659  2.1604
  298TMC3    C1 4538   2.189   4.136  16.134  0.0768  0.8684  0.8820
  298TMC3    C2 4539   2.205   4.140  15.996 -0.0401  0.2844  0.6607
  298TMC3    C3 4540   2.129   4.229  15.926  0.0351  0.3253 -0.6556
  298TMC3    C4 4541   2.101   4.218  16.191 -0.1569  0.1487 -0.7045
  298TMC3    C5 4542   2.027   4.303  16.116 -0.1079 -0.4180  0.0902
  298TMC3    C6 4543   2.047   4.315  15.983 -0.1858 -0.1159 -0.2869
  298TMC3     C 4544   2.313   4.141  16.208  0.1381 -0.2842 -0.0291
  298TMC3     O 4545   2.335   4.062  16.296  0.3322 -0.5649  0.2420
  298TMC3     H 4546   2.272   4.069  15.950  0.1569  0.1764  1.1271
  298TMC3    H1 4547   2.095   4.221  16.300 -1.8399  0.7195 -0.8075
  298TMC3    H2 4548   1.969   4.374  15.935 -0.9728 -0.6886  0.2723
  298TMC3    C7 4549   1.967   4.419  16.184  0.1066  0.3777  0.0839
  298TMC3    C8 4550   2.127   4.217  15.780  0.4006  0.3391 -0.8294
  298TMC3    O1 4551   1.950   4.406  16.308  0.1128 -0.1973  0.3054
  298TMC3    O2 4552   2.178   4.116  15.736 -0.4809  0.1134 -0.4624
  299MPD2     C 4553   3.436   3.906  10.540  0.2878 -0.7121 -0.1663
  299MPD2    C1 4554   3.337   3.958  10.622  0.2457  0.4550  0.2839
  299MPD2    C2 4555   3.210   3.986  10.562  0.2285  0.3054  0.1157
  299MPD2    C3 4556   3.173   3.944  10.438 -0.3639 -0.0233 -0.9645
  299MPD2    C4 4557   3.272   3.895  10.357 -0.3652 -0.5407 -0.2043
  299MPD2    C5 4558   3.400   3.892  10.409  0.1608 -0.2195  0.0312
  299MPD2     H 4559   3.131   4.023  10.625 -0.4887  0.4916 -0.8838
  299MPD2    H1 4560   3.259   3.877  10.251  0.8765  0.0574 -0.4555
  299MPD2    H2 4561   3.541   3.907  10.567 -0.2342  0.7936  1.8024
  299MPD2    H3 4562   3.476   3.879  10.332  1.2872  1.4074  0.8734
  299MPD2     N 4563   3.042   3.974  10.392  0.1455  0.3054  0.9417
  299MPD2    H5 4564   2.985   4.033  10.452 -1.8405 -0.4848 -0.1947
  299MPD2    N1 4565   3.374   4.005  10.753  0.2132  0.0158  0.0071
  299MPD2    H7 4566   3.473   4.004  10.773 -0.0308  0.5652  1.2600
  300TMC3    C1 4567   2.851   3.952  10.259 -0.7973 -0.4348 -0.1232
  300TMC3    C2 4568   2.800   4.073  10.300  0.1241  0.2110  0.0594
  300TMC3    C3 4569   2.671   4.099  10.300 -0.3606  0.0353  0.2296
  300TMC3    C4 4570   2.767   3.862  10.200  0.3873  0.1841  0.0612
  300TMC3    C5 4571   2.638   3.895  10.185 -0.0151 -0.1116  0.2322
  300TMC3    C6 4572   2.586   4.009  10.243 -0.0603 -0.2648 -0.3023
  300TMC3     C 4573   2.998   3.916  10.276  0.5865 -0.5222  0.2348
  300TMC3     O 4574   3.046   3.830  10.198 -0.1891  0.9179  0.1287
  300TMC3     H 4575   2.863   4.144  10.354  1.0713 -0.5308 -0.0792
  300TMC3    H1 4576   2.810   3.777  10.148 -0.9271 -0.6398  0.3375
  300TMC3    H2 4577   2.482   4.034  10.225  0.4128  1.2368 -0.8884
  300TMC3    C7 4578   2.556   3.779  10.157 -0.3975  1.0130  0.1218
  300TMC3    C8 4579   2.626   4.219  10.367 -0.4157 -0.0726 -0.3245
  300TMC3    O1 4580   2.600   3.689  10.085 -0.4586  0.6512 -0.2098
  300TMC3    O2 4581   2.710   4.286  10.417 -0.0020  0.5855  0.3516
  301MPD2     C 4582   1.022   0.820   1.501 -0.2525 -0.2682  0.1120
  301MPD2    C1 4583   0.976   0.799   1.373  0.2200  0.0980  0.8557
  301MPD2    C2 4584   1.006   0.692   1.299  0.5045 -0.0210 -1.0931
  301MPD2    C3 4585   1.077   0.589   1.348  0.1775  0.0163 -0.1777
  301MPD2    C4 4586   1.119   0.609   1.483  0.1394 -0.2498 -0.4355
  301MPD2    C5 4587   1.083   0.716   1.563 -0.7061 -0.5372 -0.2218
  301MPD2     H 4588   0.955   0.683   1.203 -1.8086  2.0146 -0.0588
  301MPD2    H1 4589   1.175   0.526   1.525 -0.7480 -1.4134 -1.5265
  301MPD2    H2 4590   0.985   0.899   1.564  0.7832  0.5822 -0.3453
  301MPD2    H3 4591   1.115   0.720   1.666 -2.1325 -0.8863  0.2313
  301MPD2     N 4592   1.085   0.460   1.291 -0.1193  0.2231  0.2544
  301MPD2    H5 4593   1.106   0.379   1.349  1.4270  0.4543  0.0147
  301MPD2    N1 4594   0.901   0.899   1.306 -0.2128 -0.0804  0.3419
  301MPD2    H7 4595   0.862   0.875   1.215 -2.3904  0.7302  1.0574
  302TMC3    C1 4596   1.047   0.288   1.133  0.3571  0.0312 -0.5977
  302TMC3    C2 4597   1.144   0.209   1.186  0.3033 -0.3521  0.0708
  302TMC3    C3 4598   1.128   0.070   1.168 -0.0164 -0.5042 -0.0732
  302TMC3    C4 4599   0.943   0.242   1.055  0.2627 -0.0443 -0.0739
  302TMC3    C5 4600   0.920   0.106   1.056 -0.0747  0.5953 -0.2901
  302TMC3    C6 4601   1.016   0.024   1.103  0.2504  0.1197 -0.5042
  302TMC3     C 4602   1.042   0.429   1.160  0.0875 -0.3486 -0.3550
  302TMC3     O 4603   0.997   0.508   1.078 -0.3050  0.0515 -0.1058
  302TMC3     H 4604   1.238   0.248   1.224  0.0776  1.4048 -1.2223
  302TMC3    H1 4605   0.876   0.305   0.998  1.1380  1.2071  0.2879
  302TMC3    H2 4606   1.005   4.653   1.092  0.2988  0.2276 -1.6466
  302TMC3    C7 4607   0.835   0.041   0.958  0.6528  0.2553 -0.3213
  302TMC3    C8 4608   1.219   4.713   1.230  0.0234 -0.6547 -0.1230
  302TMC3    O1 4609   0.852   4.658   0.939 -0.4269 -0.0599 -0.3207
  302TMC3    O2 4610   1.213   4.604   1.182 -0.0562 -0.6323  0.3745
  303MPD2     C 4611   0.436   3.458  10.209 -0.2194  0.3224 -0.4214
  303MPD2    C1 4612   0.353   3.360  10.158 -0.4910 -0.8009  0.2946
  303MPD2    C2 4613   0.232   3.387  10.099  0.3271  0.2643  0.4299
  303MPD2    C3 4614   0.195   3.519  10.089  0.0244  0.6700  0.0532
  303MPD2    C4 4615   0.276   3.618  10.139 -0.7517  0.3771  0.1795
  303MPD2    C5 4616   0.397   3.588  10.194  0.0941 -1.4938 -0.1071
  303MPD2     H 4617   0.166   3.312  10.056 -0.6936 -0.8885  4.0158
  303MPD2    H1 4618   0.249   3.722  10.124 -1.2304  0.4035  1.1896
  303MPD2    H2 4619   0.533   3.435  10.254  0.4950  0.1764 -2.0452
  303MPD2    H3 4620   0.471   3.663  10.217 -0.1100 -0.8860 -1.4096
  303MPD2     N 4621   0.088   3.562  10.009  0.0540  0.4889 -0.1822
  303MPD2    H5 4622   0.070   3.662  10.012 -0.5318  0.3406  0.9527
  303MPD2    N1 4623   0.404   3.229  10.178 -1.0889 -0.3628 -0.2419
  303MPD2    H7 4624   0.477   3.214  10.247 -2.6472  0.5985  1.6135
  304TMC3    C1 4625   0.394   2.993  10.171 -0.6188 -0.0480 -1.4745
  304TMC3    C2 4626   0.377   2.990  10.306  0.1988 -0.6530  0.2422
  304TMC3    C3 4627   0.347   2.868  10.355 -0.2858  0.4547  0.6551
  304TMC3    C4 4628   0.370   2.880  10.088 -0.5162  0.2094  0.2720
  304TMC3    C5 4629   0.342   2.757  10.140  0.4361  0.3835  0.0489
  304TMC3    C6 4630   0.340   2.754  10.276  0.7025 -0.8008  0.1372
  304TMC3     C 4631   0.363   3.114  10.107 -0.6318 -0.3701 -0.4911
  304TMC3     O 4632   0.292   3.104  10.007 -0.0671  0.9410 -0.1658
  304TMC3     H 4633   0.375   3.073  10.376  0.4988  0.9890 -1.7140
  304TMC3    H1 4634   0.369   2.892   9.980  0.2361  2.0459  0.4662
  304TMC3    H2 4635   0.338   2.659  10.327  1.5426 -1.2311 -0.6303
  304TMC3    C7 4636   0.223   2.695  10.089 -0.1092  0.0418 -0.1048
  304TMC3    C8 4637   0.264   2.858  10.465 -0.2864 -0.8691 -0.0839
  304TMC3    O1 4638   0.133   2.709  10.171 -0.2089  0.4617 -0.3518
  304TMC3    O2 4639   0.289   2.913  10.569 -0.3854  0.2117  0.1164
  305MPD2     C 4640   3.565   1.357  13.691  0.4879  0.0098 -0.2778
  305MPD2    C1 4641   3.672   1.269  13.709 -0.6690  0.4612  0.4727
  305MPD2    C2 4642   3.726   1.199  13.602 -0.2050  0.7045  0.4272
  305MPD2    C3 4643   3.647   1.198  13.485 -0.3275 -0.4696  0.4687
  305MPD2    C4 4644   3.525   1.274  13.473 -1.0975  0.4179  0.6420
  305MPD2    C5 4645   3.486   1.357  13.577 -0.1942 -0.9282 -0.0115
  305MPD2     H 4646   3.819   1.145  13.613 -0.1832  0.8190  0.8294
  305MPD2    H1 4647   3.455   1.261  13.392 -0.5071 -0.4181  0.2722
  305MPD2    H2 4648   3.533   1.418  13.775 -2.1694  0.1974 -1.4529
  305MPD2    H3 4649   3.398   1.419  13.586  0.6304 -0.1188  2.4192
  305MPD2     N 4650   3.679   1.113  13.374  0.2294  0.4879  0.4287
  305MPD2    H5 4651   3.626   1.124  13.288  0.2884  3.7009  0.8046
  305MPD2    N1 4652   3.731   1.262  13.838 -0.0352 -0.5663  0.2394
  305MPD2    H7 4653   3.703   1.335  13.903  1.4113  0.5476 -0.3836
  306TMC3    C1 4654   3.843   1.144  14.015 -0.2802  0.1903 -0.2412
  306TMC3    C2 4655   3.899   1.023  14.052  0.4669  0.2104 -0.0985
  306TMC3    C3 4656   3.883   0.990  14.185  0.2875  0.2924 -0.5638
  306TMC3    C4 4657   3.793   1.232  14.106  0.2222 -0.4569 -0.3032
  306TMC3    C5 4658   3.799   1.200  14.241  0.2590  0.4832 -0.1432
  306TMC3    C6 4659   3.835   1.077  14.279  0.4694 -0.2222  0.5715
  306TMC3     C 4660   3.805   1.152  13.874  0.6520  0.4209 -0.2476
  306TMC3     O 4661   3.829   1.046  13.814 -0.1218 -0.0340 -0.5126
  306TMC3     H 4662   3.944   0.953  13.982  0.0691 -0.7367  0.5987
  306TMC3    H1 4663   3.765   1.331  14.070  1.9534  0.4906  1.0148
  306TMC3    H2 4664   3.839   1.047  14.383  0.4322  2.6400  1.3824
  306TMC3    C7 4665   3.721   1.279  14.332  0.3249  0.3752  0.0210
  306TMC3    C8 4666   3.882   0.847  14.211 -0.1328  0.9279  0.4860
  306TMC3    O1 4667   3.622   1.332  14.282  0.5621  0.1365  0.1164
  306TMC3    O2 4668   3.890   0.772  14.115 -0.1157  0.2356 -0.1768
  307MPD2     C 4669   1.663   4.503   0.131  0.3705  0.3344  0.2496
  307MPD2    C1 4670   1.683   4.617   0.199  0.5761 -0.5736 -0.4757
  307MPD2    C2 4671   1.674   4.619   0.340  0.5147  0.4585 -0.1047
  307MPD2    C3 4672   1.641   4.504   0.406  0.0492  0.4451  0.2849
  307MPD2    C4 4673   1.632   4.387   0.330 -0.5973  0.5679 -0.0070
  307MPD2    C5 4674   1.636   4.393   0.202 -0.3860  0.6785 -0.2567
  307MPD2     H 4675   1.695   4.715   0.387 -1.7693  0.9277 -0.0263
  307MPD2    H1 4676   1.626   4.294   0.386 -1.3741  1.2772  1.0798
  307MPD2    H2 4677   1.657   4.498   0.023  3.4842 -1.0572  0.1496
  307MPD2    H3 4678   1.621   4.298   0.151  0.9084 -0.0600  0.7297
  307MPD2     N 4679   1.608   4.509   0.545  0.0153 -0.8793  0.1232
  307MPD2    H5 4680   1.620   4.597   0.593 -1.0089 -1.1291  0.8514
  307MPD2    N1 4681   1.705   0.010   0.135 -0.0859 -0.8921  0.3418
  307MPD2    H7 4682   1.715   0.088   0.199 -0.9734 -0.2742 -0.2738
  308TMC3    C1 4683   1.539   4.348   0.976 -0.0661  0.0232  0.4312
  308TMC3    C2 4684   1.591   4.469   1.026 -0.3340 -0.3221  0.3996
  308TMC3    C3 4685   1.606   4.571   0.942  0.2342  0.7309 -0.2521
  308TMC3    C4 4686   1.515   4.333   0.845 -0.2254  0.1533  0.4496
  308TMC3    C5 4687   1.540   4.438   0.759  0.9868 -0.0437 -0.2720
  308TMC3    C6 4688   1.584   4.560   0.807  0.0651  0.1495 -0.0759
  308TMC3     C 4689   1.437   4.302   1.063  0.0937  0.1566  0.5474
  308TMC3     O 4690   1.462   4.264   1.176  0.1958 -0.3018 -1.0136
  308TMC3     H 4691   1.613   4.481   1.132 -3.2427 -0.0386  0.9795
  308TMC3    H1 4692   1.492   4.232   0.812  2.8856 -0.2278 -0.6250
  308TMC3    H2 4693   1.600   4.648   0.746  0.0906  1.7097  2.1930
  308TMC3    C7 4694   1.569   4.396   0.621 -0.2466  0.6885 -0.2091
  308TMC3    C8 4695   1.573   4.696   1.000  0.2799 -0.9716  0.0765
  308TMC3    O1 4696   1.530   4.283   0.592 -0.3816 -0.2836  0.1768
  308TMC3    O2 4697   1.646   4.734   1.096  0.1244 -0.0482 -0.0076
  309MPD2     C 4698   0.709   0.024  17.367 -0.4592  0.0207 -0.8500
  309MPD2    C1 4699   0.624   4.688  17.281 -0.1570  0.5336  0.1230
  309MPD2    C2 4700   0.491   4.677  17.311 -0.4012 -0.5171 -0.1896
  309MPD2    C3 4701   0.453   4.733  17.436 -0.1183  0.1177  0.7015
  309MPD2    C4 4702   0.536   0.059  17.521 -0.4760 -0.2317  0.5579
  309MPD2    C5 4703   0.666   0.077  17.484  0.1570 -0.0000  0.4888
  309MPD2     H 4704   0.415   4.626  17.252 -0.3953 -0.0032 -0.6412
  309MPD2    H1 4705   0.509   0.100  17.617  0.7507 -0.6338  1.0754
  309MPD2    H2 4706   0.814   0.034  17.341 -0.6974  2.1817 -0.9212
  309MPD2    H3 4707   0.737   0.133  17.544  1.3445  1.1131 -1.9851
  309MPD2     N 4708   0.325   4.731  17.483  0.0819  0.4376  0.2080
  309MPD2    H5 4709   0.296   0.036  17.571 -2.1447  0.8703 -0.7141
  309MPD2    N1 4710   0.675   4.627  17.166 -0.2118 -0.0444 -0.3612
  309MPD2    H7 4711   0.611   4.561  17.122  1.4064 -0.7710 -1.6329
  310TMC3    C1 4712   0.829   4.553  17.000 -0.1255 -0.4175 -0.1952
  310TMC3    C2 4713   0.860   4.603  16.874  1.2743 -0.3192 -0.4904
  310TMC3    C3 4714   0.896   4.512  16.782 -0.1613 -0.6516 -0.4853
  310TMC3    C4 4715   0.830   4.428  17.040 -0.0534 -0.1273 -0.0973
  310TMC3    C5 4716   0.876   4.337  16.944  0.1862 -0.3263  0.2446
  310TMC3    C6 4717   0.909   4.377  16.816 -0.1502  0.7838 -0.6922
  310TMC3     C 4718   0.789   4.657  17.095 -0.6155 -0.0653 -0.4151
  310TMC3     O 4719   0.846   0.028  17.086 -0.1167  0.3654 -0.6416
  310TMC3     H 4720   0.840   4.706  16.847  0.2984 -0.6694 -1.0939
  310TMC3    H1 4721   0.818   4.395  17.142 -1.0577  1.2169  0.2202
  310TMC3    H2 4722   0.932   4.302  16.741 -1.8468  1.2063 -1.6322
  310TMC3    C7 4723   0.932   4.209  16.986 -0.5137  0.7264 -0.1615
  310TMC3    C8 4724   0.916   4.548  16.642 -0.2768  0.2435  0.1749
  310TMC3    O1 4725   0.944   4.199  17.109 -0.4354  0.0967 -0.6284
  310TMC3    O2 4726   0.842   4.636  16.600  0.1731 -0.8496  0.1132
  311MPD2     C 4727   3.121   0.597  12.938  0.5555 -0.4012 -0.7544
  311MPD2    C1 4728   3.033   0.687  12.892  0.7043 -0.1501  0.5065
  311MPD2    C2 4729   2.900   0.675  12.923 -0.3270 -0.9744  0.2445
  311MPD2    C3 4730   2.846   0.571  12.999  0.8121 -0.4731 -0.1030
  311MPD2    C4 4731   2.937   0.475  13.044  0.2759  0.3897 -0.1724
  311MPD2    C5 4732   3.070   0.489  13.003 -0.1988 -0.1774  0.3406
  311MPD2     H 4733   2.829   0.748  12.885 -0.5834 -0.9757  0.7224
  311MPD2    H1 4734   2.913   0.392  13.109  0.6317  0.9846  0.7327
  311MPD2    H2 4735   3.228   0.616  12.930  0.2485  1.7453  0.4518
  311MPD2    H3 4736   3.152   0.432  13.044  0.0439  1.3512  2.0166
  311MPD2     N 4737   2.702   0.566  13.017  0.3584  0.2065 -0.4324
  311MPD2    H5 4738   2.642   0.642  12.985  1.4896  1.3609  0.1630
  311MPD2    N1 4739   3.069   0.802  12.824  0.2614  0.1142  0.5830
  311MPD2    H7 4740   2.999   0.875  12.813  0.2960  0.6939  4.4394
  312TMC3    C1 4741   2.499   0.497  13.100 -0.4215 -0.4027 -0.5533
  312TMC3    C2 4742   2.413   0.395  13.095  0.5057  0.0974  0.5144
  312TMC3    C3 4743   2.275   0.427  13.087  0.1753 -0.4944 -0.0826
  312TMC3    C4 4744   2.461   0.625  13.125 -0.5755 -0.0889  0.3516
  312TMC3    C5 4745   2.328   0.651  13.131 -0.9859  0.1989 -0.5496
  312TMC3    C6 4746   2.233   0.556  13.107 -0.1670 -0.1975 -0.4942
  312TMC3     C 4747   2.639   0.456  13.065 -0.1819 -0.7951 -0.1344
  312TMC3     O 4748   2.674   0.337  13.056 -0.3957  0.2807  0.3474
  312TMC3     H 4749   2.438   0.292  13.070  0.4165  0.4690 -1.0777
  312TMC3    H1 4750   2.531   0.703  13.153 -0.3223 -0.1478 -0.1279
  312TMC3    H2 4751   2.126   0.573  13.113 -0.1625 -1.1238  2.2903
  312TMC3    C7 4752   2.277   0.781  13.176 -0.1193  0.3469  0.3445
  312TMC3    C8 4753   2.199   0.346  13.000 -0.4483  0.2340 -0.1506
  312TMC3    O1 4754   2.173   0.820  13.121  0.4143  0.2956 -0.1488
  312TMC3    O2 4755   2.162   0.230  13.029 -0.2509 -0.7252 -0.1241
  313MPD2     C 4756   1.828   3.908  10.414  0.2313 -0.5388  0.2688
  313MPD2    C1 4757   1.724   3.967  10.484 -0.4619  0.0066 -0.2371
  313MPD2    C2 4758   1.602   3.910  10.472 -0.2471 -0.0887 -1.2553
  313MPD2    C3 4759   1.590   3.782  10.415 -0.3697 -0.3189  0.3864
  313MPD2    C4 4760   1.694   3.725  10.344 -0.4655  0.0342 -0.1737
  313MPD2    C5 4761   1.809   3.798  10.330 -0.1564 -0.2561  0.2842
  313MPD2     H 4762   1.524   3.951  10.536  2.0813  1.9450  0.2660
  313MPD2    H1 4763   1.680   3.635  10.285  2.1696  0.6333 -1.7538
  313MPD2    H2 4764   1.929   3.947  10.426 -0.2954  1.1092 -0.6822
  313MPD2    H3 4765   1.881   3.758  10.260  1.0818 -1.1496  2.0654
  313MPD2     N 4766   1.468   3.713  10.428 -0.0492 -0.3540 -0.0472
  313MPD2    H5 4767   1.390   3.775  10.450  0.6481  0.7470 -0.7041
  313MPD2    N1 4768   1.737   4.083  10.569 -0.3716 -0.6342  0.4707
  313MPD2    H7 4769   1.661   4.113  10.629 -0.2343  1.9225 -0.6458
  314TMC3    C1 4770   1.829   4.255  10.686 -0.2386 -0.3339  0.3781
  314TMC3    C2 4771   1.938   4.295  10.765 -0.9800  0.5178 -0.0481
  314TMC3    C3 4772   1.935   4.413  10.825  0.5940 -0.1747  0.5178
  314TMC3    C4 4773   1.723   4.338  10.665  0.5537 -0.7790 -0.7170
  314TMC3    C5 4774   1.722   4.461  10.727 -0.1260 -0.1524  0.4299
  314TMC3    C6 4775   1.815   4.484  10.825 -0.1516  0.1037 -0.3442
  314TMC3     C 4776   1.852   4.144  10.598 -0.3052  0.0799  0.5530
  314TMC3     O 4777   1.967   4.093  10.593  0.4038 -0.1203 -0.2595
  314TMC3     H 4778   2.017   4.223  10.783 -1.0890  0.2459 -0.6855
  314TMC3    H1 4779   1.652   4.318  10.585 -0.1572  0.2581 -0.3468
  314TMC3    H2 4780   1.820   4.589  10.850  0.8398 -0.5162  2.0732
  314TMC3    C7 4781   1.675   4.575  10.650 -0.9985 -0.0833  0.2258
  314TMC3    C8 4782   2.044   4.468  10.911  0.5489  0.2265  0.4427
  314TMC3    O1 4783   1.761   4.662  10.631  0.3087 -0.1351  0.2443
  314TMC3    O2 4784   2.016   4.544  11.007 -0.1965 -0.4291 -0.3292
  315MPD2     C 4785   1.648   3.850  17.693 -1.2163  0.4630  0.1056
  315MPD2    C1 4786   1.780   3.837  17.721  0.1019 -0.3045 -0.6983
  315MPD2    C2 4787   1.860   3.946  17.729  0.6949  0.3120  0.5421
  315MPD2    C3 4788   1.806   4.072  17.699 -0.5964  0.3107 -0.5564
  315MPD2    C4 4789   1.672   4.086  17.692 -0.2196 -0.0458 -0.6012
  315MPD2    C5 4790   1.598   3.976  17.687  0.3252  0.1287 -0.0905
  315MPD2     H 4791   1.960   3.937   0.026  1.6206 -1.0119 -2.1796
  315MPD2    H1 4792   1.620   4.179  17.670  1.5338  0.2413 -3.5922
  315MPD2    H2 4793   1.584   3.764  17.676 -0.3026 -0.8422  3.2053
  315MPD2    H3 4794   1.493   4.001  17.674 -0.6394 -2.5507  2.4139
  315MPD2     N 4795   1.898   4.171  17.687  0.2032  0.1905  0.0601
  315MPD2    H5 4796   1.991   4.132  17.695 -0.2687 -1.2096 -1.2706
  315MPD2    N1 4797   1.831   3.713   0.002 -0.9838 -0.2406  0.4654
  315MPD2    H7 4798   1.929   3.711   0.025 -0.9222  1.3183  0.3603
  316TMC3    C1 4799   1.999   4.388  17.650  0.0324 -0.0430  0.0765
  316TMC3    C2 4800   2.106   4.358  17.733 -0.1795  0.1698 -0.3370
  316TMC3    C3 4801   2.199   4.455   0.021 -0.5032  0.2092  0.1822
  316TMC3    C4 4802   1.989   4.504  17.578  0.2680  0.7386  0.5688
  316TMC3    C5 4803   2.074   4.598  17.619  0.3409  0.1227  0.4538
  316TMC3    C6 4804   2.179   4.576  17.707 -0.4479 -0.0652 -0.2810
  316TMC3     C 4805   1.882   4.303  17.651 -0.4089 -0.5160  0.1439
  316TMC3     O 4806   1.779   4.356  17.615  0.0280 -0.1479 -0.0475
  316TMC3     H 4807   2.098   4.264   0.046 -0.4680  0.3661 -0.0396
  316TMC3    H1 4808   1.899   4.517  17.519 -0.5143  2.6825  2.1805
  316TMC3    H2 4809   2.247   4.659  17.725 -0.1255 -0.1517 -1.0954
  316TMC3    C7 4810   2.091   4.723  17.545 -0.4915 -0.2000  0.8429
  316TMC3    C8 4811   2.315   4.433   0.095  0.1575 -0.4455  0.5717
  316TMC3    O1 4812   2.150   0.077  17.608 -0.1073  0.1004  0.0207
  316TMC3    O2 4813   2.386   4.532   0.118  0.4448 -0.2978 -0.1920
  317MPD2     C 4814   4.125   2.543  13.019 -0.1345  0.2618 -0.8508
  317MPD2    C1 4815   4.134   2.441  12.927  0.4409 -0.6224 -0.0566
  317MPD2    C2 4816   4.234   2.346  12.950 -0.7609 -0.2226 -0.4810
  317MPD2    C3 4817   4.337   2.359  13.040  0.1510 -0.6518  0.7885
  317MPD2    C4 4818   4.326   2.464  13.125 -0.5213  0.9283 -0.0295
  317MPD2    C5 4819   4.226   2.556  13.111 -0.3196 -0.0475 -0.1384
  317MPD2     H 4820   4.233   2.256  12.889 -0.6937  0.1535 -1.0373
  317MPD2    H1 4821   4.405   2.481  13.198 -2.0444 -1.9943  2.3315
  317MPD2    H2 4822   4.051   2.623  13.014 -2.3197 -1.6825  0.1069
  317MPD2    H3 4823   4.226   2.642  13.178 -0.4549 -1.4864  1.7136
  317MPD2     N 4824   4.434   2.257  13.049 -0.8104 -0.6670 -0.7073
  317MPD2    H5 4825   4.429   2.184  12.979 -0.6286 -0.9559 -0.4234
  317MPD2    N1 4826   4.046   2.430  12.817  0.1700 -0.0867 -0.0355
  317MPD2    H7 4827   4.070   2.356  12.751  0.3940  0.8926 -1.0543
  318TMC3    C1 4828   4.653   2.155  13.109 -0.1889 -0.6591 -0.0678
  318TMC3    C2 4829   4.603   2.030  13.097  0.9034 -0.0457  0.3823
  318TMC3    C3 4830   4.673   1.938  13.168 -0.2253 -0.7815 -0.6502
  318TMC3    C4 4831   0.025   2.189  13.184 -0.5278  0.6362 -0.2564
  318TMC3    C5 4832   0.083   2.092  13.252  0.0403  0.4790 -0.1908
  318TMC3    C6 4833   0.042   1.963  13.252  0.5734 -0.4765  0.8300
  318TMC3     C 4834   4.558   2.268  13.119 -0.0244  0.8947 -0.1586
  318TMC3     O 4835   4.592   2.362  13.189  0.4157 -0.7247 -0.3950
  318TMC3     H 4836   4.534   1.999  13.019  2.4894 -1.2756 -0.5636
  318TMC3    H1 4837   0.065   2.289  13.177 -0.9441  0.6508 -2.5766
  318TMC3    H2 4838   0.080   1.881  13.312 -2.1410 -1.5751  1.0753
  318TMC3    C7 4839   0.205   2.124  13.323 -0.3580 -0.1854 -0.5097
  318TMC3    C8 4840   4.622   1.802  13.170 -0.3783 -1.3427 -0.2191
  318TMC3    O1 4841   0.232   2.242  13.325  0.3352 -0.5410 -0.3237
  318TMC3    O2 4842   4.693   1.704  13.193  0.4816  0.2157  0.5789
  319MPD2     C 4843   0.100   4.064  16.591  0.2871  0.3048 -0.3391
  319MPD2    C1 4844   0.076   3.943  16.650  0.2268  0.0067 -0.8685
  319MPD2    C2 4845   4.735   3.857  16.574 -0.0895  1.0868 -0.5705
  319MPD2    C3 4846   4.693   3.884  16.446 -0.3167 -0.2237  0.0238
  319MPD2    C4 4847   4.730   3.999  16.387 -0.4918  0.0054 -0.1057
  319MPD2    C5 4848   0.059   4.088  16.462 -0.1731 -0.0906 -0.1976
  319MPD2     H 4849   4.725   3.757  16.614 -1.5178  1.1693 -0.7152
  319MPD2    H1 4850   4.699   4.033  16.289  2.5154  0.8132 -0.7872
  319MPD2    H2 4851   0.154   4.143  16.641  0.5624  0.8872 -1.5583
  319MPD2    H3 4852   0.090   4.181  16.417  4.2129 -1.4389 -0.0098
  319MPD2     N 4853   4.607   3.796  16.375 -0.1713 -0.1270 -0.3650
  319MPD2    H5 4854   4.591   3.824  16.279  0.1214 -2.3931 -1.0831
  319MPD2    N1 4855   0.110   3.911  16.781  0.0625 -0.1209 -0.5516
  319MPD2    H7 4856   0.085   3.819  16.817  0.6846 -0.1868 -0.2959
  320TMC3    C1 4857   4.460   3.624  16.327 -0.7091 -0.3571 -0.3510
  320TMC3    C2 4858   4.390   3.722  16.255 -0.4184  0.2742  0.1624
  320TMC3    C3 4859   4.272   3.676  16.193 -0.2372  0.6172 -0.0742
  320TMC3    C4 4860   4.418   3.495  16.334  0.4104  0.8633  0.3315
  320TMC3    C5 4861   4.306   3.457  16.259 -0.8999 -0.0355 -0.0027
  320TMC3    C6 4862   4.233   3.547  16.190 -0.3753  0.7344 -0.2885
  320TMC3     C 4863   4.562   3.676  16.423  0.4021  0.2735 -0.2116
  320TMC3     O 4864   4.593   3.606  16.520 -0.3315  0.3343 -0.0399
  320TMC3     H 4865   4.425   3.823  16.241  0.8538 -0.1315  0.4912
  320TMC3    H1 4866   4.468   3.426  16.400  2.2706 -1.1133 -3.1355
  320TMC3    H2 4867   4.155   3.504  16.129  0.7693 -1.4588 -0.1850
  320TMC3    C7 4868   4.255   3.323  16.261  0.1386 -0.6597 -0.5558
  320TMC3    C8 4869   4.192   3.773  16.116  1.3279  0.1051 -0.0832
  320TMC3    O1 4870   4.179   3.296  16.171 -0.1327 -0.0820 -0.1355
  320TMC3    O2 4871   4.252   3.879  16.086 -0.0970  0.3291 -0.0471
  321TMC3    C1 4872   0.210   3.927  17.004 -0.0180 -0.2217  0.1438
  321TMC3    C2 4873   0.164   3.800  17.027  0.1826  0.4188  0.3115
  321TMC3    C3 4874   0.134   3.773  17.159  0.5013  0.5995 -0.3018
  321TMC3    C4 4875   0.231   4.021  17.096 -0.2806  0.2372 -0.1309
  321TMC3    C5 4876   0.194   3.997  17.226 -0.9518  0.4180  0.0632
  321TMC3    C6 4877   0.136   3.870  17.253 -0.3130 -0.5421  0.1713
  321TMC3     C 4878   0.188   3.987  16.869 -0.0946  0.3101 -0.0328
  321TMC3     O 4879   0.232   4.099  16.848 -0.7361  0.6654 -0.3807
  321TMC3     H 4880   0.140   3.724  16.954  1.4251  0.2029  0.1340
  321TMC3    H1 4881   0.285   4.111  17.071  0.3442 -0.2945 -0.6714
  321TMC3    H2 4882   0.093   3.852  17.351 -1.5175  0.8743 -0.0804
  321TMC3    C7 4883   0.291   4.024  17.332  0.6987  0.4253  0.7579
  321TMC3    C8 4884   0.198   3.655  17.220  0.3390 -0.1311 -0.1686
  321TMC3    O1 4885   0.290   3.935  17.416  0.1469  0.1983  0.7077
  321TMC3    O2 4886   0.191   3.554  17.148 -0.4081 -0.0281 -0.5638
  322MPD2     C 4887   3.629   0.027  13.123  0.9099 -0.2663 -0.0056
  322MPD2    C1 4888   3.640   4.713  13.252  0.2627 -0.2612  0.1196
  322MPD2    C2 4889   3.601   4.582  13.268 -0.2404  0.6116  0.4016
  322MPD2    C3 4890   3.576   4.488  13.167 -0.3173 -0.6295  0.3301
  322MPD2    C4 4891   3.570   4.542  13.046 -0.3542  0.2019 -0.4813
  322MPD2    C5 4892   3.601   4.673  13.021  0.3601 -0.2132 -0.0514
  322MPD2     H 4893   3.618   4.540  13.366 -1.8575 -0.6616  0.1300
  322MPD2    H1 4894   3.530   4.483  12.964  1.5657  0.4577 -1.5974
  322MPD2    H2 4895   3.633   0.132  13.097 -0.6341 -0.1826  0.1134
  322MPD2    H3 4896   3.569   4.709  12.924 -3.0835  2.8356  2.2640
  322MPD2     N 4897   3.568   4.350  13.189 -0.7723  0.2518  0.3228
  322MPD2    H5 4898   3.576   4.319  13.285  0.1332 -0.5726 -0.0143
  322MPD2    N1 4899   3.674   0.057  13.365 -0.7571 -0.4749  0.4073
  322MPD2    H7 4900   3.644   0.033  13.458 -2.2372  1.9636  0.5551
  323TMC3    C1 4901   3.805   0.224  13.479 -0.8743  0.3539 -0.4696
  323TMC3    C2 4902   3.903   0.323  13.471  0.6154 -0.2870 -0.7929
  323TMC3    C3 4903   3.954   0.378  13.587  0.4518  0.2070 -0.8798
  323TMC3    C4 4904   3.742   0.198  13.596  0.4427  0.2856  1.3305
  323TMC3    C5 4905   3.797   0.245  13.711  0.2278  1.1979 -0.7283
  323TMC3    C6 4906   3.899   0.331  13.708 -0.3170 -0.3723 -0.0944
  323TMC3     C 4907   3.761   0.158  13.359 -0.8307  0.5813 -0.9308
  323TMC3     O 4908   3.817   0.195  13.257 -0.3159 -0.1853  0.0985
  323TMC3     H 4909   3.948   0.339  13.374  0.7338 -0.9679 -0.8476
  323TMC3    H1 4910   3.673   0.116  13.612 -0.5363  0.4992 -1.8233
  323TMC3    H2 4911   3.932   0.376  13.801  1.7812 -2.2259  0.0742
  323TMC3    C7 4912   3.786   0.149  13.817 -0.0530  0.2389  0.1898
  323TMC3    C8 4913   4.087   0.436  13.583  1.3492  0.2942  0.0971
  323TMC3    O1 4914   3.784   0.030  13.783 -0.2808 -0.2914 -0.0462
  323TMC3    O2 4915   4.153   0.418  13.687  0.3692 -0.3732  0.1003
  324MPD2     C 4916   1.007   1.847  14.216  0.0607  0.0261  0.3061
  324MPD2    C1 4917   0.956   1.927  14.314  0.3415 -1.1322 -0.0684
  324MPD2    C2 4918   0.829   1.980  14.289  0.1253  0.0505 -0.3932
  324MPD2    C3 4919   0.754   1.935  14.184  0.5087 -0.0556  0.0361
  324MPD2    C4 4920   0.806   1.850  14.087  0.2334 -0.1463  0.1241
  324MPD2    C5 4921   0.933   1.809  14.110 -0.0852 -0.2362  0.3978
  324MPD2     H 4922   0.799   2.062  14.352  0.8517  2.1645 -2.7862
  324MPD2    H1 4923   0.752   1.808  14.003  0.3210  1.0927 -0.5404
  324MPD2    H2 4924   1.109   1.813  14.225 -0.8619 -2.5272  1.0213
  324MPD2    H3 4925   0.982   1.753  14.031  1.2309 -2.5757  2.8695
  324MPD2     N 4926   0.611   1.967  14.166  0.0494  0.1598  0.0436
  324MPD2    H5 4927   0.569   1.933  14.081  0.1952  1.5188 -0.5642
  324MPD2    N1 4928   1.034   1.973  14.426  0.1946  0.1725  0.5160
  324MPD2    H7 4929   0.994   2.039  14.492  0.0118 -0.3576  0.9241
  325TMC3    C1 4930   0.399   2.032  14.207  0.1242  0.2470 -0.6212
  325TMC3    C2 4931   0.347   1.929  14.128 -0.1268 -0.3580 -0.0580
  325TMC3    C3 4932   0.204   1.922  14.128  0.8363  0.1212 -0.0495
  325TMC3    C4 4933   0.312   2.114  14.286 -0.4267  0.5458 -0.7440
  325TMC3    C5 4934   0.176   2.096  14.281  0.5384 -0.0262 -0.1200
  325TMC3    C6 4935   0.119   2.004  14.192 -0.2248 -0.0464 -0.0657
  325TMC3     C 4936   0.530   2.024  14.255 -0.5324 -0.9717  0.3215
  325TMC3     O 4937   0.554   2.067  14.367  0.3260 -0.5369 -0.2729
  325TMC3     H 4938   0.407   1.858  14.072  0.3381 -0.0914  0.1008
  325TMC3    H1 4939   0.356   2.178  14.361  0.6572  0.1689 -1.0588
  325TMC3    H2 4940   0.014   1.983  14.204  0.3590 -1.9149  1.7713
  325TMC3    C7 4941   0.095   2.190  14.353  0.1560  0.2350  0.1613
  325TMC3    C8 4942   0.141   1.837  14.037 -0.5912  0.4652  0.3261
  325TMC3    O1 4943   0.134   2.266  14.443 -0.3022  0.0914 -0.1171
  325TMC3    O2 4944   0.197   1.729  14.017 -0.2162  0.0013 -0.7364
  326MPD2     C 4945   1.341   2.454  11.387  0.1400  0.9232 -0.7206
  326MPD2    C1 4946   1.460   2.411  11.333  0.4417 -0.5034 -0.7920
  326MPD2    C2 4947   1.580   2.464  11.375 -1.1398  0.4041  0.7044
  326MPD2    C3 4948   1.581   2.566  11.469  0.8461  0.3413 -0.2603
  326MPD2    C4 4949   1.463   2.606  11.522  0.4424  0.5845 -0.0220
  326MPD2    C5 4950   1.341   2.547  11.488 -0.4158 -0.4251 -0.5551
  326MPD2     H 4951   1.670   2.431  11.324 -0.5138  0.1383  1.9873
  326MPD2    H1 4952   1.464   2.669  11.610  2.5977 -0.4779  0.7110
  326MPD2    H2 4953   1.244   2.414  11.358 -0.5604  1.8337  0.3865
  326MPD2    H3 4954   1.249   2.580  11.534  0.4135  1.1103  0.0279
  326MPD2     N 4955   1.700   2.628  11.506 -0.2063 -0.1949  0.0694
  326MPD2    H5 4956   1.693   2.712  11.564 -0.1460  1.0387 -1.6965
  326MPD2    N1 4957   1.468   2.323  11.222  0.3254  0.1789  0.2172
  326MPD2    H7 4958   1.555   2.291  11.180  1.7275  3.2888  0.6926
  327TMC3    C1 4959   1.430   2.247  11.016  0.1104 -0.5541 -0.3423
  327TMC3    C2 4960   1.322   2.271  10.931 -0.0842  0.0083 -0.0571
  327TMC3    C3 4961   1.328   2.368  10.836 -0.0178 -0.1809  0.4864
  327TMC3    C4 4962   1.549   2.312  10.994  0.4113 -0.5056  0.5523
  327TMC3    C5 4963   1.556   2.409  10.896 -0.0725 -0.0906 -0.2451
  327TMC3    C6 4964   1.445   2.441  10.814  1.3338 -0.8568 -0.1882
  327TMC3     C 4965   1.372   2.269  11.151 -0.1448  0.0518 -1.0245
  327TMC3     O 4966   1.250   2.279  11.162 -0.1850 -0.2439 -0.6674
  327TMC3     H 4967   1.234   2.208  10.927 -0.3060  0.4570 -2.5497
  327TMC3    H1 4968   1.636   2.271  11.046  0.3401 -1.1212  0.1851
  327TMC3    H2 4969   1.446   2.507  10.728  0.8494 -1.1571 -0.4234
  327TMC3    C7 4970   1.659   2.507  10.897 -0.2147 -0.6520  0.0198
  327TMC3    C8 4971   1.207   2.448  10.832  0.4062 -0.8378 -0.2879
  327TMC3    O1 4972   1.646   2.611  10.836  0.3349  0.1325 -0.5239
  327TMC3    O2 4973   1.212   2.534  10.745 -0.3646 -0.3038 -0.3553
  328MPD2     C 4974   4.593   2.768  17.293 -0.4372 -0.5368  0.4244
  328MPD2    C1 4975   4.454   2.764  17.296  0.3119 -0.0903 -0.3802
  328MPD2    C2 4976   4.386   2.826  17.194  0.8605 -0.0678  0.5029
  328MPD2    C3 4977   4.449   2.895  17.092 -0.1252  0.2037  0.5663
  328MPD2    C4 4978   4.586   2.920  17.105  0.1780 -1.2848  0.2809
  328MPD2    C5 4979   4.653   2.855  17.208 -0.3267  0.6121 -0.1319
  328MPD2     H 4980   4.280   2.808  17.180  0.5433  0.5482  2.1580
  328MPD2    H1 4981   4.647   2.952  17.020 -1.9633  0.8788 -0.4478
  328MPD2    H2 4982   4.653   2.718  17.368 -0.2438 -1.0204 -0.0588
  328MPD2    H3 4983   0.026   2.861  17.204 -0.4764  3.5877  0.2864
  328MPD2     N 4984   4.387   2.938  16.965 -0.4934 -0.5567  0.2428
  328MPD2    H5 4985   4.445   2.996  16.906 -1.0882  0.3064  0.5086
  328MPD2    N1 4986   4.390   2.697  17.405 -0.4604 -0.3778  0.6203
  328MPD2    H7 4987   4.449   2.645  17.468  1.9868  1.9810  0.2679
  329TMC3    C1 4988   4.222   2.644  17.559  0.3202 -0.5516 -0.5329
  329TMC3    C2 4989   4.119   2.694  17.626  0.4393  1.2790  0.1358
  329TMC3    C3 4990   4.102   2.657   0.018  0.2806 -0.4531 -0.0437
  329TMC3    C4 4991   4.304   2.550  17.611  0.4506 -0.4770  0.0999
  329TMC3    C5 4992   4.274   2.495  17.734  0.6520 -0.6244  0.5751
  329TMC3    C6 4993   4.174   2.557   0.067  0.4398 -0.2762  0.5269
  329TMC3     C 4994   4.252   2.696  17.433  0.0836  0.0300  0.5971
  329TMC3     O 4995   4.164   2.756  17.374  0.4088 -0.3364  0.3649
  329TMC3     H 4996   4.063   2.770  17.572 -1.0543  2.1205  2.8256
  329TMC3    H1 4997   4.379   2.502  17.548 -1.0126  1.2442 -2.9507
  329TMC3    H2 4998   4.144   2.510   0.160  1.6710 -1.4405  0.3416
  329TMC3    C7 4999   4.364   2.407   0.066  0.1164 -1.1463 -0.1711
  329TMC3    C8 5000   4.020   2.740   0.102  0.2459 -0.6260  0.2916
  329TMC3    O1 5001   4.342   2.395   0.182  0.3466  0.2727 -0.0855
  329TMC3    O2 5002   3.999   2.698   0.216  0.0185 -0.0644 -0.6685
  330TMC3    C1 5003   1.941   1.316   9.952  0.6455  0.0436 -0.1504
  330TMC3    C2 5004   1.848   1.220   9.979 -0.3920  0.1235  0.1981
  330TMC3    C3 5005   1.831   1.173  10.103 -0.0319 -0.7932 -0.6783
  330TMC3    C4 5006   2.043   1.337  10.037  0.4367 -0.1964 -0.7621
  330TMC3    C5 5007   2.037   1.264  10.154 -0.4150  0.8246 -0.6975
  330TMC3    C6 5008   1.927   1.191  10.198 -0.1152 -0.2982  0.5973
  330TMC3     C 5009   1.912   1.428   9.855 -0.4962  0.0872  0.1551
  330TMC3     O 5010   2.004   1.500   9.822 -0.1063 -0.6766  0.5075
  330TMC3     H 5011   1.777   1.192   9.903  0.9988  2.8945 -2.1369
  330TMC3    H1 5012   2.132   1.392  10.009 -0.0702  0.2939 -1.4245
  330TMC3    H2 5013   1.908   1.164  10.302 -0.4406 -1.2597  0.2879
  330TMC3    C7 5014   2.132   1.309  10.256  0.5037  0.4572  0.0089
  330TMC3    C8 5015   1.692   1.168  10.137  0.3112 -0.1794  0.0430
  330TMC3    O1 5016   2.178   1.418  10.238  0.3720  0.3677  0.9873
  330TMC3    O2 5017   1.626   1.236  10.056  0.0541 -0.0315  0.0147
  331MPD2     C 5018   0.906   1.059  12.640 -0.0990 -0.6742  0.1234
  331MPD2    C1 5019   0.810   1.018  12.556 -0.1937  0.1988 -0.5163
  331MPD2    C2 5020   0.728   0.904  12.587  0.7803  0.2708 -0.1711
  331MPD2    C3 5021   0.755   0.830  12.701  0.1036 -0.6485 -0.3386
  331MPD2    C4 5022   0.866   0.862  12.773 -0.4859 -0.2932  0.4564
  331MPD2    C5 5023   0.931   0.978  12.746 -0.0933  0.2361  0.2741
  331MPD2     H 5024   0.658   0.870  12.513 -0.7830  2.1669  0.4352
  331MPD2    H1 5025   0.904   0.805  12.857  0.1955 -1.6695 -0.8023
  331MPD2    H2 5026   0.964   1.145  12.610  0.6599 -1.1741  0.1529
  331MPD2    H3 5027   1.005   1.008  12.820  0.8799  1.9509 -1.4010
  331MPD2     N 5028   0.659   0.730  12.734 -0.1744  0.1431  0.1109
  331MPD2    H5 5029   0.581   0.710  12.672  1.0278 -2.7821 -0.4547
  331MPD2    N1 5030   0.794   1.093  12.438 -0.0926  0.7728 -0.6868
  331MPD2    H7 5031   0.857   1.172  12.433  0.3099  0.3681 -2.1793
  332TMC3    C1 5032   0.582   0.537  12.828 -0.4117 -0.1771 -0.1374
  332TMC3    C2 5033   0.460   0.569  12.771 -0.0040 -0.1521  0.5573
  332TMC3    C3 5034   0.375   0.470  12.728  0.1693 -0.5457  0.0077
  332TMC3    C4 5035   0.632   0.414  12.816  0.1474 -0.0277  0.3207
  332TMC3    C5 5036   0.543   0.316  12.773  0.3445  0.2946  0.3990
  332TMC3    C6 5037   0.416   0.337  12.733 -0.5159  0.6963  0.1236
  332TMC3     C 5038   0.686   0.633  12.826 -0.0479  0.1759  0.0573
  332TMC3     O 5039   0.779   0.607  12.905 -0.0775  0.4834 -0.3445
  332TMC3     H 5040   0.434   0.674  12.763 -2.1037 -0.7336 -0.2971
  332TMC3    H1 5041   0.721   0.379  12.866  0.8537 -2.0717 -2.3244
  332TMC3    H2 5042   0.356   0.262  12.684 -0.9847  1.2343 -0.1329
  332TMC3    C7 5043   0.574   0.170  12.783  0.0546  0.3471  0.0909
  332TMC3    C8 5044   0.267   0.517  12.641  0.3641  0.0356 -1.2796
  332TMC3    O1 5045   0.481   0.091  12.783 -0.3217  0.5617  0.3300
  332TMC3    O2 5046   0.255   0.633  12.606 -0.6469 -0.2352 -0.1828
  333MPD2     C 5047   0.025   0.521  10.941  0.4152  0.1437 -0.4355
  333MPD2    C1 5048   0.156   0.529  10.915  0.3956 -0.4756 -0.1452
  333MPD2    C2 5049   0.243   0.441  10.972  0.0254  0.0813 -0.9704
  333MPD2    C3 5050   0.215   0.348  11.071 -0.7255  0.5982 -0.5082
  333MPD2    C4 5051   0.080   0.350  11.107 -0.0687 -0.0335  0.1685
  333MPD2    C5 5052   4.723   0.426  11.040  0.0678  0.3222 -0.4307
  333MPD2     H 5053   0.348   0.450  10.947  0.0398  1.0641 -0.5505
  333MPD2    H1 5054   0.052   0.281  11.186 -1.3994  0.0683 -0.2110
  333MPD2    H2 5055   4.693   0.592  10.895  1.7291 -0.5520 -3.3834
  333MPD2    H3 5056   4.616   0.423  11.059  0.4575 -2.6728  1.2207
  333MPD2     N 5057   0.313   0.270  11.131 -0.0213 -0.3725  0.6092
  333MPD2    H5 5058   0.409   0.280  11.097  0.3742  0.0121  1.8472
  333MPD2    N1 5059   0.213   0.620  10.821 -0.0642  0.6492  0.3863
  333MPD2    H7 5060   0.311   0.602  10.798  0.3814  1.3342  1.7524
  334TMC3    C1 5061   0.237   0.762  10.637  0.2137 -0.3558 -0.5304
  334TMC3    C2 5062   0.353   0.698  10.635 -0.6327  0.2735  0.2455
  334TMC3    C3 5063   0.464   0.758  10.675  0.6165 -0.4550  0.2896
  334TMC3    C4 5064   0.241   0.903  10.661  0.0977  0.3478 -0.4721
  334TMC3    C5 5065   0.355   0.957  10.706  0.3171 -0.1803 -0.6815
  334TMC3    C6 5066   0.465   0.888  10.721  0.2897  0.2234 -0.1243
  334TMC3     C 5067   0.146   0.702  10.731  0.3277 -0.2240  1.0815
  334TMC3     O 5068   0.035   0.750  10.748 -0.0421 -0.0708  0.5811
  334TMC3     H 5069   0.353   0.595  10.601 -0.7568  0.4145 -0.1739
  334TMC3    H1 5070   0.151   0.963  10.660 -0.4687 -0.5071 -0.4263
  334TMC3    H2 5071   0.555   0.936  10.759  0.0445  1.6278 -1.3222
  334TMC3    C7 5072   0.363   1.095  10.754 -0.5566  0.3528 -0.7323
  334TMC3    C8 5073   0.554   0.657  10.720  0.6827  0.2690  0.1081
  334TMC3    O1 5074   0.473   1.136  10.766 -0.0728  0.2930 -0.2685
  334TMC3    O2 5075   0.515   0.544  10.739  0.1672  0.4735  0.4224
  335TMC3    C1 5076   0.333   2.821  17.321  0.4244  0.3758 -0.2819
  335TMC3    C2 5077   0.259   2.708  17.287  0.1116  0.4910  0.3321
  335TMC3    C3 5078   0.277   2.654  17.160 -0.0126 -0.4208  0.1632
  335TMC3    C4 5079   0.418   2.877  17.223 -0.3334  0.2407 -0.0059
  335TMC3    C5 5080   0.428   2.826  17.096  0.3800 -0.4066 -0.6189
  335TMC3    C6 5081   0.351   2.717  17.065 -0.0555 -0.2024  0.2087
  335TMC3     C 5082   0.333   2.871  17.463  0.3596 -0.5814  0.7767
  335TMC3     O 5083   0.259   2.815  17.541 -0.2303  0.0718  0.2688
  335TMC3     H 5084   0.188   2.663  17.356  1.4226 -0.9030  0.7554
  335TMC3    H1 5085   0.469   2.969  17.247 -0.5797  0.7245 -1.3899
  335TMC3    H2 5086   0.345   2.676  16.965  0.3852  0.3787 -0.0558
  335TMC3    C7 5087   0.531   2.857  17.000 -0.4901  0.0353 -0.1095
  335TMC3    C8 5088   0.163   2.578  17.110  0.0746  0.5338 -0.3310
  335TMC3    O1 5089   0.531   2.782  16.903  0.3603 -0.6117 -0.2047
  335TMC3    O2 5090   0.137   2.591  16.991 -1.1125  0.0637 -0.0079
  336MPD2     C 5091   4.620   0.542  16.349  0.1248 -0.1282  0.1329
  336MPD2    C1 5092   4.499   0.508  16.303  0.1808  0.4681 -0.6907
  336MPD2    C2 5093   4.482   0.372  16.267 -0.2847  0.7588 -1.1528
  336MPD2    C3 5094   4.588   0.283  16.269 -0.3389  0.2041 -0.3773
  336MPD2    C4 5095   4.710   0.323  16.317 -0.0932  0.0880  0.2579
  336MPD2    C5 5096   4.727   0.454  16.351  0.2772 -0.5005  0.4212
  336MPD2     H 5097   4.386   0.339  16.229  0.4685 -0.4142 -2.0184
  336MPD2    H1 5098   0.048   0.245  16.329 -1.1418 -0.8827  0.4002
  336MPD2    H2 5099   4.640   0.644  16.380  0.4277 -1.1528  3.2968
  336MPD2    H3 5100   0.087   0.478  16.395  0.9634  0.7279 -1.7380
  336MPD2     N 5101   4.574   0.149  16.234  0.6822 -0.7941  0.9110
  336MPD2    H5 5102   4.660   0.098  16.217 -0.7172 -2.1442 -2.0335
  336MPD2    N1 5103   4.397   0.600  16.306 -0.2302  0.0037 -0.1741
  336MPD2    H7 5104   4.406   0.686  16.358  0.8707 -0.1423 -0.1196
  337TMC3    C1 5105   4.190   0.695  16.268 -0.5819 -0.0358 -0.0734
  337TMC3    C2 5106   4.073   0.695  16.194  1.1930  0.3802 -0.1547
  337TMC3    C3 5107   3.971   0.775  16.236  0.2068 -0.6052  0.5146
  337TMC3    C4 5108   4.206   0.769  16.384  0.3958 -0.1369  0.0913
  337TMC3    C5 5109   4.107   0.859  16.411  0.2770  0.4432  0.7959
  337TMC3    C6 5110   3.988   0.863  16.337 -0.3183 -0.4897 -0.2064
  337TMC3     C 5111   4.284   0.589  16.234 -0.0075 -0.0615  0.3431
  337TMC3     O 5112   4.252   0.516  16.142 -0.0296  0.3273 -0.5584
  337TMC3     H 5113   4.064   0.640  16.101  0.5474 -1.3008  0.9085
  337TMC3    H1 5114   4.288   0.749  16.452  0.4420  2.7132  0.8449
  337TMC3    H2 5115   3.912   0.934  16.367  0.1727 -0.4505  0.9608
  337TMC3    C7 5116   4.127   0.956  16.519  0.1930 -0.0375 -0.7074
  337TMC3    C8 5117   3.834   0.758  16.185  0.0847  0.0241 -0.2690
  337TMC3    O1 5118   4.044   1.045  16.521  0.5690 -0.2498 -0.1708
  337TMC3    O2 5119   3.744   0.789  16.260 -0.8137  0.1823  0.3391
  338MPD2     C 5120   0.168   0.047   1.215 -0.4820 -0.1366  0.0231
  338MPD2    C1 5121   0.141   4.722   1.092  0.2907 -0.4856  1.0418
  338MPD2    C2 5122   0.012   4.700   1.057  0.1832  0.7449 -0.3380
  338MPD2    C3 5123   4.643   0.011   1.139  0.0172  0.1143 -0.1723
  338MPD2    C4 5124   4.670   0.077   1.257 -0.6558  0.2778  0.7499
  338MPD2    C5 5125   0.065   0.093   1.296  0.0322 -0.4119 -0.4609
  338MPD2     H 5126   4.732   4.633   0.974 -1.1380  1.4513 -0.6654
  338MPD2    H1 5127   4.594   0.113   1.325 -1.0276  2.2464 -0.7148
  338MPD2    H2 5128   0.270   0.064   1.248 -1.0162 -1.5772  2.4635
  338MPD2    H3 5129   0.086   0.151   1.385  1.2071 -1.4114 -0.0911
  338MPD2     N 5130   4.516   4.716   1.094 -0.2239  0.3011 -0.7513
  338MPD2    H5 5131   4.515   4.670   1.004  1.7010 -3.4317  1.1518
  338MPD2    N1 5132   0.242   4.671   1.003 -0.0577 -0.6456  0.2894
  338MPD2    H7 5133   0.211   4.621   0.920  2.0272 -3.0533  0.9573
  339TMC3    C1 5134   4.295   4.668   1.068 -0.5803 -0.0918 -0.0151
  339TMC3    C2 5135   4.191   4.594   1.113 -0.1214  0.8915  0.3922
  339TMC3    C3 5136   4.102   4.536   1.031 -0.5009 -0.4626  0.4115
  339TMC3    C4 5137   4.298   4.697   0.933  0.2967  0.3359  0.1477
  339TMC3    C5 5138   4.202   4.637   0.853  0.2489 -0.2916  0.1243
  339TMC3    C6 5139   4.103   4.554   0.893  0.1737  0.2414 -0.9804
  339TMC3     C 5140   4.394   4.721   1.155  0.0320  0.3345  0.1042
  339TMC3     O 5141   4.368   0.010   1.271 -0.1687 -0.3474 -0.4726
  339TMC3     H 5142   4.182   4.574   1.219  0.4826  0.9215  0.4464
  339TMC3    H1 5143   4.365   0.042   0.908  0.4536  0.8553  2.2375
  339TMC3    H2 5144   4.026   4.513   0.830  0.0560 -0.2276 -0.5310
  339TMC3    C7 5145   4.217   4.674   0.713 -0.1142 -0.5476 -0.7589
  339TMC3    C8 5146   4.024   4.425   1.091 -1.6066 -0.4638  0.1222
  339TMC3    O1 5147   4.303   0.019   0.685  0.4499  0.1879  0.6149
  339TMC3    O2 5148   3.983   4.445   1.205  0.0365 -0.0449 -0.1828
  340MPD2     C 5149   4.472   1.702   9.764  1.8673 -0.4221 -0.2174
  340MPD2    C1 5150   4.520   1.600   9.843  0.5585 -0.0063 -0.6786
  340MPD2    C2 5151   4.512   1.610   9.987  0.3870  0.5424  0.4203
  340MPD2    C3 5152   4.459   1.723  10.044  0.4400 -0.6370  0.3165
  340MPD2    C4 5153   4.399   1.818   9.965  0.3266  0.1156  0.4647
  340MPD2    C5 5154   4.404   1.797   9.826 -0.0115 -0.4612 -0.5795
  340MPD2     H 5155   4.553   1.532  10.050  0.7409 -0.1209 -0.6146
  340MPD2    H1 5156   4.357   1.908  10.009  1.4174  0.3170  1.1198
  340MPD2    H2 5157   4.472   1.696   9.656 -4.3377 -0.8332 -0.2016
  340MPD2    H3 5158   4.343   1.866   9.769 -0.6897 -1.8147 -1.4877
  340MPD2     N 5159   4.454   1.753  10.183  0.1384  0.2877  0.6013
  340MPD2    H5 5160   4.404   1.837  10.210 -1.4833 -0.4954  0.0355
  340MPD2    N1 5161   4.576   1.490   9.777 -0.1260 -0.0963  0.5518
  340MPD2    H7 5162   4.590   1.492   9.677 -0.0602  0.0673  0.5633
  341TMC3    C1 5163   4.654   1.262   9.755  0.1666  0.7646  0.4105
  341TMC3    C2 5164   4.602   1.137   9.774  0.3938 -0.3978 -0.7311
  341TMC3    C3 5165   4.625   1.042   9.680 -0.2269  0.1503  0.1265
  341TMC3    C4 5166   0.004   1.292   9.654  0.0655 -0.6285 -0.8534
  341TMC3    C5 5167   0.024   1.193   9.559 -0.0888  0.6144  0.5295
  341TMC3    C6 5168   4.701   1.073   9.572  0.0161 -0.9682  0.2671
  341TMC3     C 5169   4.591   1.362   9.836  0.4556 -0.2596 -0.0909
  341TMC3     O 5170   4.541   1.327   9.941  0.6965  0.0684  0.5027
  341TMC3     H 5171   4.537   1.120   9.859 -1.2545 -0.3965 -1.9934
  341TMC3    H1 5172   0.053   1.388   9.642  0.4441 -0.8638 -1.2535
  341TMC3    H2 5173   4.711   0.997   9.496 -0.0775 -1.5356  0.8277
  341TMC3    C7 5174   0.095   1.236   9.443  0.2209  0.1570  0.0223
  341TMC3    C8 5175   4.543   0.927   9.665  0.2838  0.0869 -0.1140
  341TMC3    O1 5176   0.155   1.343   9.450  0.7210  0.0322 -0.1350
  341TMC3    O2 5177   4.579   0.835   9.597 -0.0164  0.0244 -0.0762
  342MPD2     C 5178   2.675   0.493  17.715 -0.0697  0.3089 -0.1455
  342MPD2    C1 5179   2.762   0.537  17.610  0.5241  0.0440  0.0368
  342MPD2    C2 5180   2.799   0.668  17.617 -0.1502  0.5374  0.4805
  342MPD2    C3 5181   2.758   0.749  17.722 -0.0271 -0.6308 -0.6515
  342MPD2    C4 5182   2.665   0.703   0.074 -0.2361 -0.0805  0.3864
  342MPD2    C5 5183   2.621   0.574   0.073  0.0686  0.5351  1.0568
  342MPD2     H 5184   2.858   0.706  17.534  2.9782 -1.3063  1.8484
  342MPD2    H1 5185   2.629   0.774   0.149  0.3622  1.0029 -0.3599
  342MPD2    H2 5186   2.635   0.393  17.722  0.1821  0.0315 -2.6720
  342MPD2    H3 5187   2.554   0.541   0.151 -1.3650  1.4267  0.1992
  342MPD2     N 5188   2.799   0.882  17.733 -0.6129 -0.1231 -0.2189
  342MPD2    H5 5189   2.768   0.934   0.073 -1.4045  0.4929 -0.9202
  342MPD2    N1 5190   2.810   0.453  17.508 -0.4638 -0.5145 -0.2137
  342MPD2    H7 5191   2.882   0.489  17.446 -2.7199  1.3955 -1.7004
  343TMC3    C1 5192   2.854   0.245  17.395 -0.1803  0.5819 -0.3870
  343TMC3    C2 5193   2.897   0.319  17.288  0.3932 -0.2426 -0.2798
  343TMC3    C3 5194   2.904   0.264  17.163 -0.6377  0.3202  0.5002
  343TMC3    C4 5195   2.804   0.119  17.374 -0.0917  0.3225 -0.7668
  343TMC3    C5 5196   2.783   0.082  17.243 -0.1541 -0.4514  0.6062
  343TMC3    C6 5197   2.827   0.154  17.138  0.2953 -0.8511  0.5902
  343TMC3     C 5198   2.801   0.315  17.508 -0.2389 -0.2353  0.2348
  343TMC3     O 5199   2.745   0.240  17.588 -0.2738  0.6037 -0.0598
  343TMC3     H 5200   2.936   0.418  17.309 -1.3447  0.1495  1.0744
  343TMC3    H1 5201   2.760   0.059  17.453  1.2239  0.5422  0.1197
  343TMC3    H2 5202   2.801   0.124  17.037  0.9621  0.1581  0.1252
  343TMC3    C7 5203   2.748   4.684  17.209  0.1008  0.5440 -0.6378
  343TMC3    C8 5204   2.966   0.336  17.061  0.4038  0.0573  0.1954
  343TMC3    O1 5205   2.682   4.650  17.110 -0.5638 -0.6051  0.5149
  343TMC3    O2 5206   2.983   0.459  17.079 -0.1771  0.0943 -0.1354
  344MPD2     C 5207   3.658   4.644  10.977 -0.5672 -0.2507  0.3820
  344MPD2    C1 5208   3.644   4.543  10.885  0.1340  0.1254  0.9722
  344MPD2    C2 5209   3.691   4.565  10.753  0.0263  0.3892 -0.8127
  344MPD2    C3 5210   3.763   4.678  10.716  0.6532  0.5626 -0.1397
  344MPD2    C4 5211   3.792   0.029  10.819  0.1154 -0.4526 -0.4064
  344MPD2    C5 5212   3.732   0.016  10.940  0.7492 -0.2194 -0.1474
  344MPD2     H 5213   3.676   4.483  10.685 -0.8119 -1.3778  1.4853
  344MPD2    H1 5214   3.863   0.110  10.814 -0.1013 -0.1909  0.8797
  344MPD2    H2 5215   3.626   4.629  11.080  0.9623 -0.0780  0.8935
  344MPD2    H3 5216   3.761   0.079  11.023 -1.2980  1.1425 -0.4740
  344MPD2     N 5217   3.820   4.688  10.581 -0.1980 -0.5287 -0.6039
  344MPD2    H5 5218   3.889   0.026  10.574 -1.1981  0.4875  0.1930
  344MPD2    N1 5219   3.588   4.415  10.925 -0.3970 -0.4599 -0.1669
  344MPD2    H7 5220   3.579   4.351  10.847 -2.4190  0.4751 -0.6925
  345TMC3    C1 5221   3.868   4.625  10.364 -0.9247  0.3050  0.3045
  345TMC3    C2 5222   3.991   4.678  10.374  1.3573 -0.7502 -0.5251
  345TMC3    C3 5223   4.068   4.722  10.271  0.1272  0.1412  0.3534
  345TMC3    C4 5224   3.811   4.629  10.239 -0.1185  0.2060 -0.3398
  345TMC3    C5 5225   3.888   4.677  10.132  0.0716 -0.5224 -0.0612
  345TMC3    C6 5226   4.014   4.722  10.148  0.1176 -0.6416  0.1919
  345TMC3     C 5227   3.782   4.624  10.476 -0.3730 -0.7023  0.1228
  345TMC3     O 5228   3.694   4.544  10.466  0.0224 -0.0060  0.3334
  345TMC3     H 5229   4.034   4.669  10.473  0.1930 -0.0906  0.0341
  345TMC3    H1 5230   3.716   4.580  10.219  0.4980 -0.1302 -2.4497
  345TMC3    H2 5231   4.063   0.041  10.069  0.4800  0.5767  1.2725
  345TMC3    C7 5232   3.816   0.010  10.024  0.8903 -0.6384 -0.0980
  345TMC3    C8 5233   4.202   0.042  10.296 -0.5460 -0.5220 -0.3947
  345TMC3    O1 5234   3.881   0.087   9.954  0.4824 -0.4430 -0.3636
  345TMC3    O2 5235   4.231   0.055  10.413  0.5849 -0.1742 -0.7356
  346MPD2     C 5236   4.078   1.472  13.491  0.1902 -0.2225  0.5729
  346MPD2    C1 5237   4.176   1.565  13.521 -0.0645 -0.1089 -0.6704
  346MPD2    C2 5238   4.143   1.682  13.581  0.7952 -0.7316  0.1233
  346MPD2    C3 5239   4.013   1.718  13.616 -0.6944 -0.6077  0.1196
  346MPD2    C4 5240   3.917   1.613  13.595  0.1370 -0.1134  0.3017
  346MPD2    C5 5241   3.943   1.497  13.534  0.1770  0.4439  0.5788
  346MPD2     H 5242   4.226   1.740  13.618 -1.4967  1.3540  2.0091
  346MPD2    H1 5243   3.817   1.646  13.621  0.5064  1.4734 -0.3010
  346MPD2    H2 5244   4.097   1.377  13.441 -2.6247 -1.8122  2.4953
  346MPD2    H3 5245   3.871   1.416  13.527  1.2049 -0.3000 -1.1662
  346MPD2     N 5246   3.978   1.820  13.706 -0.0245 -0.3946  0.0740
  346MPD2    H5 5247   3.885   1.813  13.746  0.7172 -2.3163  1.4507
  346MPD2    N1 5248   4.313   1.551  13.494  0.7198  0.3102  0.1128
  346MPD2    H7 5249   4.368   1.637  13.498 -2.8480  2.6642 -1.3451
  347TMC3    C1 5250   4.014   2.029  13.816 -0.5404 -0.2298 -0.1018
  347TMC3    C2 5251   4.115   2.112  13.855 -0.0064  0.0268  0.0642
  347TMC3    C3 5252   4.113   2.149  13.988  0.0957  0.4270  0.2266
  347TMC3    C4 5253   3.904   2.012  13.892  0.2073 -0.4894 -0.2743
  347TMC3    C5 5254   3.896   2.070  14.017  0.2149 -0.2947  0.5798
  347TMC3    C6 5255   4.003   2.138  14.070  0.5982 -0.5934  0.0941
  347TMC3     C 5256   4.055   1.926  13.719 -0.2483  0.3969  1.1800
  347TMC3     O 5257   4.145   1.960  13.643  0.4960 -0.3776  0.1342
  347TMC3     H 5258   4.211   2.114  13.804  0.3656  0.4678  0.7670
  347TMC3    H1 5259   3.821   1.965  13.839  1.2149 -0.6659 -1.6987
  347TMC3    H2 5260   4.010   2.176  14.172  0.0477 -1.1894  0.3536
  347TMC3    C7 5261   3.771   2.063  14.097  0.5199 -0.2108  0.4497
  347TMC3    C8 5262   4.246   2.162  14.053 -0.1231  0.6637 -0.2236
  347TMC3    O1 5263   3.681   1.986  14.068  0.0804 -0.0488  0.2108
  347TMC3    O2 5264   4.337   2.099  13.999  0.1306 -0.1910 -0.3329
  348MPD2     C 5265   2.600   1.308  11.864 -0.1295 -1.0867  0.3639
  348MPD2    C1 5266   2.670   1.309  11.750  0.4173  0.0826 -0.5203
  348MPD2    C2 5267   2.614   1.371  11.639 -0.4026  0.1571  0.1969
  348MPD2    C3 5268   2.499   1.436  11.647  0.5470  0.1032  0.5286
  348MPD2    C4 5269   2.428   1.435  11.771 -0.4009 -0.0949  0.0005
  348MPD2    C5 5270   2.489   1.383  11.881 -0.1683  0.5253 -0.2096
  348MPD2     H 5271   2.658   1.350  11.543  0.0664 -0.7347  0.6154
  348MPD2    H1 5272   2.334   1.486  11.791 -0.7049 -1.1759  1.3126
  348MPD2    H2 5273   2.648   1.262  11.950  2.1614 -2.5413 -1.6996
  348MPD2    H3 5274   2.437   1.385  11.976 -1.0647  1.2082 -0.7137
  348MPD2     N 5275   2.442   1.486  11.530 -0.1167 -0.1366  0.2739
  348MPD2    H5 5276   2.510   1.491  11.454 -0.0647 -0.6885  0.2837
  348MPD2    N1 5277   2.794   1.241  11.759  0.2279  0.1549 -0.3059
  348MPD2    H7 5278   2.822   1.196  11.846  0.4822  0.4941 -0.2161
  349TMC3    C1 5279   2.941   1.105  11.657 -0.2620  0.5036 -0.2509
  349TMC3    C2 5280   2.969   1.046  11.783  0.1057  0.0528  0.5370
  349TMC3    C3 5281   2.906   0.934  11.817  0.5462 -0.1670  0.1006
  349TMC3    C4 5282   2.858   1.035  11.570 -0.3685 -0.1801 -0.8919
  349TMC3    C5 5283   2.799   0.920  11.604  0.5707 -0.4187  0.0108
  349TMC3    C6 5284   2.814   0.872  11.736  0.9421  0.1291  0.2064
  349TMC3     C 5285   2.884   1.229  11.662  0.2305 -0.7102  0.0655
  349TMC3     O 5286   2.882   1.294  11.562 -0.0996  0.2189 -0.4843
  349TMC3     H 5287   3.032   1.100  11.853 -1.0397 -0.2092  1.7677
  349TMC3    H1 5288   2.823   1.082  11.478 -0.5672  2.3109  0.4578
  349TMC3    H2 5289   2.769   0.777  11.761  0.3431  0.7122  1.3847
  349TMC3    C7 5290   2.684   0.872  11.535 -0.0590  0.4261 -0.1716
  349TMC3    C8 5291   2.952   0.865  11.935 -0.6069  0.4215  0.1916
  349TMC3    O1 5292   2.597   0.827  11.609 -0.0347  0.0573  0.0746
  349TMC3    O2 5293   2.870   0.787  11.984 -0.8440  0.4753 -0.4010
  350MPD2     C 5294   0.612   3.787   9.854 -0.3179 -0.0637 -0.8660
  350MPD2    C1 5295   0.602   3.654   9.887 -0.4844 -0.4110 -0.1331
  350MPD2    C2 5296   0.704   3.599   9.968  0.2935  0.1334  0.2263
  350MPD2    C3 5297   0.805   3.681  10.017  0.0784  0.3311  0.1988
  350MPD2    C4 5298   0.810   3.811   9.977 -0.8863  0.1336 -0.1832
  350MPD2    C5 5299   0.710   3.865   9.902 -0.9479 -0.0610  0.0649
  350MPD2     H 5300   0.688   3.495   9.993 -1.1825  0.4109  0.4626
  350MPD2    H1 5301   0.891   3.876  10.005 -0.7171 -0.3499  0.4548
  350MPD2    H2 5302   0.530   3.834   9.802 -0.5527 -1.0201 -1.3587
  350MPD2    H3 5303   0.723   3.967   9.866  1.3543 -0.4417 -0.2295
  350MPD2     N 5304   0.900   3.630  10.118 -0.0941  0.5256  0.2704
  350MPD2    H5 5305   0.884   3.538  10.158 -0.5979  1.0784  1.3334
  350MPD2    N1 5306   0.499   3.558   9.854  0.8491  0.3551 -0.2011
  350MPD2    H7 5307   0.512   3.462   9.882 -1.1724  1.0521  3.1422
  351TMC3    C1 5308   0.296   3.483   9.760 -0.4099 -0.0001 -0.4037
  351TMC3    C2 5309   0.357   3.360   9.749  0.8826  0.2452  0.5319
  351TMC3    C3 5310   0.293   3.266   9.677 -0.1884 -0.1112 -0.7619
  351TMC3    C4 5311   0.189   3.520   9.680  0.1910 -0.3495 -0.4332
  351TMC3    C5 5312   0.129   3.422   9.606 -0.2328  0.0311 -0.5134
  351TMC3    C6 5313   0.179   3.293   9.612  0.3532 -0.4078 -0.0592
  351TMC3     C 5314   0.386   3.594   9.794  0.0842 -0.8366  0.0983
  351TMC3     O 5315   0.346   3.711   9.775  0.2922  0.0764  0.2754
  351TMC3     H 5316   0.443   3.327   9.806 -0.0474  1.3732  2.5871
  351TMC3    H1 5317   0.148   3.620   9.674 -0.1114 -0.5836 -2.2324
  351TMC3    H2 5318   0.128   3.228   9.542  0.6625  0.1085 -0.7616
  351TMC3    C7 5319   4.722   3.439   9.592 -0.2941 -0.0271  0.0710
  351TMC3    C8 5320   0.363   3.150   9.629 -0.0185 -0.1527 -0.1234
  351TMC3    O1 5321   4.685   3.554   9.572 -0.2778 -0.1493 -0.4203
  351TMC3    O2 5322   0.486   3.162   9.626 -0.7588  0.2788  0.1183
  352MPD2     C 5323   0.708   1.877   1.310 -0.1742 -0.1460  0.1168
  352MPD2    C1 5324   0.582   1.828   1.292 -0.4309  0.3248  0.1587
  352MPD2    C2 5325   0.560   1.691   1.316 -0.1934 -0.3571  0.0214
  352MPD2    C3 5326   0.671   1.606   1.347  0.0844  0.5453  0.4765
  352MPD2    C4 5327   0.798   1.662   1.363  0.2394  0.2255  0.3012
  352MPD2    C5 5328   0.813   1.796   1.342 -0.2689 -0.5546  0.5991
  352MPD2     H 5329   0.460   1.650   1.313 -0.4976  0.3679  0.3538
  352MPD2    H1 5330   0.881   1.603   1.401  0.8810  0.4354 -0.7696
  352MPD2    H2 5331   0.730   1.981   1.287 -0.6221 -0.3845 -1.3886
  352MPD2    H3 5332   0.907   1.848   1.360 -1.2353  0.7751  1.7906
  352MPD2     N 5333   0.668   1.467   1.363 -0.1855 -0.3704 -0.2619
  352MPD2    H5 5334   0.755   1.418   1.380  0.6066  1.6070  1.3920
  352MPD2    N1 5335   0.483   1.923   1.260  0.3264 -0.2165  0.4281
  352MPD2    H7 5336   0.518   2.016   1.238  0.3555  0.3823  3.0121
  353TMC3    C1 5337   0.584   1.249   1.308  0.0870  0.5233  0.1063
  353TMC3    C2 5338   0.706   1.192   1.344 -0.0261 -0.5230 -0.2247
  353TMC3    C3 5339   0.743   1.073   1.304 -0.5740 -0.7910 -0.8441
  353TMC3    C4 5340   0.513   1.178   1.214 -0.8914 -0.3099 -0.9283
  353TMC3    C5 5341   0.552   1.059   1.171 -0.2430  0.3712  0.4110
  353TMC3    C6 5342   0.673   1.001   1.210  0.5169  0.1789 -0.2233
  353TMC3     C 5343   0.557   1.387   1.322 -0.0571 -0.2728 -0.4978
  353TMC3     O 5344   0.438   1.420   1.294  0.3451  0.0817  0.0144
  353TMC3     H 5345   0.758   1.240   1.427  0.1863 -0.5837 -0.3232
  353TMC3    H1 5346   0.411   1.209   1.191 -0.6809  1.6861  0.7697
  353TMC3    H2 5347   0.715   0.915   1.158  2.6862 -0.6942  2.9640
  353TMC3    C7 5348   0.479   0.987   1.069 -0.7895 -0.4303 -0.5665
  353TMC3    C8 5349   0.857   1.013   1.369  0.1685  0.0188  0.2737
  353TMC3    O1 5350   0.507   0.868   1.065  0.2334  0.3548 -0.4794
  353TMC3    O2 5351   0.916   1.081   1.453 -0.4559  0.4679  0.1815
  354TMC3    C1 5352   1.796   2.701  13.666  0.6329 -0.0073  0.3341
  354TMC3    C2 5353   1.826   2.817  13.594  0.5232  0.8064 -0.7289
  354TMC3    C3 5354   1.852   2.799  13.461 -0.5665  0.0401 -0.1864
  354TMC3    C4 5355   1.814   2.578  13.613 -0.2976  0.1122 -0.6663
  354TMC3    C5 5356   1.842   2.561  13.479 -0.2924 -0.4119 -0.5798
  354TMC3    C6 5357   1.859   2.675  13.401  0.2482  0.4319  0.6320
  354TMC3     C 5358   1.767   2.709  13.807  0.3128  0.1847  0.6282
  354TMC3     O 5359   1.787   2.610  13.876  0.2537  0.3879 -0.1399
  354TMC3     H 5360   1.809   2.918  13.632  1.4659  0.8452 -0.4265
  354TMC3    H1 5361   1.777   2.500  13.678 -0.9782  0.9143 -0.0903
  354TMC3    H2 5362   1.894   2.653  13.301 -3.9822  1.0925 -0.9999
  354TMC3    C7 5363   1.886   2.429  13.430  0.1298 -0.5153 -0.2846
  354TMC3    C8 5364   1.930   2.896  13.394  0.5417 -0.3440  0.2678
  354TMC3    O1 5365   1.865   2.330  13.499 -0.2119 -1.0442  0.7603
  354TMC3    O2 5366   1.904   2.912  13.278 -0.2913  0.2969  0.0169
  355MPD2     C 5367   1.661   3.373  11.647 -0.5940  0.8226  0.5246
  355MPD2    C1 5368   1.679   3.510  11.676  0.1711  0.4323 -0.0686
  355MPD2    C2 5369   1.773   3.552  11.765 -0.0289  0.4835 -0.0846
  355MPD2    C3 5370   1.837   3.453  11.839 -1.0458  0.2808 -0.0375
  355MPD2    C4 5371   1.809   3.320  11.828 -0.0182  0.3762 -0.8629
  355MPD2    C5 5372   1.721   3.280  11.729 -0.0992 -0.2015  0.5924
  355MPD2     H 5373   1.799   3.656  11.779  0.6540  0.4476 -1.0839
  355MPD2    H1 5374   1.862   3.244  11.883  1.7633  1.0045 -1.6939
  355MPD2    H2 5375   1.609   3.338  11.559  1.3249 -1.3733  0.2645
  355MPD2    H3 5376   1.703   3.175  11.712 -1.0549  0.1234 -0.4186
  355MPD2     N 5377   1.930   3.508  11.931 -0.2341 -0.6586  0.4610
  355MPD2    H5 5378   1.947   3.608  11.928  0.9503 -0.8771  0.1234
  355MPD2    N1 5379   1.617   3.600  11.585  0.1969  0.5165 -0.4852
  355MPD2    H7 5380   1.556   3.567  11.512 -1.7331  1.2973  0.7761
  356TMC3    C1 5381   2.128   3.509  12.066  0.2398  0.2290 -0.3210
  356TMC3    C2 5382   2.166   3.624  12.003  0.2636 -0.6430 -0.1505
  356TMC3    C3 5383   2.304   3.655  12.002  0.7243 -0.3812 -0.5998
  356TMC3    C4 5384   2.226   3.442  12.137 -0.5474  0.1640 -0.1770
  356TMC3    C5 5385   2.353   3.479  12.131  0.4449 -0.0971 -0.3745
  356TMC3    C6 5386   2.400   3.589  12.066  0.7395  0.6164  0.0494
  356TMC3     C 5387   2.018   3.431  12.018 -0.6011 -0.3561 -0.7119
  356TMC3     O 5388   2.010   3.311  12.044  0.2187 -0.5733 -0.2907
  356TMC3     H 5389   2.098   3.688  11.948 -0.2951 -0.2555  0.9905
  356TMC3    H1 5390   2.188   3.358  12.194 -2.0804  1.4793  0.7535
  356TMC3    H2 5391   2.506   3.595  12.044  0.3474  2.8249 -1.1812
  356TMC3    C7 5392   2.440   3.421  12.231 -0.6594  0.3339  0.4318
  356TMC3    C8 5393   2.347   3.729  11.883  0.3944 -0.2830  0.2265
  356TMC3    O1 5394   2.412   3.309  12.269 -0.3208  0.4936  0.2791
  356TMC3    O2 5395   2.265   3.745  11.793  0.0746 -0.2460 -0.2322
  357MPD2     C 5396   1.449   3.394   0.580  0.4990 -0.5589 -0.8907
  357MPD2    C1 5397   1.493   3.281   0.645 -1.1004  0.8837  0.2657
  357MPD2    C2 5398   1.398   3.205   0.713  0.0064  0.7096 -0.3651
  357MPD2    C3 5399   1.265   3.245   0.726 -0.1874  0.0649  0.5258
  357MPD2    C4 5400   1.218   3.354   0.661 -0.1381  0.1694  0.2366
  357MPD2    C5 5401   1.316   3.424   0.591 -0.0237 -0.8025  0.7810
  357MPD2     H 5402   1.427   3.114   0.765  0.8490  1.6638  0.8547
  357MPD2    H1 5403   1.113   3.384   0.659 -0.4736 -1.0511 -0.7317
  357MPD2    H2 5404   1.516   3.463   0.530 -0.1868  0.4885 -0.3731
  357MPD2    H3 5405   1.291   3.516   0.540  1.4517 -0.8880 -0.0841
  357MPD2     N 5406   1.171   3.178   0.803 -0.2732  0.2744 -0.4404
  357MPD2    H5 5407   1.072   3.196   0.791 -0.1831  1.0220 -0.1002
  357MPD2    N1 5408   1.624   3.233   0.642  0.4167 -0.2204 -0.0004
  357MPD2    H7 5409   1.647   3.153   0.700  0.9067  1.1844  1.7360
  358TMC3    C1 5410   1.830   3.176   0.572  0.5124 -0.2268 -0.2434
  358TMC3    C2 5411   1.850   3.110   0.452 -0.1464 -0.0958 -0.2414
  358TMC3    C3 5412   1.892   2.984   0.471  0.7605  0.1886  0.2105
  358TMC3    C4 5413   1.843   3.114   0.692  1.0809  0.4198 -0.8534
  358TMC3    C5 5414   1.889   2.982   0.705  0.5476 -0.4933  0.6527
  358TMC3    C6 5415   1.907   2.915   0.589  0.2806  0.0754 -0.1578
  358TMC3     C 5416   1.721   3.272   0.558  0.0640 -0.3185 -0.5519
  358TMC3     O 5417   1.723   3.364   0.474  0.5853 -0.3590 -0.3703
  358TMC3     H 5418   1.816   3.151   0.358 -1.0407 -1.0080 -0.3111
  358TMC3    H1 5419   1.833   3.170   0.785  0.7866  2.6254 -2.2141
  358TMC3    H2 5420   1.962   2.822   0.595  1.0576  0.6782  1.9310
  358TMC3    C7 5421   1.928   2.920   0.826  0.2611  0.1323 -0.2750
  358TMC3    C8 5422   1.847   2.901   0.362 -0.1602 -0.0866  0.1938
  358TMC3    O1 5423   1.934   2.797   0.825  0.0807 -0.2197 -0.0001
  358TMC3    O2 5424   1.832   2.933   0.246  0.3619 -0.0013  0.4003
  359MPD2     C 5425   2.022   1.023  12.210  0.7400 -0.1295 -0.3595
  359MPD2    C1 5426   2.009   1.106  12.100  0.4719 -0.6063  0.1111
  359MPD2    C2 5427   1.921   1.073  12.000 -0.0082  0.8113 -0.6225
  359MPD2    C3 5428   1.848   0.953  12.015 -0.1288 -0.5176 -0.4288
  359MPD2    C4 5429   1.858   0.883  12.127 -0.0438 -0.3173  0.2452
  359MPD2    C5 5430   1.951   0.907  12.221  0.7747  0.2659  0.6795
  359MPD2     H 5431   1.906   1.135  11.912 -0.6208  1.6834  0.0911
  359MPD2    H1 5432   1.784   0.805  12.138 -0.5032  0.2155  0.9168
  359MPD2    H2 5433   2.087   1.045  12.294 -0.7540  0.3526  0.6636
  359MPD2    H3 5434   1.968   0.836  12.301 -0.0387 -0.4019  0.2577
  359MPD2     N 5435   1.752   0.905  11.920 -0.3202  0.2095  0.7409
  359MPD2    H5 5436   1.699   0.822  11.947 -0.1124  0.6165  2.3889
  359MPD2    N1 5437   2.076   1.228  12.087 -0.4065 -0.6189 -0.1860
  359MPD2    H7 5438   2.059   1.282  12.003 -1.4796  0.0539  0.4677
  360TMC3    C1 5439   2.186   1.426  12.164 -0.0021  0.5682 -0.2595
  360TMC3    C2 5440   2.278   1.476  12.254 -0.2056 -0.4355  0.3925
  360TMC3    C3 5441   2.325   1.610  12.243  0.8328  0.9404  0.9660
  360TMC3    C4 5442   2.132   1.505  12.066 -0.2574 -0.6606 -0.0573
  360TMC3    C5 5443   2.182   1.638  12.061 -0.1419 -0.5371 -0.1449
  360TMC3    C6 5444   2.274   1.690  12.144  0.1702  0.6902  0.3245
  360TMC3     C 5445   2.150   1.285  12.187  0.1389  0.5923 -0.7607
  360TMC3     O 5446   2.201   1.240  12.289 -0.0943 -0.0584  0.1234
  360TMC3     H 5447   2.343   1.404  12.301 -1.1880 -1.5733  0.0152
  360TMC3    H1 5448   2.044   1.466  12.017 -0.4344 -0.1902 -0.1137
  360TMC3    H2 5449   2.317   1.789  12.133  3.1166 -0.2753  3.2176
  360TMC3    C7 5450   2.141   1.727  11.953  0.6277  0.0340 -0.4450
  360TMC3    C8 5451   2.476   1.624  12.256 -0.0873  0.3601 -1.3779
  360TMC3    O1 5452   2.205   1.831  11.938 -0.4660  0.8032 -0.5054
  360TMC3    O2 5453   2.528   1.573  12.352  0.5092 -0.0034  0.0586
  361MPD2     C 5454   4.095   1.628  17.521 -0.5441 -0.0859 -0.6846
  361MPD2    C1 5455   4.040   1.510  17.467 -0.5957  0.5281 -0.0899
  361MPD2    C2 5456   4.125   1.406  17.436 -0.2076 -0.3656 -0.1014
  361MPD2    C3 5457   4.260   1.414  17.458 -0.1994  0.0633  0.7528
  361MPD2    C4 5458   4.308   1.523  17.525 -0.2449 -0.3342  0.4069
  361MPD2    C5 5459   4.229   1.627  17.545 -0.8257 -0.0495  0.1472
  361MPD2     H 5460   4.087   1.318  17.385 -1.8421  0.3714 -0.1777
  361MPD2    H1 5461   4.410   1.527  17.559  0.0139  1.3701 -0.6091
  361MPD2    H2 5462   4.031   1.709  17.552  1.8072  1.1766  0.8634
  361MPD2    H3 5463   4.274   1.712  17.596 -0.8445  0.3310 -0.4741
  361MPD2     N 5464   4.354   1.310  17.441 -0.0157 -0.0015 -0.7898
  361MPD2    H5 5465   4.445   1.321  17.485 -1.2660 -2.0842  2.3685
  361MPD2    N1 5466   3.901   1.514  17.455 -0.2416 -0.4909 -0.2528
  361MPD2    H7 5467   3.860   1.596  17.498 -1.3767  0.4986 -3.2671
  362TMC3    C1 5468   3.696   1.477  17.346  0.1802  0.4428  0.3084
  362TMC3    C2 5469   3.628   1.516  17.466  0.1871 -0.7282 -0.6396
  362TMC3    C3 5470   3.529   1.613  17.449 -0.1208 -0.1639  0.3709
  362TMC3    C4 5471   3.658   1.520  17.221 -0.0414  0.3814  0.6577
  362TMC3    C5 5472   3.547   1.599  17.208  0.6257  0.0942 -0.1983
  362TMC3    C6 5473   3.487   1.653  17.321  0.0886 -0.0641  0.0037
  362TMC3     C 5474   3.837   1.443  17.360 -0.5547  0.8159  0.1592
  362TMC3     O 5475   3.861   1.353  17.277 -0.2357  0.1468  0.0451
  362TMC3     H 5476   3.677   1.486  17.558  1.7390  0.8302 -0.9429
  362TMC3    H1 5477   3.709   1.493  17.129 -0.9447  0.2190  0.2011
  362TMC3    H2 5478   3.401   1.718  17.313  0.7971  0.9930  0.9289
  362TMC3    C7 5479   3.514   1.651  17.073  0.6664  0.1917 -0.0960
  362TMC3    C8 5480   3.468   1.658  17.570 -0.0382 -0.0022 -0.0277
  362TMC3    O1 5481   3.450   1.756  17.070  0.1791  0.3327 -0.4123
  362TMC3    O2 5482   3.431   1.774  17.579  0.4200  0.7215  0.5324
  363TMC3    C1 5483   1.934   3.081   9.543 -0.5536 -0.1662 -0.7390
  363TMC3    C2 5484   2.033   3.097   9.634  0.1410  0.0723  0.4635
  363TMC3    C3 5485   2.003   3.167   9.750 -0.0913 -0.7895 -0.7247
  363TMC3    C4 5486   1.817   3.148   9.558  0.4340 -0.5035  0.3403
  363TMC3    C5 5487   1.799   3.222   9.673 -0.8993  0.1476 -0.7072
  363TMC3    C6 5488   1.880   3.219   9.782 -0.3401  0.0136 -0.7221
  363TMC3     C 5489   1.956   3.000   9.427  0.0414  0.1391  0.4550
  363TMC3     O 5490   2.069   2.960   9.411  0.1206  0.1651 -0.3890
  363TMC3     H 5491   2.137   3.079   9.610  0.1705 -0.3989  0.9515
  363TMC3    H1 5492   1.750   3.161   9.473  0.8138 -1.8091 -0.1599
  363TMC3    H2 5493   1.865   3.278   9.872  2.0897 -0.5259  0.0238
  363TMC3    C7 5494   1.671   3.283   9.688 -0.2529  0.4913  0.5987
  363TMC3    C8 5495   2.090   3.145   9.854  0.0492 -0.1095 -0.3275
  363TMC3    O1 5496   1.594   3.283   9.594 -0.1640  0.1011  0.0007
  363TMC3    O2 5497   2.087   3.216   9.953 -0.1651 -0.0042  0.5606
  364MPD2     C 5498   0.807   2.633  11.103 -0.3600  0.4663 -0.3746
  364MPD2    C1 5499   0.836   2.658  10.968 -0.5150  0.0534 -0.5193
  364MPD2    C2 5500   0.947   2.588  10.917  0.6288 -0.1544 -0.1335
  364MPD2    C3 5501   1.019   2.503  10.991  0.4530 -0.2952  0.0721
  364MPD2    C4 5502   0.986   2.482  11.123 -0.8611 -0.4110 -0.5073
  364MPD2    C5 5503   0.882   2.545  11.182 -0.4824 -0.3893  0.1588
  364MPD2     H 5504   0.982   2.597  10.815  1.2850  0.2555  0.1279
  364MPD2    H1 5505   1.045   2.420  11.190 -2.7373 -1.0489  0.5802
  364MPD2    H2 5506   0.717   2.676  11.145  0.9031  3.1913 -0.4674
  364MPD2    H3 5507   0.856   2.520  11.284 -0.5675  2.2928  0.7839
  364MPD2     N 5508   1.131   2.428  10.945  0.8025  0.6563  0.1378
  364MPD2    H5 5509   1.166   2.369  11.020  1.0770  0.0407 -0.4740
  364MPD2    N1 5510   0.757   2.752  10.896  0.2815 -0.3885 -0.7074
  364MPD2    H7 5511   0.676   2.790  10.944  0.0682 -0.5640 -0.9329
  365TMC3    C1 5512   0.675   2.887  10.720  0.9381  0.1153  0.2725
  365TMC3    C2 5513   0.700   2.940  10.599  0.1447 -0.3336 -0.0537
  365TMC3    C3 5514   0.658   3.069  10.573 -0.5271  0.4629  0.0261
  365TMC3    C4 5515   0.603   2.957  10.817 -0.6755 -0.0162  1.0705
  365TMC3    C5 5516   0.553   3.081  10.787 -0.5697  0.2489  0.4353
  365TMC3    C6 5517   0.590   3.143  10.666 -0.1151 -0.1085  0.0223
  365TMC3     C 5518   0.759   2.775  10.761 -0.0572  0.2465 -0.3386
  365TMC3     O 5519   0.823   2.712  10.684  0.6947 -0.0592  0.1317
  365TMC3     H 5520   0.745   2.885  10.518 -0.2560 -1.7951  0.7220
  365TMC3    H1 5521   0.573   2.914  10.912  0.9247  1.3603  2.1869
  365TMC3    H2 5522   0.570   3.248  10.646  0.1182  0.0298  0.5131
  365TMC3    C7 5523   0.513   3.173  10.889 -0.7820  0.4478  0.3331
  365TMC3    C8 5524   0.696   3.128  10.445  0.4588  0.2228  0.8728
  365TMC3    O1 5525   0.487   3.285  10.850  0.3490 -0.8798 -0.2008
  365TMC3    O2 5526   0.630   3.211  10.384 -0.4096 -0.3189 -0.3147
  366MPD2     C 5527   3.924   4.692  15.232  0.3387  0.2945  0.4120
  366MPD2    C1 5528   4.046   4.655  15.286 -0.0215 -0.1157  0.4754
  366MPD2    C2 5529   4.062   4.515  15.313  0.0475  0.2122  0.1334
  366MPD2    C3 5530   3.958   4.422  15.290 -0.0106  0.3920 -0.2983
  366MPD2    C4 5531   3.840   4.462  15.238  0.2467  0.1214 -0.1862
  366MPD2    C5 5532   3.825   4.596  15.211  0.0285  0.1948  0.0745
  366MPD2     H 5533   4.151   4.473  15.358 -1.0577  0.4545  2.5568
  366MPD2    H1 5534   3.758   4.394  15.217 -0.7813  1.3139 -0.0009
  366MPD2    H2 5535   3.896   0.056  15.201  1.0718  1.1052  2.3257
  366MPD2    H3 5536   3.728   4.629  15.176 -1.0657 -1.9189  1.1500
  366MPD2     N 5537   3.994   4.286  15.328 -0.0622 -0.0940 -0.4986
  366MPD2    H5 5538   4.085   4.274  15.371 -0.4526  0.7143  0.5493
  366MPD2    N1 5539   4.147   0.017  15.302 -0.1616 -0.5548  0.2329
  366MPD2    H7 5540   4.119   0.112  15.279 -0.5149 -0.8404 -0.5269
  367TMC3    C1 5541   4.356   0.105  15.355 -0.1986 -0.3073 -0.3932
  367TMC3    C2 5542   4.435   0.134  15.461  0.0379  1.0657  0.0624
  367TMC3    C3 5543   4.489   0.262  15.464  0.8888  0.2776  0.0405
  367TMC3    C4 5544   4.337   0.196  15.245  0.4221  0.3721 -0.9788
  367TMC3    C5 5545   4.403   0.321  15.258 -0.0564 -0.9663 -0.8441
  367TMC3    C6 5546   4.466   0.358  15.369 -0.6289 -0.2943 -0.1778
  367TMC3     C 5547   4.272   4.729  15.361  0.1481 -0.3220 -0.0452
  367TMC3     O 5548   4.305   4.634  15.428 -0.5736  0.2389 -0.1688
  367TMC3     H 5549   4.440   0.069  15.547 -0.7521 -1.2535 -1.6427
  367TMC3    H1 5550   4.281   0.175  15.155 -2.2184 -0.7192  0.9093
  367TMC3    H2 5551   4.505   0.458  15.383 -1.2674 -0.0664  0.0006
  367TMC3    C7 5552   4.353   0.434  15.175  0.2267  0.3957  0.0204
  367TMC3    C8 5553   4.563   0.309  15.577  0.7057 -0.1976  0.9759
  367TMC3    O1 5554   4.339   0.546  15.230  0.7204 -0.1855  0.6569
  367TMC3    O2 5555   4.589   0.430  15.584  0.5658  0.3664  0.0828
  368MPD2     C 5556   0.996   0.681  13.279 -0.9787 -0.0345  0.0397
  368MPD2    C1 5557   0.978   0.773  13.181 -0.9892  0.3743 -0.3164
  368MPD2    C2 5558   1.075   0.804  13.089 -0.1941 -0.0232  0.0515
  368MPD2    C3 5559   1.201   0.745  13.102  0.2421 -0.0870  0.3007
  368MPD2    C4 5560   1.221   0.662  13.203 -0.4476  0.6424  0.5409
  368MPD2    C5 5561   1.122   0.627  13.296  0.0916 -0.6980  0.1168
  368MPD2     H 5562   1.050   0.871  13.007  1.0014  0.5478  0.1461
  368MPD2    H1 5563   1.319   0.615  13.209 -1.4463 -1.8531 -2.8952
  368MPD2    H2 5564   0.919   0.646  13.347 -2.4407  1.5837 -0.7778
  368MPD2    H3 5565   1.137   0.563  13.382  0.1458 -1.7166 -0.6497
  368MPD2     N 5566   1.316   0.777  13.025  0.1024  0.0831 -0.2495
  368MPD2    H5 5567   1.400   0.722  13.039 -0.0729 -0.1838 -0.2345
  368MPD2    N1 5568   0.857   0.843  13.166  0.7911  0.0289 -0.4892
  368MPD2    H7 5569   0.873   0.910  13.091  2.1085 -0.3074 -0.5189
  369TMC3    C1 5570   0.644   0.912  13.163  1.2622  0.2185 -0.3631
  369TMC3    C2 5571   0.701   1.014  13.098 -0.5927  0.3137  0.0036
  369TMC3    C3 5572   0.646   1.053  12.977  0.3287  0.2785 -0.1191
  369TMC3    C4 5573   0.519   0.857  13.130  0.1225  0.0903 -0.3403
  369TMC3    C5 5574   0.462   0.904  13.018 -0.0758  0.4793 -0.0368
  369TMC3    C6 5575   0.523   1.001  12.943 -0.4052  0.5250 -0.6394
  369TMC3     C 5576   0.739   0.827  13.234 -0.0142  0.2505  0.5266
  369TMC3     O 5577   0.705   0.728  13.296 -0.1963 -0.6319  0.1512
  369TMC3     H 5578   0.787   1.062  13.145 -0.0792  0.8044 -1.4283
  369TMC3    H1 5579   0.475   0.783  13.197  0.6056  1.4199  1.4469
  369TMC3    H2 5580   0.474   1.027  12.850 -1.0562 -0.0121 -0.4474
  369TMC3    C7 5581   0.316   0.921  13.013 -0.3882  0.0139 -0.1857
  369TMC3    C8 5582   0.704   1.170  12.914  0.1448  0.8044  0.0835
  369TMC3    O1 5583   0.263   0.942  12.907  0.2690  0.2670 -0.3538
  369TMC3    O2 5584   0.782   1.239  12.981  0.0383 -0.2309 -0.3186
  370TMC3    C1 5585   0.174   1.894  16.277 -0.4509 -0.4019  0.4022
  370TMC3    C2 5586   0.099   1.862  16.387 -0.2903  0.3623 -1.0680
  370TMC3    C3 5587   0.003   1.769  16.370  0.0755  0.7501 -0.0530
  370TMC3    C4 5588   0.169   1.819  16.162 -0.5025 -0.3988  0.0278
  370TMC3    C5 5589   0.090   1.709  16.164  0.2701 -0.5171 -0.7661
  370TMC3    C6 5590   0.005   1.680  16.265  0.5134  0.4251 -0.7813
  370TMC3     C 5591   0.290   1.982  16.308 -0.2240 -0.0215  0.3038
  370TMC3     O 5592   0.320   1.998  16.430  0.5462 -0.1204  0.4490
  370TMC3     H 5593   0.121   1.902  16.485 -3.0287 -0.2900 -0.1775
  370TMC3    H1 5594   0.237   1.831  16.078  0.1643  0.3145  0.6670
  370TMC3    H2 5595   4.688   1.586  16.274  0.5482  0.6309  1.5870
  370TMC3    C7 5596   0.109   1.609  16.055  0.4361 -0.6996  0.8516
  370TMC3    C8 5597   4.706   1.711  16.495  0.5073  0.3342 -0.4420
  370TMC3    O1 5598   0.189   1.631  15.961  0.2646 -0.0267  0.9795
  370TMC3    O2 5599   4.731   1.591  16.508  0.0402  0.2000 -0.1143
  371TMC3    C1 5600   1.333   4.733  15.568  0.5353 -0.2961  0.3238
  371TMC3    C2 5601   1.231   4.724  15.657  0.9512  0.1618  1.0994
  371TMC3    C3 5602   1.187   0.096  15.724  0.9997  0.4706  0.1002
  371TMC3    C4 5603   1.393   0.115  15.547  0.0816 -0.1632 -0.4806
  371TMC3    C5 5604   1.348   0.226  15.613  0.5778 -0.4767  0.6669
  371TMC3    C6 5605   1.249   0.218  15.706 -0.4440  0.2305 -1.1381
  371TMC3     C 5606   1.375   4.622  15.485 -0.0785  0.5495 -0.2990
  371TMC3     O 5607   1.414   4.649  15.373  0.3583  0.2311 -0.2144
  371TMC3     H 5608   1.169   4.635  15.648 -0.0510  0.8898  0.8347
  371TMC3    H1 5609   1.457   0.125  15.461  1.7215  0.2382  0.7895
  371TMC3    H2 5610   1.220   0.307  15.761  0.1959  0.7760 -1.6837
  371TMC3    C7 5611   1.402   0.361  15.587  0.1573 -0.2094  0.7688
  371TMC3    C8 5612   1.052   0.100  15.780 -0.0017  0.1980 -0.2119
  371TMC3    O1 5613   1.345   0.455  15.640 -0.0559  0.1107 -0.9052
  371TMC3    O2 5614   0.996   4.727  15.797 -0.9833  0.2069  0.2847
  372MPD2     C 5615   1.268   1.095  13.225  0.4272  0.1131  0.0069
  372MPD2    C1 5616   1.349   1.018  13.302  0.3760 -0.0469  0.0683
  372MPD2    C2 5617   1.297   0.950  13.411 -0.0591  0.1261 -0.2179
  372MPD2    C3 5618   1.160   0.964  13.435  0.4800  0.3966  0.2376
  372MPD2    C4 5619   1.080   1.048  13.361 -0.2594  0.4882  0.0572
  372MPD2    C5 5620   1.131   1.116  13.257  0.6268 -0.1109 -0.3195
  372MPD2     H 5621   1.362   0.896  13.479  0.8468 -0.1093 -1.2633
  372MPD2    H1 5622   0.973   1.059  13.373  0.1017  0.9825  2.7544
  372MPD2    H2 5623   1.301   1.140  13.132 -3.3500  1.5037 -0.6751
  372MPD2    H3 5624   1.069   1.164  13.183 -0.8125 -0.8810  0.4009
  372MPD2     N 5625   1.112   0.877  13.533  0.3425  0.1516  0.2073
  372MPD2    H5 5626   1.179   0.815  13.579  0.5468 -1.0183 -1.6571
  372MPD2    N1 5627   1.488   1.003  13.268  0.2245  0.2620 -0.6780
  372MPD2    H7 5628   1.534   0.939  13.332  0.1759  2.8994  2.0510
  373TMC3    C1 5629   0.953   0.758  13.663 -0.3350  0.3070 -0.0365
  373TMC3    C2 5630   0.830   0.737  13.711  0.5301 -0.0151  0.0871
  373TMC3    C3 5631   0.787   0.611  13.750  0.0699 -0.2275 -0.1472
  373TMC3    C4 5632   1.029   0.644  13.649 -0.2955 -0.5718 -0.0861
  373TMC3    C5 5633   0.987   0.520  13.680  0.1237  0.0438  0.4988
  373TMC3    C6 5634   0.859   0.498  13.725  0.6815  0.5460  0.2307
  373TMC3     C 5635   0.979   0.865  13.565 -0.1444 -0.0888  0.1997
  373TMC3     O 5636   0.879   0.926  13.530 -0.5727  0.3494  0.0816
  373TMC3     H 5637   0.766   0.824  13.728 -0.6577 -0.2022 -3.4447
  373TMC3    H1 5638   1.133   0.652  13.619 -0.2807  2.3803  0.7032
  373TMC3    H2 5639   0.805   0.406  13.745  2.6549 -0.4263  1.0857
  373TMC3    C7 5640   1.076   0.403  13.665  0.8494 -0.0839 -0.3691
  373TMC3    C8 5641   0.667   0.597  13.835 -0.8196  0.2833 -0.2880
  373TMC3    O1 5642   1.184   0.423  13.609 -0.5100  0.2600 -0.5366
  373TMC3    O2 5643   0.596   0.504  13.796  0.5515  0.5854 -0.4647
  374TMC3    C1 5644   0.740   1.519  10.089 -0.7110 -0.2897 -0.1819
  374TMC3    C2 5645   0.858   1.560  10.045  0.7648  0.1577 -0.3630
  374TMC3    C3 5646   0.857   1.671   9.956 -0.1215 -0.7773 -0.2815
  374TMC3    C4 5647   0.620   1.572  10.049  0.4603  0.5833  0.0055
  374TMC3    C5 5648   0.627   1.673   9.957  0.3399 -0.3131  0.0343
  374TMC3    C6 5649   0.742   1.731   9.910  0.3454  0.4054  0.3710
  374TMC3     C 5650   0.720   1.392  10.165 -0.2318  0.9654  0.2159
  374TMC3     O 5651   0.613   1.377  10.221  0.6214 -0.4391 -0.2460
  374TMC3     H 5652   0.946   1.503  10.073  1.3502  0.5063 -1.4790
  374TMC3    H1 5653   0.528   1.528  10.084  1.4538  1.1014  3.3013
  374TMC3    H2 5654   0.736   1.801   9.828 -1.8737 -0.5735 -0.2991
  374TMC3    C7 5655   0.510   1.712   9.890  0.5714 -0.1080  0.4347
  374TMC3    C8 5656   0.988   1.724   9.898  0.2272 -0.0200 -0.3455
  374TMC3    O1 5657   0.521   1.742   9.773 -0.0273 -0.1639 -0.0621
  374TMC3    O2 5658   0.990   1.809   9.810  0.2650 -0.3526 -0.4197
  375MPD2     C 5659   1.776   2.481  16.816 -0.2241  0.3836 -0.3584
  375MPD2    C1 5660   1.680   2.395  16.759  0.1810 -1.3093 -0.3294
  375MPD2    C2 5661   1.719   2.278  16.698  0.4244 -0.2961  0.3278
  375MPD2    C3 5662   1.851   2.235  16.697  0.7002 -0.2192  0.7802
  375MPD2    C4 5663   1.939   2.319  16.764 -0.0627  0.3169  0.2660
  375MPD2    C5 5664   1.909   2.440  16.812  0.5172  0.5411  0.2084
  375MPD2     H 5665   1.643   2.225  16.641 -0.3959 -0.6395  1.7407
  375MPD2    H1 5666   2.046   2.298  16.772  0.2164  1.7105  0.2250
  375MPD2    H2 5667   1.753   2.567  16.878  1.2457 -1.3948  2.6462
  375MPD2    H3 5668   1.982   2.496  16.870 -1.0378  0.5802  2.1338
  375MPD2     N 5669   1.897   2.115  16.640  0.1769 -0.8760 -0.3968
  375MPD2    H5 5670   1.996   2.104  16.622 -0.2860  1.4938 -4.2666
  375MPD2    N1 5671   1.548   2.424  16.744  0.0736  0.1488 -0.2367
  375MPD2    H7 5672   1.495   2.348  16.702 -0.5879  1.4026 -1.6573
  376TMC3    C1 5673   1.907   1.930  16.507 -0.5848  0.1295  1.3407
  376TMC3    C2 5674   2.042   1.917  16.540 -0.4183 -0.0915  0.2384
  376TMC3    C3 5675   2.129   1.855  16.447 -0.7288  0.5463  0.1473
  376TMC3    C4 5676   1.856   1.893  16.386 -0.8474  0.4439  0.5956
  376TMC3    C5 5677   1.945   1.834  16.298  0.2430 -0.0829 -0.3455
  376TMC3    C6 5678   2.081   1.809  16.330  0.1924 -0.3270 -0.4136
  376TMC3     C 5679   1.823   2.022  16.580 -0.1544 -0.2284  0.4451
  376TMC3     O 5680   1.709   2.014  16.555  0.3882  0.2271 -0.0684
  376TMC3     H 5681   2.082   1.938  16.638 -1.8357 -1.9868  1.2037
  376TMC3    H1 5682   1.754   1.921  16.361 -0.8625  0.0948  0.2651
  376TMC3    H2 5683   2.129   1.731  16.272  0.2156 -1.1804  0.7548
  376TMC3    C7 5684   1.910   1.825  16.160 -0.1921  0.3299  0.1932
  376TMC3    C8 5685   2.262   1.921  16.448 -0.0443  0.4360 -0.6103
  376TMC3    O1 5686   1.963   1.736  16.091 -0.2262  0.4358  0.7334
  376TMC3    O2 5687   2.313   1.940  16.338 -0.2005  0.6838  0.2208
  377MPD2     C 5688   0.315   1.665  12.394 -0.1525 -0.4342 -0.1239
  377MPD2    C1 5689   0.238   1.718  12.291  0.7236 -0.5808  0.2926
  377MPD2    C2 5690   0.105   1.693  12.286  0.6869 -0.0056 -0.1966
  377MPD2    C3 5691   0.044   1.620  12.388  0.4759 -0.1544 -0.1000
  377MPD2    C4 5692   0.120   1.562  12.490  0.1765 -0.6749  0.1885
  377MPD2    C5 5693   0.258   1.574  12.483 -0.3925 -0.1477  1.2346
  377MPD2     H 5694   0.047   1.719  12.198 -0.9720 -1.6030  0.4252
  377MPD2    H1 5695   0.075   1.493  12.560  0.1511 -0.9825 -0.1282
  377MPD2    H2 5696   0.421   1.687  12.399  0.0536 -1.4914  0.3055
  377MPD2    H3 5697   0.319   1.520  12.554  1.2269 -0.0008 -0.0492
  377MPD2     N 5698   4.644   1.591  12.390 -0.0090  0.1557 -0.1924
  377MPD2    H5 5699   4.625   1.522  12.462 -0.3679 -0.2157 -0.6452
  377MPD2    N1 5700   0.314   1.780  12.191  0.8857  0.4758 -0.2635
  377MPD2    H7 5701   0.415   1.791  12.201  0.7871  1.6981 -0.6048
  378TMC3    C1 5702   0.333   1.872  11.746 -0.0333 -0.3751  0.1118
  378TMC3    C2 5703   0.312   1.929  11.870 -0.4672 -1.2310 -0.1049
  378TMC3    C3 5704   0.364   1.862  11.974  0.4650 -0.0184  0.4402
  378TMC3    C4 5705   0.419   1.770  11.722  0.3304  0.4582 -0.1742
  378TMC3    C5 5706   0.488   1.724  11.835 -0.2600 -0.2513 -0.6521
  378TMC3    C6 5707   0.462   1.765  11.964 -0.0271  0.0306  0.0999
  378TMC3     C 5708   0.221   1.884  11.653 -0.5365  0.2136 -0.2765
  378TMC3     O 5709   0.128   1.963  11.675 -0.4698  0.0898 -0.5194
  378TMC3     H 5710   0.232   2.000  11.882  0.2102 -0.9681  2.9750
  378TMC3    H1 5711   0.457   1.736  11.627  0.6192  2.3961 -0.7603
  378TMC3    H2 5712   0.506   1.718  12.051 -0.2942 -3.2357 -1.5474
  378TMC3    C7 5713   0.613   1.649  11.819  0.2833  0.1842  0.1305
  378TMC3    C8 5714   0.266   1.830  12.074 -0.4081 -0.1052  0.0911
  378TMC3    O1 5715   0.683   1.658  11.920 -0.0902  0.1649 -0.0993
  378TMC3    O2 5716   0.149   1.858  12.044 -0.9208 -0.1455 -0.1950
  379MPD2     C 5717   1.044   4.436  16.168 -0.3063 -0.1965 -0.4056
  379MPD2    C1 5718   0.920   4.462  16.220  0.0264 -0.6932  0.3632
  379MPD2    C2 5719   0.911   4.481  16.362  0.4526 -0.0488 -0.2631
  379MPD2    C3 5720   1.026   4.459  16.438 -0.2187  0.1239  0.3590
  379MPD2    C4 5721   1.148   4.419  16.390 -0.2269  0.3734 -0.0350
  379MPD2    C5 5722   1.151   4.407  16.255  0.0554  0.8567 -0.5958
  379MPD2     H 5723   0.820   4.521  16.405  1.8267  0.8317  1.7906
  379MPD2    H1 5724   1.225   4.385  16.459  1.0659  1.4824 -0.9252
  379MPD2    H2 5725   1.058   4.452  16.062  2.8266  2.7185  0.4412
  379MPD2    H3 5726   1.240   4.381  16.201 -0.1051  0.2558 -0.5662
  379MPD2     N 5727   1.012   4.465  16.573 -0.5731 -0.1453 -0.4266
  379MPD2    H5 5728   1.081   4.420  16.632 -0.4398 -0.2485 -0.6625
  379MPD2    N1 5729   0.815   4.492  16.134  0.1283  0.2945 -0.5733
  379MPD2    H7 5730   0.838   4.482  16.035 -1.5188 -0.3515 -0.8878
  380TMC3    C1 5731   0.585   4.506  16.061 -0.3115 -0.6257 -0.5295
  380TMC3    C2 5732   0.581   4.425  15.951  0.1517 -0.2747 -0.0129
  380TMC3    C3 5733   0.473   4.432  15.866 -0.2014 -0.6905  0.3732
  380TMC3    C4 5734   0.482   4.588  16.088  0.1217 -0.4862 -0.3171
  380TMC3    C5 5735   0.371   4.589  16.010 -0.1405 -0.4117 -0.1168
  380TMC3    C6 5736   0.370   4.514  15.894  0.5169 -0.5113  0.4742
  380TMC3     C 5737   0.682   4.495  16.168 -0.1216 -0.4033 -0.1417
  380TMC3     O 5738   0.635   4.527  16.277  0.0384 -1.3511  0.4170
  380TMC3     H 5739   0.661   4.353  15.934  0.2698 -0.4374  1.2722
  380TMC3    H1 5740   0.488   4.657  16.171 -2.5783 -1.3188  0.5865
  380TMC3    H2 5741   0.282   4.521  15.832 -1.1854  2.3178  3.2098
  380TMC3    C7 5742   0.281   4.698  16.034  0.4248 -0.2714  0.6272
  380TMC3    C8 5743   0.497   4.429  15.725  0.0153 -0.0225  0.5856
  380TMC3    O1 5744   0.285   0.010  16.148 -0.1541 -0.1110 -0.4968
  380TMC3    O2 5745   0.397   4.448  15.659 -0.5376 -0.2355  0.4928
  381TMC3    C1 5746   4.623   1.061  16.387 -0.1412 -0.0164 -0.2077
  381TMC3    C2 5747   4.705   1.155  16.332  0.2785  0.3557  0.3199
  381TMC3    C3 5748   0.021   1.253  16.412  0.0432  0.4580 -0.2963
  381TMC3    C4 5749   4.580   1.067  16.513  0.8788  0.4564  0.5825
  381TMC3    C5 5750   4.637   1.162  16.596  0.1010  0.3673 -0.3669
  381TMC3    C6 5751   4.727   1.256  16.548  0.2480 -0.1935 -0.6356
  381TMC3     C 5752   4.591   0.945  16.299  0.7634 -0.6192  0.6247
  381TMC3     O 5753   4.475   0.899  16.319  0.2361  0.3810 -0.1095
  381TMC3     H 5754   0.001   1.160  16.228 -0.0975  1.0890  0.2393
  381TMC3    H1 5755   4.528   0.982  16.557  1.7542 -1.3520 -1.8573
  381TMC3    H2 5756   0.037   1.329  16.613  0.7244  0.3886 -1.6138
  381TMC3    C7 5757   4.672   1.110  16.733 -0.9761 -0.1302 -0.1603
  381TMC3    C8 5758   0.152   1.290  16.369  0.1797 -0.2099  0.0830
  381TMC3    O1 5759   4.688   0.991  16.747 -0.4173  0.1038  0.0546
  381TMC3    O2 5760   0.207   1.222  16.290 -0.0722 -0.7272 -0.3890
  382MPD2     C 5761   4.567   3.796  16.975 -0.2824 -0.8874  0.2745
  382MPD2    C1 5762   4.522   3.776  17.104  0.6686 -0.4915 -0.6124
  382MPD2    C2 5763   4.473   3.648  17.141  0.0674  0.0011  0.4115
  382MPD2    C3 5764   4.497   3.541  17.059 -0.2275 -0.5302  0.3113
  382MPD2    C4 5765   4.537   3.561  16.932  0.4042 -0.4587 -0.5095
  382MPD2    C5 5766   4.574   3.690  16.886 -0.4614  0.6307  0.2824
  382MPD2     H 5767   4.427   3.635  17.238  0.3566  3.2701  0.9870
  382MPD2    H1 5768   4.545   3.480  16.860  0.4088 -1.6156  0.8025
  382MPD2    H2 5769   4.606   3.892  16.944  0.7097 -0.9758  1.2455
  382MPD2    H3 5770   4.608   3.710  16.785 -1.7418 -1.4822 -0.5727
  382MPD2     N 5771   4.468   3.408  17.104 -0.3337 -0.2911  0.3341
  382MPD2    H5 5772   4.474   3.337  17.033 -0.5544 -1.2201  1.2462
  382MPD2    N1 5773   4.521   3.877  17.198 -0.0000 -0.5709  0.1636
  382MPD2    H7 5774   4.497   3.847  17.292  0.6907  0.4536  0.6727
  383TMC3    C1 5775   4.397   3.218  17.230 -0.3806 -0.7038  0.0709
  383TMC3    C2 5776   4.282   3.216  17.157 -0.7527 -0.2679 -0.0127
  383TMC3    C3 5777   4.169   3.151  17.205 -0.0763  0.7595  1.0503
  383TMC3    C4 5778   4.402   3.161  17.353 -0.0664 -0.3504 -0.0281
  383TMC3    C5 5779   4.289   3.093  17.399  0.5139 -0.3938 -0.2306
  383TMC3    C6 5780   4.179   3.088  17.325 -0.2510  0.4392  0.1196
  383TMC3     C 5781   4.454   3.356  17.233  0.3323  0.9410 -0.3708
  383TMC3     O 5782   4.503   3.395  17.339  0.2996 -1.2853  0.3208
  383TMC3     H 5783   4.284   3.263  17.059 -0.2357 -0.8162 -0.2628
  383TMC3    H1 5784   4.486   3.179  17.418 -0.9325 -0.6762  1.1742
  383TMC3    H2 5785   4.094   3.044  17.375 -0.4572  1.3571  0.5816
  383TMC3    C7 5786   4.286   3.038  17.537  0.5381 -0.2302 -0.0966
  383TMC3    C8 5787   4.047   3.188  17.146 -0.0089  0.0032  0.4486
  383TMC3    O1 5788   4.173   3.024  17.583 -0.0297  0.0898 -0.0731
  383TMC3    O2 5789   4.055   3.285  17.073  0.0260 -0.7530  0.1269
  384MPD2     C 5790   0.844   4.251  12.152  0.2365  0.1787  0.7558
  384MPD2    C1 5791   0.875   4.196  12.269 -0.1865  1.0832 -0.1570
  384MPD2    C2 5792   0.962   4.088  12.275 -0.0043 -0.7032 -0.3051
  384MPD2    C3 5793   1.029   4.051  12.163 -0.1775 -0.6215 -0.3027
  384MPD2    C4 5794   0.992   4.096  12.040  0.4506 -0.3134  0.4270
  384MPD2    C5 5795   0.893   4.190  12.035 -0.1685 -0.5695 -0.1147
  384MPD2     H 5796   0.985   4.044  12.371 -0.5844  1.0820  0.6497
  384MPD2    H1 5797   1.024   4.043  11.950  0.6658  0.8600 -0.1855
  384MPD2    H2 5798   0.780   4.338  12.147 -0.8143 -0.6510 -0.2010
  384MPD2    H3 5799   0.865   4.235  11.940 -0.8014  0.1474  0.4069
  384MPD2     N 5800   1.125   3.952  12.170  0.1853 -0.4282  0.2178
  384MPD2    H5 5801   1.173   3.925  12.085  2.1554  0.3200  1.0904
  384MPD2    N1 5802   0.822   4.249  12.393  0.2145  1.3494  0.6922
  384MPD2    H7 5803   0.855   4.193  12.471  0.1168  1.2829  0.6860
  385TMC3    C1 5804   1.279   3.795  12.261 -0.8292  0.2913  0.0783
  385TMC3    C2 5805   1.238   3.702  12.174 -0.6747 -0.5510  0.8083
  385TMC3    C3 5806   1.256   3.576  12.214 -0.5892  0.0256 -0.1903
  385TMC3    C4 5807   1.333   3.761  12.384  0.5756 -0.5546  0.7228
  385TMC3    C5 5808   1.327   3.634  12.432  0.0354  0.2636  0.1945
  385TMC3    C6 5809   1.301   3.536  12.340 -0.8145  0.7019 -0.1440
  385TMC3     C 5810   1.181   3.899  12.287  0.4964  0.2374  0.1322
  385TMC3     O 5811   1.165   3.931  12.401  0.1384 -0.4139 -0.0139
  385TMC3     H 5812   1.196   3.725  12.077 -0.9010 -0.4815  0.9249
  385TMC3    H1 5813   1.380   3.836  12.447  0.2932  1.1495 -1.1080
  385TMC3    H2 5814   1.296   3.431  12.367  1.4660  0.8619  0.9483
  385TMC3    C7 5815   1.269   3.613  12.566 -0.0068  0.2464 -0.2646
  385TMC3    C8 5816   1.228   3.466  12.123  0.6712  0.2900 -0.3399
  385TMC3    O1 5817   1.272   3.505  12.624  0.4650  0.2408  0.1244
  385TMC3    O2 5818   1.200   3.501  12.007 -0.0456 -0.4003  0.4295
  386TMC3    C1 5819   1.759   1.349  11.463  0.3481  0.2346  0.1448
  386TMC3    C2 5820   1.704   1.398  11.349 -1.0795 -0.0709 -0.0713
  386TMC3    C3 5821   1.574   1.448  11.351 -0.7244 -0.0577  0.6359
  386TMC3    C4 5822   1.695   1.356  11.583 -0.2829 -0.0982  0.3506
  386TMC3    C5 5823   1.574   1.411  11.587  0.5231 -0.5627 -0.5721
  386TMC3    C6 5824   1.508   1.451  11.472  0.1632 -0.6164 -0.0958
  386TMC3     C 5825   1.895   1.292  11.451  0.1830  0.1274 -0.4958
  386TMC3     O 5826   1.951   1.288  11.342 -0.0504 -0.3760  0.0346
  386TMC3     H 5827   1.751   1.384  11.252  1.5686 -0.1426  1.2122
  386TMC3    H1 5828   1.743   1.338  11.679 -0.9651  2.3452  1.1600
  386TMC3    H2 5829   1.407   1.486  11.484 -0.7403 -2.7553 -1.4753
  386TMC3    C7 5830   1.513   1.417  11.717  0.0707 -0.8132  0.2949
  386TMC3    C8 5831   1.505   1.489  11.226 -0.1347  0.4360 -0.2704
  386TMC3    O1 5832   1.581   1.452  11.814 -0.1236 -0.1219  0.5302
  386TMC3    O2 5833   1.569   1.457  11.124  0.2023  0.8918 -0.3243
  387MPD2     C 5834   3.126   1.342   9.761 -0.9484  0.1931  0.4693
  387MPD2    C1 5835   3.237   1.307   9.838  0.9115 -0.5881  0.3457
  387MPD2    C2 5836   3.301   1.180   9.826 -0.0328 -0.7852  0.0702
  387MPD2    C3 5837   3.254   1.090   9.737  1.0210  0.9374 -0.3902
  387MPD2    C4 5838   3.146   1.128   9.656  1.0282  0.2066 -0.2331
  387MPD2    C5 5839   3.083   1.250   9.672  0.1431 -0.5594 -0.5107
  387MPD2     H 5840   3.386   1.157   9.889  0.2452 -0.0831 -0.0529
  387MPD2    H1 5841   3.098   1.058   9.588 -1.1497  0.5216  0.9669
  387MPD2    H2 5842   3.092   1.445   9.765  1.1759  0.9126  0.3178
  387MPD2    H3 5843   3.003   1.277   9.604  1.6706  1.6264 -1.4383
  387MPD2     N 5844   3.326   0.966   9.720  0.4462 -0.9696 -1.0445
  387MPD2    H5 5845   3.391   0.943   9.794  0.3025 -0.4866 -0.7697
  387MPD2    N1 5846   3.300   1.397   9.929 -0.7362  0.1643 -0.6147
  387MPD2    H7 5847   3.375   1.348   9.977 -1.7652 -0.4633  0.3470
  388TMC3    C1 5848   3.387   1.575  10.035  0.0470  0.3683  0.3912
  388TMC3    C2 5849   3.425   1.701  10.013 -0.3820  0.2374  0.5945
  388TMC3    C3 5850   3.544   1.740  10.068 -0.4214  0.4721 -0.5247
  388TMC3    C4 5851   3.461   1.486  10.102 -0.2081  0.3922  0.5130
  388TMC3    C5 5852   3.594   1.520  10.131  0.1462 -0.1321  0.3322
  388TMC3    C6 5853   3.631   1.653  10.122 -0.0971  0.5784  0.0855
  388TMC3     C 5854   3.284   1.532   9.942 -0.7982 -0.4758  0.3938
  388TMC3     O 5855   3.227   1.616   9.873 -0.1912  0.1560 -0.2119
  388TMC3     H 5856   3.357   1.776   9.976  0.1311 -0.5253 -1.9272
  388TMC3    H1 5857   3.419   1.388  10.121  0.3148  0.5516  2.5114
  388TMC3    H2 5858   3.727   1.687  10.159  0.2479 -2.8573  2.3235
  388TMC3    C7 5859   3.707   1.435  10.102 -0.1470 -0.8393  0.1004
  388TMC3    C8 5860   3.591   1.877  10.049  0.1883  0.3785  0.4472
  388TMC3    O1 5861   3.812   1.491  10.104 -0.3328 -0.1155 -0.4006
  388TMC3    O2 5862   3.654   1.928  10.141 -0.0707  0.5001  0.3667
  389MPD2     C 5863   3.038   0.276  11.173  0.2441  0.8181 -0.8921
  389MPD2    C1 5864   2.927   0.213  11.130 -1.2615  0.0948  0.3033
  389MPD2    C2 5865   2.869   0.124  11.218 -0.1302  0.5854  0.3798
  389MPD2    C3 5866   2.921   0.093  11.337  0.9803 -0.2545 -0.4230
  389MPD2    C4 5867   3.042   0.148  11.376 -0.2732  0.1316  0.7078
  389MPD2    C5 5868   3.107   0.241  11.292 -0.2024  0.1323  0.0293
  389MPD2     H 5869   2.771   0.090  11.190 -0.5058  3.5295 -1.8476
  389MPD2    H1 5870   3.095   0.125  11.468  0.9637 -3.0646 -0.8191
  389MPD2    H2 5871   3.086   0.350  11.110  0.2929  0.4129 -1.3251
  389MPD2    H3 5872   3.198   0.291  11.322  0.5482 -1.1705 -0.0752
  389MPD2     N 5873   2.865   0.003  11.433 -0.3586  0.3677  0.7671
  389MPD2    H5 5874   2.903   4.735  11.526 -0.4182  2.3045  0.8605
  389MPD2    N1 5875   2.890   0.239  10.996  0.0194 -0.4626  0.1668
  389MPD2    H7 5876   2.944   0.311  10.950  0.7239 -0.1706  1.4350
  390TMC3    C1 5877   2.701   4.572  11.505  0.2968  0.3766  0.1778
  390TMC3    C2 5878   2.617   4.475  11.457 -0.3127  0.5118 -0.1951
  390TMC3    C3 5879   2.542   4.416  11.552 -0.0739 -0.4572  0.3209
  390TMC3    C4 5880   2.711   4.610  11.637  0.3040  0.2826 -0.3369
  390TMC3    C5 5881   2.631   4.534  11.726  0.3940 -0.0532  0.0906
  390TMC3    C6 5882   2.546   4.434  11.685 -0.5055 -0.9360 -0.3557
  390TMC3     C 5883   2.753   4.660  11.398 -0.9277  0.5210 -0.6065
  390TMC3     O 5884   2.692   4.654  11.294  0.8240  0.1231  0.2628
  390TMC3     H 5885   2.611   4.454  11.350  2.2840 -0.0442 -0.2338
  390TMC3    H1 5886   2.777   4.690  11.668 -1.7141  1.7067  0.2891
  390TMC3    H2 5887   2.482   4.380  11.754 -0.8301 -2.4193 -1.8280
  390TMC3    C7 5888   2.583   4.622  11.825  0.0781 -0.0507  0.1052
  390TMC3    C8 5889   2.419   4.358  11.514 -0.2256 -0.4527  0.0326
  390TMC3    O1 5890   2.601   0.003  11.802  0.1684 -0.0219 -0.1566
  390TMC3    O2 5891   2.417   4.276  11.420  0.2714  0.5562 -0.3194
  391MPD2     C 5892   1.965   1.250  11.037 -0.0625 -0.3811  0.2800
  391MPD2    C1 5893   1.959   1.383  11.016  0.5259  0.0867 -0.7257
  391MPD2    C2 5894   1.935   1.439  10.894  0.1879  0.1455 -0.3827
  391MPD2    C3 5895   1.893   1.359  10.783  0.0487 -0.4343  0.0741
  391MPD2    C4 5896   1.889   1.228  10.810 -0.5571  0.4563  0.4117
  391MPD2    C5 5897   1.909   1.177  10.935  0.1060 -0.3927  0.4636
  391MPD2     H 5898   1.940   1.544  10.871  1.9873  0.5547  1.8531
  391MPD2    H1 5899   1.859   1.157  10.733 -0.3597 -0.4847  1.2162
  391MPD2    H2 5900   1.984   1.208  11.135  0.9004  0.3460  0.3999
  391MPD2    H3 5901   1.893   1.073  10.960 -0.2330 -0.7721 -1.3158
  391MPD2     N 5902   1.879   1.420  10.656  0.0138  0.3416  0.3687
  391MPD2    H5 5903   1.907   1.516  10.644  1.4559  0.2296  2.7976
  391MPD2    N1 5904   1.986   1.454  11.132  0.5571  0.8819  0.7802
  391MPD2    H7 5905   2.016   1.403  11.214  1.5851  0.6166  0.2464
  392TMC3    C1 5906   1.824   1.469  10.430  0.5786  0.8571 -0.1793
  392TMC3    C2 5907   1.722   1.466  10.341  0.5109  0.3128  0.5104
  392TMC3    C3 5908   1.707   1.575  10.253  0.6921  0.2421 -0.0000
  392TMC3    C4 5909   1.926   1.557  10.417 -0.6666 -0.0587  0.1567
  392TMC3    C5 5910   1.915   1.663  10.331  0.2103  0.0686  0.4952
  392TMC3    C6 5911   1.806   1.671  10.241  1.0586  0.1268  0.5517
  392TMC3     C 5912   1.845   1.364  10.537  0.3037  0.0474  0.4409
  392TMC3     O 5913   1.801   1.253  10.510  0.4504  0.1406 -0.4391
  392TMC3     H 5914   1.637   1.400  10.354  0.5586  0.7906  3.1103
  392TMC3    H1 5915   2.023   1.532  10.459  0.0694 -0.2459 -1.6923
  392TMC3    H2 5916   1.798   1.747  10.164  2.1330  0.8905  1.2131
  392TMC3    C7 5917   2.027   1.757  10.335  0.7046 -0.2082  0.0840
  392TMC3    C8 5918   1.579   1.584  10.184 -0.1221  0.3108  0.6359
  392TMC3    O1 5919   2.133   1.715  10.373  0.0069 -0.9082 -0.0413
  392TMC3    O2 5920   1.505   1.489  10.188  0.6753 -0.2467  0.0842
  393TMC3    C1 5921   0.700   3.622  11.176 -0.0263 -0.5461  0.9547
  393TMC3    C2 5922   0.669   3.620  11.307  0.1644 -0.2176 -0.6888
  393TMC3    C3 5923   0.696   3.507  11.375 -0.3553 -0.0097  0.3250
  393TMC3    C4 5924   0.752   3.515  11.105  0.1596  0.0934  0.1677
  393TMC3    C5 5925   0.783   3.401  11.173  0.1157  0.6366  0.4802
  393TMC3    C6 5926   0.749   3.392  11.311 -0.0222 -0.1495  0.0209
  393TMC3     C 5927   0.714   3.747  11.104 -0.3358 -0.5418 -0.2652
  393TMC3     O 5928   0.624   3.826  11.081 -0.6203 -0.2386  0.0137
  393TMC3     H 5929   0.635   3.706  11.365  1.9053 -0.2852  0.4424
  393TMC3    H1 5930   0.764   3.535  10.999 -2.1429 -2.6107 -0.5906
  393TMC3    H2 5931   0.777   3.311  11.378  0.7473  0.5444  0.5299
  393TMC3    C7 5932   0.818   3.276  11.112  0.7063 -0.0452  0.0385
  393TMC3    C8 5933   0.678   3.499  11.525  0.1736  0.2490 -0.2083
  393TMC3    O1 5934   0.855   3.186  11.188  0.1815  0.0091  0.4095
  393TMC3    O2 5935   0.766   3.440  11.583  0.7499  0.1513 -0.3370
  394TMC3    C1 5936   2.748   0.236  10.804  0.3920  0.2154 -0.1147
  394TMC3    C2 5937   2.619   0.210  10.756  0.3864 -0.0311 -0.3379
  394TMC3    C3 5938   2.604   0.162  10.629  0.4324 -0.2076 -0.5772
  394TMC3    C4 5939   2.854   0.203  10.724 -0.3536 -0.0062  0.1564
  394TMC3    C5 5940   2.827   0.152  10.594 -0.2957  0.0486 -0.3494
  394TMC3    C6 5941   2.701   0.135  10.543 -0.1913  0.3509 -0.0228
  394TMC3     C 5942   2.766   0.216  10.945 -0.4183  0.3535  0.4739
  394TMC3     O 5943   2.676   0.164  11.002  0.3832 -0.3946 -0.2374
  394TMC3     H 5944   2.528   0.229  10.812 -0.5817 -0.1714 -1.8742
  394TMC3    H1 5945   2.957   0.217  10.753 -0.2958 -1.0704  0.4352
  394TMC3    H2 5946   2.682   0.105  10.441  1.7094  2.2808 -0.9625
  394TMC3    C7 5947   2.934   0.087  10.522  0.0517  0.3721  0.4994
  394TMC3    C8 5948   2.486   0.088  10.604 -0.3851 -1.1266 -0.1219
  394TMC3    O1 5949   2.920   0.078  10.398  0.0062 -0.2577  0.2103
  394TMC3    O2 5950   2.381   0.128  10.653 -0.2877  0.3839 -0.2169
  395TMC3    C1 5951   2.616   1.729  14.841 -0.5053 -0.4731 -0.2820
  395TMC3    C2 5952   2.484   1.758  14.840 -0.0564 -0.3385 -0.4958
  395TMC3    C3 5953   2.444   1.872  14.774  0.1160  0.3748 -0.1426
  395TMC3    C4 5954   2.714   1.805  14.782  0.1582  0.1868 -0.1247
  395TMC3    C5 5955   2.670   1.922  14.726  0.2274 -0.6110 -0.0848
  395TMC3    C6 5956   2.535   1.955  14.719 -0.0805  0.4743  0.0150
  395TMC3     C 5957   2.656   1.634  14.943 -0.7209  0.0540 -0.4846
  395TMC3     O 5958   2.729   1.538  14.914 -0.3005 -0.2821 -0.1407
  395TMC3     H 5959   2.410   1.697  14.889 -1.6725  0.0867 -2.4022
  395TMC3    H1 5960   2.820   1.786  14.799  0.5676  3.9434  1.4903
  395TMC3    H2 5961   2.518   2.056  14.685  1.1904  0.7064  0.0708
  395TMC3    C7 5962   2.756   2.034  14.733 -0.2002  0.4852  0.1841
  395TMC3    C8 5963   2.303   1.915  14.764 -0.2126  0.0031  0.4723
  395TMC3    O1 5964   2.727   2.118  14.815 -0.0250  0.5125  0.3763
  395TMC3    O2 5965   2.278   2.023  14.723  0.0110 -0.4229  0.3987
  396MPD2     C 5966   1.916   2.888  16.983 -0.0629  0.8643 -0.8988
  396MPD2    C1 5967   1.880   3.014  17.025  0.3631  0.3072  0.2956
  396MPD2    C2 5968   1.927   3.126  16.955  0.2125  0.6200 -0.0346
  396MPD2    C3 5969   2.010   3.113  16.846 -0.0830  0.2670 -0.3043
  396MPD2    C4 5970   2.025   2.985  16.791 -0.0692 -0.8788  0.4400
  396MPD2    C5 5971   1.984   2.875  16.862 -0.3068 -0.6147 -0.3235
  396MPD2     H 5972   1.894   3.225  16.984  0.1430 -0.3138  3.1224
  396MPD2    H1 5973   2.073   2.965  16.695 -1.9394 -1.5954 -0.3493
  396MPD2    H2 5974   1.881   2.797  17.031 -0.7420  2.4419  1.6169
  396MPD2    H3 5975   2.012   2.775  16.830  0.9316 -0.5550  0.5614
  396MPD2     N 5976   2.061   3.230  16.787 -0.0528  0.1046 -0.0959
  396MPD2    H5 5977   2.040   3.320  16.830 -0.5775 -1.2711  2.5179
  396MPD2    N1 5978   1.801   3.021  17.140 -0.2167 -0.4227 -0.3381
  396MPD2    H7 5979   1.777   2.930  17.179 -0.1844 -0.2693  0.0479
  397TMC3    C1 5980   1.675   3.086  17.325  0.2004  0.0631  0.2175
  397TMC3    C2 5981   1.744   3.126  17.433  0.7673 -0.4544  0.7711
  397TMC3    C3 5982   1.796   3.036  17.516 -0.2069 -0.3672 -0.6662
  397TMC3    C4 5983   1.647   2.954  17.327 -0.3538  0.0027 -0.8405
  397TMC3    C5 5984   1.670   2.870  17.433 -0.8116 -0.2232  0.3507
  397TMC3    C6 5985   1.768   2.903  17.520 -1.0280  0.1345 -0.2467
  397TMC3     C 5986   1.747   3.124  17.210  0.8133  0.0767  0.4217
  397TMC3     O 5987   1.777   3.243  17.203 -0.4093 -0.3079  0.2753
  397TMC3     H 5988   1.808   3.213  17.419 -0.1702  0.2203  0.7062
  397TMC3    H1 5989   1.576   2.917  17.254 -1.4171  2.6108 -1.1075
  397TMC3    H2 5990   1.801   2.844  17.605 -0.4245  0.3983 -0.2956
  397TMC3    C7 5991   1.625   2.728  17.419 -0.2677  0.2200 -0.1622
  397TMC3    C8 5992   1.935   3.051  17.526 -0.0181  0.5491 -0.5230
  397TMC3    O1 5993   1.527   2.693  17.358 -0.5311  0.3823  0.5302
  397TMC3    O2 5994   1.976   3.141  17.597  0.1534  0.2220 -0.0105
  398MPD2     C 5995   0.537   0.028   0.142 -0.6334 -0.4299  0.4823
  398MPD2    C1 5996   0.617   4.705   0.241 -0.2062 -0.3413  0.1608
  398MPD2    C2 5997   0.678   0.052   0.331  0.8527 -0.0853 -0.3252
  398MPD2    C3 5998   0.666   0.188   0.321  0.5491 -0.5124 -0.4040
  398MPD2    C4 5999   0.588   0.245   0.222  0.2182  0.4888 -0.1383
  398MPD2    C5 6000   0.530   0.164   0.134 -0.5508  0.4067 -0.6456
  398MPD2     H 6001   0.749   0.012   0.403 -1.4013 -2.7087  0.4242
  398MPD2    H1 6002   0.584   0.353   0.215 -1.9002  0.3798 -0.5815
  398MPD2    H2 6003   0.488   4.706   0.066  0.6304 -0.2788 -0.4555
  398MPD2    H3 6004   0.485   0.215   0.049 -1.6111  0.4309 -0.0601
  398MPD2     N 6005   0.725   0.263   0.421 -0.0883  0.3337  0.1921
  398MPD2    H5 6006   0.805   0.225   0.470 -0.4795  0.6251  1.0601
  398MPD2    N1 6007   0.620   4.563   0.255  0.4078 -0.1095  0.2444
  398MPD2    H7 6008   0.676   4.515   0.326  1.7899 -0.6020 -1.1697
  399TMC3    C1 6009   0.552   4.339   0.235  0.0006 -0.6885  0.4404
  399TMC3    C2 6010   0.665   4.299   0.298 -0.1117  0.1345 -0.2690
  399TMC3    C3 6011   0.664   4.174   0.358  0.5526  0.1613 -0.1582
  399TMC3    C4 6012   0.458   4.248   0.204  0.1714 -0.4018  0.5313
  399TMC3    C5 6013   0.468   4.122   0.254  0.2872  0.3050 -0.6846
  399TMC3    C6 6014   0.567   4.082   0.337 -0.0764  0.5244 -0.8416
  399TMC3     C 6015   0.529   4.477   0.192 -0.2156  1.0808  0.1739
  399TMC3     O 6016   0.441   4.493   0.105  0.4411 -0.2043 -0.2366
  399TMC3     H 6017   0.755   4.358   0.296  1.0389 -1.5964  0.2202
  399TMC3    H1 6018   0.392   4.262   0.120 -0.9857 -0.5014  1.4131
  399TMC3    H2 6019   0.591   3.976   0.342 -0.3276  0.5749  1.1410
  399TMC3    C7 6020   0.383   4.011   0.196  0.5557  0.0911 -0.0971
  399TMC3    C8 6021   0.790   4.122   0.401 -0.5000  0.5283  0.4496
  399TMC3    O1 6022   0.392   3.901   0.256  0.3846 -0.2606  0.3381
  399TMC3    O2 6023   0.887   4.193   0.390  0.4153  0.7180 -0.1208
  400TMC3    C1 6024   4.196   2.989  16.837 -0.1990 -1.6421  0.3820
  400TMC3    C2 6025   4.060   2.966  16.839  0.8040 -0.2605  0.0293
  400TMC3    C3 6026   3.986   3.071  16.804 -1.0192 -0.3216 -0.2054
  400TMC3    C4 6027   4.257   3.103  16.787  0.3907  0.0018 -0.2052
  400TMC3    C5 6028   4.173   3.200  16.749  0.4116  0.2418 -0.4594
  400TMC3    C6 6029   4.036   3.193  16.768 -0.3230  0.2109  0.2525
  400TMC3     C 6030   4.258   2.899  16.923  0.4841 -0.3252  0.1188
  400TMC3     O 6031   4.188   2.811  16.974 -0.0570 -0.3250 -0.2061
  400TMC3     H 6032   4.017   2.878  16.885 -0.4837  0.1050 -0.4799
  400TMC3    H1 6033   4.365   3.110  16.780  0.3523 -0.6452 -1.5977
  400TMC3    H2 6034   3.974   3.282  16.758 -1.3840 -0.7716 -1.9622
  400TMC3    C7 6035   4.238   3.333  16.755  1.0095 -0.3876 -0.3216
  400TMC3    C8 6036   3.841   3.054  16.808 -0.7786 -0.0677 -0.2784
  400TMC3    O1 6037   4.344   3.336  16.688 -0.0343  0.8354 -0.3284
  400TMC3    O2 6038   3.785   3.162  16.801  1.0663 -0.4888  0.5830
  401MPD2     C 6039   2.301   1.448   1.065 -0.6640 -0.0049 -0.6521
  401MPD2    C1 6040   2.377   1.339   1.101  0.1834 -0.2791  0.0881
  401MPD2    C2 6041   2.375   1.218   1.036  0.5312 -0.1312  0.8230
  401MPD2    C3 6042   2.293   1.204   0.925 -0.5891  0.1380  0.2488
  401MPD2    C4 6043   2.228   1.314   0.878  0.2285 -0.9404 -0.2888
  401MPD2    C5 6044   2.233   1.438   0.947  1.0608 -1.0509  0.4161
  401MPD2     H 6045   2.437   1.132   1.058  1.0536 -0.1204 -0.6149
  401MPD2    H1 6046   2.174   1.322   0.784 -1.7760 -2.5866  0.7079
  401MPD2    H2 6047   2.283   1.538   1.124 -0.2216 -0.7767  0.6724
  401MPD2    H3 6048   2.182   1.525   0.906 -0.4382 -1.6894  0.9497
  401MPD2     N 6049   2.292   1.075   0.863  0.3417 -0.4244 -1.2388
  401MPD2    H5 6050   2.359   1.006   0.895  0.7274  0.8851  0.7478
  401MPD2    N1 6051   2.454   1.352   1.221 -0.2950 -0.2684  0.1930
  401MPD2    H7 6052   2.504   1.272   1.260  1.9714  0.6540 -0.8025
  402TMC3    C1 6053   2.240   0.896   0.721 -0.3166  0.2805 -0.2121
  402TMC3    C2 6054   2.296   0.818   0.813 -0.4391  0.4670 -1.0555
  402TMC3    C3 6055   2.318   0.685   0.779  0.5512  0.0801  0.2595
  402TMC3    C4 6056   2.193   0.859   0.598  0.1675 -0.1859  0.7691
  402TMC3    C5 6057   2.231   0.732   0.555 -0.0186  0.1541 -0.0898
  402TMC3    C6 6058   2.292   0.647   0.649 -0.0099 -0.1270  0.5134
  402TMC3     C 6059   2.230   1.041   0.746 -0.2537 -0.2647  0.1252
  402TMC3     O 6060   2.165   1.105   0.667  0.1597  0.7278  0.0169
  402TMC3     H 6061   2.313   0.842   0.917 -1.9423  0.0109 -0.6997
  402TMC3    H1 6062   2.141   0.926   0.531 -0.6516 -1.3760  0.2039
  402TMC3    H2 6063   2.309   0.543   0.621 -2.2115  0.0920 -1.6140
  402TMC3    C7 6064   2.221   0.691   0.415 -0.2054 -0.0369  0.4310
  402TMC3    C8 6065   2.387   0.590   0.859  0.0015  0.2057  0.2734
  402TMC3    O1 6066   2.205   0.783   0.337  0.4610 -0.4423  0.2129
  402TMC3    O2 6067   2.465   0.509   0.807 -0.2647  0.4752  0.0846
  403MPD2     C 6068   0.587   3.992  13.308 -0.6150 -0.4277 -0.4439
  403MPD2    C1 6069   0.474   3.962  13.384  0.1313  0.6070  0.5919
  403MPD2    C2 6070   0.492   3.972  13.520  0.0243 -0.6689  0.2422
  403MPD2    C3 6071   0.613   4.004  13.579  0.3004  0.8113  0.3198
  403MPD2    C4 6072   0.730   4.006  13.500 -0.3112  0.4922  0.0687
  403MPD2    C5 6073   0.715   3.996  13.362 -0.2307  0.0878 -0.2658
  403MPD2     H 6074   0.407   3.978  13.587  0.3594 -0.7599  0.6756
  403MPD2    H1 6075   0.829   4.023  13.542 -0.2256  1.0565 -0.3690
  403MPD2    H2 6076   0.580   3.990  13.200 -2.4051 -1.7803 -0.3142
  403MPD2    H3 6077   0.809   4.012  13.311  0.6579 -0.2850  1.2554
  403MPD2     N 6078   0.622   4.001  13.723 -0.0070 -0.0701  0.3608
  403MPD2    H5 6079   0.534   4.012  13.772 -0.0553  0.0627  0.2427
  403MPD2    N1 6080   0.365   3.919  13.321  0.4491 -0.4791  0.6002
  403MPD2    H7 6081   0.380   3.900  13.223  0.7139  0.7204  0.4201
  404TMC3    C1 6082   0.166   3.791  13.274  0.1603  0.6986 -0.5629
  404TMC3    C2 6083   0.061   3.718  13.332  0.0256  0.0433  0.7845
  404TMC3    C3 6084   0.013   3.612  13.260  0.6573  0.0609 -0.1997
  404TMC3    C4 6085   0.215   3.749  13.154  0.3760 -0.5872 -0.0092
  404TMC3    C5 6086   0.156   3.645  13.077 -0.4503 -0.6977 -0.5726
  404TMC3    C6 6087   0.052   3.580  13.134 -0.0057 -0.3155  0.3637
  404TMC3     C 6088   0.237   3.879  13.369 -0.4132  0.2060  0.7330
  404TMC3     O 6089   0.194   3.904  13.483 -0.0123  0.1642  0.3347
  404TMC3     H 6090   0.052   3.734  13.439 -1.9828  1.7455  0.3524
  404TMC3    H1 6091   0.296   3.801  13.104 -0.0689 -0.4013 -0.5388
  404TMC3    H2 6092   0.010   3.494  13.083 -0.1657  0.6990 -1.2134
  404TMC3    C7 6093   0.222   3.606  12.949  0.4159  0.5896 -1.0953
  404TMC3    C8 6094   4.683   3.499  13.326 -0.2660  0.6486  0.2229
  404TMC3    O1 6095   0.336   3.653  12.932 -0.3157 -0.6628  0.3335
  404TMC3    O2 6096   4.690   3.386  13.280  0.4300 -0.2535  0.3624
  405MPD2     C 6097   0.256   0.116  14.846 -0.4270  0.0013  0.5730
  405MPD2    C1 6098   0.269   0.032  14.738  0.0962  0.0599  0.2688
  405MPD2    C2 6099   0.339   0.081  14.626 -0.3139 -0.0136  0.3107
  405MPD2    C3 6100   0.378   0.211  14.614 -0.0443 -0.7269 -0.1244
  405MPD2    C4 6101   0.352   0.296  14.723  0.6251 -0.4245 -0.0046
  405MPD2    C5 6102   0.294   0.248  14.835  0.2844 -0.3907 -0.9418
  405MPD2     H 6103   0.364   0.013  14.545  0.3457  0.5143  0.0762
  405MPD2    H1 6104   0.380   0.401  14.716 -1.7842  0.0204 -3.1055
  405MPD2    H2 6105   0.206   0.090  14.939  0.4936  0.2596  1.1388
  405MPD2    H3 6106   0.277   0.316  14.918  1.5738  0.7347 -1.5974
  405MPD2     N 6107   0.436   0.247  14.489  0.0948 -0.2798 -0.3158
  405MPD2    H5 6108   0.462   0.174  14.423 -0.5990 -1.9524  1.2508
  405MPD2    N1 6109   0.211   4.640  14.748  0.0127 -0.1482  0.3985
  405MPD2    H7 6110   0.163   4.624  14.836  2.9469 -0.7455  1.8920
  406TMC3    C1 6111   0.432   0.533  14.123 -0.1659 -0.6250 -0.4691
  406TMC3    C2 6112   0.423   0.423  14.044 -0.0338  0.1770  0.2001
  406TMC3    C3 6113   0.440   0.292  14.092 -0.3856 -0.3232  0.5477
  406TMC3    C4 6114   0.462   0.514  14.251 -0.4457  0.0549 -0.2878
  406TMC3    C5 6115   0.485   0.387  14.298 -0.0570 -0.1897  0.2489
  406TMC3    C6 6116   0.469   0.274  14.221  0.2369  0.3439 -0.1928
  406TMC3     C 6117   0.318   0.627  14.104  0.3193  0.6329 -0.2139
  406TMC3     O 6118   0.330   0.743  14.135 -0.3095 -0.0873 -0.3535
  406TMC3     H 6119   0.412   0.446  13.939  0.9598  3.6736  0.8525
  406TMC3    H1 6120   0.470   0.595  14.323  0.9071 -1.6625  1.4836
  406TMC3    H2 6121   0.501   0.178  14.260 -2.0389  0.4110  1.8472
  406TMC3    C7 6122   0.462   0.374  14.443 -0.2534 -0.2034  0.0380
  406TMC3    C8 6123   0.331   0.217  14.043 -0.5317  0.6141  0.3763
  406TMC3    O1 6124   0.448   0.473  14.507  0.1859  0.6436 -0.3246
  406TMC3    O2 6125   0.242   0.289  13.997 -0.1778 -0.1223 -0.4295
  407MPD2     C 6126   2.630   0.850   9.724 -0.7029 -0.6623  0.7555
  407MPD2    C1 6127   2.712   0.946   9.673  0.1458  0.2421 -0.4904
  407MPD2    C2 6128   2.767   1.041   9.753 -0.3044  0.3069  0.4895
  407MPD2    C3 6129   2.726   1.046   9.889 -0.4555  0.0975 -0.0010
  407MPD2    C4 6130   2.639   0.951   9.941  1.3989  0.5947 -0.3250
  407MPD2    C5 6131   2.590   0.856   9.854 -0.4568 -0.4127 -0.0188
  407MPD2     H 6132   2.843   1.110   9.718  0.4457 -0.4596  0.6132
  407MPD2    H1 6133   2.615   0.946  10.047 -1.2051  2.2697 -0.8468
  407MPD2    H2 6134   2.590   0.763   9.674 -1.5430  0.9205 -1.3672
  407MPD2    H3 6135   2.524   0.776   9.887 -2.0001  0.6322 -0.5922
  407MPD2     N 6136   2.784   1.136   9.979  0.3656  0.0608 -0.1689
  407MPD2    H5 6137   2.776   1.108  10.077 -0.3810  3.3056  0.6813
  407MPD2    N1 6138   2.761   0.941   9.540 -0.3597  0.4176 -0.9267
  407MPD2    H7 6139   2.838   1.005   9.521 -0.0185  0.0993 -0.6352
  408TMC3    C1 6140   2.841   0.840   9.348 -0.5152 -0.3222 -0.5290
  408TMC3    C2 6141   2.918   0.727   9.329  0.2781 -0.0085  0.0587
  408TMC3    C3 6142   3.039   0.743   9.268  0.1824  0.1015  0.0046
  408TMC3    C4 6143   2.886   0.969   9.317 -0.0606 -0.2791  1.2581
  408TMC3    C5 6144   3.003   0.976   9.253 -0.2561  0.4977 -0.6713
  408TMC3    C6 6145   3.078   0.866   9.226 -0.5373  0.1108  0.5993
  408TMC3     C 6146   2.745   0.833   9.455  0.4159 -0.5760 -0.2910
  408TMC3     O 6147   2.701   0.719   9.480  0.1890  0.1940 -0.2371
  408TMC3     H 6148   2.873   0.631   9.348 -0.2076  0.3523  0.7188
  408TMC3    H1 6149   2.824   1.058   9.326 -0.0721 -0.1054 -0.5897
  408TMC3    H2 6150   3.171   0.879   9.172 -1.6002 -0.5087 -1.4082
  408TMC3    C7 6151   3.090   1.102   9.252  0.8337  0.0307  0.0942
  408TMC3    C8 6152   3.133   0.636   9.290  0.4260  1.1050  0.2511
  408TMC3    O1 6153   3.193   1.101   9.185  0.1306 -0.3950  0.0864
  408TMC3    O2 6154   3.100   0.518   9.300  0.5197 -0.8106 -0.6125
  409MPD2     C 6155   2.985   2.115  17.565  0.6582  0.2701 -0.4363
  409MPD2    C1 6156   3.012   2.218  17.650 -0.4570  0.2626 -0.3696
  409MPD2    C2 6157   3.059   2.339  17.601 -0.2464  0.4243 -0.0782
  409MPD2    C3 6158   3.071   2.361  17.471  0.5268 -0.4234 -0.4701
  409MPD2    C4 6159   3.053   2.254  17.392 -0.1789 -0.4085 -0.3992
  409MPD2    C5 6160   3.013   2.133  17.436 -0.4999 -0.4603 -0.7034
  409MPD2     H 6161   3.075   2.424  17.667 -2.3282  1.8759 -1.4000
  409MPD2    H1 6162   3.060   2.270  17.285 -0.2610 -1.8864 -0.6146
  409MPD2    H2 6163   2.962   2.013  17.593  1.1779  0.0855 -0.6770
  409MPD2    H3 6164   2.996   2.055  17.362 -0.9400 -0.0353 -1.0515
  409MPD2     N 6165   3.110   2.490  17.432  0.1605  0.5096 -0.4428
  409MPD2    H5 6166   3.112   2.562  17.504 -0.6816 -0.2205  0.3087
  409MPD2    N1 6167   3.023   2.201   0.048 -0.3038  0.4176  0.2721
  409MPD2    H7 6168   3.070   2.274   0.101  0.8220  1.0203 -1.5520
  410TMC3    C1 6169   3.190   2.669  17.302 -0.4292  0.4093  0.1684
  410TMC3    C2 6170   3.304   2.720  17.254  0.7008  0.0662  0.0614
  410TMC3    C3 6171   3.319   2.853  17.262  0.5976  0.3988 -0.4453
  410TMC3    C4 6172   3.085   2.742  17.346  0.1084  0.2610 -0.3568
  410TMC3    C5 6173   3.098   2.876  17.332  0.1811  0.1176 -0.0495
  410TMC3    C6 6174   3.218   2.936  17.299 -0.1828 -0.2165  0.0522
  410TMC3     C 6175   3.170   2.525  17.308 -0.8201  0.5912 -0.0948
  410TMC3     O 6176   3.211   2.456  17.217 -0.8157 -0.1397  0.0760
  410TMC3     H 6177   3.395   2.662  17.244  1.8358  1.4031  2.5542
  410TMC3    H1 6178   2.986   2.706  17.373  0.2237  0.2264  0.0176
  410TMC3    H2 6179   3.234   3.043  17.303 -0.2041 -0.1318 -2.1415
  410TMC3    C7 6180   2.983   2.964  17.347  0.4399  0.1942 -0.9526
  410TMC3    C8 6181   3.453   2.905  17.245  0.4490 -0.3866 -0.8187
  410TMC3    O1 6182   2.893   2.934  17.427 -0.0255 -0.2295 -0.1252
  410TMC3    O2 6183   3.545   2.827  17.267  0.1994 -0.3558 -0.3869
  411MPD2     C 6184   2.529   2.506  14.679 -0.1141  0.0751 -0.3525
  411MPD2    C1 6185   2.560   2.568  14.560 -0.2538 -0.1528 -1.0417
  411MPD2    C2 6186   2.540   2.491  14.444 -0.1313 -0.7677 -0.6125
  411MPD2    C3 6187   2.478   2.370  14.450 -0.2471 -0.3832  0.2245
  411MPD2    C4 6188   2.457   2.312  14.576 -1.1286 -0.6727  0.7243
  411MPD2    C5 6189   2.485   2.379  14.689  0.2654 -0.2343 -0.0959
  411MPD2     H 6190   2.556   2.543  14.351  2.5493 -1.3214 -0.4618
  411MPD2    H1 6191   2.389   2.229  14.586 -0.4511 -1.1606  1.3271
  411MPD2    H2 6192   2.531   2.555  14.776  4.8885 -1.1863  0.1739
  411MPD2    H3 6193   2.456   2.338  14.785  1.2086 -0.0247  0.2828
  411MPD2     N 6194   2.434   2.314  14.326 -0.1633  0.1275 -0.5055
  411MPD2    H5 6195   2.457   2.366  14.242  0.9507  0.6442  0.1156
  411MPD2    N1 6196   2.602   2.708  14.554 -0.7064  0.9312 -0.0871
  411MPD2    H7 6197   2.584   2.752  14.464  0.2858  0.4397 -0.5246
  412TMC3    C1 6198   2.337   2.176  14.178  0.0960  0.0887 -0.7257
  412TMC3    C2 6199   2.288   2.295  14.131 -0.3665  0.4636  0.5846
  412TMC3    C3 6200   2.310   2.311  14.002 -0.8386 -0.4197  0.6948
  412TMC3    C4 6201   2.400   2.081  14.106  0.7255 -0.5069  0.4080
  412TMC3    C5 6202   2.417   2.110  13.970  0.3135  0.0929 -0.0889
  412TMC3    C6 6203   2.360   2.221  13.920  0.1082 -0.3928 -0.0493
  412TMC3     C 6204   2.375   2.191  14.311 -0.5349 -0.2599  0.8390
  412TMC3     O 6205   2.380   2.093  14.385 -0.4110  0.5082  0.6228
  412TMC3     H 6206   2.245   2.370  14.196 -1.1062  0.1843  0.4171
  412TMC3    H1 6207   2.443   1.991  14.148  0.1599 -1.7097 -1.5729
  412TMC3    H2 6208   2.384   2.239  13.816 -0.9663 -1.5448 -0.5027
  412TMC3    C7 6209   2.546   2.082  13.914 -0.4414 -0.0846 -0.6268
  412TMC3    C8 6210   2.365   2.438  13.978  0.1683  0.4240  0.0562
  412TMC3    O1 6211   2.589   2.174  13.853  0.4416 -0.3678  0.3031
  412TMC3    O2 6212   2.315   2.533  14.039 -0.4213 -0.1047  0.3762
  413MPD2     C 6213   4.363   1.792  15.373 -0.3208 -0.0452  0.1262
  413MPD2    C1 6214   4.372   1.665  15.322 -0.0199  0.2804  1.1071
  413MPD2    C2 6215   4.495   1.613  15.303  0.6573  0.0107  0.1707
  413MPD2    C3 6216   4.611   1.693  15.329  0.7291 -0.8829  1.4927
  413MPD2    C4 6217   4.594   1.822  15.382  0.3956  0.4548 -0.3106
  413MPD2    C5 6218   4.472   1.868  15.402  0.0416  0.3595 -0.7954
  413MPD2     H 6219   4.504   1.511  15.269 -0.7871  0.2344 -0.8760
  413MPD2    H1 6220   4.675   1.890  15.408  1.6558 -0.1222 -2.7191
  413MPD2    H2 6221   4.262   1.823  15.398 -0.2250  0.5935 -0.2717
  413MPD2    H3 6222   4.460   1.957  15.463  1.1529 -0.9063  1.2570
  413MPD2     N 6223   0.008   1.629  15.317 -0.9586  0.2765  0.8921
  413MPD2    H5 6224   0.018   1.531  15.293  2.9603  0.8334  0.1937
  413MPD2    N1 6225   4.251   1.605  15.295  0.7954 -0.4556 -0.2912
  413MPD2    H7 6226   4.166   1.659  15.308  1.3980  0.9508 -2.1561
  414TMC3    C1 6227   0.241   1.627  15.323 -0.6475  0.6558 -0.2424
  414TMC3    C2 6228   0.245   1.494  15.367 -0.1137 -0.4102 -0.0432
  414TMC3    C3 6229   0.371   1.438  15.376 -0.4836 -0.3491 -0.1704
  414TMC3    C4 6230   0.359   1.693  15.305 -0.1873  0.6275 -0.9056
  414TMC3    C5 6231   0.471   1.633  15.318  0.0562  0.5234  0.6442
  414TMC3    C6 6232   0.482   1.503  15.354 -0.2708 -0.8188  0.3530
  414TMC3     C 6233   0.120   1.701  15.334  0.0810  0.1546 -0.0515
  414TMC3     O 6234   0.125   1.823  15.329 -0.0309 -0.8373  0.0348
  414TMC3     H 6235   0.155   1.439  15.394  1.1091 -1.8450  1.1348
  414TMC3    H1 6236   0.359   1.801  15.295  0.0196  0.4255 -3.0827
  414TMC3    H2 6237   0.577   1.462  15.386  0.3348 -1.4603 -2.3176
  414TMC3    C7 6238   0.573   1.662  15.221  0.0125 -1.0863  0.0513
  414TMC3    C8 6239   0.382   1.294  15.412 -0.3660 -0.4475  0.0308
  414TMC3    O1 6240   0.680   1.605  15.237 -0.0770  0.3881  0.4107
  414TMC3    O2 6241   0.275   1.235  15.409  0.1593 -0.6396  0.4082
  415TMC3    C1 6242   4.612   3.552   9.918  0.7039 -0.1099  0.1817
  415TMC3    C2 6243   4.629   3.692   9.895 -0.0499  0.5531 -0.2466
  415TMC3    C3 6244   4.515   3.768   9.883 -0.3865  0.0597 -0.4705
  415TMC3    C4 6245   4.486   3.496   9.931 -0.7540  0.7752 -0.0532
  415TMC3    C5 6246   4.375   3.578   9.922 -0.7084 -0.3471  0.7596
  415TMC3    C6 6247   4.389   3.714   9.899  0.1077 -0.3985 -0.0096
  415TMC3     C 6248   4.727   3.484   9.955  0.3912 -0.1843  0.5324
  415TMC3     O 6249   4.721   3.360   9.948 -0.0033  0.3910  0.0965
  415TMC3     H 6250   4.723   3.732   9.857  0.1621 -1.0194 -1.3858
  415TMC3    H1 6251   4.477   3.388   9.944 -2.5609  0.6829 -2.1089
  415TMC3    H2 6252   4.306   3.777   9.872  0.2834 -2.0239 -4.3674
  415TMC3    C7 6253   4.247   3.520   9.944 -0.8333  0.1764 -0.2366
  415TMC3    C8 6254   4.532   3.888   9.799  0.1451 -0.5245 -0.1104
  415TMC3    O1 6255   4.146   3.582   9.904 -0.1036  0.0576 -0.2199
  415TMC3    O2 6256   4.442   3.916   9.727 -0.7669  0.6007  0.3167
  416MPD2     C 6257   2.333   2.768  11.972  0.5971 -0.0185 -0.7580
  416MPD2    C1 6258   2.212   2.722  11.919  0.3459  0.7061  0.5491
  416MPD2    C2 6259   2.220   2.643  11.804  0.3137 -0.4884  0.5824
  416MPD2    C3 6260   2.338   2.617  11.747 -0.1113 -0.6668 -0.3339
  416MPD2    C4 6261   2.456   2.677  11.785 -0.0792  0.0333  0.3196
  416MPD2    C5 6262   2.450   2.744  11.902  0.3674  0.6330 -0.9725
  416MPD2     H 6263   2.127   2.595  11.775  0.3364 -0.5161  0.5554
  416MPD2    H1 6264   2.552   2.641  11.749 -0.5901 -0.9550 -0.0458
  416MPD2    H2 6265   2.344   2.824  12.064  1.2394 -1.9926  0.3843
  416MPD2    H3 6266   2.538   2.785  11.951 -0.0676 -0.9924  1.1441
  416MPD2     N 6267   2.339   2.522  11.646  0.3619 -0.3183 -0.5652
  416MPD2    H5 6268   2.244   2.494  11.626  0.1841  1.5264 -2.3019
  416MPD2    N1 6269   2.090   2.749  11.990  0.1852  0.0176 -0.5100
  416MPD2    H7 6270   2.083   2.775  12.088 -0.7941  0.0926 -0.5966
  417TMC3    C1 6271   1.854   2.800  11.992 -0.0297 -0.1452  0.3219
  417TMC3    C2 6272   1.866   2.911  12.077  0.0710  0.2405  0.0075
  417TMC3    C3 6273   1.769   3.015  12.065 -0.1532 -0.5718 -0.0543
  417TMC3    C4 6274   1.743   2.794  11.913 -0.7024  0.2583 -0.2809
  417TMC3    C5 6275   1.649   2.892  11.915  0.0547 -0.0447 -0.7125
  417TMC3    C6 6276   1.657   3.005  11.990  0.2385 -0.7920 -0.6871
  417TMC3     C 6277   1.966   2.745  11.919  0.1525 -0.0021  0.1146
  417TMC3     O 6278   1.951   2.731  11.797 -0.2061  0.1715 -0.0275
  417TMC3     H 6279   1.955   2.923  12.138  0.3824  0.2567 -0.4476
  417TMC3    H1 6280   1.745   2.715  11.840 -0.9464  0.2739 -0.3041
  417TMC3    H2 6281   1.574   3.075  11.991  1.7810  1.0390 -0.5091
  417TMC3    C7 6282   1.587   2.912  11.783  0.1129 -0.0433  0.5569
  417TMC3    C8 6283   1.765   3.119  12.165 -0.2294 -1.1178  0.2407
  417TMC3    O1 6284   1.611   2.829  11.699 -0.5243  0.6656  0.1731
  417TMC3    O2 6285   1.821   3.090  12.269 -0.5100 -0.7052  0.0857
  418TMC3    C1 6286   0.965   0.607   0.549  0.2433  0.0261 -0.5096
  418TMC3    C2 6287   0.843   0.571   0.508 -0.3755 -0.2798  0.0991
  418TMC3    C3 6288   0.797   0.443   0.532 -0.3787 -0.5453  0.4080
  418TMC3    C4 6289   1.049   0.526   0.621 -0.0521 -0.0113 -0.3781
  418TMC3    C5 6290   0.998   0.405   0.647  0.2331  0.2235  0.3994
  418TMC3    C6 6291   0.878   0.353   0.597 -0.1898  0.5800 -0.2418
  418TMC3     C 6292   1.028   0.692   0.457 -0.5970 -0.3033 -0.3548
  418TMC3     O 6293   0.970   0.786   0.409  1.0210 -0.2114 -0.4402
  418TMC3     H 6294   0.769   0.626   0.451  1.8122  0.5832 -1.8874
  418TMC3    H1 6295   1.141   0.564   0.665  0.2693 -0.7665 -0.3854
  418TMC3    H2 6296   0.841   0.265   0.647 -1.2965  1.1733  0.0022
  418TMC3    C7 6297   1.069   0.318   0.742 -0.0275 -0.6843  0.3172
  418TMC3    C8 6298   0.709   0.392   0.436 -0.4139  0.5518  0.2722
  418TMC3    O1 6299   1.046   0.196   0.739 -0.1920 -0.2670 -0.2825
  418TMC3    O2 6300   0.617   0.464   0.400 -0.0188 -0.4112  0.1779
  419MPD2     C 6301   4.730   2.610  13.008  0.0792 -0.0663 -0.4008
  419MPD2    C1 6302   4.636   2.608  12.908  0.3854 -0.5772  0.0067
  419MPD2    C2 6303   4.538   2.713  12.910 -0.5472 -0.4442  0.2730
  419MPD2    C3 6304   4.531   2.805  13.011  0.3278 -0.5508  0.4593
  419MPD2    C4 6305   4.629   2.812  13.103  0.0809  0.1620  0.0220
  419MPD2    C5 6306   4.732   2.725  13.093  0.0127 -0.2983  0.4409
  419MPD2     H 6307   4.460   2.721  12.835 -2.7343 -1.4243  2.4138
  419MPD2    H1 6308   4.623   2.887  13.181  2.0724  0.1048  0.2189
  419MPD2    H2 6309   0.064   2.529  13.020  0.8667  1.0620  2.6064
  419MPD2    H3 6310   0.066   2.708  13.175  1.1170  0.7665 -0.2791
  419MPD2     N 6311   4.424   2.897  13.003 -0.0863 -0.1568  0.5084
  419MPD2    H5 6312   4.355   2.883  12.929  2.4424  0.0705 -1.8994
  419MPD2    N1 6313   4.625   2.507  12.812 -1.8008  0.1217  0.1986
  419MPD2    H7 6314   4.538   2.520  12.761 -0.7118 -0.5908 -1.8404
  420TMC3    C1 6315   4.260   3.039  13.071 -0.7687  0.5362 -0.2433
  420TMC3    C2 6316   4.224   3.041  12.944  0.2152 -0.1772  0.5942
  420TMC3    C3 6317   4.090   3.036  12.917 -0.1833 -0.5261  0.8640
  420TMC3    C4 6318   4.173   3.042  13.175  1.4229 -0.3671  0.1543
  420TMC3    C5 6319   4.041   3.016  13.146  0.4405  0.1854 -0.5137
  420TMC3    C6 6320   3.997   3.018  13.014  0.6792  0.6766 -0.7668
  420TMC3     C 6321   4.386   2.982  13.101  0.0423 -0.4896 -0.2845
  420TMC3     O 6322   4.433   2.996  13.212 -0.0374  0.0418  0.2791
  420TMC3     H 6323   4.299   3.069  12.870 -0.3987  1.8264  0.7341
  420TMC3    H1 6324   4.209   3.041  13.277  2.7098  3.1092 -0.2884
  420TMC3    H2 6325   3.894   3.028  12.982  0.0340 -0.7205  0.9269
  420TMC3    C7 6326   3.968   2.940  13.248  0.2948 -0.2637 -0.6080
  420TMC3    C8 6327   4.055   3.068  12.779 -0.2606 -0.5337  0.1327
  420TMC3    O1 6328   4.017   2.938  13.357 -0.0199  0.2503 -0.5177
  420TMC3    O2 6329   4.140   3.126  12.711  0.2426  0.3657  0.1931
  421TMC3    C1 6330   0.733   4.022  13.933 -0.1344 -0.8626  0.0610
  421TMC3    C2 6331   0.694   4.155  13.950 -0.1943 -0.0758 -0.1261
  421TMC3    C3 6332   0.734   4.214  14.068 -0.2792  0.5171  0.3295
  421TMC3    C4 6333   0.796   3.946  14.024  0.3875 -0.0399  0.9115
  421TMC3    C5 6334   0.835   4.012  14.139 -0.9081 -0.1404 -0.2895
  421TMC3    C6 6335   0.805   4.144  14.161  0.3538  0.0604  0.4895
  421TMC3     C 6336   0.741   3.979  13.794  0.3653 -0.1688  0.3491
  421TMC3     O 6337   0.853   3.938  13.760  0.1003  0.2060 -0.2074
  421TMC3     H 6338   0.644   4.221  13.881 -1.0842 -0.3477  0.2643
  421TMC3    H1 6339   0.845   3.855  13.989 -0.4876  0.2827 -1.1602
  421TMC3    H2 6340   0.845   4.196  14.247  1.4853 -1.5546  0.9524
  421TMC3    C7 6341   0.956   3.975  14.205 -0.1773 -0.3869  0.0448
  421TMC3    C8 6342   0.728   4.359  14.091 -0.2805  0.2006  1.0021
  421TMC3    O1 6343   1.045   4.056  14.206  0.1272 -0.0092  0.1704
  421TMC3    O2 6344   0.807   4.397  14.176 -0.1358 -0.2014 -0.2027
  422TMC3    C1 6345   3.300   1.092  12.545 -1.1958 -0.3477  0.2901
  422TMC3    C2 6346   3.251   1.202  12.615 -0.0886 -0.0885 -0.1994
  422TMC3    C3 6347   3.190   1.184  12.736  0.3475  0.2216  0.0603
  422TMC3    C4 6348   3.262   0.965  12.585 -0.2187 -0.1765 -0.7091
  422TMC3    C5 6349   3.201   0.951  12.705 -0.4068 -0.2396 -0.0800
  422TMC3    C6 6350   3.159   1.060  12.785  0.5761  0.7206  0.4450
  422TMC3     C 6351   3.380   1.118  12.430 -0.6253 -1.0289  0.7881
  422TMC3     O 6352   3.365   1.218  12.369 -0.4776 -0.1205  0.0759
  422TMC3     H 6353   3.273   1.303  12.582 -0.3510  0.4993  1.4335
  422TMC3    H1 6354   3.288   0.876  12.528 -2.5127 -1.4558  0.2400
  422TMC3    H2 6355   3.106   1.046  12.879  0.3244 -0.3841  0.1311
  422TMC3    C7 6356   3.179   0.814  12.747 -0.0777 -0.4163 -0.2205
  422TMC3    C8 6357   3.194   1.301  12.827 -0.0389 -0.3499  0.7876
  422TMC3    O1 6358   3.262   0.726  12.718  0.1886 -0.0098  0.1852
  422TMC3    O2 6359   3.261   1.396  12.796  0.4850 -0.4220 -0.1125
  423MPD2     C 6360   0.294   2.358   0.692 -0.4290  1.2615 -0.8420
  423MPD2    C1 6361   0.298   2.227   0.728  0.7011  0.3247  0.8875
  423MPD2    C2 6362   0.330   2.136   0.628 -0.3031  0.7559  0.3819
  423MPD2    C3 6363   0.340   2.174   0.497  0.0582 -0.0960  0.1738
  423MPD2    C4 6364   0.326   2.301   0.458  0.7642  0.0578  0.0471
  423MPD2    C5 6365   0.315   2.394   0.559 -0.5329 -0.0954 -0.2457
  423MPD2     H 6366   0.344   2.034   0.659  1.3871  0.2892 -1.9082
  423MPD2    H1 6367   0.341   2.339   0.358  1.0572 -1.0877 -0.3407
  423MPD2    H2 6368   0.270   2.440   0.759  2.1651  0.1205  1.4996
  423MPD2    H3 6369   0.312   2.499   0.533  0.3442  0.1017  0.4569
  423MPD2     N 6370   0.351   2.078   0.392 -0.1000  0.6326 -0.4021
  423MPD2    H5 6371   0.344   2.108   0.295  1.0754 -1.1089 -1.0270
  423MPD2    N1 6372   0.288   2.187   0.862 -0.3466  0.5565 -0.3863
  423MPD2    H7 6373   0.310   2.089   0.880 -0.5481  0.4575 -0.6720
  424TMC3    C1 6374   0.234   2.205   1.091 -0.4466 -1.0906  0.0789
  424TMC3    C2 6375   0.306   2.088   1.115  0.1873 -0.0547  0.1558
  424TMC3    C3 6376   0.263   2.011   1.225  0.7791  0.5720 -0.0269
  424TMC3    C4 6377   0.130   2.245   1.172 -0.9005 -0.2529 -0.2717
  424TMC3    C5 6378   0.097   2.167   1.277 -0.2499 -0.4812 -0.0728
  424TMC3    C6 6379   0.163   2.048   1.304 -0.4040 -0.2237 -0.3916
  424TMC3     C 6380   0.243   2.269   0.964  0.1505 -0.3566  0.3367
  424TMC3     O 6381   0.194   2.382   0.963 -0.0094  0.3780  0.1878
  424TMC3     H 6382   0.391   2.064   1.052  0.9320  0.2308  1.0418
  424TMC3    H1 6383   0.087   2.344   1.157  1.5770  0.7592 -0.8138
  424TMC3    H2 6384   0.136   1.998   1.396  3.2630 -1.4256  0.0391
  424TMC3    C7 6385   0.031   2.227   1.385 -0.0253  0.1285  0.1355
  424TMC3    C8 6386   0.346   1.903   1.281 -0.4529 -0.7483 -0.3025
  424TMC3    O1 6387   0.078   2.334   1.427  0.0235  0.0660  0.0776
  424TMC3    O2 6388   0.282   1.820   1.346 -0.4487  0.2696 -0.0763
  425MPD2     C 6389   3.520   1.054  17.217  0.0658  0.4221 -0.4896
  425MPD2    C1 6390   3.426   0.959  17.248  0.9313  0.1199  0.3237
  425MPD2    C2 6391   3.335   0.998  17.343  0.3514  0.1040 -0.1427
  425MPD2    C3 6392   3.333   1.117  17.408 -0.1021  0.0599  0.7274
  425MPD2    C4 6393   3.426   1.207  17.369 -0.5681  0.4771  0.0440
  425MPD2    C5 6394   3.519   1.181  17.275 -0.6625 -0.3909 -0.1091
  425MPD2     H 6395   3.259   0.928  17.376  0.6609 -0.1988 -0.0602
  425MPD2    H1 6396   3.441   1.303  17.416  1.7272  0.9494 -1.6953
  425MPD2    H2 6397   3.599   1.020  17.151  1.2598  1.1873  0.5431
  425MPD2    H3 6398   3.603   1.245  17.251  0.6021 -2.3541 -0.8808
  425MPD2     N 6399   3.234   1.147  17.509 -0.1584 -0.2066  0.8421
  425MPD2    H5 6400   3.167   1.073  17.528  0.1346 -0.1587  2.1023
  425MPD2    N1 6401   3.432   0.828  17.192 -0.5738  0.8849 -0.8328
  425MPD2    H7 6402   3.493   0.809  17.114  0.0137 -0.8344  0.0582
  426TMC3    C1 6403   3.390   0.602  17.157  0.0020  0.6191  0.3462
  426TMC3    C2 6404   3.501   0.605  17.075 -0.2844 -0.4589  0.1272
  426TMC3    C3 6405   3.549   0.485  17.040  0.0257  0.1620 -0.0088
  426TMC3    C4 6406   3.315   0.494  17.188 -0.4285 -0.3526 -0.0699
  426TMC3    C5 6407   3.365   0.378  17.152 -0.0375  0.2228  0.2764
  426TMC3    C6 6408   3.479   0.374  17.075  0.2276 -0.2248  0.4309
  426TMC3     C 6409   3.361   0.721  17.236  0.3626 -0.9440 -0.2158
  426TMC3     O 6410   3.282   0.705  17.331 -0.3198 -0.3875 -0.4486
  426TMC3     H 6411   3.560   0.689  17.038 -1.5558  1.2228  1.9336
  426TMC3    H1 6412   3.228   0.502  17.252  1.0376  1.6000  1.6527
  426TMC3    H2 6413   3.514   0.276  17.045  0.5075 -0.8308  2.7325
  426TMC3    C7 6414   3.306   0.244  17.188 -0.2700  0.2506  0.6756
  426TMC3    C8 6415   3.642   0.468  16.929  0.2046  0.5658 -0.1854
  426TMC3    O1 6416   3.342   0.146  17.123 -0.2978  0.4106  0.7444
  426TMC3    O2 6417   3.659   0.353  16.891  0.2109  0.0589  0.0657
  427MPD2     C 6418   1.482   2.570  14.932 -0.4663 -0.0376  0.2551
  427MPD2    C1 6419   1.518   2.657  15.034  0.4586 -0.2422 -0.5273
  427MPD2    C2 6420   1.456   2.776  15.047 -0.6518 -0.3320 -0.7872
  427MPD2    C3 6421   1.368   2.822  14.957 -0.3148  0.4301 -0.4930
  427MPD2    C4 6422   1.321   2.732  14.858 -0.0703  0.2087 -0.0012
  427MPD2    C5 6423   1.379   2.612  14.845 -0.7163  0.4664  0.6770
  427MPD2     H 6424   1.499   2.837  15.126  0.5726  0.2466 -1.8956
  427MPD2    H1 6425   1.256   2.765  14.777 -1.0690 -1.4260  0.1412
  427MPD2    H2 6426   1.529   2.473  14.920 -1.0030 -0.4724  1.7054
  427MPD2    H3 6427   1.356   2.550  14.760  1.0016  0.1111  0.4709
  427MPD2     N 6428   1.304   2.948  14.962  0.7294  0.1725 -0.2975
  427MPD2    H5 6429   1.221   2.966  14.907  0.6390 -0.6757 -0.4389
  427MPD2    N1 6430   1.624   2.635  15.125  0.5286  0.5640  0.5239
  427MPD2    H7 6431   1.650   2.708  15.191 -0.4621 -0.1184  1.6621
  428TMC3    C1 6432   1.774   2.536  15.266  0.2543  0.0182 -0.0983
  428TMC3    C2 6433   1.789   2.440  15.359 -0.2210  0.5770 -0.2823
  428TMC3    C3 6434   1.893   2.457  15.443 -0.0721 -0.0514 -0.1103
  428TMC3    C4 6435   1.839   2.655  15.267  0.6062  0.0707 -0.0159
  428TMC3    C5 6436   1.937   2.672  15.363  0.6377 -0.0083  0.1720
  428TMC3    C6 6437   1.964   2.569  15.452  0.5018 -0.6114  0.2280
  428TMC3     C 6438   1.688   2.521  15.150  0.4316  0.1703  0.9023
  428TMC3     O 6439   1.650   2.409  15.125 -0.6908  0.4034 -0.6031
  428TMC3     H 6440   1.744   2.343  15.342 -1.5616  0.8848  1.4765
  428TMC3    H1 6441   1.830   2.726  15.185  2.0853 -1.0787 -1.1494
  428TMC3    H2 6442   2.053   2.575  15.514 -1.0584  0.3505  2.3938
  428TMC3    C7 6443   1.997   2.800  15.385 -0.3072  0.0624  0.0136
  428TMC3    C8 6444   1.931   2.353  15.537 -0.4391 -0.2161  0.2874
  428TMC3    O1 6445   2.051   2.818  15.493  0.4732  0.2151 -0.2224
  428TMC3    O2 6446   1.921   2.238  15.487 -0.0804 -0.0832  0.0422
  429MPD2     C 6447   3.618   3.579   0.125  0.2628  0.2157 -0.3182
  429MPD2    C1 6448   3.651   3.516   0.002  0.1267  0.0618 -0.6815
  429MPD2    C2 6449   3.713   3.590  17.645 -0.4259  0.6813 -0.4595
  429MPD2    C3 6450   3.738   3.723  17.667  0.4332  0.2330 -0.0804
  429MPD2    C4 6451   3.711   3.788   0.049 -1.5096 -0.5846  0.4348
  429MPD2    C5 6452   3.649   3.713   0.150  0.6046 -0.6870 -0.9827
  429MPD2     H 6453   3.725   3.548  17.546  1.5283  3.0668 -1.2583
  429MPD2    H1 6454   3.743   3.888   0.073  0.1795 -0.2018 -3.3011
  429MPD2    H2 6455   3.565   3.530   0.205  0.4943  0.2938 -0.1166
  429MPD2    H3 6456   3.629   3.759   0.246 -2.0807 -1.3061 -1.2428
  429MPD2     N 6457   3.796   3.798  17.556  0.3754  0.2058  0.2390
  429MPD2    H5 6458   3.819   3.747  17.471  0.0400  0.9998 -0.3169
  429MPD2    N1 6459   3.629   3.377  17.721  0.5957 -0.3133  0.4228
  429MPD2    H7 6460   3.649   3.338  17.630  1.7506  2.5800 -0.5502
  430TMC3    C1 6461   3.859   3.983  17.426  0.2712 -0.0789 -0.2345
  430TMC3    C2 6462   3.781   4.067  17.350  0.4143 -0.2704 -0.6157
  430TMC3    C3 6463   3.809   4.073  17.218  0.5236  0.5386 -0.0660
  430TMC3    C4 6464   3.949   3.898  17.370 -0.1163  1.0113  0.0957
  430TMC3    C5 6465   3.980   3.910  17.240  0.3530 -0.0352  0.1663
  430TMC3    C6 6466   3.917   4.002  17.162  0.6265  0.2610  0.2347
  430TMC3     C 6467   3.804   3.936  17.555 -0.2489 -0.0831 -0.5142
  430TMC3     O 6468   3.736   4.011  17.620  0.6313 -0.3100  0.1638
  430TMC3     H 6469   3.713   4.135  17.400  2.1288 -0.1986  1.6274
  430TMC3    H1 6470   3.999   3.825  17.432  1.5191  1.1822 -1.0162
  430TMC3    H2 6471   3.935   4.007  17.056  0.7072 -0.3970  0.2186
  430TMC3    C7 6472   4.049   3.799  17.167  0.5652  0.3890 -0.3791
  430TMC3    C8 6473   3.682   4.068  17.147 -0.1368  0.0241 -0.1123
  430TMC3    O1 6474   4.059   3.687  17.224  1.0125  0.2462  0.3769
  430TMC3    O2 6475   3.585   4.067  17.219  0.2525 -0.0297  0.4184
  431MPD2     C 6476   4.146   2.892  12.455 -0.3289  0.4256 -0.5509
  431MPD2    C1 6477   4.261   2.884  12.380 -0.1454  0.0050 -0.5827
  431MPD2    C2 6478   4.326   2.764  12.370  0.0680  0.2412  0.5026
  431MPD2    C3 6479   4.290   2.654  12.448 -0.3288  0.2451 -0.5906
  431MPD2    C4 6480   4.180   2.670  12.522 -0.0434 -0.6300  1.1896
  431MPD2    C5 6481   4.104   2.783  12.520 -0.9051  0.2019 -0.4163
  431MPD2     H 6482   4.405   2.738  12.301 -1.5089 -0.8839 -0.9081
  431MPD2    H1 6483   4.152   2.592  12.592 -0.1882 -1.2960  0.3781
  431MPD2    H2 6484   4.086   2.982  12.456  0.5795  1.0105  1.8302
  431MPD2    H3 6485   4.015   2.795  12.581 -0.4532 -1.4259  0.5655
  431MPD2     N 6486   4.373   2.543  12.451 -0.4640 -0.0522  0.5978
  431MPD2    H5 6487   4.459   2.544  12.397 -0.0054  1.9847  1.3354
  431MPD2    N1 6488   4.313   2.999  12.327  0.0394  0.1764 -0.1216
  431MPD2    H7 6489   4.259   3.083  12.346 -0.2004 -0.2713  1.1464
  432TMC3    C1 6490   4.472   2.353  12.521  0.1715  0.9947 -0.0370
  432TMC3    C2 6491   4.549   2.371  12.409  0.4056 -0.2702 -0.0049
  432TMC3    C3 6492   4.684   2.386  12.427 -0.3569  0.5716  0.4686
  432TMC3    C4 6493   4.528   2.320  12.649  0.5046 -0.1806 -0.0810
  432TMC3    C5 6494   4.663   2.338  12.659 -0.0830  0.5197  0.4428
  432TMC3    C6 6495   0.010   2.370  12.552  0.0704 -0.9043 -0.7462
  432TMC3     C 6496   4.358   2.437  12.540  0.0949  0.1677  0.2329
  432TMC3     O 6497   4.289   2.418  12.633 -0.4765  0.4197 -0.3546
  432TMC3     H 6498   4.503   2.371  12.310  1.7967 -1.0624 -0.6455
  432TMC3    H1 6499   4.468   2.326  12.738 -0.3864  0.2097 -0.7113
  432TMC3    H2 6500   0.112   2.402  12.571 -0.9369  1.9988 -0.2326
  432TMC3    C7 6501   4.711   2.405  12.782  0.2514 -0.0098 -0.5163
  432TMC3    C8 6502   0.020   2.450  12.314 -0.4196  0.4156 -0.1994
  432TMC3    O1 6503   0.082   2.379  12.838  0.1613 -0.2144  0.1213
  432TMC3    O2 6504   4.696   2.465  12.207 -0.3087  0.2471 -0.2221
  433MPD2     C 6505   2.663   1.239  10.835  1.2335  0.3359 -0.5616
  433MPD2    C1 6506   2.757   1.172  10.908  0.0742  0.0087 -0.1009
  433MPD2    C2 6507   2.808   1.227  11.024 -0.6828 -0.0210  0.7074
  433MPD2    C3 6508   2.749   1.342  11.075 -0.3946 -0.1430 -0.6365
  433MPD2    C4 6509   2.635   1.402  11.016  0.2311  0.1602  0.3029
  433MPD2    C5 6510   2.605   1.351  10.889 -0.0545 -0.0087 -0.1170
  433MPD2     H 6511   2.894   1.188  11.077  1.8848  0.9186 -2.8364
  433MPD2    H1 6512   2.582   1.487  11.057  0.1021  0.4151 -0.3838
  433MPD2    H2 6513   2.623   1.206  10.740  0.0531 -0.2779  0.1416
  433MPD2    H3 6514   2.521   1.391  10.832 -0.2907 -1.7747 -1.0044
  433MPD2     N 6515   2.817   1.407  11.188 -0.4373  0.0364  0.4909
  433MPD2    H5 6516   2.907   1.368  11.213  0.3953  0.6736 -1.5111
  433MPD2    N1 6517   2.825   1.067  10.835  0.3336 -0.1656  0.4854
  433MPD2    H7 6518   2.804   1.043  10.739 -1.3579  0.7270  0.6386
  434TMC3    C1 6519   2.990   0.900  10.803 -0.5307  0.5233  0.0768
  434TMC3    C2 6520   3.082   0.825  10.869  0.1212 -1.1453  0.1698
  434TMC3    C3 6521   3.204   0.801  10.814  0.1041 -0.0672  0.0419
  434TMC3    C4 6522   3.008   0.945  10.673  0.8330  0.2373  0.0436
  434TMC3    C5 6523   3.134   0.912  10.625 -0.5229  0.0921 -0.4707
  434TMC3    C6 6524   3.232   0.847  10.690  0.5189  0.3895  0.0343
  434TMC3     C 6525   2.909   0.980  10.892  0.8315  0.3887 -0.2544
  434TMC3     O 6526   2.928   0.961  11.012 -0.4102  0.3931 -0.7174
  434TMC3     H 6527   3.054   0.784  10.965 -0.8435 -2.6247 -0.7375
  434TMC3    H1 6528   2.947   1.007  10.608 -1.8247 -2.4836 -0.0765
  434TMC3    H2 6529   3.317   0.815  10.632  1.5922  2.4311  0.4598
  434TMC3    C7 6530   3.155   0.935  10.483 -0.8695  0.3374  0.2926
  434TMC3    C8 6531   3.315   0.792  10.909  0.2686  0.4687  0.8575
  434TMC3    O1 6532   3.275   0.943  10.457 -0.3188  0.3356  0.3431
  434TMC3    O2 6533   3.288   0.765  11.023  0.6076  0.1522 -0.2702
  435MPD2     C 6534   0.446   2.045  15.391 -0.0029 -0.7936  0.2089
  435MPD2    C1 6535   0.370   1.995  15.502  0.8984 -0.3959 -0.3866
  435MPD2    C2 6536   0.421   1.896  15.577  0.2830 -0.3122 -0.5621
  435MPD2    C3 6537   0.550   1.843  15.556  0.4674 -0.0650 -0.1899
  435MPD2    C4 6538   0.626   1.897  15.449  1.0773 -0.0215 -0.1865
  435MPD2    C5 6539   0.567   1.995  15.371  0.1684  0.4706 -0.4492
  435MPD2     H 6540   0.358   1.852  15.653 -0.6742  0.5502 -0.8636
  435MPD2    H1 6541   0.727   1.870  15.422  1.8798  0.0314  2.7096
  435MPD2    H2 6542   0.419   2.118  15.316  1.8664 -2.1288 -1.7891
  435MPD2    H3 6543   0.622   2.039  15.289  1.6565  0.7755  0.7275
  435MPD2     N 6544   0.589   1.739  15.647 -0.1689  0.9603 -0.2526
  435MPD2    H5 6545   0.523   1.699  15.712  1.7094 -3.1428 -0.8544
  435MPD2    N1 6546   0.240   2.041  15.524  0.3230  0.0960 -0.0266
  435MPD2    H7 6547   0.184   2.008  15.603  0.4941  3.5317  1.5488
  436TMC3    C1 6548   4.595   2.119  15.647  0.1939 -0.0483 -0.3619
  436TMC3    C2 6549   4.730   2.093  15.610  0.2021 -0.2868 -0.0211
  436TMC3    C3 6550   0.040   2.154  15.497 -1.2082 -0.1465 -0.0086
  436TMC3    C4 6551   4.508   2.183  15.558 -0.9213 -0.2787  0.4623
  436TMC3    C5 6552   4.555   2.237  15.448 -0.5615 -0.3019  0.1514
  436TMC3    C6 6553   4.692   2.220  15.417  0.2496 -0.5940  0.5839
  436TMC3     C 6554   4.548   2.039  15.761  0.1350 -0.2574 -0.7116
  436TMC3     O 6555   4.612   1.943  15.796  0.1517  0.5340  0.1025
  436TMC3     H 6556   0.060   2.034  15.673 -1.9606 -1.5021  1.0911
  436TMC3    H1 6557   4.402   2.192  15.583 -0.2954  1.7531  2.4271
  436TMC3    H2 6558   0.003   2.266  15.331 -0.2239  1.2579  1.3115
  436TMC3    C7 6559   4.463   2.280  15.340  0.0238  0.1395  0.1792
  436TMC3    C8 6560   0.181   2.144  15.458  0.1204 -0.3938 -0.1244
  436TMC3    O1 6561   4.506   2.269  15.226  0.8868  0.4145  0.4612
  436TMC3    O2 6562   0.225   2.224  15.378 -0.0734 -0.2503 -0.2240
  437TMC3    C1 6563   3.823   3.823  11.658  0.2850 -0.0449  0.1549
  437TMC3    C2 6564   3.818   3.688  11.688 -0.3881 -0.1614  0.5938
  437TMC3    C3 6565   3.868   3.646  11.804  0.1600 -0.3053  0.9836
  437TMC3    C4 6566   3.896   3.907  11.734  0.7924 -0.0417  0.6562
  437TMC3    C5 6567   3.944   3.865  11.850  0.0183  0.5217  0.1335
  437TMC3    C6 6568   3.945   3.730  11.886  0.5845  0.1301 -0.6121
  437TMC3     C 6569   3.787   3.867  11.527 -0.9096 -0.2502  0.0973
  437TMC3     O 6570   3.849   3.965  11.481 -0.2905 -0.0601  0.3737
  437TMC3     H 6571   3.805   3.614  11.610  1.8866  1.3867 -1.2873
  437TMC3    H1 6572   3.885   4.014  11.720  1.1190 -0.1972 -0.7992
  437TMC3    H2 6573   3.996   3.690  11.973  1.1815  0.1174 -0.9722
  437TMC3    C7 6574   3.956   3.965  11.957 -0.1183  0.2029  0.0176
  437TMC3    C8 6575   3.875   3.509  11.844 -0.5223  0.3502  0.7070
  437TMC3    O1 6576   3.880   4.063  11.952 -0.1820 -0.1645 -0.2804
  437TMC3    O2 6577   3.950   3.472  11.932 -0.6312 -0.3505 -0.0517
  438MPD2     C 6578   1.206   0.131  16.653  0.9280 -0.6059 -0.0835
  438MPD2    C1 6579   1.260   0.024  16.720  0.3347 -1.0955 -1.0949
  438MPD2    C2 6580   1.282   0.044  16.854 -0.5005 -0.2789  0.4922
  438MPD2    C3 6581   1.230   0.159  16.917  0.3887  0.4684 -0.3789
  438MPD2    C4 6582   1.166   0.254  16.841 -0.3893  0.3154  0.0844
  438MPD2    C5 6583   1.155   0.242  16.709  0.3919 -0.2996 -0.3332
  438MPD2     H 6584   1.349   4.710  16.902 -2.5482  0.0346  3.7783
  438MPD2    H1 6585   1.131   0.343  16.892 -2.9870  0.0407 -1.2391
  438MPD2    H2 6586   1.192   0.112  16.547 -0.3214  2.6093 -0.4802
  438MPD2    H3 6587   1.082   0.308  16.663  0.7485  0.1591 -0.2396
  438MPD2     N 6588   1.242   0.181  17.059  0.1872  0.0525 -0.1274
  438MPD2    H5 6589   1.209   0.272  17.089 -1.3987 -0.6593  0.2855
  438MPD2    N1 6590   1.328   4.651  16.662 -0.0835  0.1811  0.0226
  438MPD2    H7 6591   1.362   4.581  16.727 -0.6674  0.3447  0.4943
  439TMC3    C1 6592   1.460   4.537  16.500  0.5111  0.1210  0.0150
  439TMC3    C2 6593   1.480   4.497  16.371  0.7078  0.1748  0.7698
  439TMC3    C3 6594   1.558   4.388  16.353 -0.4709 -0.1226  0.2306
  439TMC3    C4 6595   1.528   4.476  16.607 -0.5852  0.5476  0.0425
  439TMC3    C5 6596   1.583   4.355  16.579  0.2176  0.1633 -0.5135
  439TMC3    C6 6597   1.597   4.305  16.449 -0.2322 -0.4319 -0.3945
  439TMC3     C 6598   1.367   4.644  16.528  1.0822 -0.1362 -0.3637
  439TMC3     O 6599   1.332   4.714  16.432 -0.8428  0.1643 -0.0353
  439TMC3     H 6600   1.430   4.545  16.288 -0.9131 -0.7137  1.2334
  439TMC3    H1 6601   1.519   4.497  16.713 -1.3084 -1.3899  0.3590
  439TMC3    H2 6602   1.630   4.203  16.434 -2.0177 -1.1454  0.4842
  439TMC3    C7 6603   1.666   4.280  16.676  0.0944 -0.0347  0.3829
  439TMC3    C8 6604   1.563   4.337  16.219  0.0081 -0.3948  0.7392
  439TMC3    O1 6605   1.725   4.348  16.761  0.3874 -0.0647  0.6062
  439TMC3    O2 6606   1.571   4.214  16.209 -0.4771 -0.5211 -0.0099
  440MPD2     C 6607   4.608   0.275  14.855  0.7087  0.2870 -0.0218
  440MPD2    C1 6608   4.614   0.406  14.895 -0.1871 -0.1388  0.2883
  440MPD2    C2 6609   4.686   0.433  15.008 -0.0373 -0.3645  0.5246
  440MPD2    C3 6610   0.007   0.332  15.084 -0.4135 -0.6944 -1.4746
  440MPD2    C4 6611   0.007   0.203  15.038  0.7976 -0.0952 -0.2824
  440MPD2    C5 6612   4.675   0.177  14.923  0.5791 -0.2010 -0.0131
  440MPD2     H 6613   4.701   0.538  15.032  1.3448 -0.7007  1.1067
  440MPD2    H1 6614   0.050   0.118  15.090 -0.3395  0.0482  0.8972
  440MPD2    H2 6615   4.544   0.243  14.773  1.2850  1.3128 -0.8732
  440MPD2    H3 6616   4.666   0.072  14.897  0.0986 -0.1459 -0.0838
  440MPD2     N 6617   0.073   0.352  15.208  0.5119 -0.5347 -0.2448
  440MPD2    H5 6618   0.107   0.267  15.252  1.0206 -0.7971 -1.1448
  440MPD2    N1 6619   4.543   0.505  14.817  0.3817  0.9778  0.4003
  440MPD2    H7 6620   4.538   0.598  14.857  1.3424  0.6283  1.3510
  441TMC3    C1 6621   0.183   0.455  15.386  0.7844 -0.6832  0.1559
  441TMC3    C2 6622   0.260   0.561  15.425 -0.1597 -0.4618 -1.2002
  441TMC3    C3 6623   0.369   0.537  15.504 -0.4175 -0.3550  0.4383
  441TMC3    C4 6624   0.204   0.331  15.438 -0.0511  0.5817  0.9913
  441TMC3    C5 6625   0.302   0.316  15.534 -0.0222  0.4888 -0.0453
  441TMC3    C6 6626   0.392   0.413  15.555 -0.0973  0.0557 -0.2945
  441TMC3     C 6627   0.104   0.473  15.264 -0.4096  0.3818  0.1360
  441TMC3     O 6628   0.090   0.592  15.229 -0.1415 -0.1341  0.0174
  441TMC3     H 6629   0.243   0.658  15.380 -0.4530 -0.5960 -1.3755
  441TMC3    H1 6630   0.148   0.247  15.399  1.2050  1.1301 -2.0197
  441TMC3    H2 6631   0.470   0.401  15.630 -1.0380  0.6486  0.7776
  441TMC3    C7 6632   0.355   0.180  15.552  0.7725 -0.4735  0.2682
  441TMC3    C8 6633   0.457   0.647  15.544  0.2582 -0.2195 -0.3838
  441TMC3    O1 6634   0.284   0.083  15.560  0.4305  0.0889 -0.1527
  441TMC3    O2 6635   0.554   0.608  15.618  0.6206  0.9901  0.4301
  442MPD2     C 6636   3.061   0.673  16.396 -0.4853  0.3813 -0.2581
  442MPD2    C1 6637   2.983   0.570  16.451 -0.8803  0.1879  0.3755
  442MPD2    C2 6638   2.989   0.443  16.399  0.6606 -0.4301  0.7276
  442MPD2    C3 6639   3.055   0.437  16.278  0.9940 -0.4462 -0.3434
  442MPD2    C4 6640   3.136   0.537  16.219  0.5455  0.4506 -0.0504
  442MPD2    C5 6641   3.134   0.652  16.287 -0.0116 -0.2299  0.1791
  442MPD2     H 6642   2.922   0.367  16.436 -1.2940  1.5356  1.2520
  442MPD2    H1 6643   3.190   0.520  16.127 -1.1293 -2.5474 -0.4753
  442MPD2    H2 6644   3.067   0.773  16.437 -1.1093  0.3743 -0.1369
  442MPD2    H3 6645   3.199   0.728  16.244 -1.3148 -0.4104 -2.1102
  442MPD2     N 6646   3.045   0.320  16.198 -0.2247 -0.9616  0.3335
  442MPD2    H5 6647   3.101   0.311  16.114 -0.9596 -0.9597 -0.1645
  442MPD2    N1 6648   2.892   0.593  16.555 -0.2613 -0.0610 -0.1736
  442MPD2    H7 6649   2.838   0.511  16.582  0.9277 -1.0974 -0.9071
  443TMC3    C1 6650   2.790   0.692  16.739  0.6078 -0.2738  0.2698
  443TMC3    C2 6651   2.717   0.801  16.779  0.0661 -0.6072  0.7445
  443TMC3    C3 6652   2.607   0.788  16.851 -0.6314  0.3668 -0.3165
  443TMC3    C4 6653   2.754   0.571  16.794 -0.5865  0.6222 -0.2750
  443TMC3    C5 6654   2.656   0.567  16.892 -0.5034 -0.2478  0.0248
  443TMC3    C6 6655   2.581   0.679  16.916 -0.6540  0.6279 -0.0603
  443TMC3     C 6656   2.891   0.704  16.634 -0.2642  0.6995 -0.3923
  443TMC3     O 6657   2.939   0.816  16.617 -0.4627 -0.7215 -0.0827
  443TMC3     H 6658   2.743   0.898  16.740  0.2624 -0.7930  0.4192
  443TMC3    H1 6659   2.811   0.480  16.777 -0.2852  0.7520  0.0401
  443TMC3    H2 6660   2.483   0.673  16.962 -0.7333  1.5682 -0.1158
  443TMC3    C7 6661   2.630   0.441  16.953 -0.0371 -0.5288  0.7989
  443TMC3    C8 6662   2.507   0.899  16.877  0.4600 -1.1359 -0.4180
  443TMC3    O1 6663   2.641   0.340  16.881  0.0794 -0.3646  0.1720
  443TMC3    O2 6664   2.481   0.900  16.995  0.0548  0.4593 -0.2452
  444MPD2     C 6665   3.117   0.445  16.820 -0.2924  0.9211  0.4766
  444MPD2    C1 6666   3.078   0.317  16.832 -0.2986  0.5742 -0.0500
  444MPD2    C2 6667   3.119   0.224  16.740  0.5961 -0.0042 -0.3758
  444MPD2    C3 6668   3.198   0.248  16.636 -0.5091  0.0464 -0.9382
  444MPD2    C4 6669   3.241   0.378  16.626 -0.0614  0.6918  0.4077
  444MPD2    C5 6670   3.199   0.476  16.715  0.6948  0.2911  0.2578
  444MPD2     H 6671   3.089   0.121  16.751  1.4576 -0.3362 -1.1570
  444MPD2    H1 6672   3.301   0.412  16.543 -0.9220 -0.9543 -0.9006
  444MPD2    H2 6673   3.100   0.526  16.891 -0.0974 -0.0231  1.5905
  444MPD2    H3 6674   3.235   0.575  16.693  3.3835 -0.3249  1.8188
  444MPD2     N 6675   3.228   0.149  16.538 -0.2416  0.3148  0.7459
  444MPD2    H5 6676   3.194   0.057  16.563 -1.5566  0.3323 -0.9636
  444MPD2    N1 6677   3.008   0.269  16.944 -0.4248 -0.3404 -0.0421
  444MPD2    H7 6678   2.993   0.168  16.948  0.6866 -0.5321 -0.5832
  445TMC3    C1 6679   3.379   0.042  16.395  0.0288  0.0404  0.3584
  445TMC3    C2 6680   3.285   4.695  16.343 -0.3860 -0.1279 -0.8453
  445TMC3    C3 6681   3.322   4.569  16.303 -0.8328  0.1484 -0.6336
  445TMC3    C4 6682   3.503   4.730  16.418 -0.3312  0.0825 -0.2378
  445TMC3    C5 6683   3.528   4.600  16.382 -0.1298  0.3454  0.6455
  445TMC3    C6 6684   3.445   4.517  16.308  0.5859 -0.1227  0.1512
  445TMC3     C 6685   3.334   0.166  16.449  0.7491  0.5603  0.0518
  445TMC3     O 6686   3.411   0.258  16.429  0.0206  0.3303  0.1159
  445TMC3     H 6687   3.182   4.727  16.340 -0.5982 -0.7830 -0.5182
  445TMC3    H1 6688   3.564   0.053  16.486 -0.5485 -1.2999  1.1713
  445TMC3    H2 6689   3.483   4.425  16.266 -0.5006  0.6233 -2.4479
  445TMC3    C7 6690   3.666   4.570  16.389  0.2981 -0.0129  0.0281
  445TMC3    C8 6691   3.201   4.496  16.252  0.0968 -0.5125  0.0178
  445TMC3    O1 6692   3.746   4.660  16.400  0.2990 -0.3021 -0.2222
  445TMC3    O2 6693   3.090   4.551  16.240 -0.1891 -0.1682 -0.5222
  446MPD2     C 6694   2.914   0.514  11.410 -0.3354  0.1000  0.2050
  446MPD2    C1 6695   2.869   0.575  11.292  0.0720  0.1539 -0.2127
  446MPD2    C2 6696   2.932   0.691  11.250  0.1276  0.2044  0.3062
  446MPD2    C3 6697   3.034   0.739  11.321  0.4663 -0.0917 -0.8344
  446MPD2    C4 6698   3.075   0.677  11.434  0.1151  1.0090 -0.3279
  446MPD2    C5 6699   3.016   0.565  11.481  0.0677  0.3108 -0.2405
  446MPD2     H 6700   2.907   0.744  11.159  1.7810  0.0184 -0.2547
  446MPD2    H1 6701   3.162   0.698  11.496  0.0163 -1.5494  0.7077
  446MPD2    H2 6702   2.864   0.424  11.444  0.6870  0.1419  1.8469
  446MPD2    H3 6703   3.055   0.505  11.562  2.1017  1.4540 -0.3808
  446MPD2     N 6704   3.087   0.866  11.276 -0.1823  0.2485 -0.7594
  446MPD2    H5 6705   3.053   0.895  11.184 -0.5509 -0.2331 -0.7765
  446MPD2    N1 6706   2.746   0.526  11.231 -0.4467  0.2586  0.2060
  446MPD2    H7 6707   2.718   0.576  11.148 -1.4902 -2.2538 -0.9617
  447TMC3    C1 6708   3.245   1.057  11.253 -0.0066  0.2873 -0.3993
  447TMC3    C2 6709   3.235   1.053  11.116  0.5911  0.1316  0.2051
  447TMC3    C3 6710   3.325   1.124  11.044 -0.3044  1.1048 -0.4498
  447TMC3    C4 6711   3.349   1.118  11.315 -0.4250 -0.0783  0.2914
  447TMC3    C5 6712   3.446   1.167  11.237  0.3048 -0.2739  0.4102
  447TMC3    C6 6713   3.445   1.161  11.101  0.1769  0.4386 -0.5308
  447TMC3     C 6714   3.192   0.943  11.331  0.1461  0.2748 -0.1901
  447TMC3     O 6715   3.238   0.935  11.446 -0.2595  0.0211 -0.5476
  447TMC3     H 6716   3.152   1.005  11.064 -0.4466  1.3310  0.7625
  447TMC3    H1 6717   3.363   1.100  11.421 -3.7806  0.2009  0.7590
  447TMC3    H2 6718   3.512   1.224  11.043  0.2065  1.1731  0.3166
  447TMC3    C7 6719   3.575   1.191  11.304 -0.1270 -0.2017 -0.4041
  447TMC3    C8 6720   3.295   1.152  10.902  0.1403 -0.6018 -0.4946
  447TMC3    O1 6721   3.578   1.195  11.426 -0.1289 -0.2528  0.6503
  447TMC3    O2 6722   3.176   1.146  10.872 -0.2771  0.1975 -0.1310
  448TMC3    C1 6723   1.558   1.311  16.943 -0.2094 -0.6218 -0.3054
  448TMC3    C2 6724   1.497   1.191  16.909 -0.3733 -1.2102 -0.2320
  448TMC3    C3 6725   1.574   1.077  16.921 -0.8357  0.3285 -0.3226
  448TMC3    C4 6726   1.679   1.316  17.002 -0.0598  0.4764  0.4079
  448TMC3    C5 6727   1.755   1.205  17.009  0.8010  0.4782  0.2807
  448TMC3    C6 6728   1.701   1.080  16.982  0.3381 -0.7743  0.6058
  448TMC3     C 6729   1.480   1.439  16.943 -0.0359  0.3379 -0.3598
  448TMC3     O 6730   1.507   1.512  17.037  0.7394  0.4751 -0.1326
  448TMC3     H 6731   1.394   1.176  16.879 -0.6377 -0.7242  0.4338
  448TMC3    H1 6732   1.730   1.401  17.047  0.3784  0.5628 -0.2579
  448TMC3    H2 6733   1.776   1.002  16.987 -0.7105 -1.8215  0.0558
  448TMC3    C7 6734   1.859   1.207  17.105 -0.2316 -0.4198 -0.1271
  448TMC3    C8 6735   1.521   0.947  16.890 -0.4024  0.6982 -0.1036
  448TMC3    O1 6736   1.947   1.288  17.088  0.2744 -0.6264  0.1746
  448TMC3    O2 6737   1.584   0.853  16.943 -0.0907 -0.4069  0.4928
  449MPD2     C 6738   2.974   0.036  14.222  0.8146 -0.2480  0.5034
  449MPD2    C1 6739   2.866   0.072  14.139  0.0502 -0.2867 -0.4832
  449MPD2    C2 6740   2.740   0.007  14.170 -0.6006  0.0062 -0.1793
  449MPD2    C3 6741   2.732   4.650  14.271 -0.5736 -0.4199 -0.1740
  449MPD2    C4 6742   2.843   4.620  14.352  0.4647 -0.5149  0.3666
  449MPD2    C5 6743   2.963   4.683  14.330  0.3218  0.3733 -0.0815
  449MPD2     H 6744   2.647   0.027  14.120 -1.8289  0.7294  2.3772
  449MPD2    H1 6745   2.839   4.548  14.433 -1.5073 -1.8614 -0.9554
  449MPD2    H2 6746   3.074   0.076  14.211  0.3570  0.7855  0.0353
  449MPD2    H3 6747   3.044   4.688  14.401 -0.2153  1.7314  0.4373
  449MPD2     N 6748   2.608   4.586  14.281 -0.8337  0.2088  0.3544
  449MPD2    H5 6749   2.542   4.600  14.205 -0.3887  2.1189  0.3156
  449MPD2    N1 6750   2.870   0.162  14.025  0.2881 -0.2559 -0.1697
  449MPD2    H7 6751   2.786   0.149  13.971 -0.3979  2.7475  0.1564
  450TMC3    C1 6752   2.933   0.336  13.887 -0.1350  0.2277 -0.1038
  450TMC3    C2 6753   3.033   0.325  13.794  0.1927  0.2045 -0.3647
  450TMC3    C3 6754   2.998   0.278  13.671  0.2745  0.4178 -0.0356
  450TMC3    C4 6755   2.805   0.313  13.854  0.0370  0.6317  0.3745
  450TMC3    C5 6756   2.769   0.272  13.726  0.2400  0.6037 -0.1517
  450TMC3    C6 6757   2.871   0.251  13.641 -0.0588 -0.4179  0.5616
  450TMC3     C 6758   2.974   0.251  13.999  0.4614 -0.1910  0.1641
  450TMC3     O 6759   3.081   0.271  14.057  0.0940 -0.2396  0.1318
  450TMC3     H 6760   3.135   0.353  13.813  0.7359 -2.0208  0.0292
  450TMC3    H1 6761   2.726   0.316  13.928  0.8870  2.4309  1.1994
  450TMC3    H2 6762   2.843   0.209  13.545  0.5575 -2.7885  1.4161
  450TMC3    C7 6763   2.673   0.173  13.724  0.3258  0.7210 -0.8861
  450TMC3    C8 6764   3.096   0.298  13.562 -0.2321 -0.6419 -1.1853
  450TMC3    O1 6765   2.704   0.064  13.772 -0.0586  0.3791 -0.5705
  450TMC3    O2 6766   3.154   0.406  13.573  0.3562  0.7694 -0.8659
  451MPD2     C 6767   4.145   2.450   1.180 -0.0516  0.1313  0.1631
  451MPD2    C1 6768   4.134   2.503   1.057  0.5357 -0.0619 -1.2658
  451MPD2    C2 6769   4.235   2.483   0.960 -0.1042  0.0904  0.1292
  451MPD2    C3 6770   4.351   2.418   0.994 -0.3739  0.5447  0.0321
  451MPD2    C4 6771   4.359   2.362   1.122  0.0001 -0.4347  0.3295
  451MPD2    C5 6772   4.257   2.370   1.211 -0.2302  0.0222  1.1764
  451MPD2     H 6773   4.227   2.546   0.872 -1.2265  3.2150  2.4677
  451MPD2    H1 6774   4.437   2.295   1.156 -0.2830  0.5516  2.9224
  451MPD2    H2 6775   4.061   2.452   1.249  0.1425  0.7195  0.3825
  451MPD2    H3 6776   4.263   2.338   1.314 -0.2005 -2.1264  0.5028
  451MPD2     N 6777   4.462   2.426   0.906 -0.5185 -0.9567  0.2593
  451MPD2    H5 6778   4.452   2.486   0.825  1.8335 -0.2900  0.4626
  451MPD2    N1 6779   4.029   2.591   1.013 -0.1007  0.4972  0.0150
  451MPD2    H7 6780   4.047   2.630   0.921 -0.4962 -0.1181 -0.3233
  452TMC3    C1 6781   4.668   2.396   0.800  0.2253 -0.2687 -0.5109
  452TMC3    C2 6782   4.712   2.278   0.738 -0.4948  0.1928 -0.0598
  452TMC3    C3 6783   0.004   2.283   0.608  0.4760 -0.8110 -0.3310
  452TMC3    C4 6784   4.649   2.508   0.738  0.1601 -0.4468 -0.2333
  452TMC3    C5 6785   4.686   2.511   0.598 -0.1799  0.1426 -0.3519
  452TMC3    C6 6786   4.714   2.393   0.532 -0.4860 -0.3044 -0.5200
  452TMC3     C 6787   4.586   2.368   0.920  0.7756  0.4182  0.5525
  452TMC3     O 6788   4.630   2.288   1.003 -0.3395  0.0232 -0.3789
  452TMC3     H 6789   4.700   2.189   0.799  1.8537 -0.0006  0.1123
  452TMC3    H1 6790   4.615   2.591   0.798 -0.3582 -0.4382 -0.5397
  452TMC3    H2 6791   4.733   2.392   0.426 -1.6243  2.5786 -0.7566
  452TMC3    C7 6792   4.724   2.634   0.529 -0.4246 -0.4358 -0.1015
  452TMC3    C8 6793   4.690   2.162   0.540  0.9263 -0.5493 -0.5843
  452TMC3    O1 6794   0.043   2.622   0.418  0.1689  0.0956 -0.2606
  452TMC3    O2 6795   0.029   2.071   0.517 -0.0703 -0.2804  0.0781
  453TMC3    C1 6796   0.776   4.712  12.058  0.1468  0.3446  0.1642
  453TMC3    C2 6797   0.666   4.694  12.136  0.3209 -0.2935 -0.4555
  453TMC3    C3 6798   0.547   0.014  12.112 -0.1072 -0.0713  0.0715
  453TMC3    C4 6799   0.758   0.042  11.938  0.2668  0.0782 -0.3285
  453TMC3    C5 6800   0.632   0.096  11.905 -0.4557 -0.3228 -1.0340
  453TMC3    C6 6801   0.524   0.079  11.993  0.0786 -0.3531  0.2356
  453TMC3     C 6802   0.905   4.699  12.117  0.0033 -0.2813  0.5598
  453TMC3     O 6803   0.988   0.023  12.049 -0.1109  0.3219  1.0948
  453TMC3     H 6804   0.678   4.661  12.239  1.1858 -1.2138 -0.8587
  453TMC3    H1 6805   0.844   0.058  11.874  2.7960  1.1419  3.3543
  453TMC3    H2 6806   0.428   0.123  11.969 -0.4583 -2.1462 -0.9309
  453TMC3    C7 6807   0.607   0.195  11.808  0.3575 -0.0765 -0.4595
  453TMC3    C8 6808   0.437   4.675  12.169 -0.0886 -0.1127 -0.7206
  453TMC3    O1 6809   0.514   0.277  11.823 -0.5749  0.5641  0.1330
  453TMC3    O2 6810   0.331   4.733  12.197 -0.0714  0.1141 -0.0427
  454MPD2     C 6811   4.291   0.005  15.810 -0.3949  0.3743 -1.1926
  454MPD2    C1 6812   4.155   0.003  15.828  0.3214  0.2952  0.0812
  454MPD2    C2 6813   4.096   0.103  15.901  0.4885 -0.0202  0.2059
  454MPD2    C3 6814   4.168   0.203  15.956 -0.1063 -0.5421 -0.1709
  454MPD2    C4 6815   4.300   0.218  15.925 -0.4164  0.4632  0.1239
  454MPD2    C5 6816   4.359   0.117  15.847  0.4493 -0.3195  0.3784
  454MPD2     H 6817   3.988   0.115  15.903  0.7174  1.7245  2.0407
  454MPD2    H1 6818   4.356   0.303  15.961 -0.7574  0.1063  1.5101
  454MPD2    H2 6819   4.350   4.664  15.761  0.3554 -0.2363  0.6451
  454MPD2    H3 6820   4.467   0.119  15.842  0.4722 -1.4644  0.4536
  454MPD2     N 6821   4.102   0.313  16.011  0.0113 -0.7186  0.3923
  454MPD2    H5 6822   4.158   0.372  16.071 -1.1427  1.0469 -0.2741
  454MPD2    N1 6823   4.067   4.646  15.760 -0.6229 -0.0275  0.0855
  454MPD2    H7 6824   3.969   4.668  15.750 -0.1279  1.4891 -1.4128
  455TMC3    C1 6825   3.877   0.350  16.080 -0.0428  0.5829  0.3225
  455TMC3    C2 6826   3.919   0.349  16.209 -0.1737  0.6977 -0.5877
  455TMC3    C3 6827   3.829   0.299  16.302  0.0555 -0.0689  0.4921
  455TMC3    C4 6828   3.765   0.287  16.039  0.1146 -0.1355  0.0929
  455TMC3    C5 6829   3.685   0.238  16.129  0.0013 -0.4210  0.2371
  455TMC3    C6 6830   3.715   0.234  16.259  0.5942 -0.2473 -0.0162
  455TMC3     C 6831   3.973   0.353  15.974  0.0925  0.2360  0.1658
  455TMC3     O 6832   3.935   0.339  15.858 -0.0064  0.1344 -0.3269
  455TMC3     H 6833   4.010   0.401  16.238  0.8358 -0.0661 -2.4163
  455TMC3    H1 6834   3.725   0.274  15.939  0.2244 -2.3957  0.3400
  455TMC3    H2 6835   3.640   0.203  16.331 -0.8776  0.8507 -1.0756
  455TMC3    C7 6836   3.625   0.117  16.088  0.6009  0.2906 -0.3687
  455TMC3    C8 6837   3.816   0.362  16.434 -0.4442  0.1694  0.1891
  455TMC3    O1 6838   3.505   0.092  16.105  0.2876  0.3333  0.1812
  455TMC3    O2 6839   3.704   0.367  16.480  0.0356 -0.5538 -0.4078
  456MPD2     C 6840   1.858   0.008  16.050  1.5039  0.2059 -0.0253
  456MPD2    C1 6841   1.883   4.656  16.157 -0.3970  0.7369  0.9515
  456MPD2    C2 6842   1.850   4.691  16.286 -0.2289 -0.0348  0.0473
  456MPD2    C3 6843   1.793   0.077  16.314 -0.6222  0.0197 -0.0344
  456MPD2    C4 6844   1.768   0.165  16.216  0.6252  0.9901 -0.6079
  456MPD2    C5 6845   1.815   0.132  16.090 -0.5235  0.2698  0.8238
  456MPD2     H 6846   1.865   4.614  16.360 -1.5794  0.7516  1.1238
  456MPD2    H1 6847   1.727   0.263  16.239 -1.4698  0.3618 -1.6426
  456MPD2    H2 6848   1.872   4.723  15.944 -0.9665  1.6949 -0.6362
  456MPD2    H3 6849   1.810   0.203  16.008 -1.1700  1.4824  1.9021
  456MPD2     N 6850   1.754   0.091  16.446  0.0727  0.5484 -0.3842
  456MPD2    H5 6851   1.791   0.027  16.515  0.8196  0.0271 -1.2653
  456MPD2    N1 6852   1.941   4.535  16.110  0.0963 -0.2228 -0.1648
  456MPD2    H7 6853   1.970   4.526  16.013  2.5303 -1.5702  0.6791
  457TMC3    C1 6854   1.641   0.203  16.613 -0.3894  0.8036  1.0234
  457TMC3    C2 6855   1.528   0.265  16.661  0.2097 -0.1630  0.3162
  457TMC3    C3 6856   1.527   0.293  16.797 -0.2991 -0.2733 -0.7746
  457TMC3    C4 6857   1.747   0.176  16.698 -0.5604 -0.2809 -0.2580
  457TMC3    C5 6858   1.742   0.198  16.830 -0.3715 -0.2999 -0.0111
  457TMC3    C6 6859   1.630   0.255  16.881  0.4172 -1.0231 -0.4253
  457TMC3     C 6860   1.655   0.183  16.477 -0.0003 -0.5518  0.7862
  457TMC3     O 6861   1.572   0.244  16.410  0.2342  0.2087 -0.4270
  457TMC3     H 6862   1.448   0.288  16.592 -1.7046 -1.9596  1.9453
  457TMC3    H1 6863   1.833   0.120  16.661 -1.0718 -0.7151 -0.7791
  457TMC3    H2 6864   1.630   0.284  16.986 -2.3482 -1.2636 -0.3567
  457TMC3    C7 6865   1.859   0.219  16.910 -0.1966 -0.0156 -0.3717
  457TMC3    C8 6866   1.478   0.430  16.821  0.1278 -0.0025 -0.4465
  457TMC3    O1 6867   1.955   0.283  16.864  0.3642 -0.7778 -0.0997
  457TMC3    O2 6868   1.503   0.486  16.926  0.3689  0.0967 -0.0042
  458MPD2     C 6869   4.146   4.143  12.385 -0.4842 -0.9055 -0.0716
  458MPD2    C1 6870   4.184   4.013  12.374 -0.4768  0.2083 -0.7446
  458MPD2    C2 6871   4.151   3.942  12.263 -0.0708 -0.4676  0.1905
  458MPD2    C3 6872   4.072   4.003  12.166  0.0422 -0.2760  0.0565
  458MPD2    C4 6873   4.023   4.128  12.187  0.0668 -0.4397  0.0794
  458MPD2    C5 6874   4.067   4.200  12.288 -0.6372 -0.0224 -0.5119
  458MPD2     H 6875   4.207   3.855  12.232  0.5068 -0.0156 -0.0512
  458MPD2    H1 6876   3.961   4.181  12.115 -2.4653 -4.0345 -0.3914
  458MPD2    H2 6877   4.177   4.203  12.470 -0.3043  1.1614 -1.6176
  458MPD2    H3 6878   4.020   4.298  12.292  1.2025  0.8970 -1.3564
  458MPD2     N 6879   4.039   3.925  12.058 -0.1502 -0.2076 -0.6747
  458MPD2    H5 6880   4.100   3.844  12.049  2.4931  1.7172 -0.1408
  458MPD2    N1 6881   4.271   3.952  12.473  0.2684  0.8708 -0.1364
  458MPD2    H7 6882   4.297   4.005  12.555  2.5460 -2.4430  1.2501
  459TMC3    C1 6883   4.417   3.781  12.545 -0.0999  0.2756 -0.1973
  459TMC3    C2 6884   4.503   3.881  12.566 -0.0636  0.4663 -0.6194
  459TMC3    C3 6885   4.619   3.847  12.640 -0.7247 -0.0863 -0.8616
  459TMC3    C4 6886   4.420   3.656  12.603  0.1203 -0.0887  0.7826
  459TMC3    C5 6887   4.528   3.634  12.691  0.2400 -0.3314  0.2240
  459TMC3    C6 6888   4.630   3.721  12.694  1.3321 -0.0112 -0.7694
  459TMC3     C 6889   4.294   3.817  12.477  0.0205 -0.5483 -0.0278
  459TMC3     O 6890   4.226   3.732  12.426  0.1022  0.5033 -0.2383
  459TMC3     H 6891   4.499   3.976  12.514  1.3486  0.2193 -1.1726
  459TMC3    H1 6892   4.350   3.578  12.575 -0.1475  0.1208  0.8589
  459TMC3    H2 6893   4.715   3.717  12.762 -0.2402  2.2790  1.3524
  459TMC3    C7 6894   4.506   3.567  12.818 -0.3776  0.4838 -0.3355
  459TMC3    C8 6895   4.714   3.955  12.683 -0.2491  0.0856 -0.7180
  459TMC3    O1 6896   4.598   3.552  12.898 -0.6090 -0.4548 -0.1678
  459TMC3    O2 6897   0.089   3.921  12.708  0.4986  0.3150 -1.2186
  460MPD2     C 6898   3.517   1.199  10.620  0.3002 -0.1398  0.1618
  460MPD2    C1 6899   3.401   1.203  10.688  0.4151 -0.5968 -0.0696
  460MPD2    C2 6900   3.295   1.256  10.621  0.0645 -0.0042 -0.0426
  460MPD2    C3 6901   3.290   1.282  10.483 -0.3209  0.4033  0.4943
  460MPD2    C4 6902   3.410   1.269  10.419  0.3019  0.3226 -0.7330
  460MPD2    C5 6903   3.523   1.229  10.483  0.1027 -0.2496 -0.6254
  460MPD2     H 6904   3.199   1.247  10.671  0.5251 -0.2313  0.8061
  460MPD2    H1 6905   3.431   1.297  10.316  2.5496  0.0683 -0.3373
  460MPD2    H2 6906   3.613   1.172  10.663  0.9140 -0.1668 -1.1936
  460MPD2    H3 6907   3.614   1.219  10.425  0.5637  0.7192 -0.0567
  460MPD2     N 6908   3.176   1.338  10.427 -0.8500  0.1989 -0.4089
  460MPD2    H5 6909   3.103   1.374  10.487 -1.1346  0.1036 -0.7016
  460MPD2    N1 6910   3.403   1.163  10.820 -0.1967  0.4735  0.9135
  460MPD2    H7 6911   3.494   1.134  10.856 -0.0730 -1.6585 -1.1388
  461TMC3    C1 6912   3.021   1.364  10.251 -0.2560  0.4638 -0.0401
  461TMC3    C2 6913   2.968   1.278  10.150  0.7097 -0.3960 -0.1323
  461TMC3    C3 6914   2.887   1.333  10.056  0.8954 -0.4458 -0.0929
  461TMC3    C4 6915   2.994   1.497  10.254 -0.1371 -0.1084 -0.4618
  461TMC3    C5 6916   2.912   1.542  10.161 -0.0494 -0.6254  0.5030
  461TMC3    C6 6917   2.861   1.463  10.058 -0.0459 -0.2776  0.2347
  461TMC3     C 6918   3.157   1.319  10.292  0.1198 -0.2652  0.2393
  461TMC3     O 6919   3.220   1.254  10.208 -0.2415 -0.0393  0.2557
  461TMC3     H 6920   2.997   1.174  10.143  0.6781 -0.1962 -3.2830
  461TMC3    H1 6921   3.034   1.565  10.327 -0.3525  0.3870 -0.8075
  461TMC3    H2 6922   2.794   1.503   9.982 -1.5024 -1.3926  0.9591
  461TMC3    C7 6923   2.895   1.681  10.135  0.0747  0.3561  0.7710
  461TMC3    C8 6924   2.846   1.249   9.942  0.3113  0.0170  0.3977
  461TMC3    O1 6925   2.800   1.717  10.068 -0.5393  0.1299  0.0174
  461TMC3    O2 6926   2.837   1.299   9.834 -0.3418 -0.0962 -0.2518
  462TMC3    C1 6927   3.464   3.152   0.794  0.2741  0.5011  0.2453
  462TMC3    C2 6928   3.567   3.175   0.703  0.9859 -0.7262  0.0902
  462TMC3    C3 6929   3.591   3.080   0.607 -0.4711  0.3208 -0.5944
  462TMC3    C4 6930   3.401   3.033   0.800  0.0098 -0.8469 -0.6087
  462TMC3    C5 6931   3.446   2.937   0.713  0.3626 -0.0832 -0.4399
  462TMC3    C6 6932   3.540   2.953   0.612  0.4891  0.4024 -0.6567
  462TMC3     C 6933   3.386   3.263   0.844  0.1506 -0.0124 -0.0108
  462TMC3     O 6934   3.285   3.231   0.896 -0.3059 -0.1066  0.0845
  462TMC3     H 6935   3.640   3.254   0.713 -1.0790  0.9287  2.0109
  462TMC3    H1 6936   3.330   3.020   0.881  1.4222  0.0026  0.7632
  462TMC3    H2 6937   3.541   2.888   0.526 -0.5992 -0.0452 -0.3298
  462TMC3    C7 6938   3.379   2.807   0.720  0.1280  0.1131  0.8955
  462TMC3    C8 6939   3.670   3.131   0.488 -0.4496 -0.0437  0.2633
  462TMC3    O1 6940   3.455   2.718   0.687 -0.0496 -0.3605  0.0241
  462TMC3    O2 6941   3.637   3.247   0.454 -0.2711  0.1753  0.1765
  463MPD2     C 6942   0.533   0.848   1.537  0.1802  0.3539 -0.4413
  463MPD2    C1 6943   0.446   0.955   1.506 -0.6366  0.1065  1.0878
  463MPD2    C2 6944   0.465   1.082   1.565 -0.1883 -0.6342 -0.1704
  463MPD2    C3 6945   0.582   1.102   1.642  0.1587  0.3371 -0.1786
  463MPD2    C4 6946   0.673   1.001   1.652  0.0711  0.0079  0.0272
  463MPD2    C5 6947   0.651   0.876   1.609  0.1523 -0.7184  0.1955
  463MPD2     H 6948   0.398   1.167   1.554 -0.1428 -0.2450  2.4555
  463MPD2    H1 6949   0.768   1.019   1.700  0.6115 -0.2677 -0.9490
  463MPD2    H2 6950   0.518   0.747   1.501 -1.7806  0.0617  1.2091
  463MPD2    H3 6951   0.725   0.797   1.621 -0.9884 -1.6482  1.0227
  463MPD2     N 6952   0.618   1.223   1.701  0.7597  0.1315 -0.2600
  463MPD2    H5 6953   0.709   1.221   1.745 -0.0833  0.2198  1.4924
  463MPD2    N1 6954   0.337   0.939   1.416 -0.3507 -0.2275  0.2153
  463MPD2    H7 6955   0.278   1.019   1.395 -0.6405 -0.3890  0.4249
  464TMC3    C1 6956   0.190   0.854   1.256  0.2134  0.7574 -0.1641
  464TMC3    C2 6957   0.080   0.922   1.305  0.4072  0.5189 -1.0191
  464TMC3    C3 6958   4.691   0.908   1.248  0.3381  0.2980  0.2891
  464TMC3    C4 6959   0.163   0.752   1.168 -0.5628  1.2431  0.1200
  464TMC3    C5 6960   0.039   0.734   1.117 -0.2338  0.0279  0.4976
  464TMC3    C6 6961   4.667   0.812   1.155 -0.2120  0.4361  0.0900
  464TMC3     C 6962   0.300   0.825   1.347  0.1357  0.1839  0.3246
  464TMC3     O 6963   0.345   0.713   1.353 -0.4432  0.1992  0.2342
  464TMC3     H 6964   0.086   0.985   1.393  1.3393  1.0236 -1.4431
  464TMC3    H1 6965   0.244   0.684   1.144 -0.4146  1.6366 -0.5057
  464TMC3    H2 6966   4.566   0.784   1.130 -0.6233  0.6863  1.5056
  464TMC3    C7 6967   0.013   0.615   1.044  0.8054  1.1018 -0.4941
  464TMC3    C8 6968   4.573   0.978   1.309 -0.0681  0.6648 -0.9203
  464TMC3    O1 6969   0.094   0.522   1.053 -0.2618 -0.8770  0.0774
  464TMC3    O2 6970   4.462   0.922   1.296 -0.7697  0.3819 -0.2418
  465MPD2     C 6971   1.099   0.752  17.162 -0.3747 -0.2419  0.3948
  465MPD2    C1 6972   1.017   0.664  17.224 -0.0742 -0.8138 -0.5518
  465MPD2    C2 6973   0.967   0.562  17.154 -0.3435 -0.7717 -0.4414
  465MPD2    C3 6974   0.973   0.568  17.010  0.6644 -0.0774  0.9870
  465MPD2    C4 6975   1.035   0.675  16.950  0.3780  0.2972  0.2416
  465MPD2    C5 6976   1.095   0.770  17.026  0.2903  0.2197  0.6273
  465MPD2     H 6977   0.920   0.476  17.200  0.1175 -1.3811 -1.1202
  465MPD2    H1 6978   1.040   0.669  16.842  2.7249 -1.0682  0.4004
  465MPD2    H2 6979   1.158   0.828  17.212  0.3492 -0.2853 -0.3901
  465MPD2    H3 6980   1.161   0.845  16.983  1.2868 -1.6241 -1.0839
  465MPD2     N 6981   0.905   0.467  16.940  0.1700  0.0202  0.0924
  465MPD2    H5 6982   0.851   0.401  16.994 -1.4070 -0.0366 -1.5712
  465MPD2    N1 6983   0.994   0.678  17.366 -0.1789  1.2391 -0.0032
  465MPD2    H7 6984   0.954   0.599  17.416 -0.9315  1.5854 -0.0515
  466TMC3    C1 6985   0.632   0.210  16.820  0.5099 -0.2263 -0.8813
  466TMC3    C2 6986   0.557   0.249  16.715  0.0375  0.0037  1.0529
  466TMC3    C3 6987   0.595   0.354  16.643  0.9245  0.1565  0.0286
  466TMC3    C4 6988   0.755   0.266  16.842 -0.1053  0.1186  0.0529
  466TMC3    C5 6989   0.792   0.371  16.760 -0.3392  0.5968 -0.1312
  466TMC3    C6 6990   0.713   0.416  16.660 -0.3725 -0.5639  0.1542
  466TMC3     C 6991   0.564   0.204  16.949  0.2592  0.5829 -0.1645
  466TMC3     O 6992   0.618   0.276  17.034 -0.6356  0.3779  0.9289
  466TMC3     H 6993   0.452   0.221  16.712  0.3090 -0.7949 -0.8312
  466TMC3    H1 6994   0.818   0.237  16.926  0.6074 -0.8409 -0.8140
  466TMC3    H2 6995   0.730   0.511  16.611 -1.8613  1.3745  3.3694
  466TMC3    C7 6996   0.899   0.455  16.800  0.6155  0.0515  0.4122
  466TMC3    C8 6997   0.484   0.434  16.591  0.5461  0.3020 -0.3102
  466TMC3    O1 6998   0.957   0.515  16.710  0.2078 -0.0176 -0.0591
  466TMC3    O2 6999   0.406   0.372  16.514  0.1905  0.4483 -0.4949
  467TMC3    C1 7000   1.428   3.587  14.093  0.7844 -0.0071  0.3356
  467TMC3    C2 7001   1.481   3.707  14.053 -1.0989 -0.5751 -0.1648
  467TMC3    C3 7002   1.445   3.756  13.929 -0.3228  0.1403 -0.1120
  467TMC3    C4 7003   1.314   3.541  14.024  0.0030 -0.4532 -0.5719
  467TMC3    C5 7004   1.264   3.602  13.908 -0.2466 -0.2168 -0.4612
  467TMC3    C6 7005   1.330   3.711  13.858 -0.2732  0.1886 -0.0149
  467TMC3     C 7006   1.526   3.490  14.123  0.0220  0.2557 -0.1182
  467TMC3     O 7007   1.624   3.529  14.186 -0.3591 -0.2192 -0.2190
  467TMC3     H 7008   1.555   3.763  14.110  0.1859 -0.6632 -1.7237
  467TMC3    H1 7009   1.266   3.449  14.054  0.2117 -0.4611 -0.2665
  467TMC3    H2 7010   1.292   3.760  13.769 -2.1355 -0.1414  0.6026
  467TMC3    C7 7011   1.124   3.578  13.860 -0.2093  0.5440 -0.1947
  467TMC3    C8 7012   1.561   3.775  13.834 -0.1920  0.0756 -0.3844
  467TMC3    O1 7013   1.100   3.598  13.743  0.3702  0.3972  0.4816
  467TMC3    O2 7014   1.536   3.745  13.717  0.2185  0.2089 -0.7093
  468MPD2     C 7015   0.146   1.511  10.975 -0.0254  0.5214 -1.0766
  468MPD2    C1 7016   0.278   1.493  10.942  0.0671  0.3840 -0.3013
  468MPD2    C2 7017   0.320   1.378  10.880 -0.8368  0.2280  0.0169
  468MPD2    C3 7018   0.221   1.282  10.850 -0.5750  0.7962  0.1450
  468MPD2    C4 7019   0.097   1.300  10.881  0.4097 -0.6542 -0.3766
  468MPD2    C5 7020   0.056   1.414  10.942 -0.7058 -0.2075  0.6606
  468MPD2     H 7021   0.421   1.365  10.844 -0.2291  0.6588  1.5585
  468MPD2    H1 7022   0.022   1.224  10.860 -0.1729 -0.3250  0.5611
  468MPD2    H2 7023   0.118   1.602  11.028 -0.5485 -0.7255  0.7768
  468MPD2    H3 7024   4.688   1.434  10.968 -0.9208 -0.0092 -0.3668
  468MPD2     N 7025   0.244   1.151  10.797 -0.2848  0.4129  0.0229
  468MPD2    H5 7026   0.163   1.091  10.803 -1.1829  1.6614  0.5090
  468MPD2    N1 7027   0.380   1.585  10.968  0.1520  0.0937  0.5696
  468MPD2    H7 7028   0.477   1.554  10.961 -0.5747 -1.7704 -1.4107
  469TMC3    C1 7029   0.490   1.755  11.089  0.0575 -0.0963  0.6592
  469TMC3    C2 7030   0.609   1.746  11.023  0.1653 -0.6352  0.3782
  469TMC3    C3 7031   0.727   1.771  11.087 -0.5297  0.1367  0.7845
  469TMC3    C4 7032   0.489   1.782  11.224 -1.1427 -1.0140 -0.8019
  469TMC3    C5 7033   0.608   1.804  11.289  0.0744  0.4191  0.7337
  469TMC3    C6 7034   0.722   1.799  11.215  0.4240  0.3382 -0.1297
  469TMC3     C 7035   0.366   1.704  11.039  0.6815 -0.2440 -0.3585
  469TMC3     O 7036   0.265   1.767  11.070 -0.0609  0.3521  0.1344
  469TMC3     H 7037   0.614   1.708  10.922  0.8941  1.5065 -0.4041
  469TMC3    H1 7038   0.398   1.801  11.280  0.7333  0.0091  1.9161
  469TMC3    H2 7039   0.806   1.830  11.276  2.5852 -1.2944 -2.2359
  469TMC3    C7 7040   0.604   1.876  11.421  0.3366  0.3373  0.4771
  469TMC3    C8 7041   0.841   1.722  11.024  0.0815  0.4567  0.1772
  469TMC3    O1 7042   0.491   1.905  11.458  0.1224  0.2466 -0.3779
  469TMC3    O2 7043   0.842   1.729  10.902  0.8278 -0.0325 -0.3770
  470TMC3    C1 7044   2.729   1.913   0.699  0.5475 -0.1758 -0.4180
  470TMC3    C2 7045   2.660   2.027   0.663  0.0180 -0.1125 -0.4251
  470TMC3    C3 7046   2.670   2.133   0.750  0.0060 -0.2459 -0.3209
  470TMC3    C4 7047   2.817   1.910   0.807  0.0869 -0.2697 -0.6739
  470TMC3    C5 7048   2.808   2.009   0.896 -0.1655 -0.1396  0.0898
  470TMC3    C6 7049   2.725   2.118   0.878  0.5904 -0.2920  0.5147
  470TMC3     C 7050   2.737   1.800   0.611 -0.0245  0.0155 -0.6424
  470TMC3     O 7051   2.779   1.696   0.659 -0.6167  0.1354 -0.0516
  470TMC3     H 7052   2.586   2.034   0.584  0.9748 -2.0939 -1.4918
  470TMC3    H1 7053   2.889   1.831   0.827  0.8072  0.6447  0.2966
  470TMC3    H2 7054   2.739   2.203   0.944 -0.7056 -1.1557  1.9217
  470TMC3    C7 7055   2.893   2.001   1.013 -0.3064 -1.4463 -0.3676
  470TMC3    C8 7056   2.634   2.271   0.729 -1.0895 -0.5453  0.1901
  470TMC3    O1 7057   2.986   1.925   1.002 -0.1043  0.0084  0.3311
  470TMC3    O2 7058   2.619   2.334   0.834 -0.0857 -0.1387  0.1428
  471MPD2     C 7059   3.459   3.976  16.696  0.1096  0.6705 -0.1105
  471MPD2    C1 7060   3.408   3.956  16.821 -0.4519  0.2543  0.0506
  471MPD2    C2 7061   3.487   3.998  16.926  0.5119 -0.1356  0.5550
  471MPD2    C3 7062   3.610   4.050  16.909  0.1412 -0.0708 -0.0469
  471MPD2    C4 7063   3.665   4.069  16.780 -0.7060  0.2873  0.3803
  471MPD2    C5 7064   3.587   4.036  16.671  0.3204 -0.2748 -0.1673
  471MPD2     H 7065   3.458   3.975  17.028  1.7234  0.2605  0.9860
  471MPD2    H1 7066   3.768   4.098  16.758 -0.5417  0.5971  1.5958
  471MPD2    H2 7067   3.398   3.952  16.610  0.1432 -0.8080  0.2954
  471MPD2    H3 7068   3.633   4.039  16.573 -0.6160 -1.8485 -0.6611
  471MPD2     N 7069   3.701   4.089  17.011 -0.4603  0.4118  0.0105
  471MPD2    H5 7070   3.788   4.130  16.976 -0.9225  0.0607 -1.5487
  471MPD2    N1 7071   3.297   3.877  16.852  0.3013 -0.2811 -0.5127
  471MPD2    H7 7072   3.280   3.853  16.950 -0.1151 -0.8526 -0.7237
  472TMC3    C1 7073   3.084   3.767  16.810  0.9850  0.4863  0.1133
  472TMC3    C2 7074   2.981   3.763  16.718 -0.7045 -0.4156  0.0100
  472TMC3    C3 7075   2.870   3.686  16.755  0.3985 -0.5733 -0.6829
  472TMC3    C4 7076   3.080   3.700  16.929  0.7010  0.6394 -0.7130
  472TMC3    C5 7077   2.958   3.648  16.965 -0.5557  0.3959  0.1498
  472TMC3    C6 7078   2.852   3.645  16.883 -0.1758 -0.1323 -0.0777
  472TMC3     C 7079   3.212   3.812  16.757 -0.1145  0.2640  0.4373
  472TMC3     O 7080   3.223   3.796  16.638 -1.0633 -0.7315 -0.3177
  472TMC3     H 7081   2.985   3.805  16.618  1.1178  1.5209  0.8970
  472TMC3    H1 7082   3.167   3.685  16.992  0.5492  1.5929 -0.2667
  472TMC3    H2 7083   2.764   3.591  16.916  0.2868  0.0503  1.4800
  472TMC3    C7 7084   2.965   3.556  17.073  0.1650  0.7533  0.2771
  472TMC3    C8 7085   2.788   3.633  16.641  0.2693  0.5372 -0.4404
  472TMC3    O1 7086   3.075   3.516  17.106  0.0169 -0.0175 -0.6696
  472TMC3    O2 7087   2.853   3.654  16.536 -0.3112  0.3643  0.0118
  473MPD2     C 7088   3.304   0.947  13.977  0.6867 -0.3712  0.0355
  473MPD2    C1 7089   3.423   1.007  13.961 -0.0054  0.0943  0.6592
  473MPD2    C2 7090   3.433   1.141  13.973 -0.2038 -0.3562  0.0494
  473MPD2    C3 7091   3.327   1.218  14.020 -0.2106  0.8218  0.2212
  473MPD2    C4 7092   3.213   1.155  14.056  0.1398 -0.3848 -0.4898
  473MPD2    C5 7093   3.199   1.021  14.022  0.3628  0.4718 -0.0788
  473MPD2     H 7094   3.524   1.194  13.944  0.8715 -1.9523  0.5041
  473MPD2    H1 7095   3.129   1.205  14.102 -0.2576 -2.4686  1.0898
  473MPD2    H2 7096   3.282   0.844  13.951 -1.0067 -0.2679  1.0619
  473MPD2    H3 7097   3.102   0.975  14.034 -0.1454  0.7847 -3.1416
  473MPD2     N 7098   3.323   1.361  14.049  0.1377 -0.0047 -0.2865
  473MPD2    H5 7099   3.233   1.393  14.083 -0.0260 -1.3155  0.4922
  473MPD2    N1 7100   3.535   0.938  13.905 -0.1052  0.0698 -0.2510
  473MPD2    H7 7101   3.618   0.985  13.870  1.8551 -2.5021  0.8600
  474TMC3    C1 7102   3.406   1.573  14.108  0.1750  0.2797 -0.1778
  474TMC3    C2 7103   3.281   1.615  14.130 -0.1564  0.7303  1.3069
  474TMC3    C3 7104   3.263   1.711  14.222 -0.3464  0.1532  0.2619
  474TMC3    C4 7105   3.513   1.629  14.167 -0.5057 -0.1955  0.3608
  474TMC3    C5 7106   3.491   1.729  14.264  0.3172 -0.2021 -0.5671
  474TMC3    C6 7107   3.363   1.771  14.289  0.3142 -0.5675 -0.3305
  474TMC3     C 7108   3.432   1.443  14.043 -0.4008  0.8193  0.7077
  474TMC3     O 7109   3.553   1.422  14.019  0.0725 -0.3777  0.1483
  474TMC3     H 7110   3.195   1.572  14.081  0.6003  0.0036  0.6360
  474TMC3    H1 7111   3.616   1.595  14.163 -0.2635  0.6824 -1.0468
  474TMC3    H2 7112   3.352   1.850  14.363 -0.5745 -0.7204 -0.2946
  474TMC3    C7 7113   3.601   1.753  14.361 -0.2838 -0.1656  0.7441
  474TMC3    C8 7114   3.127   1.747  14.257 -0.1649 -0.0128  0.1680
  474TMC3    O1 7115   3.714   1.731  14.326 -0.4657  0.3104  0.1991
  474TMC3    O2 7116   3.041   1.660  14.272 -0.1040  0.1003  0.2278
  475MPD2     C 7117   1.053   3.055  10.713 -0.3172  0.6971 -0.4488
  475MPD2    C1 7118   1.017   3.183  10.683  0.4514  0.3655 -0.5531
  475MPD2    C2 7119   0.921   3.246  10.762  0.1519 -0.0670  0.3057
  475MPD2    C3 7120   0.885   3.196  10.890 -0.4143 -0.0162  0.3369
  475MPD2    C4 7121   0.924   3.075  10.922  0.1936 -0.1842 -0.3417
  475MPD2    C5 7122   1.001   2.999  10.827  0.0531  0.8486  0.0859
  475MPD2     H 7123   0.898   3.349  10.740  0.1575 -0.1602 -0.1323
  475MPD2    H1 7124   0.910   3.027  11.018  2.4671  0.9154  0.5511
  475MPD2    H2 7125   1.126   2.997  10.658  0.6653  0.9314  0.6279
  475MPD2    H3 7126   1.028   2.900  10.863 -2.8617  1.0040  2.6616
  475MPD2     N 7127   0.817   3.283  10.978  0.0951 -0.2990  0.4420
  475MPD2    H5 7128   0.777   3.367  10.938  0.0245 -1.6232 -2.2627
  475MPD2    N1 7129   1.081   3.247  10.572  0.0012 -0.1260 -0.5690
  475MPD2    H7 7130   1.169   3.206  10.544 -0.8317 -1.7531 -0.7786
  476TMC3    C1 7131   1.120   3.411  10.400 -0.6548  0.0318 -0.2024
  476TMC3    C2 7132   1.039   3.491  10.326 -0.7443  0.1820 -0.0797
  476TMC3    C3 7133   1.088   3.609  10.275 -0.6371  0.3809 -0.2615
  476TMC3    C4 7134   1.248   3.442  10.433  0.1617  0.0144 -0.7067
  476TMC3    C5 7135   1.294   3.560  10.383 -0.6095  0.1289 -0.0775
  476TMC3    C6 7136   1.216   3.645  10.306  0.4171 -1.0181 -0.8422
  476TMC3     C 7137   1.038   3.366  10.512 -0.2676 -0.1161 -0.1747
  476TMC3     O 7138   0.933   3.420  10.532 -0.1289  0.4243 -0.1256
  476TMC3     H 7139   0.945   3.453  10.288 -0.3935 -0.1260 -0.6547
  476TMC3    H1 7140   1.302   3.379  10.502  1.0656  2.4065  0.7606
  476TMC3    H2 7141   1.259   3.739  10.274 -1.0579 -0.2711 -0.6065
  476TMC3    C7 7142   1.439   3.581  10.391  0.3948 -0.1574  0.1024
  476TMC3    C8 7143   1.013   3.689  10.167  0.2442 -0.3720 -0.0317
  476TMC3    O1 7144   1.515   3.486  10.365 -0.3740  0.2610 -0.5140
  476TMC3    O2 7145   1.065   3.798  10.135  0.6880  0.2209 -0.1679
  477MPD2     C 7146   4.360   0.744  11.631  0.3116 -0.4160 -1.0640
  477MPD2    C1 7147   4.256   0.702  11.709  0.4331 -0.5332 -0.7610
  477MPD2    C2 7148   4.276   0.606  11.807 -0.1353 -0.0036 -0.1112
  477MPD2    C3 7149   4.404   0.541  11.820 -0.6932 -0.5953  0.7332
  477MPD2    C4 7150   4.512   0.595  11.745 -0.0724 -0.1998 -0.1580
  477MPD2    C5 7151   4.486   0.688  11.649 -0.0125  0.2734 -0.6085
  477MPD2     H 7152   4.187   0.581  11.863  0.3245 -1.6993 -0.1331
  477MPD2    H1 7153   4.615   0.564  11.761 -0.2226 -0.7693 -0.3022
  477MPD2    H2 7154   4.352   0.815  11.550  0.2581 -2.7910 -3.1563
  477MPD2    H3 7155   4.576   0.711  11.593  2.0022  0.2000  2.6190
  477MPD2     N 7156   4.422   0.444  11.923 -0.2063  0.2418 -0.0192
  477MPD2    H5 7157   4.338   0.431  11.978  0.4740 -0.5871  0.8202
  477MPD2    N1 7158   4.133   0.769  11.686 -0.1491 -0.2489  0.8475
  477MPD2    H7 7159   4.130   0.824  11.601  0.7975 -1.4566  0.0359
  478TMC3    C1 7160   3.909   0.818  11.676  0.5094 -0.2793 -0.4171
  478TMC3    C2 7161   3.797   0.861  11.734  0.8595 -0.3411  0.0055
  478TMC3    C3 7162   3.691   0.918  11.660 -0.5551  0.2941 -1.0562
  478TMC3    C4 7163   3.925   0.838  11.541  0.4626 -0.1710  0.3116
  478TMC3    C5 7164   3.815   0.878  11.468 -0.2099 -0.6157  0.1720
  478TMC3    C6 7165   3.703   0.926  11.525 -0.2366  0.4652  0.2660
  478TMC3     C 7166   4.013   0.751  11.745 -0.5220 -0.3056  0.5011
  478TMC3     O 7167   3.988   0.694  11.852  0.1685 -0.2249 -0.4350
  478TMC3     H 7168   3.786   0.850  11.841  0.9791 -1.7371 -0.1231
  478TMC3    H1 7169   4.005   0.784  11.491 -0.3081 -1.5451  0.5730
  478TMC3    H2 7170   3.619   0.965  11.470  0.8076  0.2123 -1.5011
  478TMC3    C7 7171   3.823   0.842  11.324  0.0125 -0.1961  0.3839
  478TMC3    C8 7172   3.574   0.965  11.734  0.3823  0.2107  0.1155
  478TMC3    O1 7173   3.941   0.836  11.289  0.0153 -0.1044  0.0097
  478TMC3    O2 7174   3.546   0.908  11.839  0.1959 -0.1918 -0.0345
  479MPD2     C 7175   2.028   3.067  15.130 -0.4526  0.6687  0.6521
  479MPD2    C1 7176   2.046   3.001  15.253  0.4575 -0.8159  0.3688
  479MPD2    C2 7177   2.133   3.053  15.342 -0.3329  0.5889 -0.8663
  479MPD2    C3 7178   2.199   3.170  15.316 -0.2879 -0.6378 -0.2469
  479MPD2    C4 7179   2.166   3.235  15.204 -0.1036 -0.0207 -0.4191
  479MPD2    C5 7180   2.077   3.194  15.114 -0.3550  0.6568  0.1205
  479MPD2     H 7181   2.161   3.003  15.435 -0.9193  3.0075  0.6252
  479MPD2    H1 7182   2.220   3.321  15.168  1.6229 -0.7034  0.5432
  479MPD2    H2 7183   1.976   3.022  15.046 -6.3588  1.3373  3.9149
  479MPD2    H3 7184   2.074   3.243  15.017 -3.1380 -0.7297 -0.4921
  479MPD2     N 7185   2.314   3.208  15.387  0.0467 -0.2276  0.4579
  479MPD2    H5 7186   2.365   3.283  15.342  0.8398 -0.3927  1.0973
  479MPD2    N1 7187   1.980   2.877  15.271 -0.2313  0.0235  0.0411
  479MPD2    H7 7188   1.921   2.846  15.194 -0.5837  2.2504 -0.5988
  480TMC3    C1 7189   2.658   3.140  15.709  0.3311  0.0622 -0.2413
  480TMC3    C2 7190   2.747   3.225  15.642  0.1942  0.2538  0.0691
  480TMC3    C3 7191   2.693   3.298  15.541 -0.2861  0.2748 -0.4559
  480TMC3    C4 7192   2.531   3.113  15.667 -0.5719 -0.4916  0.6710
  480TMC3    C5 7193   2.488   3.187  15.558  0.5034 -0.3104  1.0671
  480TMC3    C6 7194   2.569   3.272  15.490  0.3448 -0.6027 -0.4662
  480TMC3     C 7195   2.727   3.044  15.793 -0.4176 -0.0340  0.3722
  480TMC3     O 7196   2.706   2.926  15.772 -1.0522 -0.6178 -0.2621
  480TMC3     H 7197   2.855   3.215  15.650 -0.3699 -4.9725  0.8794
  480TMC3    H1 7198   2.471   3.029  15.701  0.0459 -0.9291  0.6825
  480TMC3    H2 7199   2.519   3.346  15.429  0.1330 -1.7997 -1.7506
  480TMC3    C7 7200   2.348   3.162  15.511 -0.2883 -0.3493  0.1303
  480TMC3    C8 7201   2.788   3.356  15.447 -0.0968 -0.5108  1.1841
  480TMC3    O1 7202   2.277   3.095  15.590  0.5186  0.1288  0.0226
  480TMC3    O2 7203   2.899   3.392  15.480  0.1226  0.2058 -0.0378
  481MPD2     C 7204   4.517   2.693  14.088  0.0202  0.4862  0.6201
  481MPD2    C1 7205   4.390   2.638  14.085  0.0889  0.0989 -0.4112
  481MPD2    C2 7206   4.306   2.649  14.200 -0.5493 -0.2828  0.2618
  481MPD2    C3 7207   4.359   2.719  14.312 -0.0308  0.0269  0.4522
  481MPD2    C4 7208   4.481   2.783  14.297 -0.3659  0.3072  0.3379
  481MPD2    C5 7209   4.561   2.773  14.187 -0.1191 -0.3063 -0.1313
  481MPD2     H 7210   4.207   2.605  14.209 -0.3138 -1.0649 -1.0361
  481MPD2    H1 7211   4.522   2.849  14.373 -0.0597 -1.7547  1.9678
  481MPD2    H2 7212   4.590   2.680  14.009 -2.1274  1.5364 -1.5458
  481MPD2    H3 7213   4.652   2.832  14.182  0.4828 -1.0293  2.3631
  481MPD2     N 7214   4.295   2.734  14.437  0.0965 -0.0951 -0.1844
  481MPD2    H5 7215   4.338   2.787  14.512 -1.1605  0.4121  0.1770
  481MPD2    N1 7216   4.348   2.556  13.973 -0.9018 -0.3149  1.1979
  481MPD2    H7 7217   4.422   2.543  13.905 -1.6278 -0.6427  0.4739
  482TMC3    C1 7218   4.220   2.451  13.814  0.2134  0.4724  0.7765
  482TMC3    C2 7219   4.334   2.387  13.768 -0.5414 -0.2502  0.0701
  482TMC3    C3 7220   4.323   2.325  13.648  0.6581  0.7216 -0.4981
  482TMC3    C4 7221   4.103   2.438  13.750  0.3825 -0.0063 -0.2418
  482TMC3    C5 7222   4.100   2.376  13.627  0.2902 -0.6465  0.5435
  482TMC3    C6 7223   4.208   2.315  13.571  0.5382  0.4395 -0.1797
  482TMC3     C 7224   4.222   2.523  13.940 -0.3626  0.8083 -0.3979
  482TMC3     O 7225   4.116   2.544  13.998 -0.3731 -0.1544 -0.0957
  482TMC3     H 7226   4.420   2.367  13.832 -0.0714  1.1657 -0.1143
  482TMC3    H1 7227   4.013   2.483  13.791 -0.1067 -1.1749 -0.0416
  482TMC3    H2 7228   4.217   2.285  13.467 -1.6279  0.2686 -0.3182
  482TMC3    C7 7229   3.983   2.381  13.540 -0.4096  0.4288  0.2283
  482TMC3    C8 7230   4.422   2.233  13.597  0.4023 -0.1796 -0.6960
  482TMC3    O1 7231   3.969   2.289  13.462 -0.1141  0.0773  0.3581
  482TMC3    O2 7232   4.394   2.152  13.511 -0.2460  0.5858  0.1596
  483TMC3    C1 7233   2.582   1.456   1.392  0.0093  0.3165 -0.0702
  483TMC3    C2 7234   2.680   1.556   1.400 -0.3488 -0.0209 -0.1024
  483TMC3    C3 7235   2.804   1.532   1.446 -0.2464  1.0559 -0.8554
  483TMC3    C4 7236   2.612   1.329   1.443  0.3171 -0.2342 -0.3989
  483TMC3    C5 7237   2.739   1.298   1.482  0.0724 -0.0090 -0.6582
  483TMC3    C6 7238   2.828   1.405   1.495 -0.7143 -0.3648 -0.4356
  483TMC3     C 7239   2.478   1.468   1.296  0.4202  0.1580  1.1427
  483TMC3     O 7240   2.447   1.582   1.266 -0.2261 -0.4692 -0.2682
  483TMC3     H 7241   2.651   1.646   1.347 -0.7833 -1.2239 -1.8763
  483TMC3    H1 7242   2.532   1.256   1.445  0.6501 -0.5975 -0.1948
  483TMC3    H2 7243   2.932   1.382   1.516 -0.8746 -0.0475  0.7201
  483TMC3    C7 7244   2.780   1.165   1.515 -1.0330  0.1802 -0.0434
  483TMC3    C8 7245   2.909   1.611   1.389  0.4842 -0.3144  0.3120
  483TMC3    O1 7246   2.898   1.133   1.515  0.1752  0.6240  0.4439
  483TMC3    O2 7247   2.878   1.662   1.281 -0.0099  0.3108  0.6162
  484MPD2     C 7248   4.661   4.321  12.712  0.0393 -0.4056  0.4995
  484MPD2    C1 7249   0.001   4.204  12.697 -0.2667 -0.1017  0.3052
  484MPD2    C2 7250   0.135   4.204  12.681  0.7296 -0.2307  0.2019
  484MPD2    C3 7251   0.199   4.322  12.700 -0.0377  0.4196 -0.1212
  484MPD2    C4 7252   0.125   4.441  12.711  0.0654  0.3684  0.2598
  484MPD2    C5 7253   4.722   4.442  12.707  0.7357  0.1232  0.0940
  484MPD2     H 7254   0.182   4.110  12.658 -1.8180 -1.8238  1.5627
  484MPD2    H1 7255   0.178   4.533  12.730 -1.3214  1.4540 -1.1766
  484MPD2    H2 7256   4.552   4.326  12.716  0.0546  0.1245  0.2295
  484MPD2    H3 7257   4.670   4.536  12.715 -1.6755 -1.1894 -0.3133
  484MPD2     N 7258   0.343   4.335  12.703  0.4442  0.2296 -0.3795
  484MPD2    H5 7259   0.373   4.430  12.687 -0.1856  0.6172  0.7024
  484MPD2    N1 7260   4.667   4.082  12.686 -0.3169  0.1374 -0.1316
  484MPD2    H7 7261   4.566   4.085  12.681 -0.1808  0.3227 -2.8930
  485TMC3    C1 7262   0.562   4.274  12.708 -0.0399 -0.1717 -0.9322
  485TMC3    C2 7263   0.660   4.201  12.778  0.0736  0.4658  0.0188
  485TMC3    C3 7264   0.789   4.223  12.741 -0.4248 -0.4977 -0.2225
  485TMC3    C4 7265   0.594   4.362  12.605  0.0122  0.7979  0.0772
  485TMC3    C5 7266   0.724   4.363  12.565  0.8539 -0.8229 -0.3271
  485TMC3    C6 7267   0.822   4.298  12.634  0.8236 -0.1302  0.4096
  485TMC3     C 7268   0.428   4.225  12.716  0.1857 -0.5714  0.1717
  485TMC3     O 7269   0.411   4.107  12.755 -0.3452 -0.0404 -0.0860
  485TMC3     H 7270   0.638   4.128  12.854 -1.2073  1.3255  0.4812
  485TMC3    H1 7271   0.514   4.405  12.546 -2.5166 -1.2322  2.0276
  485TMC3    H2 7272   0.924   4.320  12.607  0.1765 -0.0599 -1.9843
  485TMC3    C7 7273   0.740   4.352  12.420  0.7048 -0.2305  0.0771
  485TMC3    C8 7274   0.873   4.102  12.724 -0.2595  0.3155 -0.4986
  485TMC3    O1 7275   0.710   4.448  12.346 -0.1558 -0.5596 -0.0100
  485TMC3    O2 7276   0.916   4.093  12.605  1.0035  0.2951  0.2030
  486MPD2     C 7277   2.994   2.826  12.707  0.1708 -0.5460  0.7577
  486MPD2    C1 7278   2.856   2.828  12.727 -0.9268 -0.1318  0.4106
  486MPD2    C2 7279   2.801   2.947  12.770 -0.2659 -0.1754  0.2663
  486MPD2    C3 7280   2.870   3.067  12.767 -0.4398  0.2254  0.5641
  486MPD2    C4 7281   3.006   3.064  12.732 -0.2314  0.0505  0.2925
  486MPD2    C5 7282   3.069   2.948  12.707  0.1407 -0.3991  0.1668
  486MPD2     H 7283   2.694   2.964  12.782 -0.4078  1.2764 -2.9700
  486MPD2    H1 7284   3.064   3.155  12.730 -0.9791  0.4628 -3.7600
  486MPD2    H2 7285   3.045   2.732  12.692 -0.3555 -0.7855  0.4750
  486MPD2    H3 7286   3.176   2.960  12.698 -0.1539  0.3724 -2.2724
  486MPD2     N 7287   2.801   3.187  12.797 -0.1324  0.8678 -0.0304
  486MPD2    H5 7288   2.703   3.179  12.824 -0.1443  2.0524  0.2986
  486MPD2    N1 7289   2.793   2.705  12.733  0.6750 -0.5282 -0.1835
  486MPD2    H7 7290   2.854   2.630  12.704  0.3640 -1.5365  1.7875
  487TMC3    C1 7291   2.636   2.543  12.803  0.3082  0.2083  0.4085
  487TMC3    C2 7292   2.509   2.512  12.816  0.2441  0.2919  0.6926
  487TMC3    C3 7293   2.474   2.399  12.885 -0.4140  0.7781  0.3252
  487TMC3    C4 7294   2.739   2.466  12.848 -0.3857 -0.4927 -0.1272
  487TMC3    C5 7295   2.701   2.350  12.904 -0.6019 -0.1127 -0.4102
  487TMC3    C6 7296   2.569   2.321  12.925 -0.0658 -0.6856 -0.2183
  487TMC3     C 7297   2.665   2.683  12.781 -0.0190 -0.5334 -0.2072
  487TMC3     O 7298   2.579   2.767  12.798  0.2283  0.2575  0.0147
  487TMC3     H 7299   2.434   2.578  12.774 -1.0229 -1.3794  0.3024
  487TMC3    H1 7300   2.839   2.507  12.855 -0.5142 -0.2946  0.6245
  487TMC3    H2 7301   2.545   2.234  12.985  1.2511 -0.0208  1.2555
  487TMC3    C7 7302   2.795   2.300  13.005 -0.1982  0.6966 -0.2966
  487TMC3    C8 7303   2.349   2.400  12.955 -0.5520  0.4058  0.8247
  487TMC3    O1 7304   2.749   2.256  13.111  0.0793  0.2472  0.0872
  487TMC3    O2 7305   2.298   2.512  12.965 -0.0962  0.0838 -0.5773
  488MPD2     C 7306   2.378   4.691  16.276 -0.5350  0.2830  0.1504
  488MPD2    C1 7307   2.409   0.036  16.385  0.8706 -0.4881 -0.7620
  488MPD2    C2 7308   2.359   0.008  16.509 -0.4411 -0.3232  0.4045
  488MPD2    C3 7309   2.274   4.634  16.531 -0.4800  0.2193  0.0345
  488MPD2    C4 7310   2.246   4.552  16.423 -0.1693  0.3591  0.0815
  488MPD2    C5 7311   2.296   4.583  16.299 -0.6235  0.1641  0.4683
  488MPD2     H 7312   2.393   0.061  16.598  0.2674  0.8929 -0.6002
  488MPD2    H1 7313   2.181   4.466  16.433  0.0848  0.2388  0.6651
  488MPD2    H2 7314   2.423   4.703  16.178  1.4275 -0.7298  0.9264
  488MPD2    H3 7315   2.262   4.520  16.218  0.9492 -1.0044  0.7235
  488MPD2     N 7316   2.235   4.607  16.665 -0.1949 -0.2727  0.1213
  488MPD2    H5 7317   2.273   4.658  16.744  2.1605 -0.9209 -0.6065
  488MPD2    N1 7318   2.479   0.155  16.363 -0.1045  0.0245  0.4454
  488MPD2    H7 7319   2.484   0.221  16.440  0.4318 -0.0733  0.4913
  489TMC3    C1 7320   2.167   4.498  16.853 -0.6240 -0.3027 -0.4265
  489TMC3    C2 7321   2.275   4.562  16.907  0.1201  0.4213 -0.1944
  489TMC3    C3 7322   2.271   4.602  17.037 -0.6278 -0.4441  0.5198
  489TMC3    C4 7323   2.056   4.455  16.928  0.5717  0.4227 -0.2604
  489TMC3    C5 7324   2.056   4.501  17.063  0.5776 -1.1481 -0.0211
  489TMC3    C6 7325   2.165   4.575  17.119 -1.1315  0.0125  0.4860
  489TMC3     C 7326   2.150   4.507  16.707 -0.5811 -0.1977  0.2892
  489TMC3     O 7327   2.071   4.437  16.644  0.1331  0.0074 -0.4957
  489TMC3     H 7328   2.367   4.581  16.853  0.2979  0.8725  0.2545
  489TMC3    H1 7329   1.975   4.407  16.875  0.0163  2.2074 -1.0242
  489TMC3    H2 7330   2.151   4.616  17.219  0.5654 -2.4634  1.7260
  489TMC3    C7 7331   1.953   4.453  17.158 -0.0652 -0.0253  0.7057
  489TMC3    C8 7332   2.325   4.731  17.054 -0.1059  0.2061 -0.0175
  489TMC3    O1 7333   1.964   4.498  17.274  0.2988 -0.1285  0.5907
  489TMC3    O2 7334   2.354   0.043  16.942  0.0140 -0.2615 -0.2968
  490MPD2     C 7335   3.378   4.298  16.689 -0.1480  0.7637  0.0697
  490MPD2    C1 7336   3.337   4.322  16.822 -0.1757 -0.0794  0.2216
  490MPD2    C2 7337   3.412   4.403  16.906  0.0294  0.5725 -0.2828
  490MPD2    C3 7338   3.531   4.459  16.867 -0.3403 -0.1880 -0.5768
  490MPD2    C4 7339   3.577   4.432  16.745 -0.1582  0.7226  0.4058
  490MPD2    C5 7340   3.499   4.358  16.657 -0.5231  0.0696 -0.3478
  490MPD2     H 7341   3.374   4.418  17.007 -0.6462 -1.1092 -0.2892
  490MPD2    H1 7342   3.676   4.462  16.712 -0.7542  0.0029 -2.0987
  490MPD2    H2 7343   3.331   4.227  16.621  1.1642 -1.5332  1.5494
  490MPD2    H3 7344   3.529   4.327  16.557 -0.6735 -1.2664  0.0239
  490MPD2     N 7345   3.609   4.537  16.953  0.1470  0.5241  0.5614
  490MPD2    H5 7346   3.700   4.571  16.925  0.6350 -0.6225  0.7525
  490MPD2    N1 7347   3.219   4.268  16.873  0.0720 -0.0603  0.6883
  490MPD2    H7 7348   3.214   4.292  16.972 -0.0168 -0.5621  0.8053
  491TMC3    C1 7349   3.042   4.121  16.887  0.4469  0.2374  0.1177
  491TMC3    C2 7350   3.080   4.091  17.017  0.5672 -0.8432  0.3229
  491TMC3    C3 7351   2.991   4.030  17.102 -0.1060 -0.2501 -0.1451
  491TMC3    C4 7352   2.909   4.115  16.848 -0.2631 -0.4571 -0.0203
  491TMC3    C5 7353   2.826   4.055  16.931 -0.1386  0.5643  0.7953
  491TMC3    C6 7354   2.865   4.006  17.055  0.3321 -0.1818  0.8343
  491TMC3     C 7355   3.126   4.195  16.802 -0.0316  0.1775 -0.6375
  491TMC3     O 7356   3.114   4.183  16.679 -0.0403 -0.2329 -0.4434
  491TMC3     H 7357   3.185   4.085  17.040  0.2451 -1.4059  1.6618
  491TMC3    H1 7358   2.874   4.152  16.752  1.5542 -0.2574 -0.6147
  491TMC3    H2 7359   2.792   3.953  17.115  1.4886 -0.9970  1.5315
  491TMC3    C7 7360   2.695   4.012  16.883 -0.4588  0.3786  0.5579
  491TMC3    C8 7361   3.035   3.950  17.208  0.0374  0.0003 -0.6685
  491TMC3    O1 7362   2.661   3.899  16.922  0.4762 -0.0878  0.1560
  491TMC3    O2 7363   2.950   3.874  17.250  0.2331  0.9412  0.1439
  492MPD2     C 7364   3.330   4.280  11.642 -0.4705 -0.6692  0.1125
  492MPD2    C1 7365   3.272   4.185  11.562 -0.2727  0.1681 -0.1294
  492MPD2    C2 7366   3.183   4.095  11.621  0.0912  0.4764 -0.7556
  492MPD2    C3 7367   3.166   4.096  11.763  0.2109 -0.7303 -0.4390
  492MPD2    C4 7368   3.235   4.187  11.838 -0.1057  0.0715 -0.4283
  492MPD2    C5 7369   3.309   4.283  11.775 -0.1940  0.6174 -0.0891
  492MPD2     H 7370   3.126   4.021  11.564  0.1318 -0.0577 -0.1088
  492MPD2    H1 7371   3.211   4.192  11.944  1.7133  3.1633 -0.1437
  492MPD2    H2 7372   3.394   4.362  11.612  0.7963 -1.2053  1.3450
  492MPD2    H3 7373   3.340   4.368  11.835 -1.2855  1.1089 -0.2092
  492MPD2     N 7374   3.090   4.003  11.832 -0.2254 -0.5876 -0.1817
  492MPD2    H5 7375   3.094   3.997  11.933 -2.9854 -0.0787 -0.0425
  492MPD2    N1 7376   3.309   4.194  11.426  0.0608  0.0348 -0.2710
  492MPD2    H7 7377   3.360   4.277  11.399 -1.6431  0.4712 -2.1018
  493TMC3    C1 7378   3.349   4.130  11.203 -0.5908  0.1252 -0.3132
  493TMC3    C2 7379   3.448   4.218  11.189 -1.4025 -0.1074 -0.0704
  493TMC3    C3 7380   3.500   4.239  11.068  0.0182 -0.3244  0.1116
  493TMC3    C4 7381   3.290   4.063  11.093 -0.3329 -0.3720 -0.6003
  493TMC3    C5 7382   3.348   4.091  10.966  0.3524  0.2132  0.0807
  493TMC3    C6 7383   3.448   4.184  10.957 -0.5080  0.0986 -0.1719
  493TMC3     C 7384   3.280   4.109  11.330  0.2307 -0.3062 -0.9405
  493TMC3     O 7385   3.213   4.009  11.338 -0.3242 -0.5854 -0.0172
  493TMC3     H 7386   3.502   4.258  11.274 -1.3880 -0.9079  0.2928
  493TMC3    H1 7387   3.206   3.996  11.099  1.2195 -2.2106  0.5851
  493TMC3    H2 7388   3.497   4.182  10.860  1.0538  1.9610  0.5899
  493TMC3    C7 7389   3.283   4.051  10.845  0.4738  0.4096  0.1390
  493TMC3    C8 7390   3.565   4.369  11.055 -0.5037 -0.8072 -0.6126
  493TMC3    O1 7391   3.163   4.014  10.851 -0.0430  0.0657 -0.0320
  493TMC3    O2 7392   3.579   4.431  11.156 -0.2194 -0.5521 -0.0145
  494TMC3    C1 7393   3.976   1.203   0.392  0.3858  0.5389  0.2126
  494TMC3    C2 7394   4.025   1.069   0.381 -0.2170 -0.5418 -0.1448
  494TMC3    C3 7395   4.145   1.060   0.311 -0.4991 -0.3092  0.9053
  494TMC3    C4 7396   4.034   1.318   0.343  0.1607  0.5759 -0.4858
  494TMC3    C5 7397   4.150   1.300   0.268  0.0095  0.0385  0.4288
  494TMC3    C6 7398   4.210   1.177   0.262  0.2294  0.0945 -0.2576
  494TMC3     C 7399   3.911   1.219   0.519  0.3642 -0.4391  0.7710
  494TMC3     O 7400   3.957   1.166   0.618 -0.4901  0.2453 -0.1975
  494TMC3     H 7401   3.974   0.990   0.434 -0.5128  0.8255  1.6102
  494TMC3    H1 7402   3.990   1.415   0.362  1.0572  0.7905  0.5241
  494TMC3    H2 7403   4.309   1.167   0.220 -0.6608 -1.9385 -1.8390
  494TMC3    C7 7404   4.229   1.404   0.204  0.0752 -0.0517 -0.1622
  494TMC3    C8 7405   4.226   0.929   0.321 -0.4270 -0.5667  0.0254
  494TMC3    O1 7406   4.350   1.383   0.182 -0.7695 -0.7456  0.1343
  494TMC3    O2 7407   4.336   0.924   0.272 -0.5182  0.1545  0.4677
  495TMC3    C1 7408   2.589   2.919  14.634 -0.0483  0.2546  0.0158
  495TMC3    C2 7409   2.483   2.952  14.552  0.3832 -0.5117  0.3637
  495TMC3    C3 7410   2.439   3.086  14.549  0.0039 -0.0590 -0.2211
  495TMC3    C4 7411   2.641   3.012  14.720  0.0736 -0.4622  0.3186
  495TMC3    C5 7412   2.602   3.137  14.715  0.0153  0.2894  0.1312
  495TMC3    C6 7413   2.500   3.172  14.629 -0.3122  0.3883 -0.2470
  495TMC3     C 7414   2.627   2.783  14.661  0.3236  0.4471 -0.1214
  495TMC3     O 7415   2.654   2.759  14.779  0.1205  0.3753  0.4540
  495TMC3     H 7416   2.433   2.876  14.494  0.4074  0.8794 -1.4898
  495TMC3    H1 7417   2.721   2.984  14.789  1.6796 -1.3973 -1.9380
  495TMC3    H2 7418   2.471   3.276  14.627  1.0984  0.7784 -0.4901
  495TMC3    C7 7419   2.618   3.194  14.844  0.4759 -0.2586 -0.1125
  495TMC3    C8 7420   2.315   3.127  14.488  1.0299  0.2440  1.1993
  495TMC3    O1 7421   2.520   3.216  14.907 -0.4797 -0.2965 -0.4263
  495TMC3    O2 7422   2.267   3.240  14.511  0.1596 -0.2806 -0.3871
  496MPD2     C 7423   4.225   3.540  15.070  0.1307  0.0015  0.0935
  496MPD2    C1 7424   4.234   3.520  15.206 -0.3667  0.3524  0.1220
  496MPD2    C2 7425   4.136   3.566  15.286 -0.2985 -0.8992 -0.2940
  496MPD2    C3 7426   4.040   3.654  15.239  0.1422 -0.1800 -0.0587
  496MPD2    C4 7427   4.042   3.686  15.098  0.7467  0.1775 -0.3704
  496MPD2    C5 7428   4.131   3.623  15.018 -0.0060  0.5907  0.2309
  496MPD2     H 7429   4.138   3.537  15.391 -0.1371 -1.4833 -0.4608
  496MPD2    H1 7430   3.966   3.750  15.055  3.0471  2.2827 -1.2333
  496MPD2    H2 7431   4.305   3.498  15.009 -1.7091 -1.1118 -1.5586
  496MPD2    H3 7432   4.143   3.654  14.915  0.2903  3.1723  1.0556
  496MPD2     N 7433   3.937   3.721  15.318  0.4285  0.0009  0.4120
  496MPD2    H5 7434   3.864   3.768  15.266  1.6525  0.4298 -0.9074
  496MPD2    N1 7435   4.350   3.458  15.250  0.1907 -0.1632 -0.3487
  496MPD2    H7 7436   4.422   3.438  15.182  0.0452 -1.1127 -0.2179
  497TMC3    C1 7437   3.793   3.735  15.503 -0.6430  0.2260  0.8817
  497TMC3    C2 7438   3.706   3.681  15.413 -0.8708 -0.2402  0.0688
  497TMC3    C3 7439   3.609   3.605  15.461  0.8410 -0.0839  0.1367
  497TMC3    C4 7440   3.787   3.703  15.637 -0.3222 -0.2094 -0.0851
  497TMC3    C5 7441   3.687   3.615  15.675  0.2203  0.9407 -0.1541
  497TMC3    C6 7442   3.586   3.573  15.590  0.4398  0.0890 -0.2198
  497TMC3     C 7443   3.932   3.735  15.459  0.1356  0.3249  0.5503
  497TMC3     O 7444   4.017   3.705  15.539 -0.1761  0.0077  0.2897
  497TMC3     H 7445   3.672   3.741  15.329  0.2632  0.9142  0.4421
  497TMC3    H1 7446   3.856   3.744  15.710 -0.8940  1.4793 -0.4936
  497TMC3    H2 7447   3.520   3.492  15.616  0.5351 -0.1741 -0.8050
  497TMC3    C7 7448   3.706   3.525  15.787  0.1679  0.3199 -0.1509
  497TMC3    C8 7449   3.591   3.495  15.366 -0.4218  0.1649  0.0018
  497TMC3    O1 7450   3.605   3.475  15.841 -0.2073  0.3629 -0.2005
  497TMC3    O2 7451   3.503   3.416  15.386  0.3839 -0.6308 -0.1833
  498MPD2     C 7452   0.094   4.256   9.572  0.2723  0.6080 -0.2939
  498MPD2    C1 7453   0.154   4.213   9.693 -0.4831  0.6696 -0.0607
  498MPD2    C2 7454   0.089   4.121   9.766 -0.4671  0.2452 -0.0103
  498MPD2    C3 7455   4.701   4.058   9.734  0.1521 -0.9717  0.1911
  498MPD2    C4 7456   4.643   4.091   9.611  0.6215 -0.2689  0.0747
  498MPD2    C5 7457   4.716   4.188   9.536  0.7791 -0.1948 -0.1451
  498MPD2     H 7458   0.132   4.094   9.862  0.7434  0.5940 -0.4541
  498MPD2    H1 7459   4.559   4.042   9.564 -1.4926  1.8427  1.6185
  498MPD2    H2 7460   0.133   4.341   9.517  0.2825  1.3286  0.8179
  498MPD2    H3 7461   4.682   4.211   9.436  2.3638 -0.9458 -0.8521
  498MPD2     N 7462   4.646   3.963   9.821 -0.0805  0.1372  0.4417
  498MPD2    H5 7463   4.710   3.939   9.896 -1.1040 -1.5028  0.7951
  498MPD2    N1 7464   0.280   4.263   9.738  0.0838 -0.8137 -0.6219
  498MPD2    H7 7465   0.311   4.224   9.826  1.7188  0.7313 -0.5332
  499TMC3    C1 7466   0.429   4.445   9.789  0.1420  0.0001  0.0221
  499TMC3    C2 7467   0.500   4.357   9.870 -0.1924  0.3428 -0.4936
  499TMC3    C3 7468   0.569   4.426   9.972  0.0832 -0.3966  0.5309
  499TMC3    C4 7469   0.439   4.583   9.795 -0.9623 -0.6287  0.0072
  499TMC3    C5 7470   0.520   4.642   9.891 -0.2571 -0.4137 -0.3988
  499TMC3    C6 7471   0.588   4.561   9.982 -0.0714  0.1009 -1.0466
  499TMC3     C 7472   0.338   4.384   9.692  0.3962 -0.2485 -0.3400
  499TMC3     O 7473   0.319   4.444   9.588  0.3414 -0.2778  0.1249
  499TMC3     H 7474   0.497   4.249   9.861  0.8900  0.4524 -2.0820
  499TMC3    H1 7475   0.383   4.649   9.729 -0.8168  0.6898  1.1973
  499TMC3    H2 7476   0.639   4.601  10.069  0.1383 -1.0681 -0.6356
  499TMC3    C7 7477   0.529   0.044   9.913  0.1763 -0.3133  0.0602
  499TMC3    C8 7478   0.651   4.343  10.069  0.1161 -1.0462 -0.2529
  499TMC3    O1 7479   0.520   0.116   9.816  0.4770 -0.1248 -0.1599
  499TMC3    O2 7480   0.737   4.405  10.131  0.9939 -0.1093  0.1905
  500MPD2     C 7481   2.270   0.477  10.567 -0.2547  0.5963  0.2027
  500MPD2    C1 7482   2.287   0.481  10.431 -0.9275  0.8168 -0.4759
  500MPD2    C2 7483   2.177   0.491  10.352 -0.4436 -0.5278 -0.8684
  500MPD2    C3 7484   2.051   0.477  10.414 -0.4150  0.3620  0.2248
  500MPD2    C4 7485   2.042   0.458  10.543  0.1205  0.6153  1.0155
  500MPD2    C5 7486   2.151   0.443  10.622 -0.3270  0.1335 -0.2184
  500MPD2     H 7487   2.185   0.485  10.244  1.4815  0.9586 -0.8119
  500MPD2    H1 7488   1.942   0.438  10.580  0.6753 -1.8077  1.2427
  500MPD2    H2 7489   2.351   0.470  10.639  0.0548 -0.9011 -0.2844
  500MPD2    H3 7490   2.145   0.424  10.728  0.9318 -4.9499 -1.0473
  500MPD2     N 7491   1.934   0.478  10.343 -0.5359 -0.0774  0.6563
  500MPD2    H5 7492   1.854   0.481  10.406 -0.6559 -2.9769  0.6307
  500MPD2    N1 7493   2.416   0.492  10.366 -0.5770  0.0911  0.3782
  500MPD2    H7 7494   2.412   0.484  10.265 -0.2754 -2.1215  0.5468
  501TMC3    C1 7495   2.657   0.487  10.355 -0.1050  0.1887  0.5584
  501TMC3    C2 7496   2.656   0.544  10.232 -0.0697 -0.0863  0.5414
  501TMC3    C3 7497   2.779   0.557  10.171  0.1558 -0.0105  0.3244
  501TMC3    C4 7498   2.769   0.449  10.427  0.0323 -1.0959 -0.0505
  501TMC3    C5 7499   2.888   0.483  10.369  0.3352  0.4122 -0.7398
  501TMC3    C6 7500   2.899   0.524  10.240 -0.2165 -0.9199 -0.7775
  501TMC3     C 7501   2.539   0.502  10.437 -0.3063  0.1238 -0.0524
  501TMC3     O 7502   2.558   0.509  10.555 -0.2576  0.3195 -0.2945
  501TMC3     H 7503   2.570   0.576  10.175  0.2737 -1.2609 -0.6253
  501TMC3    H1 7504   2.758   0.425  10.532  0.1005 -0.7243  0.0426
  501TMC3    H2 7505   2.989   0.526  10.180 -0.4399  2.2615 -1.0563
  501TMC3    C7 7506   2.993   0.507  10.470 -0.4290 -0.1178  0.2139
  501TMC3    C8 7507   2.772   0.601  10.029  0.0482 -0.0786  0.1704
  501TMC3    O1 7508   2.972   0.475  10.589 -0.0915  0.0190  0.4722
  501TMC3    O2 7509   2.683   0.545   9.964 -0.4416  0.0689  0.1513
  502TMC3    C1 7510   1.535   3.784  14.868  0.5042  0.1775 -1.0739
  502TMC3    C2 7511   1.537   3.893  14.787 -0.2412 -0.0199 -0.5298
  502TMC3    C3 7512   1.514   4.018  14.848 -0.1774  0.5665  0.8631
  502TMC3    C4 7513   1.475   3.789  14.988 -0.5481  0.0920  0.8001
  502TMC3    C5 7514   1.421   3.907  15.023  0.0962  0.5724  0.1903
  502TMC3    C6 7515   1.448   4.027  14.969 -0.0188 -0.7332 -0.7439
  502TMC3     C 7516   1.664   3.708  14.863 -0.3303 -0.4478  0.3350
  502TMC3     O 7517   1.731   3.698  14.761  0.1103 -0.2474 -0.3133
  502TMC3     H 7518   1.574   3.903  14.685  1.1439 -1.5958 -0.1826
  502TMC3    H1 7519   1.467   3.696  15.043  2.7232 -1.4312 -1.2952
  502TMC3    H2 7520   1.447   4.120  15.024 -1.9188 -0.2389 -1.6152
  502TMC3    C7 7521   1.387   3.905  15.167  0.2401 -0.6907  0.0946
  502TMC3    C8 7522   1.620   4.111  14.842 -0.3766 -0.4948  0.1563
  502TMC3    O1 7523   1.456   3.832  15.240  0.6089  0.2335  0.6498
  502TMC3    O2 7524   1.590   4.226  14.864  0.9377 -0.2679 -0.6196
  503MPD2     C 7525   4.277   0.496  17.375 -0.0541  0.1200  0.0744
  503MPD2    C1 7526   4.410   0.518  17.378 -0.5351  0.6939 -0.0739
  503MPD2    C2 7527   4.493   0.419  17.421  0.3970  0.6168  1.0320
  503MPD2    C3 7528   4.447   0.296  17.465 -0.4560 -0.7055  0.2764
  503MPD2    C4 7529   4.313   0.270  17.454  0.1221  0.2957 -0.1146
  503MPD2    C5 7530   4.233   0.368  17.403  0.7448 -0.3627 -0.0895
  503MPD2     H 7531   4.597   0.449  17.427  0.4913  0.8437 -1.7303
  503MPD2    H1 7532   4.265   0.180  17.490 -1.0815  0.7560 -0.5486
  503MPD2    H2 7533   4.197   0.558  17.338  1.8023  2.9854  0.8605
  503MPD2    H3 7534   4.128   0.351  17.382  0.7556 -1.3850  0.6902
  503MPD2     N 7535   4.541   0.205  17.519 -0.2755  0.1966 -0.5588
  503MPD2    H5 7536   4.640   0.227  17.508 -0.2415 -0.5507 -1.7694
  503MPD2    N1 7537   4.461   0.646  17.360  0.1584 -0.1138  0.1862
  503MPD2    H7 7538   4.561   0.655  17.373 -0.0212  1.4836  0.4471
  504TMC3    C1 7539   4.639   4.735  17.594  0.4867  0.6796  0.4449
  504TMC3    C2 7540   4.640   4.655  17.702  0.1112  0.0328 -0.7506
  504TMC3    C3 7541   0.022   4.587  17.726 -0.4914  0.3984  0.1539
  504TMC3    C4 7542   4.735   0.005  17.501  0.3162 -0.1052  0.1440
  504TMC3    C5 7543   0.108   4.668  17.524  0.5775  0.6753  0.3182
  504TMC3    C6 7544   0.127   4.593  17.633 -1.0204  0.2156 -0.1649
  504TMC3     C 7545   4.517   0.073  17.564 -0.0709 -0.0148  0.4164
  504TMC3     O 7546   4.406   0.025  17.586  0.6853 -0.5178  0.5194
  504TMC3     H 7547   4.560   4.661   0.033  0.4512 -1.0723 -0.2682
  504TMC3    H1 7548   4.729   0.069  17.414 -3.7100  3.0674  2.7963
  504TMC3    H2 7549   0.218   4.535  17.645 -1.8216 -1.2850 -1.3082
  504TMC3    C7 7550   0.208   4.678  17.424 -0.1930  0.3177  0.0978
  504TMC3    C8 7551   0.014   4.470   0.073 -0.2990 -0.2887  0.1283
  504TMC3    O1 7552   0.187   4.622  17.317 -0.4096  0.5981 -0.6234
  504TMC3    O2 7553   4.704   4.360   0.025 -0.1981 -0.1900  0.8041
  505MPD2     C 7554   4.521   2.755  10.606 -0.1525  0.9604  0.7126
  505MPD2    C1 7555   4.537   2.700  10.479 -0.1274 -0.2415 -0.0435
  505MPD2    C2 7556   4.664   2.725  10.423  0.3447  0.1646  0.0289
  505MPD2    C3 7557   0.032   2.785  10.489  0.1184  0.1152  0.2371
  505MPD2    C4 7558   0.008   2.837  10.615 -0.1989  0.7754 -0.3671
  505MPD2    C5 7559   4.625   2.805  10.680  0.0172  0.1465  1.1152
  505MPD2     H 7560   4.666   2.701  10.317 -0.9914  1.7997 -0.3641
  505MPD2    H1 7561   0.084   2.890  10.671 -0.0221 -2.8005  2.8157
  505MPD2    H2 7562   4.426   2.749  10.658 -0.9545  0.1732 -0.8514
  505MPD2    H3 7563   4.610   2.846  10.779 -2.3977  0.7081  0.4927
  505MPD2     N 7564   0.153   2.799  10.427 -0.1425  0.0698  0.1855
  505MPD2    H5 7565   0.151   2.756  10.336  1.9280 -0.8241  0.5656
  505MPD2    N1 7566   4.424   2.652  10.406 -0.7803 -0.0430  0.6342
  505MPD2    H7 7567   4.335   2.652  10.455 -0.8487 -0.6909  0.5096
  506TMC3    C1 7568   4.311   2.573  10.215  0.0141  0.1871 -0.0267
  506TMC3    C2 7569   4.233   2.687  10.211 -0.1141 -0.3666 -0.0186
  506TMC3    C3 7570   4.149   2.699  10.106  0.3565  0.7088 -0.0940
  506TMC3    C4 7571   4.329   2.492  10.104  0.3639 -0.1555 -0.0366
  506TMC3    C5 7572   4.262   2.537   9.995  0.8872  0.5933 -0.3627
  506TMC3    C6 7573   4.168   2.635   9.987 -0.1355  0.6982  0.6452
  506TMC3     C 7574   4.437   2.577  10.285 -0.0684 -0.5853  0.0982
  506TMC3     O 7575   4.541   2.547  10.226  0.4060  0.0590 -0.6127
  506TMC3     H 7576   4.229   2.751  10.299  0.3845  2.4663 -2.0841
  506TMC3    H1 7577   4.388   2.401  10.108 -0.6954 -0.8071  0.6349
  506TMC3    H2 7578   4.114   2.649   9.894  0.7749  1.4908  0.2386
  506TMC3    C7 7579   4.356   2.552   9.892 -0.2490  0.1564 -0.3899
  506TMC3    C8 7580   4.072   2.820  10.077 -0.5358  0.0975 -0.2200
  506TMC3    O1 7581   4.317   2.553   9.775  0.5397  0.2317  0.1395
  506TMC3    O2 7582   3.991   2.807   9.989 -0.2985  0.1194  0.6467
  507TMC3    C1 7583   4.623   4.424  14.694  0.5263  0.0726 -0.5281
  507TMC3    C2 7584   4.604   4.374  14.570  0.2203  0.1600 -0.5160
  507TMC3    C3 7585   4.717   4.348  14.495 -0.2984 -0.4373 -0.2483
  507TMC3    C4 7586   0.010   4.454  14.743 -0.0698  0.6824  0.1254
  507TMC3    C5 7587   0.125   4.430  14.670  0.5269  0.5687  0.3178
  507TMC3    C6 7588   0.109   4.363  14.552  0.2393 -0.5417  0.6148
  507TMC3     C 7589   4.517   4.435  14.789  0.4843  0.4317  0.0789
  507TMC3     O 7590   4.540   4.424  14.910 -0.4729 -0.0299 -0.4677
  507TMC3     H 7591   4.511   4.345  14.523 -1.1178  1.8212  1.1004
  507TMC3    H1 7592   0.014   4.488  14.846  1.7034 -0.5067  0.4551
  507TMC3    H2 7593   0.194   4.336  14.491 -1.2480  0.1275 -1.7561
  507TMC3    C7 7594   0.217   4.534  14.652  0.1956 -0.0946  0.7690
  507TMC3    C8 7595   4.707   4.394  14.360  0.0530  0.5814  0.3340
  507TMC3    O1 7596   0.272   4.533  14.541 -0.9039 -0.3290  0.1259
  507TMC3    O2 7597   4.611   4.354  14.289 -0.0176 -0.3310  0.4127
  508MPD2     C 7598   1.810   1.892  15.875 -0.0582 -0.8119 -0.3185
  508MPD2    C1 7599   1.807   1.978  15.984  0.1136 -0.1018  0.0891
  508MPD2    C2 7600   1.763   2.111  15.962  0.4586 -0.0845  0.4040
  508MPD2    C3 7601   1.726   2.153  15.841  0.0322 -0.8082 -0.1940
  508MPD2    C4 7602   1.747   2.076  15.729 -0.2088  0.1972 -0.2324
  508MPD2    C5 7603   1.789   1.947  15.749 -0.7666 -0.1784  0.3275
  508MPD2     H 7604   1.760   2.191  16.035 -0.9661  0.0258  0.2246
  508MPD2    H1 7605   1.728   2.116  15.630 -0.0804 -0.0361 -0.3489
  508MPD2    H2 7606   1.850   1.792  15.882  2.5734  0.2603  0.0127
  508MPD2    H3 7607   1.812   1.888  15.660 -2.1777 -1.1226  0.5905
  508MPD2     N 7608   1.675   2.280  15.826  0.4809 -0.0872 -0.1190
  508MPD2    H5 7609   1.681   2.336  15.911  1.7430 -0.3763 -0.0246
  508MPD2    N1 7610   1.842   1.941  16.117  0.1992  0.0692  0.4331
  508MPD2    H7 7611   1.843   2.020  16.181 -0.2330  0.2488  0.2165
  509TMC3    C1 7612   1.451   2.598  15.873  0.1452  0.3742 -0.2708
  509TMC3    C2 7613   1.532   2.615  15.981 -0.0233  0.7011  0.1542
  509TMC3    C3 7614   1.656   2.560  15.968  0.3588 -0.1282  0.2505
  509TMC3    C4 7615   1.493   2.528  15.759 -0.0110  0.4345  0.2125
  509TMC3    C5 7616   1.624   2.489  15.746  0.7697 -0.2662  0.3065
  509TMC3    C6 7617   1.708   2.512  15.853 -0.3770 -0.4364  0.0645
  509TMC3     C 7618   1.346   2.702  15.869 -0.4973 -0.3508  0.2251
  509TMC3     O 7619   1.311   2.745  15.979  0.2043 -0.1191  0.2104
  509TMC3     H 7620   1.516   2.675  16.070  0.7890  0.6680  0.3279
  509TMC3    H1 7621   1.424   2.509  15.678  1.3311 -2.6170 -0.2454
  509TMC3    H2 7622   1.811   2.481  15.849 -0.6533 -1.5005  1.3297
  509TMC3    C7 7623   1.627   2.346  15.714  1.2035  0.3331  0.2669
  509TMC3    C8 7624   1.755   2.600  16.069  0.1926  0.6267 -0.4745
  509TMC3    O1 7625   1.588   2.298  15.605 -0.5324 -0.0511 -0.7251
  509TMC3    O2 7626   1.732   2.552  16.181 -0.0852 -0.4901  0.2150
  510MPD2     C 7627   3.814   3.802  14.262 -0.4449  0.5916  0.0864
  510MPD2    C1 7628   3.873   3.758  14.380 -0.7438  0.0980 -0.3335
  510MPD2    C2 7629   4.008   3.761  14.387  0.0391 -0.5516 -0.0950
  510MPD2    C3 7630   4.082   3.791  14.275 -0.5129  0.3474 -0.7639
  510MPD2    C4 7631   4.015   3.803  14.158  0.4512 -0.0864  0.5304
  510MPD2    C5 7632   3.880   3.809  14.143 -0.0564 -0.1777 -0.0601
  510MPD2     H 7633   4.056   3.732  14.480  1.4819 -3.1299 -1.6099
  510MPD2    H1 7634   4.067   3.817  14.065  0.3854 -1.9275  0.2150
  510MPD2    H2 7635   3.707   3.793  14.248 -0.2583 -1.9126  0.2951
  510MPD2    H3 7636   3.823   3.842  14.057 -1.9822  1.0286  1.6773
  510MPD2     N 7637   4.223   3.790  14.278  0.8435  0.5202  0.1195
  510MPD2    H5 7638   4.259   3.767  14.370  0.2265 -0.5744  0.0891
  510MPD2    N1 7639   3.802   3.711  14.491  0.2584 -0.5048  0.9576
  510MPD2    H7 7640   3.848   3.666  14.570  0.9309 -0.7728  0.4090
  511TMC3    C1 7641   3.609   3.655  14.608 -0.0541 -0.4148 -0.0208
  511TMC3    C2 7642   3.581   3.711  14.727  0.4068 -0.7042  0.1728
  511TMC3    C3 7643   3.548   3.628  14.831 -0.2146  0.0384  0.1112
  511TMC3    C4 7644   3.632   3.524  14.593 -0.1578  0.0697  0.5304
  511TMC3    C5 7645   3.606   3.439  14.705  0.4446  0.4005  0.9343
  511TMC3    C6 7646   3.555   3.492  14.822 -0.2153 -0.8674 -0.0605
  511TMC3     C 7647   3.671   3.741  14.516  0.2102  0.0334 -0.1833
  511TMC3     O 7648   3.599   3.826  14.460 -0.3741 -0.1967  0.4539
  511TMC3     H 7649   3.586   3.819  14.733  1.3487 -0.8087  1.3093
  511TMC3    H1 7650   3.656   3.483  14.495 -2.4080  1.1790 -0.4605
  511TMC3    H2 7651   3.537   3.436  14.913 -1.9351 -2.3053 -1.2921
  511TMC3    C7 7652   3.612   3.295  14.678  0.2185 -0.0544  0.1063
  511TMC3    C8 7653   3.500   3.693  14.947  0.1002 -0.5321  0.2001
  511TMC3    O1 7654   3.678   3.259  14.577 -0.6513  0.2203  0.1727
  511TMC3    O2 7655   3.556   3.797  14.975 -0.2028 -0.8254  0.3009
  512TMC3    C1 7656   3.102   2.626  13.141 -0.0607 -0.0097 -0.6924
  512TMC3    C2 7657   3.160   2.643  13.265  0.1388  0.0281 -0.0038
  512TMC3    C3 7658   3.295   2.645  13.262 -1.1694  0.1683 -0.2625
  512TMC3    C4 7659   3.171   2.606  13.026  0.0722  0.6982 -0.1754
  512TMC3    C5 7660   3.300   2.612  13.032 -0.7937  0.3133 -0.4196
  512TMC3    C6 7661   3.370   2.623  13.148  0.2341 -0.5603 -0.2524
  512TMC3     C 7662   2.958   2.631  13.134  0.4490  0.3103 -0.0095
  512TMC3     O 7663   2.908   2.681  13.033 -0.7106  0.0874  0.1798
  512TMC3     H 7664   3.113   2.676  13.357 -1.2058 -0.2170 -0.5960
  512TMC3    H1 7665   3.124   2.601  12.929 -0.6617  0.0450  0.2171
  512TMC3    H2 7666   3.478   2.619  13.158  0.5017  0.5838 -2.7181
  512TMC3    C7 7667   3.367   2.529  12.934 -0.0979 -0.4763 -0.2073
  512TMC3    C8 7668   3.376   2.672  13.380 -0.1259 -0.4295  0.3459
  512TMC3    O1 7669   3.347   2.564  12.819  0.2700 -0.2556 -0.4549
  512TMC3    O2 7670   3.476   2.611  13.393  0.4278  0.3585 -0.3627
  513MPD2     C 7671   1.093   2.749  14.114 -0.1553 -0.4634  0.5113
  513MPD2    C1 7672   1.093   2.664  14.006  0.0024  0.8689  0.2683
  513MPD2    C2 7673   1.204   2.590  13.980 -0.1947 -0.2696 -0.1842
  513MPD2    C3 7674   1.321   2.591  14.061 -0.2859 -0.9187 -0.3980
  513MPD2    C4 7675   1.308   2.663  14.182 -0.1050 -0.0802  0.4923
  513MPD2    C5 7676   1.198   2.742  14.204  0.6918  0.6579  0.1861
  513MPD2     H 7677   1.209   2.529  13.891  1.3751 -1.4823  0.7499
  513MPD2    H1 7678   1.400   2.670  14.240  0.9977 -0.8909 -1.1499
  513MPD2    H2 7679   1.008   2.813  14.135  0.0165 -0.8843  2.5477
  513MPD2    H3 7680   1.186   2.798  14.297 -0.2588 -0.3623  0.6872
  513MPD2     N 7681   1.426   2.505  14.026  0.5021 -0.1116  0.0488
  513MPD2    H5 7682   1.409   2.462  13.936  1.3693  1.5497 -0.8927
  513MPD2    N1 7683   0.982   2.663  13.914  0.0827 -0.5025 -0.6465
  513MPD2    H7 7684   0.906   2.729  13.930  0.6828  0.5398 -2.0195
  514TMC3    C1 7685   0.857   2.582  13.728 -0.7670  0.8584  0.4351
  514TMC3    C2 7686   0.861   2.704  13.652  0.4602  0.7495 -0.1481
  514TMC3    C3 7687   0.836   2.688  13.519 -0.1882 -0.3366 -0.0370
  514TMC3    C4 7688   0.809   2.467  13.677 -0.0852  0.0412  0.6999
  514TMC3    C5 7689   0.784   2.453  13.544 -0.1950  0.5946 -0.8180
  514TMC3    C6 7690   0.804   2.564  13.467 -0.0851  0.9667 -0.1500
  514TMC3     C 7691   0.960   2.560  13.828  0.3665 -0.1797 -0.4326
  514TMC3     O 7692   1.022   2.455  13.810 -0.1286 -0.1332 -0.1328
  514TMC3     H 7693   0.904   2.794  13.696  1.8661  0.1317 -0.2581
  514TMC3    H1 7694   0.804   2.381  13.743 -3.0543 -2.1704 -2.4069
  514TMC3    H2 7695   0.798   2.541  13.361  1.5084  0.7101 -0.1880
  514TMC3    C7 7696   0.851   2.337  13.488 -0.2555 -0.2803 -0.7498
  514TMC3    C8 7697   0.829   2.809  13.436 -0.4365 -0.3769 -0.2640
  514TMC3    O1 7698   0.808   2.284  13.385  0.0930  0.3848 -0.0116
  514TMC3    O2 7699   0.827   2.919  13.489 -0.0253  0.5463 -0.3387
  515MPD2     C 7700   3.272   0.176  14.684  0.1764  0.0432 -0.0115
  515MPD2    C1 7701   3.194   0.205  14.798 -0.7884 -0.0621  0.5111
  515MPD2    C2 7702   3.251   0.281  14.896  0.1823  0.1101  0.4012
  515MPD2    C3 7703   3.373   0.344  14.877 -0.3320  0.0435  0.1137
  515MPD2    C4 7704   3.441   0.321  14.767  0.4324 -0.5940  0.1182
  515MPD2    C5 7705   3.395   0.229  14.675  0.5143 -0.0395  0.4121
  515MPD2     H 7706   3.200   0.294  14.990 -0.6531  0.1575 -0.0568
  515MPD2    H1 7707   3.536   0.367  14.742 -0.2202 -0.1961 -1.6285
  515MPD2    H2 7708   3.235   0.106  14.609  2.1335 -0.7540 -0.2273
  515MPD2    H3 7709   3.453   0.203  14.587  0.7084  0.8302  0.2758
  515MPD2     N 7710   3.436   0.426  14.976 -0.4688 -0.1655 -0.2291
  515MPD2    H5 7711   3.521   0.474  14.949 -1.0909  1.4747  0.8011
  515MPD2    N1 7712   3.065   0.147  14.812  0.4095 -0.2640  0.4084
  515MPD2    H7 7713   3.013   0.140  14.899  0.6951 -2.5891  0.3822
  516TMC3    C1 7714   2.866   0.059  14.707  0.2427  0.9352  0.5349
  516TMC3    C2 7715   2.762   0.116  14.634  0.2847  0.2950  1.2472
  516TMC3    C3 7716   2.647   0.042  14.623 -0.1598 -0.5142 -0.3401
  516TMC3    C4 7717   2.857   4.667  14.765 -1.1044  0.4218 -0.5064
  516TMC3    C5 7718   2.740   4.597  14.747 -0.2978  0.2403 -0.2425
  516TMC3    C6 7719   2.634   4.650  14.677 -0.2681  0.5040  0.3181
  516TMC3     C 7720   2.993   0.124  14.694  0.0996  0.0462 -0.2357
  516TMC3     O 7721   3.014   0.163  14.577  0.5274  0.3270  0.0250
  516TMC3     H 7722   2.770   0.222  14.610  2.2745  0.3096  1.9059
  516TMC3    H1 7723   2.947   4.637  14.817  0.1253  3.7780 -0.7066
  516TMC3    H2 7724   2.552   4.586  14.645 -0.4967  1.5437 -1.1608
  516TMC3    C7 7725   2.736   4.463  14.804 -0.5273 -0.0797  0.0447
  516TMC3    C8 7726   2.535   0.092  14.555 -0.2761 -0.8001  0.0817
  516TMC3    O1 7727   2.840   4.438  14.865 -0.4016 -0.3175  0.0380
  516TMC3    O2 7728   2.433   0.027  14.562  0.2146  0.3960  0.1851
  517MPD2     C 7729   3.109   1.246   0.558 -0.4750  0.2637 -0.0053
  517MPD2    C1 7730   3.101   1.352   0.468  0.2859 -0.5061 -0.3188
  517MPD2    C2 7731   3.099   1.482   0.517  0.3214  0.1306  0.1585
  517MPD2    C3 7732   3.103   1.509   0.653  0.4382  0.0224 -0.4662
  517MPD2    C4 7733   3.099   1.399   0.739 -0.2662  0.7539  0.1504
  517MPD2    C5 7734   3.114   1.269   0.692  0.1312  0.3095 -0.2572
  517MPD2     H 7735   3.081   1.561   0.444 -1.1990  1.1705  1.6548
  517MPD2    H1 7736   3.103   1.417   0.846  1.9572  1.1957 -0.0242
  517MPD2    H2 7737   3.124   1.144   0.526  1.2603 -0.1562  2.1257
  517MPD2    H3 7738   3.122   1.185   0.759  1.3410 -0.1023 -0.9211
  517MPD2     N 7739   3.119   1.640   0.713  0.0302  0.1080  0.5821
  517MPD2    H5 7740   3.117   1.638   0.815  0.1321 -2.3950  0.5393
  517MPD2    N1 7741   3.078   1.329   0.329  0.1999 -0.4448  0.5717
  517MPD2    H7 7742   3.072   1.413   0.273  2.1532 -0.2234  0.7165
  518TMC3    C1 7743   3.007   1.228   0.131  0.0656 -0.7142  0.6583
  518TMC3    C2 7744   2.931   1.122   0.097 -0.2462  0.4430 -0.0394
  518TMC3    C3 7745   2.940   1.077  17.706  0.7337  0.1352 -0.2515
  518TMC3    C4 7746   3.092   1.297   0.045 -0.2462  0.3999 -0.1785
  518TMC3    C5 7747   3.089   1.243  17.655  0.2746 -0.0846  0.6402
  518TMC3    C6 7748   3.012   1.142  17.611  0.1117 -0.4656 -0.3401
  518TMC3     C 7749   3.054   1.209   0.270  0.1014  0.5931 -0.1097
  518TMC3     O 7750   3.070   1.093   0.310  0.3234  0.4109 -0.1913
  518TMC3     H 7751   2.878   1.065   0.172  0.6392 -0.1527  0.1323
  518TMC3    H1 7752   3.155   1.379   0.077 -1.6346  0.9300  1.2021
  518TMC3    H2 7753   3.012   1.113  17.507  0.6300  2.3212 -1.1178
  518TMC3    C7 7754   3.207   1.264  17.574 -0.3964 -0.7754 -0.1399
  518TMC3    C8 7755   2.893   0.949  17.653 -0.2525 -0.0722  1.2116
  518TMC3    O1 7756   3.277   1.364  17.569 -0.1525  0.4047 -0.0180
  518TMC3    O2 7757   2.970   0.901  17.570  0.1581  0.0833  0.3868
  519MPD2     C 7758   4.223   4.594  14.061  0.1792 -0.5367 -0.9134
  519MPD2    C1 7759   4.269   4.572  13.934 -0.8928  0.3435 -0.1572
  519MPD2    C2 7760   4.336   4.462  13.903  0.7260 -0.1507  0.1031
  519MPD2    C3 7761   4.362   4.366  13.999  0.2868  0.6643  0.4991
  519MPD2    C4 7762   4.340   4.407  14.130 -1.0081  0.1785 -0.1560
  519MPD2    C5 7763   4.265   4.517  14.161 -0.3892 -0.3768 -0.1833
  519MPD2     H 7764   4.360   4.437  13.800  0.0562 -1.1857  0.1967
  519MPD2    H1 7765   4.380   4.350  14.213 -2.2577  0.3208  0.5492
  519MPD2    H2 7766   4.168   4.684  14.085  1.8379  0.6023 -1.3571
  519MPD2    H3 7767   4.242   4.548  14.262  4.4211  1.1085  0.4691
  519MPD2     N 7768   4.410   4.240  13.974  1.0270 -0.0064  0.4687
  519MPD2    H5 7769   4.429   4.180  14.053 -1.1428 -3.2594 -1.4940
  519MPD2    N1 7770   4.220   4.661  13.831  0.4643  0.3868 -0.0251
  519MPD2    H7 7771   4.153   4.730  13.864 -0.3734  0.2628 -1.4441
  520TMC3    C1 7772   4.444   4.051  13.849  0.2725 -0.3031  0.5333
  520TMC3    C2 7773   4.390   3.978  13.751  0.6828 -0.8008  0.4208
  520TMC3    C3 7774   4.475   3.881  13.697  0.1408  0.2035 -0.0952
  520TMC3    C4 7775   4.568   4.031  13.902  0.3280 -0.4016  0.5339
  520TMC3    C5 7776   4.644   3.942  13.845 -0.3277  0.1775  0.3560
  520TMC3    C6 7777   4.604   3.870  13.741 -0.4539 -0.3953 -0.3325
  520TMC3     C 7778   4.398   4.185  13.845  0.2074 -0.2678 -0.3216
  520TMC3     O 7779   4.350   4.229  13.737  0.1017 -0.7556  0.5708
  520TMC3     H 7780   4.287   4.000  13.723  0.3178 -3.3082 -0.2365
  520TMC3    H1 7781   4.612   4.095  13.978  0.2071 -2.1399  2.0833
  520TMC3    H2 7782   4.666   3.805  13.681  0.1846 -0.6535  0.6037
  520TMC3    C7 7783   0.031   3.909  13.925  0.3455 -0.5289 -0.2082
  520TMC3    C8 7784   4.434   3.835  13.568  1.2567 -0.3118  0.1132
  520TMC3    O1 7785   0.029   3.953  14.042  0.3156 -1.2612  0.2446
  520TMC3    O2 7786   4.525   3.776  13.510 -0.7872  0.0127 -0.1279
  521MPD2     C 7787   0.756   3.137  16.962 -0.1576  0.1861  0.8720
  521MPD2    C1 7788   0.723   3.002  16.965  0.2832 -0.3231 -1.0805
  521MPD2    C2 7789   0.796   2.909  16.896  0.0509  0.1722  0.1224
  521MPD2    C3 7790   0.919   2.943  16.845 -0.0894  0.4067  0.1965
  521MPD2    C4 7791   0.964   3.072  16.864  0.3258 -0.3028 -0.0440
  521MPD2    C5 7792   0.879   3.165  16.918  0.4455  0.1828  0.7087
  521MPD2     H 7793   0.763   2.806  16.889 -1.3505  0.6596 -0.4975
  521MPD2    H1 7794   1.056   3.103  16.814  0.0622  0.8327  0.1875
  521MPD2    H2 7795   0.684   3.215  16.987  0.3283  0.3846  1.6387
  521MPD2    H3 7796   0.902   3.271  16.910  1.0968 -0.2682 -3.2933
  521MPD2     N 7797   0.992   2.840  16.785  0.3545  0.0430  0.3172
  521MPD2    H5 7798   0.948   2.749  16.798 -0.9827  0.5641 -0.5063
  521MPD2    N1 7799   0.599   2.969  17.030  0.1181  0.1834  0.0390
  521MPD2    H7 7800   0.566   3.031  17.103  0.6262  1.3053 -0.6866
  522TMC3    C1 7801   1.170   2.701  16.739 -0.0514 -0.3916  0.2410
  522TMC3    C2 7802   1.304   2.683  16.754  0.3103 -0.5063  0.5884
  522TMC3    C3 7803   1.348   2.556  16.747 -0.1953  0.8833  0.2783
  522TMC3    C4 7804   1.081   2.602  16.712  0.2377 -0.5825 -0.2362
  522TMC3    C5 7805   1.136   2.476  16.719 -0.3116 -0.2049  1.0185
  522TMC3    C6 7806   1.266   2.449  16.751 -0.4886 -0.2326  0.0958
  522TMC3     C 7807   1.121   2.837  16.742  0.2012  0.6387 -0.9539
  522TMC3     O 7808   1.195   2.933  16.733 -0.5629 -0.0778 -0.0312
  522TMC3     H 7809   1.374   2.765  16.757 -0.4200  0.0524  2.2930
  522TMC3    H1 7810   0.979   2.623  16.682  0.1250  2.0143  1.9807
  522TMC3    H2 7811   1.305   2.348  16.744 -2.9784 -1.3219  1.8802
  522TMC3    C7 7812   1.068   2.354  16.685  0.1246 -0.1195  0.2731
  522TMC3    C8 7813   1.496   2.549  16.758 -0.3382  0.2906  0.1327
  522TMC3    O1 7814   1.133   2.254  16.707  1.0135 -0.2300 -0.0388
  522TMC3    O2 7815   1.555   2.653  16.772 -0.8045  0.4680 -0.2704
  523MPD2     C 7816   3.147   1.956  10.163  0.9908 -0.1831 -0.3647
  523MPD2    C1 7817   3.019   1.897  10.165 -0.6570 -0.3574  0.0176
  523MPD2    C2 7818   2.911   1.978  10.137  1.0050  1.0583  0.1074
  523MPD2    C3 7819   2.925   2.111  10.094 -0.7129  0.4664 -0.4867
  523MPD2    C4 7820   3.050   2.170  10.096  0.0495  0.4914  0.3506
  523MPD2    C5 7821   3.156   2.096  10.142 -1.1617  0.1993  0.1023
  523MPD2     H 7822   2.812   1.934  10.146  1.4118  0.2518  0.7145
  523MPD2    H1 7823   3.055   2.275  10.071  1.0307 -0.3585 -2.9638
  523MPD2    H2 7824   3.233   1.900  10.198 -0.7861 -2.3980  0.4492
  523MPD2    H3 7825   3.256   2.137  10.151 -1.1624  0.2615 -0.1858
  523MPD2     N 7826   2.813   2.201  10.063 -0.3077  0.0378  0.6279
  523MPD2    H5 7827   2.824   2.293  10.021  0.7244 -0.0852  0.6322
  523MPD2    N1 7828   3.005   1.755  10.172  0.0169 -0.3166  0.2675
  523MPD2    H7 7829   3.088   1.705  10.201  0.6643  0.2477 -0.6008
  524TMC3    C1 7830   2.577   2.258  10.027 -0.0806  0.2931 -0.2520
  524TMC3    C2 7831   2.443   2.218  10.033  0.1909  0.4138  0.3361
  524TMC3    C3 7832   2.349   2.315  10.023  0.1190  0.4865  0.2318
  524TMC3    C4 7833   2.609   2.384  10.054  0.8834  0.1532 -0.8700
  524TMC3    C5 7834   2.510   2.480  10.069 -0.0420 -0.0878 -1.3747
  524TMC3    C6 7835   2.380   2.445  10.058  0.0710 -0.2778  0.4350
  524TMC3     C 7836   2.676   2.152  10.058 -0.1711 -0.3151  0.0006
  524TMC3     O 7837   2.628   2.042  10.074 -0.3170 -0.0403 -0.1748
  524TMC3     H 7838   2.417   2.117  10.006  0.7532 -0.1373  1.8808
  524TMC3    H1 7839   2.713   2.411  10.072  0.9320  0.0448 -0.9882
  524TMC3    H2 7840   2.303   2.513  10.091 -1.4867 -1.1720 -1.3651
  524TMC3    C7 7841   2.546   2.618  10.046 -0.0569  0.3290 -0.1293
  524TMC3    C8 7842   2.208   2.295  10.003  0.1218 -0.6361 -0.5203
  524TMC3    O1 7843   2.647   2.665  10.084 -0.2633  0.1365 -0.0536
  524TMC3    O2 7844   2.130   2.388  10.016  0.3566 -0.1402 -0.1198
  525MPD2     C 7845   0.699   4.064  15.060 -0.0692 -0.1974  0.6619
  525MPD2    C1 7846   0.829   4.032  15.042 -0.4834 -0.3453 -0.3010
  525MPD2    C2 7847   0.904   4.096  14.942  0.0659 -0.0916 -0.5785
  525MPD2    C3 7848   0.847   4.201  14.875 -0.5538 -0.8439 -0.6454
  525MPD2    C4 7849   0.725   4.245  14.910  0.3157  0.4608  0.0014
  525MPD2    C5 7850   0.650   4.178  15.000 -0.2787 -0.1643  0.1006
  525MPD2     H 7851   1.005   4.060  14.923 -0.5354 -3.3217  2.2373
  525MPD2    H1 7852   0.688   4.328  14.851  0.3593 -1.0244 -2.1072
  525MPD2    H2 7853   0.628   4.014  15.126 -2.6843  0.4774 -1.6438
  525MPD2    H3 7854   0.551   4.216  15.018 -1.0432 -1.9860 -0.2332
  525MPD2     N 7855   0.917   4.270  14.773  0.0844  0.6532 -0.5737
  525MPD2    H5 7856   0.872   4.341  14.717  0.2043  2.9483  2.2941
  525MPD2    N1 7857   0.889   3.917  15.099  0.2615 -0.2257 -0.2819
  525MPD2    H7 7858   0.988   3.899  15.091  0.0199 -1.7771  0.1022
  526TMC3    C1 7859   0.909   3.734  15.255 -0.3182  0.3417 -0.7762
  526TMC3    C2 7860   0.864   3.684  15.367 -0.1076  0.0816 -0.4519
  526TMC3    C3 7861   0.929   3.580  15.415  0.1714  0.1844 -0.0267
  526TMC3    C4 7862   1.025   3.691  15.193 -0.5071  0.2957  0.1506
  526TMC3    C5 7863   1.100   3.597  15.257 -0.4891 -0.1355 -0.6496
  526TMC3    C6 7864   1.055   3.534  15.369 -0.2523  0.2735  0.1789
  526TMC3     C 7865   0.827   3.836  15.185 -0.3165 -0.9375 -0.0273
  526TMC3     O 7866   0.704   3.817  15.205  0.7575 -0.1414  0.5687
  526TMC3     H 7867   0.772   3.709  15.419 -1.7226  1.2093 -3.8609
  526TMC3    H1 7868   1.049   3.730  15.095 -1.0909 -1.6398 -0.7534
  526TMC3    H2 7869   1.102   3.454  15.425 -1.0788 -0.5409 -0.2984
  526TMC3    C7 7870   1.227   3.579  15.200  0.0487 -0.2055  0.4142
  526TMC3    C8 7871   0.903   3.567  15.559 -0.0669 -0.5080  0.5242
  526TMC3    O1 7872   1.255   3.631  15.092 -0.2891  0.1517 -0.2207
  526TMC3    O2 7873   0.886   3.671  15.616  0.3280  0.0503  0.5863
  527MPD2     C 7874   4.338   2.284   1.658  0.7286 -0.5392 -0.4753
  527MPD2    C1 7875   4.311   2.200   1.552 -0.0652 -0.2106 -0.2983
  527MPD2    C2 7876   4.406   2.180   1.461  0.1260  0.1686  0.9342
  527MPD2    C3 7877   4.531   2.228   1.473 -0.0889  0.2704  0.1927
  527MPD2    C4 7878   4.556   2.322   1.571  0.2571  0.1897  0.3274
  527MPD2    C5 7879   4.457   2.348   1.666  1.2001 -0.0841 -0.5275
  527MPD2     H 7880   4.382   2.114   1.378 -0.2112  1.0675  0.3176
  527MPD2    H1 7881   4.659   2.355   1.581  1.4032 -3.0572 -0.7388
  527MPD2    H2 7882   4.259   2.298   1.731  1.2017  1.2728 -0.3147
  527MPD2    H3 7883   4.479   2.418   1.747 -0.1416  1.0170 -1.1218
  527MPD2     N 7884   4.635   2.181   1.392 -0.3481  1.1078  0.6784
  527MPD2    H5 7885   4.614   2.103   1.331  2.8491 -0.6731  1.8465
  527MPD2    N1 7886   4.186   2.144   1.533 -0.6873 -0.4197 -0.2794
  527MPD2    H7 7887   4.166   2.104   1.443 -2.2949 -0.6281  0.1645
  528TMC3    C1 7888   3.952   2.105   1.545 -0.5304 -0.3895  0.6216
  528TMC3    C2 7889   3.935   2.169   1.420 -0.1126 -0.4173  0.2110
  528TMC3    C3 7890   3.805   2.183   1.372 -0.1382  0.2413 -0.1045
  528TMC3    C4 7891   3.842   2.057   1.609  0.3868  0.2818  0.0127
  528TMC3    C5 7892   3.718   2.054   1.546 -0.0167 -0.6118 -0.6493
  528TMC3    C6 7893   3.700   2.127   1.431  0.3214 -0.3565  0.1535
  528TMC3     C 7894   4.073   2.145   1.614 -0.7980  0.1080  0.1753
  528TMC3     O 7895   4.069   2.160   1.736  0.2276  0.3114 -0.1968
  528TMC3     H 7896   4.018   2.216   1.369  0.3336 -0.1122  1.2091
  528TMC3    H1 7897   3.849   2.036   1.715 -0.2066 -1.6398 -0.3299
  528TMC3    H2 7898   3.604   2.129   1.381 -1.1148 -0.1283  2.9444
  528TMC3    C7 7899   3.597   2.026   1.622  0.0425 -0.4147  0.1891
  528TMC3    C8 7900   3.791   2.207   1.233 -0.9887 -0.3603  0.5803
  528TMC3    O1 7901   3.503   2.098   1.595 -0.0776 -0.0263  0.8133
  528TMC3    O2 7902   3.871   2.152   1.159  0.1544 -0.0307  0.4982
  529MPD2     C 7903   1.895   0.765   0.987  0.1188  0.1468 -0.3819
  529MPD2    C1 7904   1.930   0.678   0.889 -0.1100 -0.5368 -0.1491
  529MPD2    C2 7905   1.907   0.727   0.758  0.4239 -0.4495 -0.0402
  529MPD2    C3 7906   1.820   0.831   0.720  0.2559  0.2890 -0.0892
  529MPD2    C4 7907   1.777   0.902   0.826 -0.2506 -0.2493  0.3307
  529MPD2    C5 7908   1.826   0.876   0.950 -0.4672 -1.1474 -0.2013
  529MPD2     H 7909   1.943   0.665   0.677  0.7943 -0.6403  0.2711
  529MPD2    H1 7910   1.713   0.986   0.803  1.9207  1.2129 -0.2615
  529MPD2    H2 7911   1.923   0.738   1.088  0.5532  1.2839 -0.1952
  529MPD2    H3 7912   1.800   0.938   1.035 -0.6065  0.6893 -1.5738
  529MPD2     N 7913   1.790   0.882   0.594  0.8350  0.2949  0.3698
  529MPD2    H5 7914   1.731   0.965   0.598 -0.4058 -0.5549 -0.0232
  529MPD2    N1 7915   1.997   0.555   0.909  0.2735  0.4938  0.1414
  529MPD2    H7 7916   2.010   0.498   0.826 -0.9686 -0.1764  0.4127
  530TMC3    C1 7917   2.092   0.380   1.028 -0.6744 -0.4152 -0.4243
  530TMC3    C2 7918   2.150   0.351   1.142 -0.8375 -0.0604 -0.3882
  530TMC3    C3 7919   2.215   0.231   1.157  0.4085 -0.0817  0.1962
  530TMC3    C4 7920   2.080   0.278   0.932  0.2076 -0.4367 -0.1586
  530TMC3    C5 7921   2.127   0.156   0.952  0.0816 -0.1829 -0.0192
  530TMC3    C6 7922   2.205   0.128   1.066 -0.8274  0.1927  0.3695
  530TMC3     C 7923   2.022   0.501   1.030 -0.2029  0.4468 -0.5081
  530TMC3     O 7924   2.021   0.558   1.138  0.2676 -0.4618 -0.0763
  530TMC3     H 7925   2.176   0.415   1.226  0.7109 -1.0302 -0.1427
  530TMC3    H1 7926   2.014   0.286   0.847 -0.4009 -0.1263  0.3419
  530TMC3    H2 7927   2.255   0.033   1.082 -2.0172 -0.3956  0.6015
  530TMC3    C7 7928   2.060   0.045   0.878 -0.3544 -0.2814 -0.0507
  530TMC3    C8 7929   2.316   0.225   1.259 -0.2783 -0.7284 -0.0882
  530TMC3    O1 7930   1.983   0.071   0.785 -0.3041 -0.1827  0.0060
  530TMC3    O2 7931   2.302   0.293   1.362  0.3789 -0.5011 -0.1606
  531MPD2     C 7932   1.290   2.053  13.490  0.2664  0.1770  0.0101
  531MPD2    C1 7933   1.292   2.148  13.587 -0.2460  0.5525  0.1348
  531MPD2    C2 7934   1.187   2.232  13.604  0.1469 -0.0763  0.3409
  531MPD2    C3 7935   1.073   2.222  13.527 -0.0289 -0.5455 -0.0806
  531MPD2    C4 7936   1.063   2.119  13.435 -0.6800 -0.1882 -0.3267
  531MPD2    C5 7937   1.170   2.034  13.415 -0.2622 -0.1024  0.2498
  531MPD2     H 7938   1.186   2.308  13.681 -0.1319 -1.3416  1.6098
  531MPD2    H1 7939   0.968   2.117  13.383 -0.3984 -5.8204 -0.5891
  531MPD2    H2 7940   1.375   1.988  13.474  0.9490  1.1330 -0.1607
  531MPD2    H3 7941   1.155   1.948  13.351 -1.9577  1.0241 -0.8735
  531MPD2     N 7942   0.967   2.316  13.558  0.2279 -0.0125 -0.2813
  531MPD2    H5 7943   0.993   2.384  13.628 -0.0709 -0.2284  0.0393
  531MPD2    N1 7944   1.409   2.160  13.661 -0.3401  0.0673  0.0223
  531MPD2    H7 7945   1.483   2.094  13.640 -0.9236 -0.2679 -0.9868
  532TMC3    C1 7946   1.545   2.250  13.834 -0.0631  0.2795  0.0154
  532TMC3    C2 7947   1.582   2.366  13.889  0.7597  0.3714 -0.1474
  532TMC3    C3 7948   1.608   2.364  14.026  0.1318 -0.1529 -0.4759
  532TMC3    C4 7949   1.550   2.123  13.898 -0.2316 -0.0183  0.0937
  532TMC3    C5 7950   1.608   2.129  14.019  0.4307  0.1650 -0.2304
  532TMC3    C6 7951   1.626   2.243  14.092  0.0237  0.5713  0.2842
  532TMC3     C 7952   1.447   2.271  13.730 -0.3309  0.4560 -0.5138
  532TMC3     O 7953   1.390   2.379  13.734 -0.2213  0.4968  0.1962
  532TMC3     H 7954   1.574   2.459  13.834 -2.4721  0.6796  0.8057
  532TMC3    H1 7955   1.524   2.031  13.847 -0.5881  0.0809  0.0985
  532TMC3    H2 7956   1.639   2.237  14.200  1.7011  3.3562  0.2201
  532TMC3    C7 7957   1.686   2.011  14.069  0.2511 -0.0386 -0.1021
  532TMC3    C8 7958   1.530   2.456  14.107  0.0766  0.7100 -0.0723
  532TMC3    O1 7959   1.727   2.009  14.182 -0.5497 -0.2306 -0.0219
  532TMC3    O2 7960   1.555   2.456  14.225 -0.2282  0.0086  0.3691
  533TMC3    C1 7961   1.100   4.361  14.666 -0.2551  1.2335 -0.0824
  533TMC3    C2 7962   1.228   4.399  14.688 -0.4723 -0.0221 -0.4643
  533TMC3    C3 7963   1.260   4.527  14.654 -0.1764  0.0245  0.3164
  533TMC3    C4 7964   1.005   4.453  14.621  0.0051 -0.2751  0.6125
  533TMC3    C5 7965   1.038   4.580  14.596 -0.0642 -0.5567  0.7250
  533TMC3    C6 7966   1.168   4.614  14.606  0.5704 -0.0581  0.0085
  533TMC3     C 7967   1.055   4.251  14.743  0.0417 -0.3119 -0.1593
  533TMC3     O 7968   1.146   4.192  14.796  0.1019  0.1806  0.2949
  533TMC3     H 7969   1.303   4.332  14.728 -0.3284  0.1529 -0.4421
  533TMC3    H1 7970   0.904   4.425  14.595  0.5563  0.4917 -2.3127
  533TMC3    H2 7971   1.200   4.708  14.563 -1.3375  0.6659  0.1927
  533TMC3    C7 7972   0.951   4.677  14.652 -0.5533  0.1132 -0.0265
  533TMC3    C8 7973   1.391   4.582  14.701 -0.4506  0.2797  0.4457
  533TMC3    O1 7974   0.912   0.039  14.592 -0.5035 -0.3373  0.5430
  533TMC3    O2 7975   1.475   4.505  14.739  0.0153 -0.1600 -0.3749
  534MPD2     C 7976   4.602   0.370   0.922  0.2091 -0.3022 -0.3232
  534MPD2    C1 7977   4.561   0.502   0.929  0.0517 -0.3651  0.3525
  534MPD2    C2 7978   4.442   0.543   0.878  0.0346 -0.6467 -0.7207
  534MPD2    C3 7979   4.357   0.447   0.832  0.1550 -0.7691 -0.3819
  534MPD2    C4 7980   4.396   0.319   0.813  0.2403 -0.2504 -0.1074
  534MPD2    C5 7981   4.515   0.281   0.861  0.2625  0.3657 -0.6340
  534MPD2     H 7982   4.423   0.649   0.882  1.8787 -0.2580 -1.9438
  534MPD2    H1 7983   4.334   0.245   0.763  1.2355 -1.6473  0.7349
  534MPD2    H2 7984   4.700   0.338   0.956 -0.5796 -0.1563  2.0771
  534MPD2    H3 7985   4.532   0.174   0.849 -1.5764  0.0804 -0.6902
  534MPD2     N 7986   4.230   0.484   0.778  0.9308  0.0429  0.6270
  534MPD2    H5 7987   4.176   0.402   0.752  4.2246 -1.2978 -2.1063
  534MPD2    N1 7988   4.629   0.614   0.981  0.3868 -0.4659 -0.6775
  534MPD2    H7 7989   4.586   0.706   0.975 -1.2012 -1.0686  1.6875
  535TMC3    C1 7990   4.039   0.605   0.754 -0.7001 -0.2062  0.2150
  535TMC3    C2 7991   3.955   0.550   0.849 -0.6517 -0.4666 -0.1087
  535TMC3    C3 7992   3.828   0.581   0.852 -0.3056 -0.5487 -0.1856
  535TMC3    C4 7993   3.987   0.681   0.656 -0.2256  0.2182 -0.3521
  535TMC3    C5 7994   3.854   0.699   0.661 -0.2841 -0.0523 -0.2170
  535TMC3    C6 7995   3.773   0.643   0.751  0.4220 -0.1138 -0.4900
  535TMC3     C 7996   4.174   0.614   0.795  0.0063 -0.0771 -0.5798
  535TMC3     O 7997   4.235   0.724   0.804 -0.0826 -0.2238  0.2745
  535TMC3     H 7998   4.001   0.490   0.927  0.9576 -1.6710 -1.9489
  535TMC3    H1 7999   4.056   0.734   0.591  0.0792 -0.5207 -0.6373
  535TMC3    H2 8000   3.665   0.631   0.742  0.4692 -0.0813 -1.1048
  535TMC3    C7 8001   3.798   0.783   0.553 -0.0843 -0.0035 -0.5653
  535TMC3    C8 8002   3.743   0.474   0.918  0.7547 -0.1427  0.3642
  535TMC3    O1 8003   3.860   0.787   0.447  0.2429  0.1749 -0.2522
  535TMC3    O2 8004   3.652   0.432   0.848  0.3341  0.2671  0.1971
  536MPD2     C 8005   2.508   3.716  16.117 -0.6511  0.1539 -0.4938
  536MPD2    C1 8006   2.392   3.650  16.137 -1.2264 -0.2971  0.0837
  536MPD2    C2 8007   2.288   3.658  16.046 -0.4738  0.3328  0.1555
  536MPD2    C3 8008   2.299   3.745  15.935 -1.0691  0.7864 -0.3515
  536MPD2    C4 8009   2.406   3.823  15.920  0.2283  0.3047  0.3242
  536MPD2    C5 8010   2.507   3.814  16.014 -0.3946  0.9163 -0.3278
  536MPD2     H 8011   2.194   3.608  16.065 -1.1784  0.6404 -2.4700
  536MPD2    H1 8012   2.425   3.890  15.838 -0.4840  0.5141  0.3249
  536MPD2    H2 8013   2.589   3.702  16.188 -2.6380  0.2971  1.8160
  536MPD2    H3 8014   2.595   3.877  16.005 -0.6614  1.2863 -0.3374
  536MPD2     N 8015   2.197   3.767  15.838  0.2754  0.0892  0.3317
  536MPD2    H5 8016   2.221   3.826  15.759  1.1622 -2.1834 -1.1151
  536MPD2    N1 8017   2.377   3.581  16.254 -0.0623  0.4849  1.0145
  536MPD2    H7 8018   2.439   3.608  16.330  0.5682  0.0983  0.6354
  537TMC3    C1 8019   2.245   3.482  16.425  0.4037 -0.2408 -0.8865
  537TMC3    C2 8020   2.283   3.586  16.501  0.7428  0.5909  0.7429
  537TMC3    C3 8021   2.257   3.572  16.633 -0.2063  0.1190 -0.1757
  537TMC3    C4 8022   2.177   3.368  16.473  0.7783  0.3067 -0.2840
  537TMC3    C5 8023   2.153   3.363  16.608 -0.7424 -0.4000  0.6452
  537TMC3    C6 8024   2.195   3.462  16.692  0.2768  0.7039  0.2175
  537TMC3     C 8025   2.275   3.489  16.285  0.0442  0.2406 -0.6369
  537TMC3     O 8026   2.217   3.415  16.212  0.3495 -0.1664 -0.5456
  537TMC3     H 8027   2.323   3.678  16.460 -0.0282  1.0593  1.0385
  537TMC3    H1 8028   2.162   3.289  16.400 -0.2204 -1.5820  1.9680
  537TMC3    H2 8029   2.182   3.459  16.799  1.2441  0.7008  0.3345
  537TMC3    C7 8030   2.107   3.233  16.656 -0.6485 -0.1002 -0.4618
  537TMC3    C8 8031   2.298   3.681  16.712 -0.7403 -0.6984 -0.4162
  537TMC3    O1 8032   2.123   3.140  16.577  0.3762 -0.0938  0.4900
  537TMC3    O2 8033   2.344   3.657  16.822  0.0652  0.6794  0.3559
  538TMC3    C1 8034   3.527   1.526  10.900 -0.3245 -0.6845 -0.4000
  538TMC3    C2 8035   3.657   1.508  10.861 -0.5116  0.3872 -0.2586
  538TMC3    C3 8036   3.688   1.519  10.724 -0.0863 -0.2980 -0.1262
  538TMC3    C4 8037   3.432   1.563  10.807 -0.0685 -0.2343 -0.0661
  538TMC3    C5 8038   3.463   1.564  10.677 -0.3454 -0.4328 -0.4491
  538TMC3    C6 8039   3.591   1.545  10.634  0.0696  0.1750  0.0272
  538TMC3     C 8040   3.507   1.540  11.040 -0.0729  0.1171 -0.3723
  538TMC3     O 8041   3.389   1.533  11.070  0.0594 -0.2326 -0.1913
  538TMC3     H 8042   3.730   1.453  10.919  0.7799  0.2819 -1.9668
  538TMC3    H1 8043   3.335   1.608  10.822  0.5887  0.4870  1.9687
  538TMC3    H2 8044   3.610   1.545  10.527 -1.5956  1.7665 -0.2723
  538TMC3    C7 8045   3.372   1.644  10.600 -0.0858 -0.2784 -0.2467
  538TMC3    C8 8046   3.806   1.450  10.677  0.0079  0.0002 -0.5247
  538TMC3    O1 8047   3.252   1.624  10.615  0.1571 -0.2531 -0.2184
  538TMC3    O2 8048   3.845   1.352  10.742 -0.5648 -0.4435 -0.1716
  539MPD2     C 8049   3.375   1.147  11.857 -0.3360  0.1023  0.5902
  539MPD2    C1 8050   3.407   1.151  11.722 -0.0431 -0.5965  0.1843
  539MPD2    C2 8051   3.337   1.244  11.645  0.0024  0.1739  0.2031
  539MPD2    C3 8052   3.254   1.340  11.698 -0.5772  0.3184  0.0045
  539MPD2    C4 8053   3.236   1.339  11.832 -0.2317 -0.7984 -0.0468
  539MPD2    C5 8054   3.294   1.247  11.907 -0.1778 -0.3220 -0.5750
  539MPD2     H 8055   3.349   1.253  11.538 -0.4751  0.5210  0.1800
  539MPD2    H1 8056   3.173   1.407  11.888  2.4854  2.7080 -1.2291
  539MPD2    H2 8057   3.433   1.092  11.930  0.0625 -0.5740 -0.2412
  539MPD2    H3 8058   3.287   1.252  12.015 -1.2499 -2.5645 -0.5478
  539MPD2     N 8059   3.186   1.435  11.622 -0.0343 -0.0397 -0.0277
  539MPD2    H5 8060   3.148   1.512  11.675 -0.8501 -0.8310  0.5304
  539MPD2    N1 8061   3.510   1.068  11.666 -0.7003 -0.4317 -0.0405
  539MPD2    H7 8062   3.539   1.097  11.573 -1.1461  1.4343  0.3985
  540TMC3    C1 8063   3.071   1.551  11.451 -0.5391  0.2753 -0.0120
  540TMC3    C2 8064   2.995   1.525  11.341 -0.3748  0.0146 -0.1981
  540TMC3    C3 8065   2.862   1.567  11.346 -0.1924 -0.5049 -0.5256
  540TMC3    C4 8066   3.022   1.629  11.561  0.2901 -0.0095  1.0590
  540TMC3    C5 8067   2.889   1.666  11.563  0.0728  1.3072 -0.4814
  540TMC3    C6 8068   2.810   1.629  11.459  0.2091  0.0310 -0.3974
  540TMC3     C 8069   3.165   1.443  11.486 -0.4298  0.0417 -0.9415
  540TMC3     O 8070   3.205   1.369  11.393 -0.0793  0.1618  0.0848
  540TMC3     H 8071   3.041   1.461  11.266 -1.4924  0.0689 -0.9270
  540TMC3    H1 8072   3.090   1.664  11.638  1.2617  1.5370 -0.4909
  540TMC3    H2 8073   2.706   1.657  11.466  0.6513  1.9561 -1.4935
  540TMC3    C7 8074   2.816   1.682  11.692  0.0548  0.5584 -0.1720
  540TMC3    C8 8075   2.765   1.523  11.248  1.2609 -0.1865 -0.4129
  540TMC3    O1 8076   2.696   1.696  11.682 -0.0329 -0.3002 -0.3725
  540TMC3    O2 8077   2.655   1.571  11.257  0.0887  0.2920  0.1961
  541MPD2     C 8078   2.083   3.197  13.547  0.2339  0.2220 -0.6398
  541MPD2    C1 8079   2.026   3.118  13.447 -0.1266 -0.6106 -0.2283
  541MPD2    C2 8080   2.006   3.174  13.323  0.9586 -0.0282 -0.0166
  541MPD2    C3 8081   2.042   3.304  13.295 -0.7053 -0.0904  0.0328
  541MPD2    C4 8082   2.095   3.385  13.398  0.2201  0.0519 -0.5005
  541MPD2    C5 8083   2.115   3.325  13.527  0.6740 -0.2855  0.1156
  541MPD2     H 8084   1.949   3.120  13.248  1.8428  0.1492 -0.8172
  541MPD2    H1 8085   2.114   3.491  13.385  2.8349 -0.2502  0.8614
  541MPD2    H2 8086   2.077   3.160  13.649 -1.9615 -0.1914 -0.9140
  541MPD2    H3 8087   2.154   3.380  13.612 -0.1002  1.7784 -0.8630
  541MPD2     N 8088   2.017   3.364  13.175  0.0905 -0.5139  0.5951
  541MPD2    H5 8089   2.040   3.463  13.180 -0.3950 -0.4257  1.1931
  541MPD2    N1 8090   1.986   2.984  13.481  0.0300  0.4752  0.7278
  541MPD2    H7 8091   2.011   2.960  13.576 -0.1602  0.6699  0.8270
  542TMC3    C1 8092   1.952   3.403  12.956  0.1000 -0.9854 -0.2378
  542TMC3    C2 8093   1.911   3.358  12.839  0.5626  0.2835 -1.3432
  542TMC3    C3 8094   1.914   3.447  12.729  0.1015 -0.0735  0.5750
  542TMC3    C4 8095   1.973   3.536  12.977 -0.2938 -0.4981  0.3510
  542TMC3    C5 8096   1.979   3.617  12.866 -0.6646 -0.0084  0.4495
  542TMC3    C6 8097   1.955   3.578  12.741  0.2383  0.8831  0.0268
  542TMC3     C 8098   1.963   3.307  13.060 -0.0288 -0.2051  0.2186
  542TMC3     O 8099   1.942   3.191  13.029  0.5662  0.1283  0.4810
  542TMC3     H 8100   1.873   3.258  12.824  1.9183 -0.5710  0.9192
  542TMC3    H1 8101   1.992   3.576  13.076  0.6762  0.7963 -0.3580
  542TMC3    H2 8102   1.988   3.642  12.660  0.1438 -0.9377 -1.4515
  542TMC3    C7 8103   2.045   3.740  12.890 -0.1114 -0.1534 -0.2176
  542TMC3    C8 8104   1.856   3.406  12.605  0.2308  0.5068  0.8891
  542TMC3    O1 8105   2.114   3.759  12.991  0.4477 -0.6976  0.4569
  542TMC3    O2 8106   1.851   3.289  12.590 -0.1120 -0.2945 -0.1506
  543TMC3    C1 8107   1.293   0.131  17.278 -0.0985 -0.2211  0.3262
  543TMC3    C2 8108   1.342   0.030  17.365 -0.0472  0.4245  0.1721
  543TMC3    C3 8109   1.367   0.055  17.497  0.6219 -0.7528 -0.7029
  543TMC3    C4 8110   1.276   0.263  17.323  0.1000  0.0791 -0.4771
  543TMC3    C5 8111   1.288   0.278  17.458  0.4970  0.3929  0.2177
  543TMC3    C6 8112   1.339   0.184  17.544 -0.3261  1.1963  0.4968
  543TMC3     C 8113   1.316   0.103  17.141 -0.3178  0.3052 -0.1779
  543TMC3     O 8114   1.380   4.735  17.120 -0.2181 -0.1272  0.4732
  543TMC3     H 8115   1.339   4.659  17.346 -0.0609  0.2272  1.3086
  543TMC3    H1 8116   1.244   0.338  17.251 -1.9539  0.4320  0.7932
  543TMC3    H2 8117   1.327   0.205  17.650  1.2015  1.5640  0.5960
  543TMC3    C7 8118   1.298   0.411  17.502 -0.7593  0.1385  0.9100
  543TMC3    C8 8119   1.307   4.679  17.561  0.2518 -0.0388 -0.0781
  543TMC3    O1 8120   1.268   0.442  17.614  0.0279  0.3203  0.6454
  543TMC3    O2 8121   1.392   4.596  17.598  0.2949 -0.2672 -0.5998
  544MPD2     C 8122   0.908   4.353  17.580 -0.5458 -0.4030 -0.1327
  544MPD2    C1 8123   1.046   4.330  17.574  0.9160  0.1106 -0.2811
  544MPD2    C2 8124   1.136   4.436  17.571 -0.4488  0.1874 -0.0786
  544MPD2    C3 8125   1.086   4.569  17.567  0.0374 -0.2316  0.6361
  544MPD2    C4 8126   0.951   4.588  17.568  0.1203 -0.1054 -0.1059
  544MPD2    C5 8127   0.866   4.483  17.575  0.4644 -0.0914  0.7610
  544MPD2     H 8128   1.243   4.417  17.575 -0.4525  0.1751 -0.0424
  544MPD2    H1 8129   0.906   4.687  17.565  1.0198  0.2520 -1.6244
  544MPD2    H2 8130   0.836   4.273  17.567  0.1970 -1.4877  2.4826
  544MPD2    H3 8131   0.762   4.502  17.601  0.7099  0.8495  1.0520
  544MPD2     N 8132   1.174   4.684  17.554  0.7055  0.1064  0.0391
  544MPD2    H5 8133   1.134   0.038  17.531 -1.6683 -1.1882 -0.8628
  544MPD2    N1 8134   1.086   4.199  17.561 -0.1172 -0.2370  0.2377
  544MPD2    H7 8135   1.016   4.129  17.536 -0.1739 -0.4707  1.0296
  545TMC3    C1 8136   1.225   4.010  17.507  0.2098 -0.0837 -0.1077
  545TMC3    C2 8137   1.336   3.989  17.431  0.0572 -0.5783 -0.3422
  545TMC3    C3 8138   1.356   3.856  17.403  0.0548 -0.7257  0.0249
  545TMC3    C4 8139   1.142   3.911  17.560 -0.9269 -0.7514 -0.0077
  545TMC3    C5 8140   1.170   3.781  17.532  0.1209  0.7029  0.5070
  545TMC3    C6 8141   1.283   3.751  17.449  0.2496 -0.5139 -0.1217
  545TMC3     C 8142   1.219   4.151  17.556  0.2172 -0.4324  1.1328
  545TMC3     O 8143   1.324   4.219  17.581  0.0565  0.1129 -0.2449
  545TMC3     H 8144   1.394   4.071  17.391 -0.1911  0.2423  0.9426
  545TMC3    H1 8145   1.066   3.940  17.631  0.6385  1.2548  0.8271
  545TMC3    H2 8146   1.308   3.651  17.416  1.5415  0.0992 -0.9785
  545TMC3    C7 8147   1.072   3.690  17.557 -0.3812  0.5841  0.1884
  545TMC3    C8 8148   1.469   3.824  17.317 -0.5841 -0.7697 -0.4194
  545TMC3    O1 8149   0.964   3.739  17.594 -0.1129 -0.0287 -0.3957
  545TMC3    O2 8150   1.472   3.715  17.257 -0.1599  0.5259  0.6084
  546MPD2     C 8151   2.785   4.189  17.342  0.1844 -0.0952 -0.5673
  546MPD2    C1 8152   2.688   4.254  17.272  0.2188  0.2292  0.5296
  546MPD2    C2 8153   2.693   4.392  17.253 -0.4278  0.3215  0.7696
  546MPD2    C3 8154   2.789   4.467  17.312 -0.1741 -0.2745 -0.3967
  546MPD2    C4 8155   2.889   4.403  17.381  0.3134 -0.6693  0.6112
  546MPD2    C5 8156   2.887   4.267  17.394 -0.5721  0.0167  0.0330
  546MPD2     H 8157   2.614   4.450  17.208 -0.1511 -1.1816 -1.6581
  546MPD2    H1 8158   2.971   4.466  17.414  0.6933 -0.5433 -0.6044
  546MPD2    H2 8159   2.804   4.082  17.335 -0.6611 -0.2823  0.0630
  546MPD2    H3 8160   2.978   4.221  17.431  1.0778  3.6919  0.6420
  546MPD2     N 8161   2.804   4.607  17.307 -0.0030  0.2619 -0.1949
  546MPD2    H5 8162   2.866   4.655  17.372  2.1441 -3.1865  0.2996
  546MPD2    N1 8163   2.595   4.168  17.214 -0.1967  1.3165  0.5052
  546MPD2    H7 8164   2.612   4.069  17.231  1.3090  1.6047  0.6813
  547TMC3    C1 8165   2.402   4.093  17.099  0.2874  0.0014 -0.5375
  547TMC3    C2 8166   2.295   4.115  17.016  0.2650 -0.3404 -0.0047
  547TMC3    C3 8167   2.217   4.005  16.976 -0.8758  0.1405  0.3421
  547TMC3    C4 8168   2.427   3.969  17.157  0.0407 -0.4838  0.0732
  547TMC3    C5 8169   2.349   3.866  17.114  0.2918  0.0097 -0.8730
  547TMC3    C6 8170   2.243   3.882  17.022 -0.2489 -0.0601 -0.6908
  547TMC3     C 8171   2.488   4.204  17.133 -0.5619 -0.2572 -0.8495
  547TMC3     O 8172   2.435   4.310  17.104 -0.2544 -0.9525  0.0088
  547TMC3     H 8173   2.269   4.212  16.974  1.9916 -0.6053 -1.7190
  547TMC3    H1 8174   2.505   3.948  17.229  1.1508 -1.5137 -1.4341
  547TMC3    H2 8175   2.188   3.797  16.985  1.2708 -0.2632 -2.5153
  547TMC3    C7 8176   2.342   3.746  17.195  0.0922  0.2439 -0.1219
  547TMC3    C8 8177   2.086   4.040  16.922  0.4816 -0.0074 -0.7903
  547TMC3    O1 8178   2.373   3.771  17.314  0.2575  0.0117 -0.0738
  547TMC3    O2 8179   2.061   4.158  16.918  0.1670  0.1529  0.2612
  548MPD2     C 8180   3.028   4.603  12.502  0.1858 -0.4191 -0.3038
  548MPD2    C1 8181   2.958   4.514  12.577  0.1011  0.3120 -0.1215
  548MPD2    C2 8182   2.991   4.379  12.578  0.1392  0.0879 -0.3114
  548MPD2    C3 8183   3.100   4.341  12.508 -0.0119 -0.4008  0.4204
  548MPD2    C4 8184   3.172   4.433  12.438 -0.7754  1.0734  0.1827
  548MPD2    C5 8185   3.132   4.564  12.422 -0.1075 -0.0958  0.1300
  548MPD2     H 8186   2.943   4.308  12.645  0.7809  0.4918  0.5761
  548MPD2    H1 8187   3.260   4.394  12.389 -1.5447 -0.4279 -0.0318
  548MPD2    H2 8188   3.008   4.709  12.497  1.2347 -0.3141 -2.6791
  548MPD2    H3 8189   3.177   4.634  12.352 -1.5826 -0.2814 -1.0055
  548MPD2     N 8190   3.144   4.210  12.518  0.0552  0.3982  0.0487
  548MPD2    H5 8191   3.079   4.149  12.566 -0.6374  0.8319 -0.3369
  548MPD2    N1 8192   2.856   4.568  12.665  0.7158  0.0254  0.0628
  548MPD2    H7 8193   2.831   4.664  12.646  0.0639  0.5213  3.4672
  549TMC3    C1 8194   2.690   4.559  12.838  0.2495 -0.5065 -0.0151
  549TMC3    C2 8195   2.603   4.626  12.750  0.3279  0.4603  0.5513
  549TMC3    C3 8196   2.470   4.602  12.771 -0.1681  0.4195  0.2604
  549TMC3    C4 8197   2.649   4.465  12.931 -0.2121 -0.6007  0.0403
  549TMC3    C5 8198   2.517   4.441  12.934 -0.1604 -0.6052  0.0941
  549TMC3    C6 8199   2.424   4.509  12.856 -0.7984 -0.4124 -0.9845
  549TMC3     C 8200   2.812   4.511  12.780  0.0311  0.1052  0.3621
  549TMC3     O 8201   2.844   4.403  12.832 -0.1084 -0.0201 -0.3647
  549TMC3     H 8202   2.639   4.679  12.663  1.9746 -0.4295  0.6862
  549TMC3    H1 8203   2.715   4.415  13.002  0.5107  0.3254  0.0157
  549TMC3    H2 8204   2.320   4.522  12.886 -1.3057  1.1316 -3.4058
  549TMC3    C7 8205   2.452   4.341  13.023 -0.0379  0.7903  0.4090
  549TMC3    C8 8206   2.368   4.665  12.688  0.0622  0.5303 -0.2318
  549TMC3    O1 8207   2.343   4.363  13.074 -0.4029  0.8830 -0.2454
  549TMC3    O2 8208   2.280   4.586  12.654  1.4172 -0.7069  0.6352
  550TMC3    C1 8209   1.841   2.426  12.402  0.2022 -0.7453  0.5870
  550TMC3    C2 8210   1.860   2.425  12.534 -0.2908  0.2170  0.0119
  550TMC3    C3 8211   1.864   2.546  12.589  0.0317 -0.7291  0.2694
  550TMC3    C4 8212   1.834   2.531  12.324  0.1896 -0.2224  0.1613
  550TMC3    C5 8213   1.827   2.651  12.379 -0.0872  0.2429 -0.6314
  550TMC3    C6 8214   1.857   2.661  12.514 -0.6353  0.3221 -0.2723
  550TMC3     C 8215   1.867   2.303  12.327  0.3405  0.0285  0.2133
  550TMC3     O 8216   1.968   2.240  12.333  0.2288  0.2801  0.0413
  550TMC3     H 8217   1.870   2.331  12.587 -0.3503 -0.9558 -2.0852
  550TMC3    H1 8218   1.842   2.522  12.216  1.4292 -3.5306  0.5549
  550TMC3    H2 8219   1.839   2.747  12.578 -0.7727 -0.4148  0.6783
  550TMC3    C7 8220   1.694   2.707  12.357  0.1453  0.3084 -0.3764
  550TMC3    C8 8221   1.794   2.549  12.722 -0.3338 -0.6557 -0.1876
  550TMC3    O1 8222   1.613   2.630  12.306  0.0113  0.1338  0.0169
  550TMC3    O2 8223   1.812   2.654  12.785 -0.4137 -0.5010  0.9705
  551TMC3    C1 8224   3.740   0.827  13.076  0.5279 -0.0879 -0.5311
  551TMC3    C2 8225   3.865   0.819  13.024 -0.4558 -0.2622 -0.0202
  551TMC3    C3 8226   3.957   0.915  13.066 -0.5137  0.2911 -0.7221
  551TMC3    C4 8227   3.708   0.917  13.174  0.3043  0.7190 -0.0360
  551TMC3    C5 8228   3.807   1.003  13.224 -0.1719  0.6198  0.2780
  551TMC3    C6 8229   3.928   1.008  13.162  0.2137  0.4621 -0.8004
  551TMC3     C 8230   3.643   0.724  13.045 -0.4184  0.2144 -0.4702
  551TMC3     O 8231   3.524   0.755  13.058  0.3051  0.2573  0.2489
  551TMC3     H 8232   3.889   0.756  12.938 -1.9403 -0.6706 -0.1320
  551TMC3    H1 8233   3.609   0.918  13.218 -0.0277  0.1141 -0.7695
  551TMC3    H2 8234   4.003   1.079  13.196  1.3649 -1.2346  0.2289
  551TMC3    C7 8235   3.799   1.047  13.357  0.9108 -0.4164  0.0726
  551TMC3    C8 8236   4.081   0.918  12.998 -0.3052  0.2559 -0.2741
  551TMC3    O1 8237   3.898   1.045  13.424 -0.3396 -0.2933  0.1314
  551TMC3    O2 8238   4.117   0.808  12.957 -0.5971 -0.0269 -0.2846
  552MPD2     C 8239   0.589   2.284  13.988 -0.3264  0.3980  0.1001
  552MPD2    C1 8240   0.713   2.286  14.055 -0.2475  0.1462 -0.1045
  552MPD2    C2 8241   0.716   2.355  14.176 -0.0677 -0.4961  0.9106
  552MPD2    C3 8242   0.595   2.399  14.234  0.1627 -0.9138  0.1936
  552MPD2    C4 8243   0.473   2.383  14.170  0.4160 -0.2753 -0.1055
  552MPD2    C5 8244   0.474   2.340  14.039 -0.5774  0.1180  0.1943
  552MPD2     H 8245   0.805   2.369  14.237  1.3030 -1.1524 -0.9297
  552MPD2    H1 8246   0.376   2.421  14.199  0.5711 -1.1052  1.5040
  552MPD2    H2 8247   0.578   2.236  13.892 -1.7167 -1.3891  1.1661
  552MPD2    H3 8248   0.383   2.346  13.981 -1.0434 -2.0255  0.6960
  552MPD2     N 8249   0.601   2.466  14.354  0.7177  0.3892 -0.2051
  552MPD2    H5 8250   0.692   2.493  14.389  1.3105  0.0986 -1.5256
  552MPD2    N1 8251   0.840   2.233  14.007 -0.4302 -0.2017 -0.7250
  552MPD2    H7 8252   0.916   2.248  14.073 -0.1452  0.0726 -1.1136
  553TMC3    C1 8253   0.999   2.107  13.895 -0.1236  0.7632 -0.0592
  553TMC3    C2 8254   1.017   1.986  13.829  0.2923 -0.2489  0.1390
  553TMC3    C3 8255   1.133   1.920  13.861  0.1439 -0.5544  0.9130
  553TMC3    C4 8256   1.087   2.164  13.984  0.7817  0.1156  0.2704
  553TMC3    C5 8257   1.193   2.084  14.016  0.6210  0.8913  0.0705
  553TMC3    C6 8258   1.221   1.963  13.957 -0.4241 -0.0433  0.5772
  553TMC3     C 8259   0.859   2.153  13.903  0.0441  0.5523  0.2839
  553TMC3     O 8260   0.771   2.103  13.834  0.2225  0.2922 -0.2709
  553TMC3     H 8261   0.938   1.950  13.765 -0.6591  0.3291  0.9779
  553TMC3    H1 8262   1.077   2.267  14.015 -2.8634  0.1972 -1.1056
  553TMC3    H2 8263   1.312   1.906  13.967 -1.1413 -1.0146  1.6159
  553TMC3    C7 8264   1.271   2.131  14.126 -0.0259 -0.5761  0.0332
  553TMC3    C8 8265   1.203   1.836  13.759 -0.8820  0.1102  0.1089
  553TMC3    O1 8266   1.255   2.249  14.143 -0.3852  0.8697 -0.2649
  553TMC3    O2 8267   1.324   1.811  13.773  0.4859  0.5692  0.3008
  554TMC3    C1 8268   2.271   1.575  11.388 -0.0979 -0.3923  0.7514
  554TMC3    C2 8269   2.140   1.558  11.346  0.4329  0.0495 -0.2612
  554TMC3    C3 8270   2.093   1.634  11.247 -0.1735 -0.5686  0.3725
  554TMC3    C4 8271   2.349   1.675  11.346 -0.1714  0.1929 -0.1079
  554TMC3    C5 8272   2.280   1.765  11.265 -0.2154  0.3357  0.3320
  554TMC3    C6 8273   2.158   1.746  11.218  0.2862 -0.0726  0.5576
  554TMC3     C 8274   2.305   1.521  11.514 -0.3200  0.0064 -0.0228
  554TMC3     O 8275   2.214   1.509  11.599 -0.0014 -0.0215  0.9261
  554TMC3     H 8276   2.083   1.474  11.386  0.6816  0.0036 -0.0010
  554TMC3    H1 8277   2.453   1.689  11.374  0.3609 -4.0074 -0.0217
  554TMC3    H2 8278   2.123   1.826  11.154 -2.4148 -1.6585  0.0928
  554TMC3    C7 8279   2.356   1.851  11.174 -0.6594 -0.5911  0.5127
  554TMC3    C8 8280   1.995   1.590  11.147 -0.5436  0.2376 -0.3581
  554TMC3    O1 8281   2.325   1.852  11.056 -0.4871  0.2595  0.1586
  554TMC3    O2 8282   1.967   1.674  11.061 -0.2719 -0.0283 -0.0409
  555TMC3    C1 8283   1.494   1.226  15.353  0.0177 -0.4415 -0.0717
  555TMC3    C2 8284   1.480   1.318  15.457  0.2444  0.8846 -0.6596
  555TMC3    C3 8285   1.469   1.263  15.583 -0.4928 -1.0278  0.4441
  555TMC3    C4 8286   1.488   1.090  15.372 -0.2448 -0.4019  0.2149
  555TMC3    C5 8287   1.462   1.039  15.496 -0.2299  0.3324 -0.9951
  555TMC3    C6 8288   1.456   1.125  15.606 -0.0862 -0.0426 -0.0952
  555TMC3     C 8289   1.518   1.276  15.218  0.2638  0.6154  0.0573
  555TMC3     O 8290   1.561   1.200  15.132 -0.1192  0.0688  0.1406
  555TMC3     H 8291   1.495   1.425  15.447 -0.2762  1.0528  0.3774
  555TMC3    H1 8292   1.506   1.028  15.285 -0.1879 -0.9772  0.6377
  555TMC3    H2 8293   1.444   1.085  15.706 -0.7490 -0.3582 -0.3028
  555TMC3    C7 8294   1.473   0.892  15.515 -0.0832  0.0418  0.2512
  555TMC3    C8 8295   1.442   1.368  15.682  0.0284  0.2807 -0.2241
  555TMC3    O1 8296   1.411   0.833  15.603  0.7783  0.2071  0.0298
  555TMC3    O2 8297   1.405   1.475  15.636 -0.0127 -0.5872 -0.3832
  556MPD2     C 8298   4.001   2.438  10.313 -0.0580 -0.3040 -0.3577
  556MPD2    C1 8299   4.060   2.324  10.362 -0.3085  0.4798 -0.8411
  556MPD2    C2 8300   4.057   2.215  10.281 -0.4085  0.2101 -0.0719
  556MPD2    C3 8301   4.006   2.220  10.156  0.1278 -0.6752  0.7248
  556MPD2    C4 8302   3.948   2.341  10.110  0.2718 -0.2161 -0.2799
  556MPD2    C5 8303   3.957   2.450  10.190  0.4624 -0.2644  0.4887
  556MPD2     H 8304   4.102   2.127  10.326  0.6003 -0.2337 -1.9209
  556MPD2    H1 8305   3.887   2.345  10.020 -0.4844  0.3323  0.2504
  556MPD2    H2 8306   4.002   2.528  10.372 -2.1107  0.3831 -1.3431
  556MPD2    H3 8307   3.908   2.542  10.160 -1.5038 -2.8139 -4.1542
  556MPD2     N 8308   4.005   2.095  10.087  0.0941  0.3269  0.7439
  556MPD2    H5 8309   4.049   2.019  10.138  0.7840 -0.5489 -1.1474
  556MPD2    N1 8310   4.119   2.307  10.485 -0.7525  0.0920 -0.3272
  556MPD2    H7 8311   4.148   2.215  10.516 -0.9102  0.4922  0.9857
  557TMC3    C1 8312   3.986   1.938   9.915 -0.0136  0.1064 -0.6234
  557TMC3    C2 8313   3.889   1.878   9.837 -0.4611 -0.2743  0.5066
  557TMC3    C3 8314   3.888   1.738   9.837 -0.8949 -0.2214  0.1539
  557TMC3    C4 8315   4.073   1.871   9.995 -0.3466  0.1155  0.0089
  557TMC3    C5 8316   4.071   1.737   9.990  0.4059 -0.0435 -0.2050
  557TMC3    C6 8317   3.986   1.676   9.906 -0.3846 -0.0408  0.1411
  557TMC3     C 8318   3.949   2.073   9.967 -0.9779  0.6290 -0.2498
  557TMC3     O 8319   3.886   2.153   9.895 -0.5875 -0.1613 -0.0980
  557TMC3     H 8320   3.809   1.930   9.785 -0.1722 -0.6678 -0.3255
  557TMC3    H1 8321   4.143   1.912  10.066 -0.0487 -0.8678  0.2919
  557TMC3    H2 8322   3.971   1.570   9.925  1.7846 -0.8655 -2.5880
  557TMC3    C7 8323   4.045   1.695  10.124 -0.0230  0.3745  0.3582
  557TMC3    C8 8324   3.790   1.656   9.770 -0.0774  0.4186  0.4280
  557TMC3    O1 8325   3.994   1.783  10.184  0.1156 -0.4274 -0.1987
  557TMC3    O2 8326   3.696   1.718   9.725  0.7581 -0.5691  0.3082
  558TMC3    C1 8327   1.765   0.532  10.204 -0.3517  0.1587  0.1574
  558TMC3    C2 8328   1.680   0.442  10.259 -0.4001  0.4032 -0.2289
  558TMC3    C3 8329   1.545   0.459  10.261 -0.0121 -0.4509 -0.1797
  558TMC3    C4 8330   1.710   0.635  10.135  0.3398  0.0494  0.3722
  558TMC3    C5 8331   1.571   0.651  10.125  0.1314  0.1391  0.3290
  558TMC3    C6 8332   1.487   0.563  10.195 -0.5028 -0.0936 -0.1315
  558TMC3     C 8333   1.903   0.521  10.217  0.7267 -0.2146  0.1680
  558TMC3     O 8334   1.975   0.536  10.120  0.4358 -0.2347 -0.1745
  558TMC3     H 8335   1.713   0.343  10.290 -0.2816  0.6148  0.3081
  558TMC3    H1 8336   1.785   0.696  10.086 -0.6481  1.5491  0.7219
  558TMC3    H2 8337   1.379   0.568  10.184 -0.8339 -1.7078  2.2349
  558TMC3    C7 8338   1.520   0.763  10.042 -0.2039  0.0734 -0.9129
  558TMC3    C8 8339   1.452   0.347  10.289 -0.3124 -0.2096  0.4357
  558TMC3    O1 8340   1.611   0.832   9.998 -0.2138  0.1226  0.4760
  558TMC3    O2 8341   1.339   0.354  10.241  0.0800 -0.1769 -0.7512
  559MPD2     C 8342   1.982   0.825  10.664  0.4976 -0.1817  0.1523
  559MPD2    C1 8343   1.924   0.807  10.789  0.7703  0.1105 -0.5228
  559MPD2    C2 8344   2.004   0.754  10.886  0.8282  0.2303  0.2425
  559MPD2    C3 8345   2.128   0.708  10.858  0.1297  0.4840 -0.0375
  559MPD2    C4 8346   2.192   0.738  10.738  0.3998  0.2619  0.9743
  559MPD2    C5 8347   2.110   0.793  10.636 -0.6725 -0.4906  0.5219
  559MPD2     H 8348   1.970   0.745  10.988  3.0886 -0.7534  0.9204
  559MPD2    H1 8349   2.297   0.719  10.722  0.1081 -0.3564 -0.2041
  559MPD2    H2 8350   1.924   0.874  10.587 -0.1694 -0.9177  0.1869
  559MPD2    H3 8351   2.156   0.809  10.539  0.4655  2.5711  1.5686
  559MPD2     N 8352   2.197   0.633  10.958  0.5333 -0.1316 -0.5278
  559MPD2    H5 8353   2.140   0.576  11.020  0.8121 -0.0835 -0.2281
  559MPD2    N1 8354   1.789   0.848  10.810  0.0256  0.2680  0.7417
  559MPD2    H7 8355   1.750   0.891  10.727 -1.4695  0.3754  1.5070
  560TMC3    C1 8356   2.371   0.530  11.072 -0.3582  0.2577  0.6883
  560TMC3    C2 8357   2.307   0.410  11.059 -0.8141 -0.2797  0.0349
  560TMC3    C3 8358   2.360   0.297  11.107  0.3267  0.6063 -0.2170
  560TMC3    C4 8359   2.489   0.540  11.133  0.3077  0.7536 -0.4171
  560TMC3    C5 8360   2.546   0.425  11.184  0.4124  0.3244  0.4368
  560TMC3    C6 8361   2.478   0.302  11.181  0.2912 -0.1578  1.3970
  560TMC3     C 8362   2.336   0.627  10.975  0.0669 -0.5323  0.3642
  560TMC3     O 8363   2.423   0.686  10.911 -0.5343 -0.5729 -0.5432
  560TMC3     H 8364   2.217   0.401  10.999 -0.9265  1.7294 -0.1104
  560TMC3    H1 8365   2.533   0.638  11.150 -0.3838  1.0025 -0.0499
  560TMC3    H2 8366   2.519   0.214  11.228  1.0781  1.3379  3.4865
  560TMC3    C7 8367   2.660   0.428  11.274  0.1103  0.4994 -0.6092
  560TMC3    C8 8368   2.318   0.167  11.065 -0.2738 -0.1235  0.1114
  560TMC3    O1 8369   2.660   0.343  11.362 -0.0980  0.2340 -0.1194
  560TMC3    O2 8370   2.204   0.148  11.024  0.3346 -0.0971 -0.6104
  561TMC3    C1 8371   0.623   0.050  11.248  0.4770  0.4654  0.3113
  561TMC3    C2 8372   0.627   4.727  11.369  0.5465 -0.4853  0.3266
  561TMC3    C3 8373   0.496   4.702  11.424 -0.0093 -0.2738  0.1583
  561TMC3    C4 8374   0.508   0.094  11.193 -0.6191 -1.0779 -0.0163
  561TMC3    C5 8375   0.386   0.077  11.249 -0.5869 -0.3492 -0.2198
  561TMC3    C6 8376   0.375   0.006  11.366  0.0840  0.0212  1.1945
  561TMC3     C 8377   0.749   0.085  11.184  0.5391  0.1232 -0.4293
  561TMC3     O 8378   0.741   0.169  11.096  0.9952 -0.5697  0.1461
  561TMC3     H 8379   0.715   4.685  11.418  1.0279  1.9517  1.5575
  561TMC3    H1 8380   0.522   0.139  11.095 -2.2619 -2.7891 -1.0430
  561TMC3    H2 8381   0.278   4.722  11.411 -1.0151  0.6186 -0.9307
  561TMC3    C7 8382   0.285   0.175  11.226  0.9613 -0.3606 -0.1414
  561TMC3    C8 8383   0.488   4.627  11.553  0.2210 -0.3286  0.0473
  561TMC3    O1 8384   0.194   0.166  11.312 -0.1757 -0.4826 -0.6145
  561TMC3    O2 8385   0.580   4.557  11.580  0.4206  0.4492 -0.1170
  562TMC3    C1 8386   1.511   1.668  16.438 -0.1425  0.0656  0.0541
  562TMC3    C2 8387   1.463   1.793  16.415  0.9324  0.3359 -0.0863
  562TMC3    C3 8388   1.360   1.798  16.328  0.1909  0.1097 -0.4468
  562TMC3    C4 8389   1.472   1.556  16.361  0.4317  0.4656 -0.0365
  562TMC3    C5 8390   1.371   1.570  16.273  0.1562  0.3005  0.2018
  562TMC3    C6 8391   1.307   1.692  16.256  0.1222 -0.4923  0.1769
  562TMC3     C 8392   1.590   1.625  16.553 -0.0240  0.1097 -0.0307
  562TMC3     O 8393   1.606   1.504  16.576 -0.5672 -0.0419  0.1637
  562TMC3     H 8394   1.482   1.872  16.487  0.7324  0.3174 -0.0139
  562TMC3    H1 8395   1.524   1.461  16.371  0.6040  0.6724  0.9724
  562TMC3    H2 8396   1.218   1.702  16.196  0.0954  1.6087  0.5578
  562TMC3    C7 8397   1.321   1.453  16.202 -0.8014  0.1490 -0.1179
  562TMC3    C8 8398   1.285   1.926  16.341  0.0415 -0.6071 -0.3090
  562TMC3    O1 8399   1.236   1.483  16.119 -0.1496  0.5287 -0.2984
  562TMC3    O2 8400   1.309   2.000  16.437 -0.1874 -0.3018  0.4899
  563MPD2     C 8401   3.660   3.193  15.615  0.0227  0.1031 -0.8070
  563MPD2    C1 8402   3.610   3.108  15.714 -0.0461 -0.3427 -0.4625
  563MPD2    C2 8403   3.670   2.993  15.743  0.4185  0.1203  0.4870
  563MPD2    C3 8404   3.798   2.961  15.696 -0.1430 -0.1111  0.0348
  563MPD2    C4 8405   3.855   3.054  15.608 -0.7428  0.2144 -0.9055
  563MPD2    C5 8406   3.785   3.164  15.567 -0.1786 -0.6092 -0.3029
  563MPD2     H 8407   3.617   2.930  15.813  1.7164 -0.9396  0.5277
  563MPD2    H1 8408   3.941   3.031  15.546  2.2791  0.2951  3.2697
  563MPD2    H2 8409   3.608   3.286  15.595  3.7481  2.8743  2.0794
  563MPD2    H3 8410   3.825   3.233  15.493 -1.6675  1.4451  0.8101
  563MPD2     N 8411   3.871   2.855  15.755 -0.7812  0.1488 -0.1721
  563MPD2    H5 8412   3.835   2.818  15.843 -2.0272 -0.0965 -0.7759
  563MPD2    N1 8413   3.485   3.151  15.778 -0.2123 -0.4984  0.4682
  563MPD2    H7 8414   3.472   3.251  15.765 -1.5968 -0.7176  0.1840
  564TMC3    C1 8415   3.321   3.145  15.951  0.4014 -0.5087 -0.2898
  564TMC3    C2 8416   3.226   3.059  16.009  0.5966  1.0311 -0.3130
  564TMC3    C3 8417   3.233   3.033  16.142 -0.3910  0.0616 -0.1790
  564TMC3    C4 8418   3.399   3.219  16.039  0.0738  0.2340  0.3089
  564TMC3    C5 8419   3.406   3.184  16.169  0.2251 -0.0828  0.0647
  564TMC3    C6 8420   3.322   3.091  16.222  0.4976 -0.3957  0.0573
  564TMC3     C 8421   3.402   3.069  15.859 -0.2136  0.4315 -0.1279
  564TMC3     O 8422   3.401   2.942  15.868  0.2723  0.0659  0.6303
  564TMC3     H 8423   3.170   2.995  15.941 -1.1269  0.5339  1.5657
  564TMC3    H1 8424   3.487   3.270  16.002  0.8257 -0.4730  1.1336
  564TMC3    H2 8425   3.320   3.088  16.330  2.0548 -1.6235  0.0574
  564TMC3    C7 8426   3.541   3.182  16.224 -0.0186  0.1405  0.7570
  564TMC3    C8 8427   3.202   2.900  16.183 -0.0594  0.9139 -0.7624
  564TMC3    O1 8428   3.594   3.288  16.210  0.0822 -0.0159  0.1531
  564TMC3    O2 8429   3.199   2.872  16.305  0.0704  0.3169 -1.0821
  565TMC3    C1 8430   4.087   3.414  10.349 -0.1684 -0.3926 -0.2784
  565TMC3    C2 8431   4.171   3.342  10.434  0.0383  0.5021 -0.1997
  565TMC3    C3 8432   4.137   3.219  10.482 -0.2838  1.0918 -0.1661
  565TMC3    C4 8433   3.965   3.357  10.316 -0.5120 -0.3489 -0.2299
  565TMC3    C5 8434   3.937   3.228  10.369 -0.1108 -1.6781 -0.0456
  565TMC3    C6 8435   4.021   3.158  10.448 -0.6311 -0.5668 -0.5434
  565TMC3     C 8436   4.107   3.558  10.333  0.5258 -0.6088  0.4936
  565TMC3     O 8437   4.030   3.608  10.255  0.2722  0.0960  0.2600
  565TMC3     H 8438   4.264   3.382  10.473  0.1708  0.1848 -0.1828
  565TMC3    H1 8439   3.896   3.416  10.256  0.7894  0.0932 -1.2891
  565TMC3    H2 8440   3.977   3.087  10.517  0.8179  0.2738  1.2390
  565TMC3    C7 8441   3.811   3.164  10.357 -0.4166  0.3201  0.4122
  565TMC3    C8 8442   4.217   3.160  10.589 -0.2100 -1.1315  0.1278
  565TMC3    O1 8443   3.777   3.073  10.430 -0.2218 -0.4535  0.1799
  565TMC3    O2 8444   4.304   3.227  10.650  0.4016 -0.6250  0.4334
  566MPD2     C 8445   0.849   0.895  14.207  0.2224 -0.4511  0.7540
  566MPD2    C1 8446   0.908   0.790  14.139  0.6916 -0.3662 -0.6315
  566MPD2    C2 8447   0.834   0.734  14.034 -0.1668 -0.0119  0.5870
  566MPD2    C3 8448   0.708   0.778  14.003 -0.4544 -0.2059 -0.0323
  566MPD2    C4 8449   0.644   0.877  14.083 -0.4801 -0.1661  0.0623
  566MPD2    C5 8450   0.717   0.940  14.181 -0.3627  0.2518  0.6106
  566MPD2     H 8451   0.881   0.654  13.977 -0.9436  1.0108 -1.4778
  566MPD2    H1 8452   0.547   0.914  14.053 -0.0312  1.7495  1.0095
  566MPD2    H2 8453   0.905   0.947  14.284  2.0345 -0.8193 -0.3054
  566MPD2    H3 8454   0.667   1.014  14.243 -2.6109  0.4515 -1.4609
  566MPD2     N 8455   0.631   0.702  13.911  0.6001 -0.5319  0.2980
  566MPD2    H5 8456   0.532   0.723  13.919  0.6618  0.7602 -2.3295
  566MPD2    N1 8457   1.041   0.750  14.171 -0.4351  0.0989  0.2823
  566MPD2    H7 8458   1.081   0.801  14.250  1.6773  1.1054 -1.4448
  567TMC3    C1 8459   1.258   0.658  14.150  0.7845  0.2804 -0.2478
  567TMC3    C2 8460   1.348   0.638  14.046 -0.6282  0.2089 -0.5119
  567TMC3    C3 8461   1.478   0.674  14.067  0.3386 -0.0614 -0.5494
  567TMC3    C4 8462   1.289   0.723  14.271  0.0703 -0.2384 -0.7532
  567TMC3    C5 8463   1.424   0.749  14.291 -1.0028 -0.3150  0.1767
  567TMC3    C6 8464   1.512   0.734  14.189 -0.3412 -0.1439 -0.1789
  567TMC3     C 8465   1.123   0.654  14.107 -0.1901 -0.3421  0.7308
  567TMC3     O 8466   1.097   0.586  14.009  0.1892  1.0386  0.2011
  567TMC3     H 8467   1.316   0.601  13.949  0.9586 -2.1372 -0.1402
  567TMC3    H1 8468   1.217   0.720  14.351  0.3072 -1.3620 -0.5812
  567TMC3    H2 8469   1.610   0.777  14.209 -0.6978  0.0989  1.0026
  567TMC3    C7 8470   1.457   0.868  14.379 -1.0359  0.3270  0.5143
  567TMC3    C8 8471   1.552   0.692  13.945 -0.0553 -0.5446  0.0258
  567TMC3    O1 8472   1.367   0.944  14.404 -0.3696 -0.1400 -0.5095
  567TMC3    O2 8473   1.485   0.696  13.841 -0.5718 -0.1087  1.0483
  568MPD2     C 8474   3.662   1.563  16.741 -0.3271  0.1357  0.7220
  568MPD2    C1 8475   3.609   1.649  16.834  0.2134  0.6941 -0.1563
  568MPD2    C2 8476   3.576   1.782  16.808  0.1217 -0.2165  0.2686
  568MPD2    C3 8477   3.599   1.827  16.686 -0.1172 -0.3068 -0.2520
  568MPD2    C4 8478   3.641   1.743  16.582 -0.6218 -0.2660  0.0422
  568MPD2    C5 8479   3.664   1.614  16.610 -0.4935  0.3951 -0.8397
  568MPD2     H 8480   3.540   1.850  16.884 -0.5632 -0.3574  0.0678
  568MPD2    H1 8481   3.642   1.773  16.478 -1.0468 -1.2667 -0.2540
  568MPD2    H2 8482   3.693   1.462  16.765  1.1901  1.0051  2.4881
  568MPD2    H3 8483   3.704   1.550  16.532 -2.0704 -0.8122 -0.6637
  568MPD2     N 8484   3.561   1.958  16.641  0.1980 -0.0215  1.0581
  568MPD2    H5 8485   3.564   1.979  16.541  0.1904  2.8532  1.6678
  568MPD2    N1 8486   3.576   1.589  16.963 -0.3057  0.4607  0.2133
  568MPD2    H7 8487   3.587   1.488  16.975 -0.5576  0.4805  0.5863
  569TMC3    C1 8488   3.462   2.175  16.660  0.2640 -0.4501 -0.2123
  569TMC3    C2 8489   3.441   2.279  16.745 -0.5432 -0.0073 -0.3949
  569TMC3    C3 8490   3.358   2.381  16.713 -0.1366 -0.7458 -0.3453
  569TMC3    C4 8491   3.381   2.162  16.550  0.4389 -0.1019 -1.0606
  569TMC3    C5 8492   3.286   2.258  16.527 -0.1471  0.0073  0.5197
  569TMC3    C6 8493   3.275   2.371  16.604 -0.0850 -0.0505  0.3518
  569TMC3     C 8494   3.526   2.062  16.731 -0.8814  0.2499  0.8318
  569TMC3     O 8495   3.531   2.072  16.851 -0.8777 -0.7119  0.5868
  569TMC3     H 8496   3.501   2.296  16.834 -0.3449 -0.5266 -0.4330
  569TMC3    H1 8497   3.391   2.086  16.473  0.2160  0.1537 -1.3456
  569TMC3    H2 8498   3.203   2.450  16.586 -0.0826  0.8095  4.0086
  569TMC3    C7 8499   3.264   2.277  16.381  0.1582  0.2806  0.1418
  569TMC3    C8 8500   3.351   2.504  16.789  0.8160 -0.1189 -0.2074
  569TMC3    O1 8501   3.303   2.188  16.306 -0.2499  0.1165  0.5684
  569TMC3    O2 8502   3.242   2.550  16.823 -0.5890  0.0656  0.2553
  570TMC3    C1 8503   2.581   0.325  16.245  0.0032 -0.2379 -1.4801
  570TMC3    C2 8504   2.675   0.362  16.150 -0.3983  0.1772  0.1224
  570TMC3    C3 8505   2.687   0.498  16.126 -0.4963  0.2594 -0.0672
  570TMC3    C4 8506   2.512   0.417  16.318 -0.1409  0.5106 -0.1595
  570TMC3    C5 8507   2.539   0.547  16.298  0.9217 -0.4444  0.2505
  570TMC3    C6 8508   2.622   0.592  16.205  0.6645 -0.6064  0.1099
  570TMC3     C 8509   2.551   0.190  16.251 -0.8829  0.3276 -0.0384
  570TMC3     O 8510   2.590   0.112  16.164 -0.1825 -0.6835 -0.3144
  570TMC3     H 8511   2.727   0.280  16.101 -1.5167  0.2826 -1.2405
  570TMC3    H1 8512   2.430   0.394  16.386 -0.2196  2.5934  0.4361
  570TMC3    H2 8513   2.641   0.697  16.187  1.1793 -0.6578  0.3696
  570TMC3    C7 8514   2.507   0.640  16.406 -0.8252  0.1599 -0.3204
  570TMC3    C8 8515   2.781   0.556  16.032  0.4342 -0.3135  0.3040
  570TMC3    O1 8516   2.479   0.596  16.519  0.1476 -0.3775 -0.1907
  570TMC3    O2 8517   2.815   0.672  16.052  0.0712  0.4333 -0.5428
  571MPD2     C 8518   0.751   2.500  17.693 -0.3267 -0.8803  0.0624
  571MPD2    C1 8519   0.863   2.440   0.012  0.4967 -0.3219  0.0879
  571MPD2    C2 8520   0.947   2.507   0.099 -0.5943 -0.4334 -0.1395
  571MPD2    C3 8521   0.928   2.644   0.114  0.0613  0.5606  0.2970
  571MPD2    C4 8522   0.821   2.703   0.056 -0.2118 -0.0622  0.5804
  571MPD2    C5 8523   0.732   2.635  17.716 -0.1547 -0.0749  0.0759
  571MPD2     H 8524   1.031   2.460   0.149 -0.9393 -0.4841  0.3910
  571MPD2    H1 8525   0.804   2.808   0.072 -0.0346  0.3786 -2.0576
  571MPD2    H2 8526   0.694   2.455  17.612  0.0092  2.1937 -1.8976
  571MPD2    H3 8527   0.657   2.680  17.652 -1.6066 -1.5361  0.7459
  571MPD2     N 8528   1.016   2.730   0.189  0.0458  0.0597 -0.2193
  571MPD2    H5 8529   0.990   2.828   0.190 -0.9558 -0.2273  2.1035
  571MPD2    N1 8530   0.871   2.298  17.733  0.4815 -0.1384  0.0199
  571MPD2    H7 8531   0.805   2.258  17.667 -0.0609 -0.3915  0.7111
  572TMC3    C1 8532   1.207   2.811   0.303 -0.7802 -0.0449 -0.1107
  572TMC3    C2 8533   1.295   2.786   0.403  0.3740  0.5200  0.1062
  572TMC3    C3 8534   1.374   2.881   0.446  0.4894  0.3419  0.0963
  572TMC3    C4 8535   1.216   2.926   0.228  0.0742  0.2663  0.1668
  572TMC3    C5 8536   1.311   3.015   0.265  0.0436  0.1759  0.1393
  572TMC3    C6 8537   1.391   2.997   0.379  0.3404  0.3427  0.5453
  572TMC3     C 8538   1.136   2.697   0.246 -0.1726 -0.3844  0.0290
  572TMC3     O 8539   1.197   2.591   0.238  0.4060 -0.1798  0.0458
  572TMC3     H 8540   1.276   2.692   0.454 -1.8756  0.9560  0.0759
  572TMC3    H1 8541   1.154   2.931   0.139  0.1213 -2.0143 -0.0026
  572TMC3    H2 8542   1.446   3.078   0.425  2.5522 -1.4300  0.9931
  572TMC3    C7 8543   1.286   3.158   0.220 -0.4026 -0.2001 -1.3202
  572TMC3    C8 8544   1.439   2.867   0.572  0.4147 -0.2560 -0.2381
  572TMC3    O1 8545   1.198   3.172   0.137  0.5470 -0.2241 -0.2854
  572TMC3    O2 8546   1.533   2.943   0.585 -0.0688  0.0518  0.1967
  573MPD2     C 8547   1.676   2.581   0.432  0.5009  0.3106 -0.0556
  573MPD2    C1 8548   1.706   2.691   0.359 -0.1762 -0.4786 -0.4558
  573MPD2    C2 8549   1.642   2.717   0.240 -0.1575  0.3741  0.5387
  573MPD2    C3 8550   1.555   2.624   0.193  0.6062 -0.5183 -1.0491
  573MPD2    C4 8551   1.533   2.506   0.264  0.7313 -0.2021 -0.6856
  573MPD2    C5 8552   1.598   2.481   0.383 -0.8496 -0.1519 -0.5747
  573MPD2     H 8553   1.662   2.801   0.174  1.6976  0.7920  1.6511
  573MPD2    H1 8554   1.470   2.434   0.214  0.5745  1.6018 -3.0564
  573MPD2    H2 8555   1.717   2.570   0.532 -0.6353  1.6611  0.5598
  573MPD2    H3 8556   1.570   2.393   0.439  1.0472  0.1094  0.7948
  573MPD2     N 8557   1.470   2.634   0.085 -0.1931  0.0138  0.6460
  573MPD2    H5 8558   1.398   2.563   0.075  2.7341 -3.0122  0.7535
  573MPD2    N1 8559   1.792   2.787   0.417  0.7282  0.0427  0.6534
  573MPD2    H7 8560   1.805   2.779   0.517 -0.8473  1.2818  0.9586
  574TMC3    C1 8561   1.349   2.748  17.659 -0.4202  0.6054 -0.6217
  574TMC3    C2 8562   1.278   2.864  17.637 -0.1123 -0.2334  0.7998
  574TMC3    C3 8563   1.153   2.850  17.586  0.0937 -0.8123 -0.1807
  574TMC3    C4 8564   1.307   2.627  17.621  0.0424 -0.4950 -0.1654
  574TMC3    C5 8565   1.172   2.623  17.574  0.5531  0.0848 -0.0045
  574TMC3    C6 8566   1.094   2.735  17.562 -0.3910  0.0312 -0.0270
  574TMC3     C 8567   1.459   2.754   0.012 -0.4576 -0.0729  0.5690
  574TMC3     O 8568   1.518   2.860   0.030  0.0482  0.1838 -0.2361
  574TMC3     H 8569   1.305   2.963  17.673 -1.5488  0.6668 -0.6324
  574TMC3    H1 8570   1.377   2.544  17.622  0.5755 -0.0051  1.5368
  574TMC3    H2 8571   1.000   2.736  17.508 -0.3232  0.2281 -0.1428
  574TMC3    C7 8572   1.126   2.498  17.516  0.5180 -0.0019 -0.8584
  574TMC3    C8 8573   1.054   2.961  17.597  0.2445  0.1731 -0.0344
  574TMC3    O1 8574   1.029   2.513  17.442  0.0188  0.0682  0.5393
  574TMC3    O2 8575   0.937   2.932  17.611 -0.1001 -0.3078  0.3139
  575TMC3    C1 8576   4.414   3.228  11.444  0.2230 -0.6158 -0.7129
  575TMC3    C2 8577   4.458   3.122  11.515 -0.1179  0.3289 -0.3060
  575TMC3    C3 8578   4.459   3.000  11.460 -0.3368  0.1370 -0.0226
  575TMC3    C4 8579   4.386   3.214  11.308 -0.5012 -0.1332  0.4717
  575TMC3    C5 8580   4.400   3.092  11.252  0.5390 -0.0353 -0.0960
  575TMC3    C6 8581   4.440   2.984  11.322 -0.1526 -0.9468  0.5981
  575TMC3     C 8582   4.364   3.345  11.518  0.6738 -0.0620 -1.1396
  575TMC3     O 8583   4.401   3.355  11.634  0.3014 -0.4823 -0.2545
  575TMC3     H 8584   4.491   3.124  11.619 -0.2078  0.0131 -0.2720
  575TMC3    H1 8585   4.352   3.299  11.250 -0.7828 -0.3357  0.3413
  575TMC3    H2 8586   4.442   2.882  11.285 -0.4856 -0.4933 -0.6902
  575TMC3    C7 8587   4.354   3.071  11.114 -0.0503 -0.5829  0.0794
  575TMC3    C8 8588   4.532   2.886  11.514  0.3318 -0.2764 -0.0997
  575TMC3    O1 8589   4.310   3.176  11.064  0.1900  0.6368  0.0811
  575TMC3    O2 8590   4.595   2.818  11.430 -0.4229 -0.5180 -0.2903
  576MPD2     C 8591   4.138   0.184  12.535  0.6691  0.0304 -0.6705
  576MPD2    C1 8592   4.197   0.274  12.445 -1.1531  0.0173 -0.4004
  576MPD2    C2 8593   4.197   0.411  12.467  0.1086 -0.2882  0.0260
  576MPD2    C3 8594   4.112   0.457  12.566 -0.0673 -0.3302 -0.0435
  576MPD2    C4 8595   4.046   0.369  12.650  0.0866  0.2100 -1.1225
  576MPD2    C5 8596   4.051   0.241  12.630 -0.0986 -0.1706 -0.2038
  576MPD2     H 8597   4.246   0.475  12.395  1.6936 -1.4586  0.0766
  576MPD2    H1 8598   3.983   0.407  12.729  1.8372 -0.2881  0.5167
  576MPD2    H2 8599   4.141   0.076  12.527 -1.0545 -0.0776  0.1697
  576MPD2    H3 8600   3.995   0.181  12.700  1.4180  0.1498  1.2790
  576MPD2     N 8601   4.120   0.598  12.585 -0.4178 -0.6647  0.2321
  576MPD2    H5 8602   4.179   0.651  12.521  0.1166  0.4502  1.6374
  576MPD2    N1 8603   4.271   0.237  12.329  0.1394  1.1210 -0.3758
  576MPD2    H7 8604   4.297   0.309  12.263 -0.4534  0.9075 -0.8363
  577TMC3    C1 8605   4.397   0.124  12.171 -0.3305 -0.2446  0.8537
  577TMC3    C2 8606   4.475   0.012  12.132  0.1590  0.4181  0.0738
  577TMC3    C3 8607   4.552   0.018  12.026  0.1083 -0.4681 -0.1650
  577TMC3    C4 8608   4.416   0.247  12.107  0.3608  0.0739  0.6362
  577TMC3    C5 8609   4.497   0.244  11.996 -0.0567  0.7502 -0.7811
  577TMC3    C6 8610   4.569   0.134  11.960 -0.0179  0.0121  0.2567
  577TMC3     C 8611   4.333   0.115  12.301 -0.4958 -0.1244  0.2673
  577TMC3     O 8612   4.320   0.014  12.366 -0.2487 -0.0571 -0.2806
  577TMC3     H 8613   4.456   4.651  12.178 -1.1363  1.6210  2.0756
  577TMC3    H1 8614   4.352   0.332  12.125  1.4927  0.6153  2.0951
  577TMC3    H2 8615   4.638   0.136  11.876 -1.9952  2.1644 -1.2918
  577TMC3    C7 8616   4.531   0.368  11.929  0.2857 -0.4661 -0.1315
  577TMC3    C8 8617   4.654   4.651  12.009  0.1269 -0.3864  0.3753
  577TMC3    O1 8618   4.630   0.360  11.857 -0.1492 -0.1563  0.3059
  577TMC3    O2 8619   4.679   4.587  12.108 -0.1737  0.4536  0.6915
  578MPD2     C 8620   2.416   0.581   1.227  0.2106 -0.1869 -0.1741
  578MPD2    C1 8621   2.456   0.557   1.093  0.3771 -0.1613  0.2810
  578MPD2    C2 8622   2.575   0.487   1.073 -0.5755 -0.7052  0.2320
  578MPD2    C3 8623   2.653   0.450   1.186  0.0090  0.5234  0.4833
  578MPD2    C4 8624   2.615   0.491   1.314  0.1793  0.1585 -0.8741
  578MPD2    C5 8625   2.501   0.559   1.329  0.0101 -0.3486 -0.5291
  578MPD2     H 8626   2.612   0.464   0.974 -0.7915  0.5126 -0.1436
  578MPD2    H1 8627   2.671   0.464   1.402  0.3305 -0.0201 -1.0253
  578MPD2    H2 8628   2.325   0.636   1.248  1.7566  2.1473  0.4469
  578MPD2    H3 8629   2.475   0.599   1.426 -0.1174 -0.6285 -0.4451
  578MPD2     N 8630   2.764   0.366   1.161  0.4363 -0.3088  0.4435
  578MPD2    H5 8631   2.761   0.323   1.069  1.1976  0.3159  0.1289
  578MPD2    N1 8632   2.369   0.606   0.995  0.4708  0.2097 -0.0804
  578MPD2    H7 8633   2.302   0.677   1.022 -1.9307 -0.8821 -3.1678
  579TMC3    C1 8634   2.961   0.238   1.202  0.6900  0.1898 -0.6856
  579TMC3    C2 8635   3.071   0.222   1.282 -0.2751  0.1371  0.2917
  579TMC3    C3 8636   3.180   0.165   1.224  0.1172  0.1551 -0.0843
  579TMC3    C4 8637   2.961   0.196   1.074  0.0571  0.2732  0.5612
  579TMC3    C5 8638   3.067   0.123   1.020  0.1405 -0.4090 -0.1520
  579TMC3    C6 8639   3.175   0.105   1.099 -0.5114 -0.3635 -0.4882
  579TMC3     C 8640   2.858   0.327   1.256 -0.5272 -0.1380  0.1811
  579TMC3     O 8641   2.872   0.378   1.361 -0.2262  0.1901  0.2232
  579TMC3     H 8642   3.069   0.257   1.385  1.0727 -0.6305  0.5761
  579TMC3    H1 8643   2.869   0.203   1.018  0.9477  2.5045 -0.5990
  579TMC3    H2 8644   3.262   0.048   1.069  0.2424  0.8290 -0.5688
  579TMC3    C7 8645   3.051   0.035   0.908 -0.7069  1.1155  0.6158
  579TMC3    C8 8646   3.305   0.188   1.287  0.4814  0.6513 -0.2206
  579TMC3    O1 8647   3.142   4.694   0.883  0.0040 -0.6665 -0.2284
  579TMC3    O2 8648   3.304   0.223   1.403 -0.7957 -0.0360 -0.5098
  580TMC3    C1 8649   1.832   4.227  12.359  0.0494 -0.4072  0.2400
  580TMC3    C2 8650   1.895   4.356  12.363  0.0586 -0.7464 -0.1755
  580TMC3    C3 8651   2.028   4.364  12.380  0.2264 -0.1952  0.0293
  580TMC3    C4 8652   1.897   4.103  12.371  1.1513  0.1400 -0.9704
  580TMC3    C5 8653   2.035   4.125  12.386  0.0496 -0.6672 -1.3990
  580TMC3    C6 8654   2.098   4.248  12.381  0.3829 -0.5760 -0.0228
  580TMC3     C 8655   1.695   4.228  12.299  0.1713  0.4935 -0.7578
  580TMC3     O 8656   1.615   4.145  12.338  0.4184  0.0651 -0.4194
  580TMC3     H 8657   1.832   4.443  12.346  1.1970  0.1047 -0.0052
  580TMC3    H1 8658   1.851   4.008  12.347  1.9374 -0.5664  0.2982
  580TMC3    H2 8659   2.205   4.258  12.397  0.3642  3.5464 -2.4506
  580TMC3    C7 8660   2.118   4.010  12.422 -0.7699  0.2706 -0.7515
  580TMC3    C8 8661   2.089   4.484  12.335 -0.0374  0.0665 -0.3214
  580TMC3    O1 8662   2.232   4.034  12.465 -0.5487 -0.7540  0.1016
  580TMC3    O2 8663   2.043   4.593  12.359  0.3004  0.1560  0.2529
  581MPD2     C 8664   4.490   4.061  14.778 -0.0983 -0.1612 -0.2546
  581MPD2    C1 8665   4.358   4.073  14.802  0.1539 -0.0163  0.5308
  581MPD2    C2 8666   4.280   4.090  14.688 -0.3490  0.7361  0.2665
  581MPD2    C3 8667   4.333   4.098  14.563 -0.3300 -0.1492 -0.4320
  581MPD2    C4 8668   4.466   4.084  14.546  0.3014 -0.2745 -0.7176
  581MPD2    C5 8669   4.538   4.071  14.655 -0.0333 -0.0832 -0.3078
  581MPD2     H 8670   4.172   4.092  14.695 -0.4281  1.0857 -0.9955
  581MPD2    H1 8671   4.516   4.088  14.449  2.0115 -0.5296  0.1491
  581MPD2    H2 8672   4.546   4.040  14.868 -0.3491  1.5498  0.3037
  581MPD2    H3 8673   4.645   4.065  14.636  0.2557  0.3411  1.1675
  581MPD2     N 8674   4.241   4.122  14.459  0.2873 -0.4958  0.0505
  581MPD2    H5 8675   4.143   4.106  14.481  0.1597 -0.9112 -0.7927
  581MPD2    N1 8676   4.304   4.055  14.933 -0.6222 -0.2113  0.0346
  581MPD2    H7 8677   4.376   4.057  15.005 -0.9193  0.9653  0.3040
  582TMC3    C1 8678   4.162   4.020  15.117  0.0816  0.8715 -0.6800
  582TMC3    C2 8679   4.271   4.044  15.199  0.5430 -0.0564 -0.3682
  582TMC3    C3 8680   4.245   4.068  15.333 -1.0406  0.4214  0.3476
  582TMC3    C4 8681   4.033   4.023  15.163 -0.5310  1.3750 -0.2077
  582TMC3    C5 8682   4.011   4.064  15.289 -0.0764 -0.5916  0.1678
  582TMC3    C6 8683   4.115   4.074  15.380 -0.4912 -0.3231  0.2847
  582TMC3     C 8684   4.175   4.030  14.970  0.3923 -0.1304  0.4337
  582TMC3     O 8685   4.077   4.012  14.896  0.0988  1.0620 -0.3694
  582TMC3     H 8686   4.376   4.038  15.171  0.3225 -0.0776 -1.1641
  582TMC3    H1 8687   3.954   4.017  15.090 -0.3274  0.3286 -0.3511
  582TMC3    H2 8688   4.090   4.080  15.485  1.9895 -1.3170  0.9513
  582TMC3    C7 8689   3.918   4.169  15.297 -0.5989  0.2059 -0.0034
  582TMC3    C8 8690   4.326   4.165  15.408  0.0023 -0.0486 -0.1163
  582TMC3    O1 8691   3.804   4.148  15.252  0.2222  0.6188  0.3325
  582TMC3    O2 8692   4.249   4.241  15.467 -0.3706 -0.0759 -0.0691
  583MPD2     C 8693   0.008   1.076  17.016 -0.4130  0.0785  0.5408
  583MPD2    C1 8694   4.695   1.195  16.961 -0.2764  0.4432  0.4653
  583MPD2    C2 8695   4.681   1.306  17.044  0.0629  0.0449 -0.3577
  583MPD2    C3 8696   4.709   1.310  17.182  0.6677 -0.2767 -0.6913
  583MPD2    C4 8697   0.016   1.186  17.230  0.5286 -0.0924  0.4094
  583MPD2    C5 8698   0.039   1.068  17.149  0.1040 -0.1201 -0.1523
  583MPD2     H 8699   4.625   1.391  17.006 -0.5772 -0.4116 -0.4241
  583MPD2    H1 8700   0.040   1.175  17.335 -0.4088  0.5133  0.6829
  583MPD2    H2 8701   0.038   0.991  16.957  2.3439  2.0313 -0.8738
  583MPD2    H3 8702   0.074   0.975  17.191  0.5595 -0.5922 -1.5925
  583MPD2     N 8703   4.705   1.431  17.248 -0.1924  0.3313  0.0593
  583MPD2    H5 8704   4.686   1.512  17.189 -0.0437 -1.1003 -1.9580
  583MPD2    N1 8705   4.663   1.211  16.828 -0.3393  0.2056 -0.9514
  583MPD2    H7 8706   4.630   1.300  16.792 -1.7017  0.1928  0.2442
  584TMC3    C1 8707   4.726   1.585  17.420  0.5030  0.3545  0.3462
  584TMC3    C2 8708   4.718   1.689  17.330 -0.4357 -0.3417  0.5801
  584TMC3    C3 8709   4.698   1.810  17.386  0.8396 -0.1032  0.4126
  584TMC3    C4 8710   4.719   1.603  17.556 -0.0376 -0.6510 -0.7322
  584TMC3    C5 8711   4.697   1.723  17.616 -0.7374  0.0670 -0.4684
  584TMC3    C6 8712   4.675   1.826  17.523  0.1386 -0.4231 -0.1621
  584TMC3     C 8713   4.729   1.449  17.381 -0.6632  0.5628  0.7497
  584TMC3     O 8714   0.026   1.363  17.463 -0.2856 -0.0626 -0.2975
  584TMC3     H 8715   4.718   1.673  17.223  1.2673  0.6639  0.4351
  584TMC3    H1 8716   4.722   1.519  17.625 -0.9497  0.1038  0.2262
  584TMC3    H2 8717   4.631   1.922  17.547 -1.6757 -1.3821  0.2825
  584TMC3    C7 8718   4.615   1.708  17.734 -0.3718  0.3095 -0.2488
  584TMC3    C8 8719   4.653   1.912  17.297 -0.2313  0.1453  0.0950
  584TMC3    O1 8720   4.639   1.613   0.069 -0.0377 -0.3305  0.2919
  584TMC3    O2 8721   4.574   1.886  17.210 -0.2828 -0.3137  0.9144
  585MPD2     C 8722   3.406   0.456  17.713 -0.6817 -0.0187  0.2514
  585MPD2    C1 8723   3.474   0.514  17.608 -0.3376  0.0833 -0.2508
  585MPD2    C2 8724   3.522   0.439  17.504  0.6964 -0.4219 -0.4172
  585MPD2    C3 8725   3.516   0.301  17.513  0.4766 -0.4350  0.4430
  585MPD2    C4 8726   3.456   0.240  17.622  0.7565  0.4382 -0.4704
  585MPD2    C5 8727   3.398   0.319  17.717  0.4948 -0.3930  0.7812
  585MPD2     H 8728   3.569   0.486  17.418  0.0218 -2.0192 -1.6518
  585MPD2    H1 8729   3.452   0.132  17.625  0.0599  0.5546  2.2913
  585MPD2    H2 8730   3.365   0.514   0.054 -1.5653 -0.6293  0.2442
  585MPD2    H3 8731   3.353   0.275   0.064 -0.6595 -0.1678  0.3058
  585MPD2     N 8732   3.567   0.211  17.415 -0.1226  0.0079 -0.1235
  585MPD2    H5 8733   3.543   0.112  17.426  0.5983 -0.2586 -0.9451
  585MPD2    N1 8734   3.487   0.653  17.621  0.4526  0.8035  0.2129
  585MPD2    H7 8735   3.438   0.696  17.698  1.3289 -0.9579  1.7493
  586TMC3    C1 8736   3.713   0.125  17.262  0.4350  0.4537  0.2406
  586TMC3    C2 8737   3.848   0.113  17.231 -0.6261 -0.3479  0.1329
  586TMC3    C3 8738   3.885   0.003  17.159 -0.0204 -0.0163  0.2900
  586TMC3    C4 8739   3.627   0.036  17.208 -0.3835  0.3555 -0.5674
  586TMC3    C5 8740   3.671   4.661  17.141 -0.1667 -0.2372 -0.3155
  586TMC3    C6 8741   3.796   4.642  17.116  0.1268  0.6362  0.6876
  586TMC3     C 8742   3.665   0.243  17.330  0.3420 -0.2697 -0.4283
  586TMC3     O 8743   3.725   0.347  17.320  0.4019 -0.5798  0.3282
  586TMC3     H 8744   3.919   0.171  17.288  0.9527 -1.1574 -1.0292
  586TMC3    H1 8745   3.522   0.043  17.235 -0.1778  0.7421  0.1437
  586TMC3    H2 8746   3.829   4.549  17.071 -1.6772  0.0601  0.5521
  586TMC3    C7 8747   3.568   4.578  17.080  0.4076  0.0281  0.0274
  586TMC3    C8 8748   4.011   4.678  17.186 -0.1881 -0.3712  0.8016
  586TMC3    O1 8749   3.463   4.565  17.148  0.2842  0.5730 -0.3578
  586TMC3    O2 8750   4.023   4.560  17.164  0.0265  0.0385 -0.2764
  587TMC3    C1 8751   0.542   3.432  16.620  0.3472  0.5012  0.3983
  587TMC3    C2 8752   0.639   3.509  16.674  0.1907  0.8851  0.1270
  587TMC3    C3 8753   0.762   3.453  16.694  0.9717 -0.2224 -0.0940
  587TMC3    C4 8754   0.548   3.299  16.617 -0.0451  0.5696 -0.3891
  587TMC3    C5 8755   0.671   3.247  16.635 -0.6258 -0.2733  0.1554
  587TMC3    C6 8756   0.789   3.321  16.653 -0.6494 -0.8234  0.9283
  587TMC3     C 8757   0.444   3.504  16.546  0.9325 -0.3533  0.4744
  587TMC3     O 8758   0.428   3.626  16.564 -0.2550 -0.3680  0.0124
  587TMC3     H 8759   0.620   3.614  16.692  1.8971  1.2730 -0.3734
  587TMC3    H1 8760   0.463   3.232  16.615 -0.8950  1.6205 -0.0492
  587TMC3    H2 8761   0.887   3.275  16.665  0.2352  0.8643  0.1612
  587TMC3    C7 8762   0.677   3.103  16.604 -0.1196 -0.5173 -0.1906
  587TMC3    C8 8763   0.868   3.522  16.765 -0.3226  0.0281 -0.1707
  587TMC3    O1 8764   0.570   3.049  16.578  0.3405  0.5401  0.4230
  587TMC3    O2 8765   0.959   3.454  16.803 -0.2752 -0.1747 -0.1290
  588TMC3    C1 8766   3.409   0.773   9.629 -0.3822  0.3052 -0.3947
  588TMC3    C2 8767   3.376   0.645   9.634 -0.1939 -0.1063  0.3204
  588TMC3    C3 8768   3.486   0.562   9.644 -0.3902 -0.3948  0.2106
  588TMC3    C4 8769   3.535   0.821   9.648  0.3430 -0.4279  0.3610
  588TMC3    C5 8770   3.644   0.742   9.665  0.0481 -0.0768  0.2679
  588TMC3    C6 8771   3.620   0.605   9.658 -0.8119  0.0834  0.0598
  588TMC3     C 8772   3.305   0.878   9.620 -0.3703  0.6919 -0.6891
  588TMC3     O 8773   3.202   0.860   9.558  0.3329 -0.5046  0.2526
  588TMC3     H 8774   3.274   0.618   9.612 -0.3576 -0.0677  1.0410
  588TMC3    H1 8775   3.564   0.923   9.626 -0.4911 -0.0663  0.9287
  588TMC3    H2 8776   3.702   0.534   9.663  0.0469  1.0642 -0.0324
  588TMC3    C7 8777   3.764   0.809   9.705 -0.0047 -0.3000  0.1331
  588TMC3    C8 8778   3.455   0.426   9.668  0.1134 -0.6456 -0.1507
  588TMC3    O1 8779   3.878   0.766   9.676  0.1882  0.3876  0.1315
  588TMC3    O2 8780   3.345   0.395   9.624  0.1866  0.1412  0.5042
  589TMC3    C1 8781   2.644   3.162   0.853 -0.2286 -0.0088  0.0917
  589TMC3    C2 8782   2.730   3.175   0.959  1.0544  0.1533  0.2577
  589TMC3    C3 8783   2.798   3.061   1.001  0.1295  0.4979 -0.4278
  589TMC3    C4 8784   2.624   3.042   0.794  0.2227  0.5566  0.2665
  589TMC3    C5 8785   2.699   2.938   0.834  0.3718 -0.0566 -0.1095
  589TMC3    C6 8786   2.782   2.938   0.941 -0.3027  0.0583  0.4405
  589TMC3     C 8787   2.563   3.279   0.825 -0.0001 -0.6060 -0.6673
  589TMC3     O 8788   2.452   3.253   0.785  0.7717 -0.5804  0.6309
  589TMC3     H 8789   2.760   3.273   0.992  1.7780 -0.2314  0.7381
  589TMC3    H1 8790   2.553   3.039   0.713 -0.3869  1.2254  0.7784
  589TMC3    H2 8791   2.831   2.848   0.977 -1.5740  0.4042  3.0328
  589TMC3    C7 8792   2.645   2.810   0.788  0.1275 -1.3867  0.9821
  589TMC3    C8 8793   2.869   3.072   1.123  0.1255 -0.4171 -1.2196
  589TMC3    O1 8794   2.630   2.732   0.878 -0.0899 -0.1065  0.6738
  589TMC3    O2 8795   2.824   3.147   1.213 -0.3071  0.8271  0.0368
  590MPD2     C 8796   2.468   2.004  16.746 -0.0482 -0.0420  0.0599
  590MPD2    C1 8797   2.435   1.998  16.608 -0.0099 -0.1683  0.3235
  590MPD2    C2 8798   2.529   2.055  16.522  0.2498 -0.2349  0.3603
  590MPD2    C3 8799   2.645   2.123  16.566  0.1110  0.1038 -0.2215
  590MPD2    C4 8800   2.672   2.122  16.707 -0.0185 -0.0036 -1.1250
  590MPD2    C5 8801   2.588   2.055  16.789 -0.1242  0.1782 -0.4031
  590MPD2     H 8802   2.513   2.054  16.415  1.4832 -0.8991  0.1853
  590MPD2    H1 8803   2.768   2.163  16.738 -0.4320  0.2375 -0.1735
  590MPD2    H2 8804   2.400   1.967  16.823  0.2309 -0.4451  0.1161
  590MPD2    H3 8805   2.628   2.041  16.889 -0.0720  1.0001 -0.3037
  590MPD2     N 8806   2.742   2.175  16.478 -0.0317  0.1182 -0.6843
  590MPD2    H5 8807   2.820   2.220  16.524 -3.3564  4.0839  0.9860
  590MPD2    N1 8808   2.308   1.937  16.573 -0.7047  0.9342  0.1034
  590MPD2    H7 8809   2.254   1.902  16.652 -1.3775  0.5683 -0.5170
  591TMC3    C1 8810   2.857   2.226  16.274  0.0388  0.5909 -0.1795
  591TMC3    C2 8811   2.894   2.180  16.151  0.1035  0.3335  0.1296
  591TMC3    C3 8812   2.906   2.279  16.057  0.3542  0.0637 -0.1594
  591TMC3    C4 8813   2.852   2.360  16.309  0.1801  0.0492 -0.0787
  591TMC3    C5 8814   2.862   2.457  16.208 -0.7198 -0.0161  0.9063
  591TMC3    C6 8815   2.889   2.412  16.079 -0.6059 -0.5337  0.2669
  591TMC3     C 8816   2.747   2.155  16.344 -0.6099 -0.2798  0.1822
  591TMC3     O 8817   2.673   2.100  16.268 -0.4235 -0.6902 -0.2229
  591TMC3     H 8818   2.902   2.074  16.130 -1.8272  0.0182  0.9907
  591TMC3    H1 8819   2.840   2.381  16.414 -0.2722  0.7737 -0.2751
  591TMC3    H2 8820   2.900   2.485  15.999  3.4554 -1.4859 -0.0324
  591TMC3    C7 8821   2.853   2.602  16.252 -0.3846  0.2761  0.8761
  591TMC3    C8 8822   2.928   2.223  15.923  0.2276 -0.2567 -0.4522
  591TMC3    O1 8823   2.825   2.624  16.369  0.4403  0.2623  0.1021
  591TMC3    O2 8824   2.985   2.114  15.902 -0.2923  0.2134  0.3286
  592MPD2     C 8825   2.665   3.978  11.576 -0.2181  0.0788  0.8631
  592MPD2    C1 8826   2.691   4.020  11.702  0.3797  0.4581 -0.2513
  592MPD2    C2 8827   2.628   3.956  11.811 -0.4473  0.2999  0.0772
  592MPD2    C3 8828   2.531   3.851  11.788 -0.5151  0.2266 -0.1755
  592MPD2    C4 8829   2.502   3.814  11.657 -0.0342 -0.2693  0.0653
  592MPD2    C5 8830   2.576   3.876  11.557  0.6428 -0.2996 -0.7608
  592MPD2     H 8831   2.640   3.978  11.916  1.1295  2.1958 -0.5065
  592MPD2    H1 8832   2.426   3.743  11.625  1.3060 -1.3455 -0.7017
  592MPD2    H2 8833   2.706   4.024  11.488 -0.9297 -1.2203 -0.1488
  592MPD2    H3 8834   2.554   3.849  11.455 -3.2691  0.1201 -0.0233
  592MPD2     N 8835   2.470   3.790  11.899 -0.3806  0.1273  0.0415
  592MPD2    H5 8836   2.499   3.821  11.991 -0.3959 -0.3469  0.2051
  592MPD2    N1 8837   2.766   4.137  11.713  0.0601 -0.4916 -0.0752
  592MPD2    H7 8838   2.796   4.178  11.625  1.2755 -0.4100  0.3712
  593TMC3    C1 8839   2.895   4.312  11.820 -0.6348  0.8570  0.0373
  593TMC3    C2 8840   2.899   4.394  11.929 -0.3291  0.3957  0.3374
  593TMC3    C3 8841   2.968   4.511  11.903  0.4729  1.1008  0.1880
  593TMC3    C4 8842   2.937   4.343  11.690  0.1586  0.1159  0.5296
  593TMC3    C5 8843   2.995   4.468  11.676 -0.0133 -0.0251  0.1545
  593TMC3    C6 8844   3.004   4.557  11.778 -0.3824 -0.7333 -0.0857
  593TMC3     C 8845   2.812   4.190  11.829  0.2527  0.2408 -0.6119
  593TMC3     O 8846   2.777   4.163  11.942  0.3863  0.3640 -0.0157
  593TMC3     H 8847   2.865   4.356  12.025  1.7200  2.2840  1.8317
  593TMC3    H1 8848   2.957   4.267  11.616 -0.7939 -1.0379  1.4632
  593TMC3    H2 8849   3.050   4.654  11.764 -0.5219 -0.8009 -0.9677
  593TMC3    C7 8850   3.046   4.510  11.551 -0.4437 -0.2682 -0.6135
  593TMC3    C8 8851   2.947   4.605  12.004  0.1964 -0.3374  0.4551
  593TMC3    O1 8852   3.100   4.619  11.567 -0.1653 -0.3193  0.0590
  593TMC3    O2 8853   2.865   4.580  12.094  0.0500 -0.0211  0.9305
  594MPD2     C 8854   0.859   2.987  14.260 -0.7208 -0.1866 -0.2695
  594MPD2    C1 8855   0.908   2.934  14.377  0.0947 -0.6571 -0.2880
  594MPD2    C2 8856   1.033   2.984  14.419 -0.4348  0.1429  0.0223
  594MPD2    C3 8857   1.102   3.075  14.348 -0.7756 -0.1145 -0.3646
  594MPD2    C4 8858   1.048   3.128  14.231 -0.0119 -0.5770 -0.0947
  594MPD2    C5 8859   0.930   3.080  14.186  1.1379  0.0968  0.2455
  594MPD2     H 8860   1.080   2.953  14.511 -1.0095  1.1177  0.6437
  594MPD2    H1 8861   1.087   3.211  14.172 -1.0011  0.9133  1.3352
  594MPD2    H2 8862   0.757   2.970  14.227 -1.4176  1.8880  0.8883
  594MPD2    H3 8863   0.877   3.113  14.097  0.3590 -0.4277  0.5111
  594MPD2     N 8864   1.225   3.124  14.402  0.0485  0.8638 -0.2789
  594MPD2    H5 8865   1.240   3.092  14.498  1.7061 -2.0965 -1.5198
  594MPD2    N1 8866   0.817   2.857  14.446  0.2122 -0.2045 -0.3104
  594MPD2    H7 8867   0.732   2.839  14.394  0.1272  0.7095 -0.4883
  595TMC3    C1 8868   1.658   3.271  14.475  0.1183  0.2177  0.5787
  595TMC3    C2 8869   1.555   3.253  14.384  0.0035 -0.0115 -0.4081
  595TMC3    C3 8870   1.435   3.228  14.431 -0.2131 -0.0502  0.1607
  595TMC3    C4 8871   1.632   3.306  14.604 -0.7208 -0.6472  0.0083
  595TMC3    C5 8872   1.503   3.300  14.643  0.9650 -0.7275  0.7102
  595TMC3    C6 8873   1.405   3.253  14.561 -0.4094 -0.3710  0.0220
  595TMC3     C 8874   1.789   3.259  14.431  0.4076 -0.4379 -0.3140
  595TMC3     O 8875   1.872   3.343  14.460 -0.1480 -0.1319 -0.4852
  595TMC3     H 8876   1.580   3.259  14.278 -0.2208  0.8324 -0.4180
  595TMC3    H1 8877   1.714   3.345  14.663 -3.6954  1.6558  2.6603
  595TMC3    H2 8878   1.305   3.244  14.602 -0.5920 -0.4856 -0.4454
  595TMC3    C7 8879   1.461   3.339  14.775 -0.6228 -0.4020  0.0428
  595TMC3    C8 8880   1.323   3.201  14.341 -0.6769 -0.2852  0.6440
  595TMC3    O1 8881   1.343   3.353  14.784  0.2393  0.1139  0.2559
  595TMC3    O2 8882   1.331   3.236  14.227 -0.0419 -0.3167 -0.6968
  596MPD2     C 8883   0.788   0.915  16.743  0.0363 -0.9202  0.5030
  596MPD2    C1 8884   0.701   0.999  16.683 -0.6458 -0.8370  0.6006
  596MPD2    C2 8885   0.652   0.968  16.558 -0.4489  0.5934 -0.0641
  596MPD2    C3 8886   0.712   0.872  16.476  0.3248  0.2110  0.2258
  596MPD2    C4 8887   0.803   0.793  16.542 -0.6404  0.5040  0.7350
  596MPD2    C5 8888   0.828   0.800  16.674 -0.0356 -0.0258 -1.0739
  596MPD2     H 8889   0.580   1.039  16.520 -1.1158 -0.5059 -0.8526
  596MPD2    H1 8890   0.854   0.713  16.489 -0.0254  1.9715 -0.8948
  596MPD2    H2 8891   0.822   0.926  16.846  0.6463 -1.9636  0.4153
  596MPD2    H3 8892   0.901   0.731  16.714 -1.3848 -0.6631  0.2749
  596MPD2     N 8893   0.677   0.850  16.335  1.1034 -0.0686  0.3197
  596MPD2    H5 8894   0.730   0.779  16.287  0.1797 -0.1331 -0.6128
  596MPD2    N1 8895   0.653   1.116  16.741  0.2248  0.5030  0.2489
  596MPD2    H7 8896   0.598   1.180  16.685  1.9792  0.7340 -1.1875
  597TMC3    C1 8897   0.664   1.307  16.877  0.2619 -0.6718  0.0689
  597TMC3    C2 8898   0.662   1.384  16.760 -0.3093 -0.1056 -0.3159
  597TMC3    C3 8899   0.656   1.520  16.765 -0.7399 -0.1451  0.1893
  597TMC3    C4 8900   0.666   1.370  17.002 -0.0442  0.4703 -0.4862
  597TMC3    C5 8901   0.648   1.503  17.004  0.1858 -1.0067 -0.4473
  597TMC3    C6 8902   0.638   1.577  16.887  0.4409 -0.2610 -0.0528
  597TMC3     C 8903   0.693   1.165  16.866 -0.0752  0.1541  0.4741
  597TMC3     O 8904   0.736   1.108  16.966 -0.3465 -0.2078  0.0123
  597TMC3     H 8905   0.679   1.338  16.663 -2.4625  0.6195 -1.0324
  597TMC3    H1 8906   0.675   1.298  17.083 -1.9603  1.1604  0.3440
  597TMC3    H2 8907   0.644   1.685  16.894  1.5782 -0.3454  0.3157
  597TMC3    C7 8908   0.619   1.567  17.133  0.3408 -0.2752  0.0287
  597TMC3    C8 8909   0.687   1.604  16.655  0.3652 -0.0081  0.2757
  597TMC3    O1 8910   0.633   1.504  17.235  0.0099  0.0277  0.3785
  597TMC3    O2 8911   0.634   1.715  16.648 -0.4287 -0.6785  0.3242
  598TMC3    C1 8912   3.183   2.686  15.317  0.0204  0.8577 -0.1530
  598TMC3    C2 8913   3.093   2.581  15.317 -0.5658  0.1027 -0.3309
  598TMC3    C3 8914   3.095   2.498  15.204  0.2277 -0.3370  0.5759
  598TMC3    C4 8915   3.237   2.736  15.204  0.1008 -0.0048 -0.6357
  598TMC3    C5 8916   3.219   2.661  15.093 -0.5121 -0.1406 -0.1537
  598TMC3    C6 8917   3.151   2.544  15.086  0.3893 -0.1753  0.2387
  598TMC3     C 8918   3.258   2.710  15.442  0.3191  0.3457 -0.0547
  598TMC3     O 8919   3.320   2.816  15.450 -0.6657 -0.0845  0.1383
  598TMC3     H 8920   3.052   2.550  15.413  1.8297  0.7125  0.8905
  598TMC3    H1 8921   3.313   2.814  15.209 -0.0971  0.1444  0.1217
  598TMC3    H2 8922   3.123   2.499  14.991  1.5766 -0.4952  0.0474
  598TMC3    C7 8923   3.306   2.694  14.980  0.6345 -0.1152 -0.1392
  598TMC3    C8 8924   2.984   2.415  15.182  0.2268  0.6790 -0.6713
  598TMC3    O1 8925   3.304   2.603  14.897 -0.1519  0.8263  0.1985
  598TMC3    O2 8926   2.996   2.326  15.097  0.1759  0.7242  0.1623
  599MPD2     C 8927   3.650   0.191  15.676  0.4906  0.3660 -0.0531
  599MPD2    C1 8928   3.614   0.062  15.682  0.5195  1.2688  0.3488
  599MPD2    C2 8929   3.496   0.017  15.739 -0.0528  0.4442 -0.9229
  599MPD2    C3 8930   3.402   0.110  15.787  0.6807 -0.8759  0.4649
  599MPD2    C4 8931   3.445   0.241  15.792 -0.3736  0.0648 -0.1749
  599MPD2    C5 8932   3.562   0.281  15.728 -0.2830 -0.3593 -0.0253
  599MPD2     H 8933   3.471   4.648  15.751  2.1274 -0.0751 -0.8082
  599MPD2    H1 8934   3.375   0.315  15.830  0.2957  0.3287  0.5532
  599MPD2    H2 8935   3.744   0.219  15.630  0.0277 -2.4792 -2.7463
  599MPD2    H3 8936   3.595   0.384  15.734  1.0556 -0.8524  1.0796
  599MPD2     N 8937   3.272   0.091  15.847 -0.2283  0.1060  0.4790
  599MPD2    H5 8938   3.234   0.176  15.886  0.1858 -1.0706  3.4231
  599MPD2    N1 8939   3.711   4.709  15.634 -0.0401  0.5909 -0.3204
  599MPD2    H7 8940   3.802   0.010  15.607  0.4231 -0.4352 -0.1796
  600TMC3    C1 8941   3.087   4.733  15.950 -0.6306  0.0521  0.0624
  600TMC3    C2 8942   2.992   4.638  15.937 -0.1773 -0.1569 -1.1786
  600TMC3    C3 8943   2.887   4.654  16.025  0.2577 -0.4340 -0.3103
  600TMC3    C4 8944   3.085   0.100  16.034  0.2028  0.1252 -0.1845
  600TMC3    C5 8945   2.980   0.107  16.121 -0.3412 -0.4676 -0.6354
  600TMC3    C6 8946   2.883   0.013  16.123 -0.8872  0.2998 -0.4134
  600TMC3     C 8947   3.211   4.710  15.877 -1.0223  0.3598 -0.4089
  600TMC3     O 8948   3.240   4.596  15.841 -0.0528  0.0179  0.2217
  600TMC3     H 8949   2.993   4.565  15.856  0.4504 -0.7967 -0.5820
  600TMC3    H1 8950   3.164   0.174  16.044  1.4509 -0.9722 -2.0068
  600TMC3    H2 8951   2.797   0.024  16.189 -0.8069  1.3156 -0.4705
  600TMC3    C7 8952   2.969   0.208  16.226  0.9015 -0.1949 -0.5346
  600TMC3    C8 8953   2.792   4.553  16.043  0.6443 -0.6228 -0.3301
  600TMC3    O1 8954   2.877   0.186  16.301 -0.0712  0.7344 -0.6837
  600TMC3    O2 8955   2.744   4.500  15.944  0.4901 -0.3189 -0.5305
  601MPD2     C 8956   1.355   3.660   0.218  0.5183  0.2137  0.0496
  601MPD2    C1 8957   1.242   3.584   0.208  0.0562  0.0565 -0.9217
  601MPD2    C2 8958   1.243   3.445   0.225  0.1540 -0.6205 -0.4917
  601MPD2    C3 8959   1.369   3.389   0.247  0.7621  0.6743  0.1589
  601MPD2    C4 8960   1.480   3.463   0.262  0.5323 -0.4064  0.0190
  601MPD2    C5 8961   1.479   3.601   0.244  0.5636  0.2439 -0.0908
  601MPD2     H 8962   1.154   3.383   0.224 -0.5484  0.3892 -0.8163
  601MPD2    H1 8963   1.578   3.416   0.264  0.4617 -0.5834 -0.5645
  601MPD2    H2 8964   1.353   3.767   0.200  1.1523  0.4660  1.4769
  601MPD2    H3 8965   1.570   3.659   0.236  0.2551  0.8339  0.7102
  601MPD2     N 8966   1.382   3.248   0.258  0.2274  0.1582  0.0435
  601MPD2    H5 8967   1.473   3.207   0.275  0.7398  0.6091 -1.5839
  601MPD2    N1 8968   1.113   3.647   0.198  0.2339 -0.3731 -0.1314
  601MPD2    H7 8969   1.043   3.577   0.177 -0.7887  0.5035  0.3289
  602TMC3    C1 8970   0.945   3.798   0.171  0.3264 -0.2115 -0.4411
  602TMC3    C2 8971   0.912   3.931   0.144 -0.2801  0.0654  0.1037
  602TMC3    C3 8972   0.794   3.938   0.085  0.3912  0.6971  0.6796
  602TMC3    C4 8973   0.857   3.688   0.159 -0.5982 -0.1862  0.6303
  602TMC3    C5 8974   0.730   3.712   0.108 -0.2524  0.6588  0.1483
  602TMC3    C6 8975   0.699   3.837   0.082 -0.4252 -0.4388 -0.5144
  602TMC3     C 8976   1.090   3.778   0.174  0.1503  0.8579 -0.3758
  602TMC3     O 8977   1.161   3.872   0.156  0.2778 -0.3185 -0.4127
  602TMC3     H 8978   0.977   4.017   0.158 -0.3541 -0.1143  1.5886
  602TMC3    H1 8979   0.883   3.584   0.177 -0.0216  0.1570  1.7480
  602TMC3    H2 8980   0.594   3.860   0.068 -0.1051  1.1246 -0.3962
  602TMC3    C7 8981   0.663   3.601   0.044 -0.0902  0.3304 -0.9023
  602TMC3    C8 8982   0.752   4.064   0.031  1.1364 -0.3776 -0.9095
  602TMC3    O1 8983   0.700   3.491   0.070 -0.2186 -0.0301  0.0892
  602TMC3    O2 8984   0.808   4.164   0.071  0.1334 -0.2703 -0.4364
  603TMC3    C1 8985   3.798   2.797  10.799 -0.2126 -0.4548 -0.1775
  603TMC3    C2 8986   3.875   2.754  10.906  0.0738  0.4388 -0.3937
  603TMC3    C3 8987   3.918   2.848  10.995 -0.0256 -0.3035  0.7745
  603TMC3    C4 8988   3.790   2.928  10.763  1.1046 -0.0266 -0.3132
  603TMC3    C5 8989   3.844   3.018  10.853 -0.2340  0.2191  0.6203
  603TMC3    C6 8990   3.916   2.982  10.959 -0.0461  0.0953 -0.1264
  603TMC3     C 8991   3.746   2.706  10.692 -0.5814  0.1070 -0.4083
  603TMC3     O 8992   3.689   2.756  10.601 -0.1333 -0.0514 -0.9335
  603TMC3     H 8993   3.881   2.649  10.930 -0.8467  0.9511  2.0100
  603TMC3    H1 8994   3.745   2.958  10.669  0.5596 -0.0733 -0.0673
  603TMC3    H2 8995   3.935   3.066  11.024 -3.4858  1.6078 -1.0367
  603TMC3    C7 8996   3.873   3.147  10.796  0.3412  0.9281 -0.3254
  603TMC3    C8 8997   3.966   2.799  11.124  0.2998  0.1479  0.6523
  603TMC3    O1 8998   3.985   3.195  10.815  1.0629  0.1241  0.1884
  603TMC3    O2 8999   3.941   2.685  11.154  0.2788 -0.4534  0.0826
  604MPD2     C 9000   4.219   1.912  16.133  0.1835 -0.5096 -0.4193
  604MPD2    C1 9001   4.213   2.045  16.112 -0.0687  0.0246  0.1212
  604MPD2    C2 9002   4.280   2.103  16.007  0.4174  0.4558  0.4816
  604MPD2    C3 9003   4.364   2.034  15.927  0.5389  0.7899  0.1603
  604MPD2    C4 9004   4.375   1.903  15.952 -0.3111  0.3941  0.5324
  604MPD2    C5 9005   4.302   1.840  16.045 -0.2831 -0.4825 -0.0412
  604MPD2     H 9006   4.276   2.210  15.993 -0.4788  0.7146  2.6878
  604MPD2    H1 9007   4.424   1.826  15.893 -1.9151 -0.6197  0.5179
  604MPD2    H2 9008   4.161   1.858  16.207  2.4007  0.6674  2.2014
  604MPD2    H3 9009   4.296   1.732  16.057 -3.0990 -0.2275  0.7766
  604MPD2     N 9010   4.438   2.100  15.818  0.1142  0.1763 -0.0629
  604MPD2    H5 9011   4.412   2.197  15.803 -1.0990 -0.2976 -1.0625
  604MPD2    N1 9012   4.122   2.116  16.197 -0.0105 -0.7254 -0.3810
  604MPD2    H7 9013   4.092   2.059  16.275 -0.5267  0.6621  0.4080
  605TMC3    C1 9014   3.988   2.285  16.290  0.2391 -0.2927 -0.3519
  605TMC3    C2 9015   4.051   2.260  16.408  0.2536 -0.8009 -0.1100
  605TMC3    C3 9016   4.083   2.369  16.480 -0.1598  0.1101 -0.2067
  605TMC3    C4 9017   3.924   2.404  16.269 -0.1317  0.4177  0.3260
  605TMC3    C5 9018   3.930   2.499  16.366 -0.6222 -0.1749  0.7495
  605TMC3    C6 9019   4.020   2.486  16.464  0.2383 -0.0699 -0.4583
  605TMC3     C 9020   4.068   2.242  16.176  0.0015 -0.1656  0.0281
  605TMC3     O 9021   4.046   2.299  16.069  0.0082 -0.3650 -0.2640
  605TMC3     H 9022   4.105   2.168  16.429  1.5173 -0.2637 -1.0178
  605TMC3    H1 9023   3.887   2.432  16.171  0.0308  0.5335  0.2989
  605TMC3    H2 9024   4.026   2.564  16.539 -1.4301  1.8828 -2.3637
  605TMC3    C7 9025   3.876   2.631  16.336 -0.4301 -1.0095  0.2101
  605TMC3    C8 9026   4.205   2.357  16.562 -0.1718  0.1300 -0.1965
  605TMC3    O1 9027   3.830   2.642  16.224 -0.1092  0.3153  0.3984
  605TMC3    O2 9028   4.273   2.260  16.527 -0.5183  0.3277 -0.1217
  606TMC3    C1 9029   0.756   1.472  17.698  0.0879 -0.6508  0.2733
  606TMC3    C2 9030   0.875   1.451   0.014  0.2289 -0.0093  0.6999
  606TMC3    C3 9031   0.945   1.349  17.701  0.1582  0.1033 -0.2363
  606TMC3    C4 9032   0.714   1.405  17.586 -0.2929 -0.5904  0.2854
  606TMC3    C5 9033   0.798   1.314  17.530  0.4908 -0.2684  0.1749
  606TMC3    C6 9034   0.921   1.289  17.578  0.5854 -0.1262  0.3602
  606TMC3     C 9035   0.692   1.599  17.727 -0.5051  1.2050 -0.1330
  606TMC3     O 9036   0.613   1.638  17.639 -0.0017  0.6282  0.0686
  606TMC3     H 9037   0.918   1.491   0.106  0.1659  0.5552  0.4840
  606TMC3    H1 9038   0.612   1.408  17.549  0.3244 -0.9400 -1.4316
  606TMC3    H2 9039   0.984   1.213  17.533 -0.7429 -0.7227 -0.5274
  606TMC3    C7 9040   0.743   1.214  17.434  0.0303  0.4887  0.5913
  606TMC3    C8 9041   1.060   1.299   0.036  0.0860 -0.5791  0.2201
  606TMC3    O1 9042   0.773   1.215  17.315 -0.1189 -0.1652 -0.2672
  606TMC3    O2 9043   1.149   1.242  17.715 -0.4650 -0.4437 -0.0911
  607MPD2     C 9044   2.604   3.263  11.976  0.2921 -0.0563 -0.0302
  607MPD2    C1 9045   2.732   3.291  12.030  0.6693  0.1922  0.2744
  607MPD2    C2 9046   2.796   3.186  12.092 -0.2346 -0.5670  0.5856
  607MPD2    C3 9047   2.730   3.065  12.123  0.3179 -0.1006 -0.2992
  607MPD2    C4 9048   2.609   3.036  12.074  0.0238 -0.7771 -0.5189
  607MPD2    C5 9049   2.540   3.140  12.009 -0.6128 -0.0504 -0.3950
  607MPD2     H 9050   2.894   3.210  12.131 -0.8806  1.1302  1.1533
  607MPD2    H1 9051   2.556   2.945  12.102  1.5194 -0.3252  3.6402
  607MPD2    H2 9052   2.546   3.339  11.925  0.9369  0.1745 -0.4202
  607MPD2    H3 9053   2.443   3.122  11.964 -2.0282  1.9182  1.8697
  607MPD2     N 9054   2.794   2.979  12.215 -0.6043 -0.0815 -0.4765
  607MPD2    H5 9055   2.883   3.015  12.248  0.1733 -0.9740 -1.6211
  607MPD2    N1 9056   2.817   3.399  12.001  0.2193 -0.0489 -0.0335
  607MPD2    H7 9057   2.914   3.395  12.032  0.7222  2.6628 -1.2855
  608TMC3    C1 9058   2.881   3.618  11.962 -0.3117 -0.7055 -0.5503
  608TMC3    C2 9059   2.977   3.602  12.061  0.3643 -0.2770  0.5088
  608TMC3    C3 9060   3.092   3.684  12.063  0.0768 -0.0356  0.6661
  608TMC3    C4 9061   2.894   3.720  11.870 -0.1814 -0.6404  0.3919
  608TMC3    C5 9062   3.008   3.793  11.878 -0.2172  0.2705  0.1961
  608TMC3    C6 9063   3.107   3.788  11.971 -0.2419  0.4017 -0.9254
  608TMC3     C 9064   2.773   3.520  11.945 -0.2467  0.3953  0.0351
  608TMC3     O 9065   2.681   3.540  11.863  0.3639  1.2107 -0.1283
  608TMC3     H 9066   2.964   3.530  12.141  0.5262 -0.8420  0.0271
  608TMC3    H1 9067   2.818   3.730  11.794  1.2772 -1.0071 -1.1172
  608TMC3    H2 9068   3.204   3.837  11.966  0.9974 -1.9909  0.0915
  608TMC3    C7 9069   3.027   3.896  11.779  0.3309  0.4275 -0.7495
  608TMC3    C8 9070   3.206   3.640  12.143 -0.5997  0.0189 -0.2603
  608TMC3    O1 9071   2.996   3.865  11.664  0.3931  0.3461  0.4274
  608TMC3    O2 9072   3.299   3.719  12.166  0.0700  0.1506  0.1268
  609TMC3    C1 9073   1.026   2.085   9.277 -0.2040 -0.1122  0.6759
  609TMC3    C2 9074   0.989   1.973   9.211  0.7398  0.7402  0.7984
  609TMC3    C3 9075   1.088   1.886   9.168  0.7432 -0.3074  0.5058
  609TMC3    C4 9076   1.151   2.102   9.329  0.0689 -0.1864 -0.0188
  609TMC3    C5 9077   1.250   2.018   9.285 -0.0484 -0.5640  0.4014
  609TMC3    C6 9078   1.219   1.911   9.204  0.2366  0.6169  0.4976
  609TMC3     C 9079   0.914   2.164   9.317 -0.0419 -0.2728 -0.3342
  609TMC3     O 9080   0.804   2.113   9.307 -0.4181 -0.2517  0.5148
  609TMC3     H 9081   0.888   1.961   9.173  0.5226 -1.5716  2.1161
  609TMC3    H1 9082   1.178   2.195   9.378  1.1755 -2.0779  2.9934
  609TMC3    H2 9083   1.298   1.850   9.163 -0.2230  0.7831 -0.6389
  609TMC3    C7 9084   1.387   2.064   9.305  0.6643  0.2354  0.2265
  609TMC3    C8 9085   1.058   1.754   9.139 -0.2181  0.4750 -0.7286
  609TMC3    O1 9086   1.399   2.185   9.319 -0.4001  0.3436 -0.2354
  609TMC3    O2 9087   1.148   1.687   9.084  0.3055 -0.2134  0.5047
  610TMC3    C1 9088   3.832   3.798  12.377  0.1637  0.3234 -0.3130
  610TMC3    C2 9089   3.766   3.794  12.256 -0.9363 -0.3996 -0.5723
  610TMC3    C3 9090   3.745   3.671  12.197 -0.6102  0.2115  0.5135
  610TMC3    C4 9091   3.891   3.689  12.437  0.1332 -0.0177  0.0131
  610TMC3    C5 9092   3.864   3.573  12.376  0.7103  0.0241 -0.5286
  610TMC3    C6 9093   3.788   3.555  12.259  0.3620  0.5347 -0.4870
  610TMC3     C 9094   3.828   3.924  12.438  0.2390  0.5507 -0.6369
  610TMC3     O 9095   3.767   4.016  12.383  0.2540  0.1766  0.3050
  610TMC3     H 9096   3.694   3.869  12.227  1.0319  1.7199  0.0154
  610TMC3    H1 9097   3.940   3.704  12.533 -1.8664 -1.9786  1.3356
  610TMC3    H2 9098   3.772   3.468  12.197 -0.4505  0.5758 -0.3322
  610TMC3    C7 9099   3.920   3.454  12.439 -0.9179  0.3903  0.7343
  610TMC3    C8 9100   3.647   3.650  12.086 -0.0706 -0.2930 -0.2547
  610TMC3    O1 9101   4.012   3.461  12.516 -0.2120  0.2481 -0.5522
  610TMC3    O2 9102   3.622   3.538  12.048  0.4945 -0.2090 -0.3350
  611MPD2     C 9103   2.737   3.660  10.735  0.6321  1.0272  0.3073
  611MPD2    C1 9104   2.703   3.594  10.624 -0.0279  0.4135 -0.1119
  611MPD2    C2 9105   2.802   3.576  10.530  0.2223 -0.2603 -0.2463
  611MPD2    C3 9106   2.929   3.639  10.538  0.6949  0.3178 -0.3291
  611MPD2    C4 9107   2.949   3.717  10.642  0.5304  0.0357 -0.0142
  611MPD2    C5 9108   2.864   3.721  10.744 -0.7681  0.0455  0.4068
  611MPD2     H 9109   2.780   3.511  10.447 -4.9975  1.0643  0.0860
  611MPD2    H1 9110   3.046   3.759  10.668 -0.5589  2.0841  0.8094
  611MPD2    H2 9111   2.664   3.673  10.814  1.6021  0.3158  1.3233
  611MPD2    H3 9112   2.891   3.785  10.828 -0.3767  3.3841 -2.2271
  611MPD2     N 9113   3.044   3.611  10.459 -0.5355 -0.2283 -0.2787
  611MPD2    H5 9114   3.125   3.671  10.469 -1.4932  0.9064  0.7162
  611MPD2    N1 9115   2.581   3.525  10.622 -0.0109 -0.3946 -0.0102
  611MPD2    H7 9116   2.530   3.541  10.708 -1.1796 -1.1084 -0.5798
  612TMC3    C1 9117   3.171   3.528  10.289  0.0733  0.4628  0.3519
  612TMC3    C2 9118   3.288   3.559  10.357 -0.4658  0.0841  0.5969
  612TMC3    C3 9119   3.401   3.592  10.288 -0.3691  0.4897 -0.1680
  612TMC3    C4 9120   3.170   3.517  10.155 -0.2801  0.4791  0.1517
  612TMC3    C5 9121   3.282   3.548  10.082 -0.1454  0.2864 -0.0267
  612TMC3    C6 9122   3.395   3.591  10.150  1.0987 -0.0097  0.3234
  612TMC3     C 9123   3.044   3.521  10.357 -0.1486  0.1423 -0.1167
  612TMC3     O 9124   2.952   3.456  10.311  0.7457  0.5679  0.3415
  612TMC3     H 9125   3.302   3.562  10.464 -1.0843 -1.1177  0.7226
  612TMC3    H1 9126   3.072   3.505  10.110  0.2951  1.2259 -1.3084
  612TMC3    H2 9127   3.485   3.596  10.091  0.4709 -2.0406 -0.8130
  612TMC3    C7 9128   3.282   3.549   9.937 -0.8908  0.3763 -0.4495
  612TMC3    C8 9129   3.536   3.578  10.342  0.5817 -0.2390 -0.2290
  612TMC3    O1 9130   3.385   3.591   9.885 -0.7066 -0.2074 -0.1508
  612TMC3    O2 9131   3.617   3.656  10.295  0.1273 -0.1025  0.2756
  613MPD2     C 9132   2.056   0.992  16.875 -0.6491 -0.3760 -0.0926
  613MPD2    C1 9133   1.982   1.055  16.780 -0.4035  0.6772 -0.0741
  613MPD2    C2 9134   1.895   0.974  16.713 -0.4424  0.2275 -0.0344
  613MPD2    C3 9135   1.897   0.837  16.731 -0.1352  0.4885 -0.0524
  613MPD2    C4 9136   1.982   0.775  16.810  0.1250  0.3948  0.1924
  613MPD2    C5 9137   2.054   0.855  16.892 -0.2239 -0.5452 -0.3937
  613MPD2     H 9138   1.824   1.026  16.650  1.5107  1.2143 -1.4029
  613MPD2    H1 9139   1.989   0.668  16.825  0.0307  0.7390  2.6640
  613MPD2    H2 9140   2.113   1.062  16.935 -1.4344  0.2336 -0.0459
  613MPD2    H3 9141   2.101   0.815  16.981 -0.1115  1.5292  0.4884
  613MPD2     N 9142   1.817   0.753  16.649  0.0675  0.1633  0.0796
  613MPD2    H5 9143   1.840   0.657  16.673 -0.3040 -0.2041 -1.0317
  613MPD2    N1 9144   2.007   1.187  16.740 -0.5282  0.1383 -0.1101
  613MPD2    H7 9145   2.096   1.223  16.773  0.7850 -2.2625 -0.9521
  614TMC3    C1 9146   2.029   1.347  16.574 -0.0252 -0.4699  0.4026
  614TMC3    C2 9147   2.129   1.274  16.516 -0.4017  0.6414  0.2304
  614TMC3    C3 9148   2.130   1.259  16.378 -0.6935  0.0501  0.5336
  614TMC3    C4 9149   1.954   1.423  16.490 -0.0762  0.6190 -0.0515
  614TMC3    C5 9150   1.950   1.402  16.355 -1.0187  0.2539 -0.5812
  614TMC3    C6 9151   2.044   1.323  16.294  0.1679 -0.0380  0.6295
  614TMC3     C 9152   1.940   1.255  16.640 -0.4631  0.1990 -0.0077
  614TMC3     O 9153   1.832   1.231  16.584  0.4093 -0.3212 -0.5748
  614TMC3     H 9154   2.182   1.199  16.573  0.1642  1.1251  0.3452
  614TMC3    H1 9155   1.877   1.481  16.538 -1.4722 -2.0874  1.0129
  614TMC3    H2 9156   2.054   1.310  16.187  0.7919 -0.4901  0.7451
  614TMC3    C7 9157   1.851   1.468  16.281  0.6092  0.0701  0.1509
  614TMC3    C8 9158   2.140   1.115  16.345 -0.1577  0.5185  0.7766
  614TMC3    O1 9159   1.807   1.568  16.333  0.5042 -0.1956 -0.2620
  614TMC3    O2 9160   2.090   1.048  16.434  0.6636  0.6058  0.2939
  615MPD2     C 9161   1.323   2.210  15.806  0.2528 -0.1578  0.3597
  615MPD2    C1 9162   1.278   2.306  15.896 -0.0973 -0.1306  0.4949
  615MPD2    C2 9163   1.179   2.389  15.846  0.2168  0.1894  0.2450
  615MPD2    C3 9164   1.142   2.393  15.710 -0.4863 -0.5186  0.2799
  615MPD2    C4 9165   1.199   2.303  15.621  0.0650  0.3252  0.8126
  615MPD2    C5 9166   1.279   2.207  15.674 -0.5415  0.3503  0.3504
  615MPD2     H 9167   1.127   2.458  15.912  2.1298  1.0139  0.9017
  615MPD2    H1 9168   1.172   2.298  15.516 -2.7770  0.8285  1.5145
  615MPD2    H2 9169   1.404   2.141  15.826  1.8357  1.2876 -0.9944
  615MPD2    H3 9170   1.321   2.131  15.609 -2.9395 -0.4857 -0.2086
  615MPD2     N 9171   1.047   2.479  15.663  0.1900 -0.3418  0.2211
  615MPD2    H5 9172   1.050   2.502  15.564  0.3723 -0.4465  0.2007
  615MPD2    N1 9173   1.330   2.319  16.029 -0.2615  0.4195  0.4627
  615MPD2    H7 9174   1.309   2.405  16.079  0.1155  1.8725 -1.8725
  616TMC3    C1 9175   1.470   2.272  16.220  0.6670 -0.5790  0.0842
  616TMC3    C2 9176   1.586   2.223  16.260 -0.3887  0.1169  0.0589
  616TMC3    C3 9177   1.664   2.297  16.347 -0.3207  0.1334 -0.5478
  616TMC3    C4 9178   1.419   2.379  16.284  0.0766  0.0921 -0.3893
  616TMC3    C5 9179   1.491   2.445  16.382 -0.7832  0.4462 -0.2589
  616TMC3    C6 9180   1.625   2.414  16.406  0.0470 -0.2130  0.3734
  616TMC3     C 9181   1.410   2.226  16.093 -0.7519  0.4115  0.7346
  616TMC3     O 9182   1.441   2.114  16.058  0.2259  0.0762  0.6985
  616TMC3     H 9183   1.645   2.148  16.209 -1.6018 -1.6636  1.2882
  616TMC3    H1 9184   1.321   2.417  16.256 -0.2047 -1.1842 -1.1381
  616TMC3    H2 9185   1.673   2.448  16.497  1.1309  2.9559 -1.3881
  616TMC3    C7 9186   1.458   2.580  16.408 -0.2555  0.7211  0.2185
  616TMC3    C8 9187   1.810   2.277  16.332 -0.3304 -0.2942  0.2804
  616TMC3    O1 9188   1.343   2.589  16.448  0.3233 -0.4018  0.3920
  616TMC3    O2 9189   1.851   2.176  16.276 -0.5555  0.0506  0.1962
  617MPD2     C 9190   4.497   0.634  13.328 -0.5078  0.0252 -0.4424
  617MPD2    C1 9191   4.478   0.598  13.460  0.4713 -0.6097 -0.2970
  617MPD2    C2 9192   4.360   0.548  13.502  0.3367 -0.0006 -0.0234
  617MPD2    C3 9193   4.254   0.529  13.416 -0.2106 -0.1686  0.7014
  617MPD2    C4 9194   4.281   0.563  13.282 -0.3066  0.0513  0.6057
  617MPD2    C5 9195   4.404   0.606  13.236 -0.9343 -0.1282 -0.3926
  617MPD2     H 9196   4.350   0.514  13.605  0.5601 -0.2103 -0.0721
  617MPD2    H1 9197   4.210   0.535  13.205  1.5868 -0.2643 -1.0159
  617MPD2    H2 9198   4.580   0.695  13.295  0.7188 -1.7855 -0.6863
  617MPD2    H3 9199   4.418   0.630  13.132 -0.8712 -1.5034 -0.6903
  617MPD2     N 9200   4.126   0.476  13.453 -0.0914 -0.0092  0.4762
  617MPD2    H5 9201   4.053   0.484  13.383  0.3119  1.2833  0.1936
  617MPD2    N1 9202   4.581   0.614  13.557  0.2314  0.0341  0.1476
  617MPD2    H7 9203   4.554   0.589  13.652 -1.0865 -0.3449 -0.3214
  618TMC3    C1 9204   0.066   0.631  13.639 -0.2348 -0.0115 -0.3641
  618TMC3    C2 9205   0.064   0.516  13.712 -0.5453 -0.8073  0.5145
  618TMC3    C3 9206   0.176   0.453  13.740 -0.3430  0.7147 -0.3127
  618TMC3    C4 9207   0.184   0.682  13.606  0.3630  0.1648  0.3695
  618TMC3    C5 9208   0.305   0.618  13.629  0.3942  0.2712  0.5183
  618TMC3    C6 9209   0.293   0.506  13.701 -0.0989  0.1254  0.4596
  618TMC3     C 9210   4.708   0.647  13.528 -0.6439 -0.7448  0.3494
  618TMC3     O 9211   0.013   0.699  13.424  0.2794 -0.1214  0.4064
  618TMC3     H 9212   4.706   0.473  13.745 -1.1704  0.0152 -0.1936
  618TMC3    H1 9213   0.182   0.779  13.557  2.3898 -0.0734 -0.2016
  618TMC3    H2 9214   0.386   0.460  13.732 -0.5045  1.0565  3.0560
  618TMC3    C7 9215   0.353   0.567  13.503  0.1681 -0.2503 -0.0725
  618TMC3    C8 9216   0.172   0.317  13.694 -0.9062 -0.2142 -1.2253
  618TMC3    O1 9217   0.441   0.481  13.509 -0.3159 -0.3738  0.0838
  618TMC3    O2 9218   0.065   0.257  13.698 -0.2254 -0.1532 -0.6718
  619MPD2     C 9219   1.371   0.994  13.764 -0.0195 -0.3745  0.2950
  619MPD2    C1 9220   1.356   1.119  13.720  0.3849 -0.7628 -0.4850
  619MPD2    C2 9221   1.248   1.195  13.747 -0.1586  0.0741 -0.5318
  619MPD2    C3 9222   1.140   1.140  13.807  0.4877 -0.0811 -0.5697
  619MPD2    C4 9223   1.155   1.016  13.856  0.5086  0.3619  0.6233
  619MPD2    C5 9224   1.266   0.938  13.829 -0.1056 -0.3789  0.4114
  619MPD2     H 9225   1.253   1.299  13.717 -0.9419  0.8752  2.1425
  619MPD2    H1 9226   1.072   0.973  13.910 -1.7217  3.2068 -0.4966
  619MPD2    H2 9227   1.460   0.934  13.753 -1.2892 -2.3171  0.7621
  619MPD2    H3 9228   1.276   0.836  13.864 -1.9842 -0.8998 -0.6043
  619MPD2     N 9229   1.026   1.218  13.825 -0.2563  0.4628 -0.5680
  619MPD2    H5 9230   0.963   1.184  13.897 -2.0975  2.3478 -1.2689
  619MPD2    N1 9231   1.457   1.182  13.641 -0.0277 -0.1709  0.9121
  619MPD2    H7 9232   1.464   1.283  13.633  0.2264 -0.2950 -0.5797
  620TMC3    C1 9233   1.651   1.221  13.518  0.5704  0.6121  0.7310
  620TMC3    C2 9234   1.579   1.316  13.447 -0.0486  0.1091  0.6530
  620TMC3    C3 9235   1.631   1.443  13.422  0.0915  0.4938 -0.3064
  620TMC3    C4 9236   1.766   1.260  13.574 -0.5518 -0.3531 -0.1870
  620TMC3    C5 9237   1.806   1.391  13.559  0.2212  0.7168 -0.6192
  620TMC3    C6 9238   1.747   1.483  13.487  0.0827  0.2283  0.2111
  620TMC3     C 9239   1.567   1.123  13.589 -0.0958  1.1096 -0.9661
  620TMC3     O 9240   1.627   1.018  13.610  0.3436 -0.0441  0.2106
  620TMC3     H 9241   1.480   1.288  13.413  0.5499  0.2617 -1.2583
  620TMC3    H1 9242   1.826   1.187  13.628  0.8634  0.0612 -1.2077
  620TMC3    H2 9243   1.786   1.584  13.485  1.2156 -0.2049  0.5094
  620TMC3    C7 9244   1.861   1.429  13.698  0.1268 -0.3150  0.1991
  620TMC3    C8 9245   1.536   1.556  13.430 -0.0860  0.2508  0.1504
  620TMC3    O1 9246   1.918   1.350  13.770  0.5836  0.0767  0.2795
  620TMC3    O2 9247   1.574   1.641  13.511  0.7876 -0.0841 -1.1155
  621MPD2     C 9248   1.276   2.171   9.647 -0.0750 -0.1529  0.7756
  621MPD2    C1 9249   1.196   2.250   9.729 -0.1908  0.4174  0.2922
  621MPD2    C2 9250   1.251   2.373   9.779  1.0841  0.3644 -0.1104
  621MPD2    C3 9251   1.381   2.412   9.747  0.1103  0.0971  0.3563
  621MPD2    C4 9252   1.466   2.327   9.677 -0.4204  0.2325 -0.3303
  621MPD2    C5 9253   1.409   2.205   9.630  0.7948 -0.7703 -0.0132
  621MPD2     H 9254   1.181   2.442   9.825 -0.8250 -0.8892 -1.1285
  621MPD2    H1 9255   1.564   2.355   9.641  0.4205  0.8730  2.4746
  621MPD2    H2 9256   1.242   2.080   9.599  0.1786 -0.1014  0.5048
  621MPD2    H3 9257   1.479   2.141   9.578  0.7938 -0.2964 -0.6026
  621MPD2     N 9258   1.425   2.538   9.806 -0.7213 -0.1390 -0.5640
  621MPD2    H5 9259   1.524   2.560   9.793 -0.6345  0.0970  0.4853
  621MPD2    N1 9260   1.069   2.210   9.764  0.4932 -0.5432  0.3113
  621MPD2    H7 9261   1.019   2.256   9.839 -0.8553  1.5079 -1.8583
  622TMC3    C1 9262   0.871   2.083   9.759 -0.5153  0.0288  0.1826
  622TMC3    C2 9263   0.848   2.071   9.893 -0.1352 -0.0137 -0.3799
  622TMC3    C3 9264   0.721   2.071   9.943  0.7708  0.1593 -0.3248
  622TMC3    C4 9265   0.761   2.079   9.677 -0.0282 -0.6844 -0.1432
  622TMC3    C5 9266   0.640   2.057   9.731  0.3876 -0.6666 -0.6088
  622TMC3    C6 9267   0.611   2.063   9.863  0.0131  0.0659 -0.2736
  622TMC3     C 9268   1.001   2.102   9.708 -0.5993  0.3251 -0.6164
  622TMC3     O 9269   1.016   2.052   9.596  0.0782  0.0541  0.1778
  622TMC3     H 9270   0.939   2.059   9.950 -0.7096  0.8903  0.7049
  622TMC3    H1 9271   0.778   2.072   9.570 -2.1044 -0.8200 -0.4658
  622TMC3    H2 9272   0.511   2.040   9.896 -0.6492  3.0831 -0.1560
  622TMC3    C7 9273   0.528   2.045   9.650 -0.4515  0.8443 -0.9027
  622TMC3    C8 9274   0.712   2.018  10.073  0.2298 -0.9336  0.7634
  622TMC3    O1 9275   0.417   2.066   9.704  0.4500 -0.0827 -0.5277
  622TMC3    O2 9276   0.809   1.966  10.125 -0.6846  0.2387 -0.1371
  623MPD2     C 9277   4.590   2.456  15.719  0.4327 -0.8141 -0.2421
  623MPD2    C1 9278   4.515   2.410  15.820 -0.4828  0.8466  0.5960
  623MPD2    C2 9279   4.578   2.384  15.945  0.1427 -0.1811  0.1216
  623MPD2    C3 9280   4.713   2.401  15.963 -0.9116  0.8420  0.3448
  623MPD2    C4 9281   0.054   2.445  15.856  0.7784 -0.2525  0.8808
  623MPD2    C5 9282   4.727   2.473  15.736  0.2324  0.0926  0.1159
  623MPD2     H 9283   4.522   2.336  16.024  2.0162 -0.1402  1.4588
  623MPD2    H1 9284   0.162   2.449  15.864  0.8695  3.0513 -1.9853
  623MPD2    H2 9285   4.541   2.478  15.625  0.7013  1.1549  0.0714
  623MPD2    H3 9286   0.052   2.491  15.647 -1.0566  1.7395 -0.4244
  623MPD2     N 9287   0.026   2.371  16.098  0.6489 -0.3567 -0.9662
  623MPD2    H5 9288   4.697   2.324  16.159  0.8840  0.0607 -0.3951
  623MPD2    N1 9289   4.372   2.414  15.829  0.1338  0.0261  0.0768
  623MPD2    H7 9290   4.323   2.400  15.917 -0.8613  0.4291 -0.4082
  624TMC3    C1 9291   0.287   2.383  16.484 -0.1490  0.4031  0.1983
  624TMC3    C2 9292   0.204   2.295  16.548  0.1399  0.0528  0.4667
  624TMC3    C3 9293   0.096   2.246  16.484 -0.1080  0.2703 -1.0938
  624TMC3    C4 9294   0.262   2.417  16.349 -1.4587 -0.3562 -0.4243
  624TMC3    C5 9295   0.166   2.351  16.283  0.3705  0.6587  0.3032
  624TMC3    C6 9296   0.073   2.274  16.349  0.1334 -0.5360 -0.5587
  624TMC3     C 9297   0.427   2.384  16.533  0.6117  0.7088  0.6347
  624TMC3     O 9298   0.494   2.481  16.495 -0.3021 -0.2558 -0.0193
  624TMC3     H 9299   0.224   2.261  16.649  0.6646  1.2985  0.7792
  624TMC3    H1 9300   0.336   2.481  16.303  2.3135 -0.6089  5.2233
  624TMC3    H2 9301   4.726   2.226  16.297 -1.0741 -0.6442  1.4536
  624TMC3    C7 9302   0.140   2.419  16.154 -0.4464  0.3359  0.1393
  624TMC3    C8 9303   4.712   2.255  16.562  0.2878 -0.9209 -0.5889
  624TMC3    O1 9304   0.222   2.495  16.109 -0.1472  0.1260 -0.1645
  624TMC3    O2 9305   4.622   2.178  16.532 -0.1819  0.2938  0.3917
  625MPD2     C 9306   0.939   4.242   1.167  0.2749  0.4752  0.6885
  625MPD2    C1 9307   0.945   4.339   1.081 -1.1365 -0.1292 -0.2023
  625MPD2    C2 9308   1.072   4.370   1.035  0.0494 -0.5433 -0.0137
  625MPD2    C3 9309   1.189   4.306   1.073 -0.0567 -0.3349 -0.5970
  625MPD2    C4 9310   1.176   4.217   1.176  0.2846 -0.3707 -0.4296
  625MPD2    C5 9311   1.055   4.190   1.225 -0.1504  0.0503 -0.1479
  625MPD2     H 9312   1.096   4.449   0.965  0.1462  1.2739  2.0833
  625MPD2    H1 9313   1.263   4.167   1.218  0.4214 -1.5441 -2.1096
  625MPD2    H2 9314   0.848   4.215   1.219 -0.0479 -0.3405 -0.3142
  625MPD2    H3 9315   1.052   4.121   1.308 -1.1065  1.0931  0.6659
  625MPD2     N 9316   1.313   4.339   1.011 -0.0370 -0.1998  0.1167
  625MPD2    H5 9317   1.301   4.393   0.925  0.8943  0.3059  0.2969
  625MPD2    N1 9318   0.824   4.406   1.040  0.5675  0.4518  0.1296
  625MPD2    H7 9319   0.830   4.495   0.991  2.1630  0.4683  0.3767
  626TMC3    C1 9320   0.617   4.434   0.946 -0.8256 -0.6061  0.5154
  626TMC3    C2 9321   0.559   4.371   0.839  0.9580  0.2473 -0.2911
  626TMC3    C3 9322   0.448   4.426   0.785  0.1368 -0.0272 -0.0369
  626TMC3    C4 9323   0.571   4.549   1.002  0.0711  0.4350  0.0428
  626TMC3    C5 9324   0.456   4.597   0.948  0.0218  0.2900  0.0468
  626TMC3    C6 9325   0.389   4.540   0.841  0.2188  0.1439  0.2426
  626TMC3     C 9326   0.701   4.347   1.031 -0.7539 -0.3468  0.3233
  626TMC3     O 9327   0.678   4.229   1.023  0.3403 -0.2109  0.0671
  626TMC3     H 9328   0.600   4.283   0.791 -0.9766 -0.5068 -0.5517
  626TMC3    H1 9329   0.612   4.593   1.092  1.2484  1.5931 -1.0618
  626TMC3    H2 9330   0.304   4.593   0.799  1.4903  2.4093  0.5165
  626TMC3    C7 9331   0.373   4.677   1.031  0.3515 -0.4419  0.3983
  626TMC3    C8 9332   0.381   4.344   0.682 -0.1074  0.2019 -0.4168
  626TMC3    O1 9333   0.431   4.716   1.131  0.0630 -0.1319  0.3275
  626TMC3    O2 9334   0.410   4.225   0.675  0.2978  0.0967 -0.0743
  627MPD2     C 9335   3.819   3.927  13.743 -0.3301 -0.1198 -0.0902
  627MPD2    C1 9336   3.764   3.993  13.852 -0.1045 -0.2386 -0.9642
  627MPD2    C2 9337   3.629   3.984  13.890  0.2276  0.0146 -0.1840
  627MPD2    C3 9338   3.553   3.893  13.827  0.1974 -0.5483 -0.1335
  627MPD2    C4 9339   3.607   3.812  13.724  0.4434  0.5604  0.5831
  627MPD2    C5 9340   3.734   3.839  13.684  0.4310 -0.3345  0.2206
  627MPD2     H 9341   3.591   4.043  13.973 -0.3048  0.3617 -0.6723
  627MPD2    H1 9342   3.553   3.739  13.665  2.5681 -1.5413  1.2286
  627MPD2    H2 9343   3.921   3.939  13.708  0.1111 -2.2573  0.4889
  627MPD2    H3 9344   3.782   3.778  13.608  0.4931  1.0769 -0.8577
  627MPD2     N 9345   3.432   3.877  13.887 -0.2251  0.4051  0.3904
  627MPD2    H5 9346   3.408   3.948  13.955 -2.5508  0.8196 -0.8534
  627MPD2    N1 9347   3.841   4.081  13.938 -0.1181 -0.0198  0.2505
  627MPD2    H7 9348   3.785   4.128  14.009 -0.6023 -0.6676  0.3000
  628TMC3    C1 9349   4.022   4.165  14.057  0.8731 -0.1502 -0.3117
  628TMC3    C2 9350   4.124   4.107  14.131 -0.3430 -0.0800 -0.5945
  628TMC3    C3 9351   4.155   4.165  14.253 -0.7373  0.4513 -0.8712
  628TMC3    C4 9352   3.956   4.272  14.108 -0.3126  0.2603 -0.5413
  628TMC3    C5 9353   3.994   4.324  14.233  0.0889 -0.2277 -0.3217
  628TMC3    C6 9354   4.082   4.269  14.312  0.5981 -0.5436 -0.2341
  628TMC3     C 9355   3.977   4.093  13.940 -0.1796  0.3211  0.5230
  628TMC3     O 9356   4.059   4.023  13.882 -0.1304 -0.3728 -0.6802
  628TMC3     H 9357   4.185   4.026  14.094 -0.6694 -0.3126 -0.6139
  628TMC3    H1 9358   3.871   4.315  14.056  0.0037 -0.1100 -1.3602
  628TMC3    H2 9359   4.127   4.336  14.384  0.8803 -0.0295 -0.8900
  628TMC3    C7 9360   3.954   4.458  14.273 -0.3993 -0.6600  0.3183
  628TMC3    C8 9361   4.273   4.127  14.326  0.0998  0.2880  0.3665
  628TMC3    O1 9362   3.954   4.487  14.392  0.5979 -0.0035 -0.3452
  628TMC3    O2 9363   4.374   4.098  14.260 -0.4831 -0.6790 -0.4211
  629MPD2     C 9364   2.286   2.339  16.501 -0.2647 -0.3880  0.6663
  629MPD2    C1 9365   2.212   2.452  16.530 -0.5114 -0.7311  0.5658
  629MPD2    C2 9366   2.082   2.460  16.490 -0.2340 -0.2578  0.5852
  629MPD2    C3 9367   2.025   2.360  16.410 -0.1806 -0.2574  0.6920
  629MPD2    C4 9368   2.102   2.250  16.383 -0.0252  0.1599  0.3097
  629MPD2    C5 9369   2.235   2.238  16.424 -0.7369 -0.4595  0.7489
  629MPD2     H 9370   2.021   2.545  16.517 -2.1089 -0.9425 -1.5318
  629MPD2    H1 9371   2.062   2.167  16.325  0.2462 -0.0068  0.3596
  629MPD2    H2 9372   2.389   2.327  16.533 -0.3169  0.4164  1.1279
  629MPD2    H3 9373   2.301   2.153  16.406 -0.7124  0.0336 -1.4896
  629MPD2     N 9374   1.888   2.380  16.384  0.3431  0.7362  0.1647
  629MPD2    H5 9375   1.842   2.465  16.415 -1.2839 -0.1062  0.0513
  629MPD2    N1 9376   2.268   2.554  16.610 -0.1422  0.5075 -0.0017
  629MPD2    H7 9377   2.359   2.524  16.643  0.2291  1.1053 -0.4825
  630TMC3    C1 9378   2.296   2.756  16.720  0.3266  0.3222 -0.2317
  630TMC3    C2 9379   2.327   2.882  16.685  0.2184 -0.6200  0.0157
  630TMC3    C3 9380   2.383   2.969  16.776  0.5141  0.1837  0.0989
  630TMC3    C4 9381   2.323   2.717  16.846 -0.0676  0.0727  0.1527
  630TMC3    C5 9382   2.370   2.803  16.938 -0.1362  0.6456  0.3562
  630TMC3    C6 9383   2.405   2.934  16.910 -0.5174 -0.3173 -0.2105
  630TMC3     C 9384   2.220   2.680  16.627  0.0505 -0.0208 -1.0933
  630TMC3     O 9385   2.131   2.746  16.568  0.3273 -0.4334  0.2031
  630TMC3     H 9386   2.307   2.922  16.586  2.2645 -0.5398 -0.3567
  630TMC3    H1 9387   2.291   2.617  16.873 -0.3749 -0.1225 -0.9379
  630TMC3    H2 9388   2.417   3.008  16.988 -1.7974  0.7432 -1.0235
  630TMC3    C7 9389   2.311   2.785  17.064 -0.2561  0.3774 -0.0057
  630TMC3    C8 9390   2.417   3.108  16.747 -0.0495  0.4418  0.3425
  630TMC3    O1 9391   2.209   2.715  17.067 -0.2765 -0.1501  0.7011
  630TMC3    O2 9392   2.457   3.174  16.845 -0.2324  0.5487 -0.3433
  631MPD2     C 9393   0.068   2.917  15.744  0.0672  0.3613  0.3627
  631MPD2    C1 9394   0.136   2.975  15.640 -0.4666  0.7393 -0.0339
  631MPD2    C2 9395   0.254   2.922  15.614 -0.5853 -0.1186 -0.4929
  631MPD2    C3 9396   0.309   2.816  15.685 -0.7412 -0.1511  0.2073
  631MPD2    C4 9397   0.236   2.759  15.785  0.3528 -0.1976  0.3705
  631MPD2    C5 9398   0.112   2.807  15.815  0.1530  0.2793  0.2616
  631MPD2     H 9399   0.309   2.973  15.536  1.0579  2.0824  2.1077
  631MPD2    H1 9400   0.266   2.671  15.840 -0.6114 -1.1018 -0.5506
  631MPD2    H2 9401   4.697   2.930  15.762  0.7640  3.1268  2.5334
  631MPD2    H3 9402   0.046   2.743  15.873 -0.1804  1.5543  1.2858
  631MPD2     N 9403   0.433   2.768  15.649 -0.6132  0.0076 -0.0798
  631MPD2    H5 9404   0.489   2.817  15.580 -3.1796 -0.2907 -2.3628
  631MPD2    N1 9405   0.092   3.089  15.570  0.3399  0.4692 -0.4218
  631MPD2    H7 9406   0.141   3.099  15.482  1.5333  0.1935  0.2147
  632TMC3    C1 9407   4.679   3.257  15.508  0.0983 -0.2682  0.0611
  632TMC3    C2 9408   4.548   3.294  15.500  0.0842  0.3030 -0.0722
  632TMC3    C3 9409   4.519   3.383  15.395  0.5647 -0.2474 -0.1015
  632TMC3    C4 9410   0.035   3.290  15.410  0.0632 -0.2622 -0.2232
  632TMC3    C5 9411   4.734   3.385  15.318  0.2102  0.3519  0.6380
  632TMC3    C6 9412   4.612   3.433  15.304 -0.2711 -0.1676 -0.9951
  632TMC3     C 9413   4.717   3.160  15.603  0.5928  0.1669 -0.2672
  632TMC3     O 9414   4.643   3.138  15.695  0.2893  0.2345  0.6381
  632TMC3     H 9415   4.469   3.295  15.575 -0.7790  0.4999 -0.9907
  632TMC3    H1 9416   0.138   3.258  15.404 -0.2686 -0.7380 -3.5552
  632TMC3    H2 9417   4.584   3.513  15.237 -0.9010 -0.0816 -0.6329
  632TMC3    C7 9418   0.089   3.415  15.214  0.3739  0.2693 -0.2717
  632TMC3    C8 9419   4.382   3.423  15.381 -0.4675  0.3651  0.3170
  632TMC3    O1 9420   0.040   3.407  15.106  0.1520 -0.0559  0.1180
  632TMC3    O2 9421   4.318   3.434  15.484  0.0698 -0.2711 -0.0962
  633MPD2     C 9422   0.388   1.192  17.573 -0.8039 -0.3126 -0.2287
  633MPD2    C1 9423   0.335   1.105  17.485 -0.4819  0.5041 -0.4928
  633MPD2    C2 9424   0.279   0.988  17.530 -0.6320  0.5661 -0.0691
  633MPD2    C3 9425   0.292   0.947  17.662  0.1290  0.1805 -0.0160
  633MPD2    C4 9426   0.352   1.032   0.009 -0.3901 -0.2917  0.3359
  633MPD2    C5 9427   0.397   1.152  17.706 -0.4121 -0.1589  0.0882
  633MPD2     H 9428   0.228   0.921  17.461 -0.6764  0.7134 -0.1804
  633MPD2    H1 9429   0.336   1.025   0.116  3.1391  2.7821  1.0540
  633MPD2    H2 9430   0.430   1.289  17.548 -0.2621 -0.9067 -1.6147
  633MPD2    H3 9431   0.431   1.231   0.030 -0.8417  1.1335 -1.2244
  633MPD2     N 9432   0.253   0.824  17.714  0.4513 -0.3379  0.7278
  633MPD2    H5 9433   0.281   0.803   0.068  1.3448  1.4462  0.8722
  633MPD2    N1 9434   0.331   1.142  17.348  0.6841  0.1305  0.7425
  633MPD2    H7 9435   0.302   1.071  17.282 -1.0060  0.7685  0.8038
  634TMC3    C1 9436   0.366   1.274  17.156 -0.0473 -0.3106 -0.6827
  634TMC3    C2 9437   0.377   1.151  17.091 -0.2297 -0.0535  0.0118
  634TMC3    C3 9438   0.336   1.134  16.967 -0.3962 -0.0425  0.2171
  634TMC3    C4 9439   0.316   1.384  17.091  0.2709  0.1492 -0.3554
  634TMC3    C5 9440   0.282   1.367  16.956  0.5902 -0.7541 -0.1982
  634TMC3    C6 9441   0.282   1.241  16.899  0.9890 -0.0061 -0.0140
  634TMC3     C 9442   0.369   1.266  17.295  0.3254  0.0265 -0.4767
  634TMC3     O 9443   0.382   1.372  17.349 -0.0692  0.1519 -0.1151
  634TMC3     H 9444   0.426   1.069  17.144  0.9639  0.7588  0.1636
  634TMC3    H1 9445   0.296   1.479  17.140 -0.0508 -0.8177  1.3986
  634TMC3    H2 9446   0.244   1.225  16.798  0.4438 -1.2017  0.3856
  634TMC3    C7 9447   0.237   1.471  16.871 -0.0598 -0.3890 -0.4320
  634TMC3    C8 9448   0.355   1.004  16.898  0.0569 -0.4887 -0.3631
  634TMC3    O1 9449   0.237   1.446  16.751  0.3452  0.1445 -0.1880
  634TMC3    O2 9450   0.411   0.915  16.961 -0.4153 -0.1210  0.4338
  635TMC3    C1 9451   0.950   2.081  17.728  0.0528 -0.0401  0.2139
  635TMC3    C2 9452   0.885   2.060  17.614 -0.5379  0.3932  0.2742
  635TMC3    C3 9453   0.890   1.935  17.557 -0.2254  0.6284  0.4844
  635TMC3    C4 9454   1.033   1.984   0.041  0.8308 -0.4456  0.3691
  635TMC3    C5 9455   1.021   1.852  17.735 -0.5961 -0.2016 -0.5440
  635TMC3    C6 9456   0.950   1.831  17.625  0.1318  0.3497 -0.3542
  635TMC3     C 9457   0.967   2.212   0.041 -0.2032  0.0085 -0.8402
  635TMC3     O 9458   1.064   2.236   0.112  0.1152 -0.4971  0.1973
  635TMC3     H 9459   0.837   2.141  17.560  0.9019 -0.1260 -1.7665
  635TMC3    H1 9460   1.094   2.015   0.125  0.0101  0.3407  0.6881
  635TMC3    H2 9461   0.937   1.736  17.574 -0.1355  0.6933 -0.9307
  635TMC3    C7 9462   1.092   1.736   0.049  0.2644 -0.4101  0.5788
  635TMC3    C8 9463   0.824   1.928  17.418 -0.3094  0.1612  0.0975
  635TMC3    O1 9464   1.119   1.640  17.715 -0.0541 -0.3899 -0.7023
  635TMC3    O2 9465   0.742   2.016  17.387 -0.4766 -0.0732 -0.6393
  636MPD2     C 9466   1.298   1.191  16.051 -0.3171  0.6277 -0.0574
  636MPD2    C1 9467   1.366   1.209  16.166 -0.7003  0.5923  1.6059
  636MPD2    C2 9468   1.428   1.098  16.224  0.8448 -0.7697 -0.5460
  636MPD2    C3 9469   1.413   0.978  16.167 -0.0020  0.1186  0.2462
  636MPD2    C4 9470   1.340   0.962  16.053 -0.0615  0.1047 -0.5224
  636MPD2    C5 9471   1.272   1.072  15.999 -0.5019 -0.2578  0.0964
  636MPD2     H 9472   1.475   1.103  16.322  1.6840 -0.2909 -0.9706
  636MPD2    H1 9473   1.314   0.869  16.004 -1.1786 -0.2988  0.8141
  636MPD2    H2 9474   1.259   1.275  15.996  2.3572  1.1097 -1.2060
  636MPD2    H3 9475   1.210   1.066  15.911 -2.4444  1.4913  1.3647
  636MPD2     N 9476   1.467   0.864  16.232 -0.1045  0.4713 -0.5430
  636MPD2    H5 9477   1.522   0.883  16.315 -1.2422  0.1757  0.2728
  636MPD2    N1 9478   1.380   1.331  16.231  0.3390 -0.1593 -0.0021
  636MPD2    H7 9479   1.445   1.325  16.309  0.4934  0.4578 -0.0867
  637TMC3    C1 9480   1.512   0.641  16.304  0.3197  0.0962 -0.0229
  637TMC3    C2 9481   1.543   0.700  16.433 -0.0601  0.5340 -0.1181
  637TMC3    C3 9482   1.664   0.672  16.490  0.2333  0.5692 -0.4052
  637TMC3    C4 9483   1.608   0.553  16.247 -0.0907  0.0249 -0.0357
  637TMC3    C5 9484   1.731   0.545  16.302  0.6295 -0.5640  0.5357
  637TMC3    C6 9485   1.759   0.597  16.430  0.4181  0.3296 -0.0971
  637TMC3     C 9486   1.451   0.727  16.210 -0.7594  0.0609  0.4732
  637TMC3     O 9487   1.395   0.668  16.122  0.1438 -0.0273 -0.0078
  637TMC3     H 9488   1.472   0.762  16.486  1.8693  1.9617  0.7853
  637TMC3    H1 9489   1.592   0.535  16.141  2.1854  1.3255 -0.6083
  637TMC3    H2 9490   1.859   0.584  16.468  0.6893  1.9573 -0.2670
  637TMC3    C7 9491   1.834   0.566  16.203  0.7234  0.0784  0.3951
  637TMC3    C8 9492   1.716   0.784  16.563  0.5350  0.3831  0.2706
  637TMC3    O1 9493   1.812   0.530  16.088 -0.1144  0.1596 -0.3283
  637TMC3    O2 9494   1.664   0.891  16.535  0.4510 -0.1652  0.1531
  638MPD2     C 9495   0.754   0.038  14.850 -0.0825 -0.9394  0.0252
  638MPD2    C1 9496   0.822   4.659  14.869 -0.3624 -0.1400 -0.3875
  638MPD2    C2 9497   0.801   4.581  14.984 -0.3868  0.3117  0.3412
  638MPD2    C3 9498   0.693   4.595  15.064 -0.4135  0.3295  0.1336
  638MPD2    C4 9499   0.611   4.705  15.033  0.1128  0.3997  0.0014
  638MPD2    C5 9500   0.648   0.060  14.934 -0.3158 -0.8689  0.2359
  638MPD2     H 9501   0.869   4.497  14.999 -1.2911 -0.2336  1.4491
  638MPD2    H1 9502   0.534   4.735  15.104  1.5626 -0.6648  2.0046
  638MPD2    H2 9503   0.787   0.111  14.777 -0.6802 -0.3228  0.3794
  638MPD2    H3 9504   0.598   0.156  14.935 -0.2584 -0.8240 -1.3867
  638MPD2     N 9505   0.664   4.514  15.175 -0.0403  0.9542  0.3809
  638MPD2    H5 9506   0.741   4.450  15.189 -1.6426 -0.8074  1.0798
  638MPD2    N1 9507   0.923   4.623  14.777 -0.3769  0.2866  0.7529
  638MPD2    H7 9508   0.972   4.535  14.787  0.3173  0.3130 -2.4200
  639TMC3    C1 9509   0.560   4.389  15.343 -0.7301  0.4170  0.2659
  639TMC3    C2 9510   0.431   4.336  15.351  0.8140 -0.0559 -0.3321
  639TMC3    C3 9511   0.418   4.207  15.397  0.3705  0.2844 -0.2930
  639TMC3    C4 9512   0.673   4.321  15.380 -0.0315  0.0644  0.1713
  639TMC3    C5 9513   0.653   4.196  15.419 -0.2347 -0.4793  0.2017
  639TMC3    C6 9514   0.528   4.141  15.444 -0.1545  0.3890  0.1644
  639TMC3     C 9515   0.553   4.514  15.258  0.4814  0.0360 -0.2913
  639TMC3     O 9516   0.448   4.581  15.250  0.5321  0.2194 -0.0213
  639TMC3     H 9517   0.346   4.398  15.325  1.0257  0.0911 -0.6820
  639TMC3    H1 9518   0.776   4.353  15.374 -0.7421  1.4249 -5.4275
  639TMC3    H2 9519   0.530   4.036  15.470  0.7313  0.5307  0.6860
  639TMC3    C7 9520   0.764   4.110  15.458  0.3766 -0.1406  0.2138
  639TMC3    C8 9521   0.347   4.125  15.302  0.0902 -0.6356 -0.1496
  639TMC3    O1 9522   0.749   4.033  15.552  0.0746 -0.0982 -0.3256
  639TMC3    O2 9523   0.371   4.007  15.298 -0.0210 -0.5672  0.9550
  640MPD2     C 9524   0.372   2.715   9.364  0.2947 -0.0324 -0.5737
  640MPD2    C1 9525   0.480   2.798   9.401 -0.3347  0.2530 -0.2750
  640MPD2    C2 9526   0.449   2.909   9.486  0.3522  0.0189 -0.1038
  640MPD2    C3 9527   0.318   2.931   9.523 -0.2454 -0.3603  0.1235
  640MPD2    C4 9528   0.214   2.845   9.492 -0.7358  0.6960  0.5829
  640MPD2    C5 9529   0.237   2.741   9.400 -0.5400  0.2011  0.1577
  640MPD2     H 9530   0.530   2.972   9.521  1.4895 -1.6079  0.2285
  640MPD2    H1 9531   0.113   2.869   9.522 -0.5012  0.0746  1.8690
  640MPD2    H2 9532   0.397   2.625   9.310  0.1980 -0.3666 -0.0516
  640MPD2    H3 9533   0.162   2.666   9.377 -0.5940  0.9459 -2.0673
  640MPD2     N 9534   0.278   3.050   9.589 -0.4998  0.4199  0.1380
  640MPD2    H5 9535   0.179   3.060   9.608 -0.4799  0.9516 -0.0402
  640MPD2    N1 9536   0.618   2.762   9.375  0.2855  0.0720  0.6734
  640MPD2    H7 9537   0.634   2.688   9.307 -1.4203  0.1752  0.1524
  641TMC3    C1 9538   0.855   2.773   9.361 -0.1797 -0.2922  0.5883
  641TMC3    C2 9539   0.975   2.803   9.426 -0.1846  0.5275 -0.1925
  641TMC3    C3 9540   1.087   2.743   9.381  0.4767 -0.6302  0.9444
  641TMC3    C4 9541   0.847   2.676   9.263  0.6999  0.0166  0.5666
  641TMC3    C5 9542   0.959   2.614   9.225 -0.1490 -0.4020 -0.0802
  641TMC3    C6 9543   1.077   2.642   9.287  0.1364  0.3023 -0.3724
  641TMC3     C 9544   0.734   2.826   9.421  0.4838  0.2011  0.0417
  641TMC3     O 9545   0.743   2.919   9.498  0.2774 -0.3599 -0.1894
  641TMC3     H 9546   0.977   2.880   9.502  2.4294  0.2397  0.0205
  641TMC3    H1 9547   0.756   2.648   9.211  0.9344 -0.5456  0.4579
  641TMC3    H2 9548   1.166   2.586   9.260  1.8291  2.3294  1.0470
  641TMC3    C7 9549   0.947   2.508   9.128  0.1421  0.0253 -0.2191
  641TMC3    C8 9550   1.211   2.788   9.433  0.3431 -0.3352  0.5221
  641TMC3    O1 9551   0.835   2.467   9.102 -0.2549  0.2220 -0.0084
  641TMC3    O2 9552   1.301   2.756   9.359  0.3237 -0.0170  0.3004
  642TMC3    C1 9553   3.246   4.011  12.486  0.6392 -0.8625 -0.0630
  642TMC3    C2 9554   3.363   3.937  12.493 -0.8525  0.3718  0.3716
  642TMC3    C3 9555   3.348   3.800  12.496  0.2721  0.0611 -0.2798
  642TMC3    C4 9556   3.120   3.953  12.462  0.0138  0.2701 -0.8707
  642TMC3    C5 9557   3.114   3.811  12.462  0.0882  0.0163  0.3980
  642TMC3    C6 9558   3.230   3.739  12.473  0.0632  0.1173 -0.6316
  642TMC3     C 9559   3.260   4.154  12.476 -0.6312  0.3276 -0.7797
  642TMC3     O 9560   3.370   4.197  12.430 -0.3115 -0.0730 -0.5764
  642TMC3     H 9561   3.461   3.976  12.518 -0.8488  0.4393  0.2530
  642TMC3    H1 9562   3.027   4.006  12.440 -0.0678 -0.2900 -1.8354
  642TMC3    H2 9563   3.239   3.631  12.466 -3.4626 -0.4558  3.2334
  642TMC3    C7 9564   2.991   3.750  12.414  0.1245 -0.1899  0.7094
  642TMC3    C8 9565   3.457   3.716  12.552 -0.6884 -0.2329 -0.0310
  642TMC3    O1 9566   2.912   3.821  12.352 -0.3921 -0.6465 -0.4500
  642TMC3    O2 9567   3.575   3.754  12.534 -0.2212  0.4025 -0.6351
  643TMC3    C1 9568   2.046   3.546   0.183 -0.3644 -0.7991 -0.4919
  643TMC3    C2 9569   1.912   3.546   0.173  0.3940 -0.4299  0.2243
  643TMC3    C3 9570   1.856   3.495   0.056  0.3431 -0.3300 -0.0814
  643TMC3    C4 9571   2.127   3.477   0.088 -0.2704 -0.0570 -0.4275
  643TMC3    C5 9572   2.068   3.418  17.717 -0.0112  0.3591  0.4893
  643TMC3    C6 9573   1.934   3.435  17.697 -0.4718 -0.2687 -0.2719
  643TMC3     C 9574   2.104   3.647   0.264 -0.2626 -0.2775  0.2317
  643TMC3     O 9575   2.039   3.748   0.295  0.2031 -0.2584 -0.6738
  643TMC3     H 9576   1.853   3.613   0.236  1.4693 -0.7179  1.5510
  643TMC3    H1 9577   2.234   3.483   0.102 -0.4521  0.3932  0.7609
  643TMC3    H2 9578   1.886   3.393  17.609  2.3443  0.3195 -2.1100
  643TMC3    C7 9579   2.148   3.439  17.602  0.0905 -0.2220  0.4118
  643TMC3    C8 9580   1.764   3.591   0.001  0.2756 -0.6505 -0.5610
  643TMC3    O1 9581   2.202   3.547  17.591  0.3955  0.3268  0.3861
  643TMC3    O2 9582   1.656   3.556  17.699  0.5743  0.6962  0.3488
  644MPD2     C 9583   1.495   3.425   9.974 -0.7847  0.1192 -0.7167
  644MPD2    C1 9584   1.512   3.374   9.848  0.6812 -0.3236 -1.2308
  644MPD2    C2 9585   1.401   3.369   9.770 -0.2680  0.3266  0.1054
  644MPD2    C3 9586   1.275   3.410   9.812 -0.0377  0.6076 -0.2182
  644MPD2    C4 9587   1.257   3.442   9.946 -0.4777  0.5506  0.2035
  644MPD2    C5 9588   1.371   3.451  10.026  0.6392 -0.3637 -0.2165
  644MPD2     H 9589   1.401   3.329   9.669 -1.5065  1.6387 -0.4158
  644MPD2    H1 9590   1.158   3.474   9.978 -1.7966 -3.5317  0.2567
  644MPD2    H2 9591   1.587   3.439  10.028 -0.9530  1.0081 -0.6498
  644MPD2    H3 9592   1.359   3.494  10.125 -2.0040 -0.4245 -0.5206
  644MPD2     N 9593   1.166   3.409   9.720  0.8971  0.3676 -0.3919
  644MPD2    H5 9594   1.190   3.372   9.629  2.8235  1.2341 -0.2415
  644MPD2    N1 9595   1.642   3.337   9.810  0.2412  0.2903  0.0505
  644MPD2    H7 9596   1.711   3.345   9.884  0.8166 -0.9865 -0.3353
  645TMC3    C1 9597   0.943   3.405   9.635  0.5210 -0.1744  0.3238
  645TMC3    C2 9598   0.823   3.459   9.634  0.0902  0.1016  0.8936
  645TMC3    C3 9599   0.740   3.430   9.531  0.5707 -0.3036  0.3806
  645TMC3    C4 9600   0.981   3.309   9.539 -0.2663  0.2618 -0.7338
  645TMC3    C5 9601   0.895   3.278   9.444  0.7808  0.3081  0.4216
  645TMC3    C6 9602   0.777   3.346   9.425  0.3326  0.2886 -0.1218
  645TMC3     C 9603   1.036   3.447   9.744 -0.5817  0.0121 -0.5776
  645TMC3     O 9604   0.989   3.530   9.824 -0.6132 -0.6023 -0.2152
  645TMC3     H 9605   0.784   3.531   9.704 -1.5389 -0.2534  0.3665
  645TMC3    H1 9606   1.071   3.249   9.543 -0.6978 -0.3851 -0.6955
  645TMC3    H2 9607   0.727   3.344   9.329  0.3500 -0.8112 -0.1020
  645TMC3    C7 9608   0.932   3.164   9.355 -0.7615  1.2205 -0.5233
  645TMC3    C8 9609   0.618   3.512   9.519  0.4342  0.4980 -0.1541
  645TMC3    O1 9610   1.045   3.120   9.359  0.2314  0.0436 -0.3184
  645TMC3    O2 9611   0.614   3.621   9.570 -0.7574 -0.2224 -1.0299
  646MPD2     C 9612   1.214   3.634  14.776 -0.6144 -0.0725 -0.3501
  646MPD2    C1 9613   1.095   3.570  14.828 -0.4834  0.2816 -0.3719
  646MPD2    C2 9614   0.977   3.641  14.829  0.0221  0.4731  0.2282
  646MPD2    C3 9615   0.978   3.768  14.775 -0.5756  0.1642 -0.0226
  646MPD2    C4 9616   1.092   3.836  14.725  0.1280  0.3207  0.1748
  646MPD2    C5 9617   1.205   3.762  14.725  0.4060  0.2597 -0.2984
  646MPD2     H 9618   0.887   3.593  14.865 -0.2811  0.1510 -0.9769
  646MPD2    H1 9619   1.093   3.932  14.676 -1.5366 -0.0896 -0.6528
  646MPD2    H2 9620   1.310   3.584  14.766 -0.8350 -0.6125  0.2025
  646MPD2    H3 9621   1.296   3.807  14.687 -0.0626  1.1601 -0.3377
  646MPD2     N 9622   0.850   3.815  14.753 -0.2864 -0.2432 -0.5007
  646MPD2    H5 9623   0.773   3.753  14.776  1.3071 -1.9138  0.3230
  646MPD2    N1 9624   1.106   3.441  14.883  0.0855 -0.0178  0.3490
  646MPD2    H7 9625   1.193   3.390  14.875  1.4206  2.1080  1.2168
  647TMC3    C1 9626   1.046   3.269  15.036 -0.5656 -0.8410 -1.2103
  647TMC3    C2 9627   1.017   3.263  15.175  0.7125 -0.4644  0.4942
  647TMC3    C3 9628   1.093   3.188  15.254  0.0005  0.5521 -0.8703
  647TMC3    C4 9629   1.151   3.202  14.990  0.1001  0.6763 -0.4789
  647TMC3    C5 9630   1.223   3.130  15.079  0.0382  0.4858  0.0458
  647TMC3    C6 9631   1.198   3.113  15.208 -0.2463 -0.2796 -0.3599
  647TMC3     C 9632   1.008   3.388  14.969  0.0877  0.2603 -0.7526
  647TMC3     O 9633   0.903   3.433  15.017  0.5104 -0.3088 -0.2982
  647TMC3     H 9634   0.948   3.333  15.221 -0.3601 -1.5072  0.4866
  647TMC3    H1 9635   1.179   3.196  14.885  0.1871 -1.2340 -0.3622
  647TMC3    H2 9636   1.275   3.060  15.263 -0.0641 -1.0160 -1.3331
  647TMC3    C7 9637   1.339   3.057  15.038  0.0704 -1.3868  0.1032
  647TMC3    C8 9638   1.039   3.147  15.385  1.0910  0.4484 -0.0172
  647TMC3    O1 9639   1.440   3.052  15.108  0.0539 -0.1863 -0.4351
  647TMC3    O2 9640   0.983   3.235  15.450  0.0413  0.4605  0.5096
  648TMC3    C1 9641   0.574   0.880  16.128 -0.2444  0.1248 -0.7805
  648TMC3    C2 9642   0.584   0.752  16.086  0.6877 -0.2107 -0.3709
  648TMC3    C3 9643   0.541   0.716  15.961 -0.7808  0.1958 -0.1802
  648TMC3    C4 9644   0.524   0.980  16.049 -0.2167  0.5287  0.4073
  648TMC3    C5 9645   0.478   0.942  15.925  0.1787  0.7516 -0.2300
  648TMC3    C6 9646   0.480   0.809  15.885  0.5110 -0.1645  0.8762
  648TMC3     C 9647   0.581   0.917  16.268  0.0846  0.4860  0.3361
  648TMC3     O 9648   0.516   1.013  16.303 -0.2071  0.2642  0.3512
  648TMC3     H 9649   0.605   0.678  16.163  1.0781 -0.9774 -1.2176
  648TMC3    H1 9650   0.538   1.083  16.080 -4.0077  1.5964 -1.3171
  648TMC3    H2 9651   0.425   0.771  15.799  0.6808  3.3166 -0.7746
  648TMC3    C7 9652   0.362   1.010  15.872  0.0818  0.8579 -0.4146
  648TMC3    C8 9653   0.537   0.583  15.932 -0.5076  0.4112  0.2832
  648TMC3    O1 9654   0.290   0.941  15.811 -0.0927 -0.2456  0.1048
  648TMC3    O2 9655   0.422   0.542  15.897  0.4288  0.2142 -0.3561
  649TMC3    C1 9656   4.633   1.984  12.524  0.1152 -0.3249  0.2477
  649TMC3    C2 9657   4.734   2.026  12.438  0.2157 -0.1563 -0.0343
  649TMC3    C3 9658   0.121   1.980  12.467  0.3888  0.1217 -0.2400
  649TMC3    C4 9659   4.654   1.896  12.628  0.0756  0.2164  0.8598
  649TMC3    C5 9660   0.047   1.860  12.662  0.0091 -0.3811  0.1013
  649TMC3    C6 9661   0.145   1.899  12.575 -0.4117  0.3653 -0.1658
  649TMC3     C 9662   4.495   2.020  12.499  0.2942  0.3971 -0.7893
  649TMC3     O 9663   4.417   2.037  12.591 -0.0676  0.0791  0.1372
  649TMC3     H 9664   4.718   2.105  12.365 -0.1180  0.7964  1.0778
  649TMC3    H1 9665   4.572   1.861  12.690 -0.8130  0.1034 -0.3775
  649TMC3    H2 9666   0.249   1.871  12.588 -0.1881  1.7859  0.9455
  649TMC3    C7 9667   0.066   1.776  12.772  0.2592  0.1801  0.5880
  649TMC3    C8 9668   0.243   2.034  12.400  0.0939 -0.4929  0.2726
  649TMC3    O1 9669   4.695   1.745  12.833  0.2678  0.4373  0.2199
  649TMC3    O2 9670   0.353   2.003  12.452  0.7412 -0.1589 -0.1238
  650TMC3    C1 9671   2.749   3.417  12.815 -0.4038 -0.3392 -0.3307
  650TMC3    C2 9672   2.781   3.527  12.884 -0.4498 -0.6286 -0.2897
  650TMC3    C3 9673   2.677   3.617  12.896 -0.4242 -0.8383 -0.0595
  650TMC3    C4 9674   2.631   3.393  12.748 -0.1250 -0.1363  0.5899
  650TMC3    C5 9675   2.540   3.495  12.751 -0.5690 -1.0300  0.4944
  650TMC3    C6 9676   2.555   3.604  12.830 -0.0768 -0.2040 -0.4770
  650TMC3     C 9677   2.855   3.319  12.799 -0.5363  1.0734  0.0865
  650TMC3     O 9678   2.972   3.358  12.800 -0.2077  0.2136 -0.7202
  650TMC3     H 9679   2.878   3.543  12.928 -0.8465  1.1831 -0.0523
  650TMC3    H1 9680   2.611   3.314  12.677 -0.1568  0.8815 -0.5441
  650TMC3    H2 9681   2.481   3.683  12.835 -1.5399 -1.6745  1.1126
  650TMC3    C7 9682   2.434   3.479  12.651 -0.0917 -0.0535  0.4116
  650TMC3    C8 9683   2.691   3.739  12.980  0.2333  0.0332 -0.4714
  650TMC3    O1 9684   2.399   3.361  12.631  0.2164  0.2123  0.1104
  650TMC3    O2 9685   2.798   3.799  12.992  0.1189  0.5665 -0.2990
  651MPD2     C 9686   0.790   0.484  10.776 -0.2302  0.5055 -0.7570
  651MPD2    C1 9687   0.791   0.621  10.790 -0.0155  0.1737 -0.4659
  651MPD2    C2 9688   0.919   0.679  10.812  0.3264 -0.6320  0.0642
  651MPD2    C3 9689   1.030   0.612  10.854 -0.2047  0.2885  0.3623
  651MPD2    C4 9690   1.022   0.476  10.860 -0.0380 -0.1732  0.0272
  651MPD2    C5 9691   0.904   0.419  10.816  0.2749  0.4851 -0.2537
  651MPD2     H 9692   0.907   0.787  10.813  0.4275 -0.6337  1.8402
  651MPD2    H1 9693   1.108   0.415  10.884 -0.0427  0.1201  0.8033
  651MPD2    H2 9694   0.702   0.428  10.748 -1.1042  0.3436  2.2587
  651MPD2    H3 9695   0.910   0.311  10.809  0.1943  0.3660  1.5464
  651MPD2     N 9696   1.148   0.689  10.873  0.3330 -0.0105 -0.6745
  651MPD2    H5 9697   1.127   0.783  10.841  0.8042  0.8897  1.5876
  651MPD2    N1 9698   0.678   0.704  10.755  0.0663 -0.1257 -0.3290
  651MPD2    H7 9699   0.709   0.798  10.733 -0.6769  0.3205  0.5667
  652TMC3    C1 9700   1.576   0.851  10.903  0.1119  0.3235 -0.3736
  652TMC3    C2 9701   1.485   0.752  10.944 -0.3085  0.0813 -0.0090
  652TMC3    C3 9702   1.355   0.774  10.907  0.7329  0.7413  0.0610
  652TMC3    C4 9703   1.542   0.962  10.834  0.6033  0.0667  0.5998
  652TMC3    C5 9704   1.409   0.983  10.825 -0.4873  0.2866  0.0173
  652TMC3    C6 9705   1.313   0.892  10.847  0.8231  0.6643 -0.4242
  652TMC3     C 9706   1.714   0.804  10.913 -0.3519 -0.3402  0.0418
  652TMC3     O 9707   1.740   0.713  10.990  0.2741  0.4412  0.1655
  652TMC3     H 9708   1.513   0.658  10.989  1.7299  0.1461 -1.1145
  652TMC3    H1 9709   1.620   1.033  10.807 -0.0170  0.4182 -0.2931
  652TMC3    H2 9710   1.207   0.914  10.837  0.9242  0.8044 -1.1979
  652TMC3    C7 9711   1.369   1.095  10.745 -0.9213 -0.2376  0.1223
  652TMC3    C8 9712   1.272   0.653  10.918 -0.1632  0.7328  0.0097
  652TMC3    O1 9713   1.265   1.082  10.680  0.3588  0.2204  0.3045
  652TMC3    O2 9714   1.309   0.548  10.968  0.1350  0.1551 -0.3970
  653MPD2     C 9715   0.150   1.254   0.269 -0.4535 -0.5282 -0.6448
  653MPD2    C1 9716   0.167   1.323   0.154  0.0842 -0.2427 -0.0461
  653MPD2    C2 9717   0.104   1.286   0.040  0.0464  0.7789  0.6117
  653MPD2    C3 9718   0.046   1.159   0.031  0.1277 -0.0473  0.3330
  653MPD2    C4 9719   0.026   1.087   0.145  0.1258  0.3331 -0.8177
  653MPD2    C5 9720   0.079   1.135   0.262  0.0064 -0.3734  0.5770
  653MPD2     H 9721   0.107   1.354  17.697 -0.0119  0.2966  0.2207
  653MPD2    H1 9722   4.715   0.989   0.144 -2.0011  1.3348  1.7671
  653MPD2    H2 9723   0.197   1.274   0.365 -0.9800 -0.8546 -0.3160
  653MPD2    H3 9724   0.062   1.075   0.351  1.3768 -0.7748  0.5683
  653MPD2     N 9725   4.730   1.123  17.647  0.7341 -0.5576 -0.1520
  653MPD2    H5 9726   0.001   1.191  17.571  2.2463 -0.0753  0.4096
  653MPD2    N1 9727   0.228   1.449   0.158 -0.5134 -0.3885 -0.0585
  653MPD2    H7 9728   0.228   1.503   0.072 -2.0070  0.3301  0.4004
  654TMC3    C1 9729   4.603   1.000  17.494 -0.0112 -0.0321 -0.0133
  654TMC3    C2 9730   4.545   1.114  17.454 -0.7252 -0.5622  0.1629
  654TMC3    C3 9731   4.447   1.103  17.357 -0.1433 -0.2332  0.7011
  654TMC3    C4 9732   4.573   0.873  17.444  0.2911  0.3011 -0.2288
  654TMC3    C5 9733   4.486   0.873  17.337  0.1033 -0.2118 -0.3531
  654TMC3    C6 9734   4.424   0.989  17.289 -0.3888  0.0395  0.4049
  654TMC3     C 9735   4.675   1.002  17.622  0.3474 -0.9909 -0.1495
  654TMC3     O 9736   4.666   0.902  17.691  0.2082  0.2587  0.4708
  654TMC3     H 9737   4.572   1.212  17.494 -2.7900 -0.3851  1.0937
  654TMC3    H1 9738   4.626   0.786  17.481 -1.1071 -0.4106  0.0986
  654TMC3    H2 9739   4.354   0.975  17.207 -1.1318 -0.0593  1.0543
  654TMC3    C7 9740   4.396   0.760  17.320 -0.3320 -0.5383 -0.3243
  654TMC3    C8 9741   4.338   1.204  17.356 -1.1378  0.4893 -0.2451
  654TMC3    O1 9742   4.279   0.786  17.302  0.1928  0.2584 -0.3340
  654TMC3    O2 9743   4.247   1.182  17.277 -0.0403 -0.1360 -0.3564
  655MPD2     C 9744   1.060   1.081  15.578  0.1484 -0.0496  0.0053
  655MPD2    C1 9745   1.066   1.218  15.560  0.3473 -1.4040  0.3048
  655MPD2    C2 9746   1.111   1.272  15.436  0.6118  0.0066  0.0463
  655MPD2    C3 9747   1.156   1.188  15.337  0.8206 -0.0317 -0.7623
  655MPD2    C4 9748   1.149   1.049  15.356 -0.0468 -0.3828  0.6601
  655MPD2    C5 9749   1.104   1.002  15.471 -0.4468  0.4383 -0.1532
  655MPD2     H 9750   1.123   1.380  15.431  2.4339 -0.2163 -0.2168
  655MPD2    H1 9751   1.176   0.989  15.270 -2.8552 -0.5027 -0.1543
  655MPD2    H2 9752   1.033   1.036  15.672 -0.1606  1.3666  0.5923
  655MPD2    H3 9753   1.083   0.896  15.478 -2.2652  0.8312  0.5262
  655MPD2     N 9754   1.188   1.234  15.207 -0.3312 -0.5847 -0.1984
  655MPD2    H5 9755   1.203   1.161  15.138  0.7461 -2.3052  1.8655
  655MPD2    N1 9756   1.022   1.309  15.663 -0.5623 -0.0253 -0.0622
  655MPD2    H7 9757   1.044   1.406  15.643  2.0901 -0.3812  1.0817
  656TMC3    C1 9758   0.860   1.393  15.813  0.3138 -0.0815  0.2843
  656TMC3    C2 9759   0.769   1.370  15.911 -1.1784  0.3197  1.0866
  656TMC3    C3 9760   0.665   1.456  15.927 -0.3441  0.7528  0.1606
  656TMC3    C4 9761   0.846   1.499  15.725  0.5391  0.2002  0.2619
  656TMC3    C5 9762   0.737   1.585  15.748  0.1595 -0.5966 -0.3496
  656TMC3    C6 9763   0.648   1.570  15.852  0.0558 -0.2534 -0.5532
  656TMC3     C 9764   0.936   1.279  15.766 -0.6752  0.0213 -0.6129
  656TMC3     O 9765   0.909   1.168  15.808 -0.1947  0.0964 -0.4157
  656TMC3     H 9766   0.788   1.289  15.981  0.0938  2.0731  2.7950
  656TMC3    H1 9767   0.914   1.527  15.645 -0.4985  0.7753 -0.4183
  656TMC3    H2 9768   0.568   1.637  15.881  0.9631 -0.8232  3.3054
  656TMC3    C7 9769   0.720   1.692  15.652 -0.0389  0.1309  0.4030
  656TMC3    C8 9770   0.588   1.435  16.046 -0.2794 -0.3210 -0.0925
  656TMC3    O1 9771   0.821   1.731  15.601 -0.0001  0.9500 -0.0847
  656TMC3    O2 9772   0.549   1.322  16.075 -0.4664 -0.0550 -0.0169
  657TMC3    C1 9773   4.392   0.592  14.651 -0.5797  0.1098  0.3598
  657TMC3    C2 9774   4.339   0.678  14.745 -0.5726 -0.3388 -0.3893
  657TMC3    C3 9775   4.237   0.763  14.713 -0.1814  0.5452 -0.2750
  657TMC3    C4 9776   4.352   0.593  14.521 -0.2286  0.1435 -0.5394
  657TMC3    C5 9777   4.258   0.690  14.488  0.4202  0.5981  0.1492
  657TMC3    C6 9778   4.202   0.776  14.584  0.2547  0.3666 -0.3828
  657TMC3     C 9779   4.485   0.483  14.693  0.0462 -0.2704 -0.3113
  657TMC3     O 9780   4.500   0.391  14.617 -0.3083 -0.4181  0.0990
  657TMC3     H 9781   4.353   0.642  14.846  1.4697  1.9749  0.1359
  657TMC3    H1 9782   4.393   0.519  14.454  1.1345  0.9301 -0.5720
  657TMC3    H2 9783   4.133   0.853  14.552 -0.9883 -0.5807  0.0121
  657TMC3    C7 9784   4.235   0.703  14.347  0.7067 -0.3359  0.4965
  657TMC3    C8 9785   4.183   0.857  14.811  0.1330 -0.3733 -0.4790
  657TMC3    O1 9786   4.260   0.596  14.292 -0.0849 -0.2631 -0.1816
  657TMC3    O2 9787   4.077   0.911  14.784  0.3294 -0.3551 -0.3270
  658MPD2     C 9788   1.694   1.117  14.768 -0.3232  0.4650 -0.4082
  658MPD2    C1 9789   1.571   1.114  14.720  0.5222 -0.2172  0.1506
  658MPD2    C2 9790   1.539   1.027  14.620  0.5548 -0.0741 -0.9380
  658MPD2    C3 9791   1.626   0.953  14.548  0.5828  0.4948 -0.0831
  658MPD2    C4 9792   1.751   0.955  14.603  0.3141  0.3636 -0.0132
  658MPD2    C5 9793   1.781   1.036  14.711  0.3238  0.2076 -0.0697
  658MPD2     H 9794   1.436   1.025  14.587  0.4245 -1.1615 -0.4430
  658MPD2    H1 9795   1.823   0.885  14.562 -0.1404 -1.7810  2.8115
  658MPD2    H2 9796   1.727   1.185  14.846 -0.1503  0.4456 -0.4639
  658MPD2    H3 9797   1.878   1.028  14.759  0.4634  0.7408 -0.2696
  658MPD2     N 9798   1.583   0.869  14.436  0.9172 -0.4638 -0.0057
  658MPD2    H5 9799   1.649   0.799  14.403  1.7990 -0.2471  1.3076
  658MPD2    N1 9800   1.473   1.195  14.781 -0.1543  0.0248 -0.6323
  658MPD2    H7 9801   1.492   1.252  14.862  2.6908 -0.9738 -0.6023
  659TMC3    C1 9802   1.259   1.303  14.817 -0.1618  0.1380  0.4472
  659TMC3    C2 9803   1.274   1.298  14.953 -0.1626  1.0016 -0.7488
  659TMC3    C3 9804   1.197   1.389  15.027 -0.0499  0.1439  0.2413
  659TMC3    C4 9805   1.178   1.394  14.751 -0.3024  0.5746  0.4463
  659TMC3    C5 9806   1.104   1.473  14.836  0.3781 -0.2319  0.0353
  659TMC3    C6 9807   1.104   1.476  14.973  0.0136 -0.0238  0.5447
  659TMC3     C 9808   1.346   1.214  14.736 -0.8682  0.3508  0.1862
  659TMC3     O 9809   1.320   1.212  14.615 -0.5718  0.1088 -0.4522
  659TMC3     H 9810   1.353   1.239  14.999 -1.4842 -0.0824  0.1381
  659TMC3    H1 9811   1.156   1.396  14.645 -2.1737  1.2201  0.8552
  659TMC3    H2 9812   1.020   1.512  15.032 -0.5102  0.4661 -0.5009
  659TMC3    C7 9813   0.988   1.542  14.781 -1.0889 -0.1200 -0.8418
  659TMC3    C8 9814   1.169   1.363  15.165  0.4721 -0.0292  0.8380
  659TMC3    O1 9815   0.953   1.528  14.665 -0.5313  0.6179 -0.2985
  659TMC3    O2 9816   1.149   1.465  15.231 -0.9070  0.3045 -0.0887
  660MPD2     C 9817   3.795   4.520  12.340 -0.0714  0.7081 -0.0089
  660MPD2    C1 9818   3.750   4.617  12.425  0.5413  0.0142 -0.6875
  660MPD2    C2 9819   3.671   4.577  12.530 -0.1329 -0.6610 -0.0599
  660MPD2    C3 9820   3.607   4.454  12.538 -0.1373 -0.0350  0.3825
  660MPD2    C4 9821   3.645   4.356  12.450 -0.1208  0.5583  0.4457
  660MPD2    C5 9822   3.737   4.392  12.353  0.3579  0.1280  0.4969
  660MPD2     H 9823   3.619   4.655  12.585 -0.8024 -0.1338 -1.4627
  660MPD2    H1 9824   3.630   4.249  12.457  3.1095  0.0029 -1.1041
  660MPD2    H2 9825   3.867   4.525  12.259  2.1350 -0.2591  1.9149
  660MPD2    H3 9826   3.788   4.323  12.287 -0.6702  0.7715 -0.9773
  660MPD2     N 9827   3.488   4.430  12.621 -0.1686  0.5822  0.4723
  660MPD2    H5 9828   3.454   4.335  12.635  1.7571  0.1658  2.3004
  660MPD2    N1 9829   3.785   0.012  12.388  0.0635  0.2170  0.5453
  660MPD2    H7 9830   3.817   0.026  12.293  2.2202  0.7898  1.3787
  661TMC3    C1 9831   3.761   0.244  12.381  0.0015  0.0986 -0.2560
  661TMC3    C2 9832   3.819   0.237  12.260 -0.5907 -0.5147  0.2022
  661TMC3    C3 9833   3.747   0.282  12.151  0.0241  0.0395 -0.1303
  661TMC3    C4 9834   3.639   0.302  12.390  0.1982 -0.2242  0.0182
  661TMC3    C5 9835   3.563   0.345  12.288  0.5912  0.0195  0.5045
  661TMC3    C6 9836   3.618   0.334  12.156 -0.0679  0.0664 -0.0104
  661TMC3     C 9837   3.770   0.130  12.462 -0.2536  0.8235 -0.2723
  661TMC3     O 9838   3.752   0.143  12.583  0.2893 -0.5090  0.7891
  661TMC3     H 9839   3.924   0.213  12.246  0.2857  3.3251  0.3314
  661TMC3    H1 9840   3.584   0.289  12.482 -0.8457 -0.0156 -0.5773
  661TMC3    H2 9841   3.567   0.379  12.071  0.9804 -0.9354 -1.1801
  661TMC3    C7 9842   3.425   0.342  12.302  0.3313  0.2296  0.6760
  661TMC3    C8 9843   3.815   0.277  12.024 -0.6800 -0.2427 -0.8275
  661TMC3    O1 9844   3.367   0.398  12.395  0.4276 -0.7302 -0.3824
  661TMC3    O2 9845   3.928   0.231  12.028  0.5895  0.1081  0.1330
  662MPD2     C 9846   4.503   4.677  17.251 -0.1159  0.0483 -0.3032
  662MPD2    C1 9847   4.411   4.585  17.295  0.5644 -0.8953 -0.1872
  662MPD2    C2 9848   4.281   4.616  17.268  0.1685  0.2693 -0.6257
  662MPD2    C3 9849   4.249   0.001  17.203 -0.3722 -0.0379 -0.2728
  662MPD2    C4 9850   4.345   0.091  17.169  0.0036  0.3897 -0.2746
  662MPD2    C5 9851   4.470   0.060  17.199  0.4924 -0.4333 -0.6411
  662MPD2     H 9852   4.207   4.546  17.305  0.4876 -0.5011 -1.4444
  662MPD2    H1 9853   4.318   0.180  17.113 -1.0608  0.1313 -0.1795
  662MPD2    H2 9854   4.607   4.667  17.277 -0.7725 -1.7036  1.6624
  662MPD2    H3 9855   4.546   0.133  17.174  2.0580 -2.2705 -1.2549
  662MPD2     N 9856   4.114   0.036  17.195 -0.3714 -0.6724  0.0473
  662MPD2    H5 9857   4.096   0.130  17.160 -0.4745 -0.1842  1.3959
  662MPD2    N1 9858   4.444   4.472  17.369  0.3956 -0.6761  0.0380
  662MPD2    H7 9859   4.369   4.415  17.407 -2.2370  0.9074 -2.7194
  663TMC3    C1 9860   4.560   4.276  17.403 -0.3049 -0.8233  0.1321
  663TMC3    C2 9861   4.477   4.243  17.507  0.5684  0.3659 -0.1857
  663TMC3    C3 9862   4.393   4.132  17.493 -0.5285  0.3170 -0.5940
  663TMC3    C4 9863   4.587   4.205  17.293 -0.1568  0.0621  0.4444
  663TMC3    C5 9864   4.508   4.092  17.287 -0.0335 -0.3122  0.6846
  663TMC3    C6 9865   4.401   4.060  17.375  0.1295  0.4253 -0.1234
  663TMC3     C 9866   4.564   4.415  17.358  0.0168 -0.2867  0.2213
  663TMC3     O 9867   4.661   4.442  17.294 -0.3909  0.6279 -0.1245
  663TMC3     H 9868   4.451   4.320  17.579 -1.8115 -0.9547  0.3566
  663TMC3    H1 9869   4.660   4.235  17.219 -1.3264  1.0095 -0.3241
  663TMC3    H2 9870   4.333   3.978  17.354  0.8688 -0.4782  1.0039
  663TMC3    C7 9871   4.538   4.010  17.171 -0.4324  1.0495  0.1642
  663TMC3    C8 9872   4.260   4.187  17.531 -0.0771 -0.3330  0.3954
  663TMC3    O1 9873   4.549   4.075  17.068  0.1298  0.4438  0.9858
  663TMC3    O2 9874   4.238   4.307  17.504  0.0968 -0.3092 -0.1087
  664MPD2     C 9875   1.575   2.446  17.507 -0.4085 -0.3458  0.6462
  664MPD2    C1 9876   1.672   2.524  17.558 -0.0708 -0.0114 -0.4761
  664MPD2    C2 9877   1.748   2.480  17.662  0.1514  0.7290  0.6623
  664MPD2    C3 9878   1.711   2.366  17.730  0.3711 -0.0068 -0.3439
  664MPD2    C4 9879   1.610   2.282  17.671  0.5884 -0.2498 -0.2133
  664MPD2    C5 9880   1.542   2.328  17.559 -0.0597 -0.0197 -0.7251
  664MPD2     H 9881   1.841   2.527  17.692  0.7568 -1.3526  2.0893
  664MPD2    H1 9882   1.591   2.182  17.708 -0.8189  0.6939  1.6146
  664MPD2    H2 9883   1.516   2.465  17.417  0.4116  0.4287  0.2739
  664MPD2    H3 9884   1.476   2.258  17.510  0.0901 -1.2274  0.7773
  664MPD2     N 9885   1.779   2.335   0.106 -0.0499 -0.1144  0.2778
  664MPD2    H5 9886   1.858   2.394   0.132 -0.3011 -0.9971  3.1215
  664MPD2    N1 9887   1.704   2.652  17.507  0.0790  0.2619  0.3754
  664MPD2    H7 9888   1.782   2.702  17.550 -1.0828  1.9897  0.4911
  665TMC3    C1 9889   1.860   2.249   0.298  0.3982  0.8347  0.3924
  665TMC3    C2 9890   1.816   2.197   0.422 -0.5855 -0.0267  0.2204
  665TMC3    C3 9891   1.880   2.243   0.529 -1.0258 -0.0561  0.5760
  665TMC3    C4 9892   1.953   2.352   0.286  0.2426 -0.0553 -0.1476
  665TMC3    C5 9893   2.006   2.402   0.399 -0.6029 -0.3874  0.0361
  665TMC3    C6 9894   1.970   2.351   0.521 -0.0710  0.3618  0.5203
  665TMC3     C 9895   1.770   2.227   0.185 -0.3078 -0.5331  0.0875
  665TMC3     O 9896   1.681   2.145   0.197  0.0916  0.3484 -0.6213
  665TMC3     H 9897   1.748   2.112   0.421 -2.1827  1.2386  0.6429
  665TMC3    H1 9898   2.004   2.373   0.192  1.2672 -1.2426  0.1426
  665TMC3    H2 9899   2.004   2.389   0.617  0.3192  1.9595 -0.2476
  665TMC3    C7 9900   2.073   2.530   0.378 -0.4927 -0.2918 -0.3273
  665TMC3    C8 9901   1.822   2.214   0.656 -0.0806  0.1261 -0.1467
  665TMC3    O1 9902   2.067   2.577   0.266  0.2669 -0.2604  0.7656
  665TMC3    O2 9903   1.803   2.308   0.727 -0.6072  0.5409 -0.3983
  666TMC3    C1 9904   1.426   2.715   9.961  0.1577  0.0412  0.4219
  666TMC3    C2 9905   1.535   2.664  10.028  0.3957 -0.4303 -0.7034
  666TMC3    C3 9906   1.563   2.711  10.154 -0.2947  0.3596  0.6815
  666TMC3    C4 9907   1.355   2.822  10.014 -0.2009  0.2286 -0.3917
  666TMC3    C5 9908   1.387   2.861  10.142 -0.2418  0.3143 -0.1905
  666TMC3    C6 9909   1.490   2.805  10.218  0.0477 -0.2679 -0.3261
  666TMC3     C 9910   1.342   2.628   9.871  0.0142 -1.3715 -0.3305
  666TMC3     O 9911   1.226   2.652   9.867  0.3397 -0.4704 -0.6307
  666TMC3     H 9912   1.581   2.570  10.000  3.2427  0.0948  2.1254
  666TMC3    H1 9913   1.268   2.865   9.965 -0.0158  1.5464  0.4375
  666TMC3    H2 9914   1.498   2.828  10.324  0.6324 -1.5170 -0.1060
  666TMC3    C7 9915   1.279   2.938  10.209  0.3905 -0.3249 -0.6810
  666TMC3    C8 9916   1.660   2.635  10.227  0.1785 -0.0938  0.4988
  666TMC3    O1 9917   1.263   2.908  10.328 -0.0940  0.4884 -0.4709
  666TMC3    O2 9918   1.699   2.530  10.184 -1.0492 -0.4644  0.6747
  667MPD2     C 9919   3.101   2.363  14.516  0.4052  0.0730  0.0348
  667MPD2    C1 9920   3.000   2.387  14.603  0.0412 -0.2086 -0.0292
  667MPD2    C2 9921   2.926   2.279  14.644 -0.1101 -0.3760 -0.4331
  667MPD2    C3 9922   2.941   2.149  14.603 -0.6240  0.2170 -0.1721
  667MPD2    C4 9923   3.040   2.129  14.517  0.1731 -0.0906  0.2901
  667MPD2    C5 9924   3.126   2.230  14.485  0.3222  0.0694  0.0875
  667MPD2     H 9925   2.850   2.308  14.716 -0.3894 -2.0901 -0.0333
  667MPD2    H1 9926   3.060   2.027  14.486  1.0967  0.2697 -0.3188
  667MPD2    H2 9927   3.176   2.437  14.490  0.2887  0.6561  1.3589
  667MPD2    H3 9928   3.220   2.200  14.440 -0.6351 -0.2403 -1.6782
  667MPD2     N 9929   2.860   2.041  14.643 -0.9985  0.1414  0.1701
  667MPD2    H5 9930   2.877   1.950  14.600 -1.8052 -0.7878  1.8311
  667MPD2    N1 9931   2.968   2.519  14.645  0.0314  0.1936 -0.0574
  667MPD2    H7 9932   2.903   2.528  14.722 -1.7493 -3.6137 -1.1412
  668TMC3    C1 9933   2.987   2.757  14.656 -0.0096 -0.1030  0.4844
  668TMC3    C2 9934   3.039   2.873  14.604 -0.3569 -0.1032  0.1625
  668TMC3    C3 9935   3.055   2.983  14.680 -0.4569  0.1810  0.6322
  668TMC3    C4 9936   2.959   2.750  14.789  0.0442  0.3361 -0.5685
  668TMC3    C5 9937   2.975   2.860  14.866  0.4301  0.3190 -0.1516
  668TMC3    C6 9938   3.017   2.975  14.808  0.0475  0.1801  0.1283
  668TMC3     C 9939   3.013   2.632  14.587  0.9193  0.5675  0.3370
  668TMC3     O 9940   3.076   2.651  14.483 -0.4455 -0.3480  0.5260
  668TMC3     H 9941   3.063   2.882  14.499  2.4800 -0.4180  0.7794
  668TMC3    H1 9942   2.939   2.657  14.841 -0.8115  1.3767  0.9798
  668TMC3    H2 9943   3.036   3.063  14.869 -1.9546 -0.7701  2.1301
  668TMC3    C7 9944   2.939   2.866  15.005  0.5943 -0.0381  0.2713
  668TMC3    C8 9945   3.033   3.104  14.613 -0.4064  0.1392  0.6223
  668TMC3    O1 9946   3.022   2.928  15.070 -0.1948  0.2403  0.3967
  668TMC3    O2 9947   2.948   3.179  14.660 -0.1403  0.3262 -0.0031
  669TMC3    C1 9948   0.657   2.551  14.756 -0.1094 -0.2501  0.3589
  669TMC3    C2 9949   0.553   2.507  14.675 -0.0733  0.2966 -0.3342
  669TMC3    C3 9950   0.549   2.570  14.553 -0.1815  0.3145 -0.5038
  669TMC3    C4 9951   0.745   2.649  14.717  0.1370  0.1167 -0.4280
  669TMC3    C5 9952   0.718   2.723  14.605  0.0458  0.1446  0.1279
  669TMC3    C6 9953   0.633   2.674  14.512 -0.5697  0.0416  0.0634
  669TMC3     C 9954   0.689   2.469  14.868  1.0397  0.9236 -0.1685
  669TMC3     O 9955   0.598   2.449  14.945  0.3949  0.1739 -0.0653
  669TMC3     H 9956   0.492   2.423  14.703 -0.1102  0.3250 -0.3308
  669TMC3    H1 9957   0.821   2.687  14.785 -1.2488 -0.8495  1.6904
  669TMC3    H2 9958   0.614   2.721  14.417 -1.6066 -0.0188  0.2445
  669TMC3    C7 9959   0.835   2.797  14.568  0.2450  0.6753  0.3030
  669TMC3    C8 9960   0.493   2.490  14.443  0.3101  0.0608 -0.1556
  669TMC3    O1 9961   0.924   2.826  14.648 -0.7174  0.2092  0.0218
  669TMC3    O2 9962   0.387   2.436  14.459 -0.1817 -0.2948  0.8349
  670MPD2     C 9963   4.662   4.404  13.074 -0.2919 -0.3507  0.3626
  670MPD2    C1 9964   4.693   4.524  13.140 -0.8437 -0.1509  0.4666
  670MPD2    C2 9965   4.593   4.603  13.192 -0.1949  0.0529 -0.0170
  670MPD2    C3 9966   4.457   4.565  13.185  0.0375  1.1593  0.5266
  670MPD2    C4 9967   4.427   4.452  13.112 -0.4426  0.2063 -0.4926
  670MPD2    C5 9968   4.528   4.377  13.057 -0.5619 -0.1921  0.4717
  670MPD2     H 9969   4.624   4.688  13.251 -3.0935  0.8074  0.4091
  670MPD2    H1 9970   4.328   4.417  13.088 -0.0731 -1.7469  0.8292
  670MPD2    H2 9971   0.006   4.353  13.020 -1.0348 -0.5468 -0.5465
  670MPD2    H3 9972   4.514   4.287  12.998 -0.5675 -0.5543  1.0222
  670MPD2     N 9973   4.356   4.644  13.247 -0.5736  0.4497 -0.9180
  670MPD2    H5 9974   4.378   0.004  13.273  2.0559 -0.2198 -0.6570
  670MPD2    N1 9975   0.091   4.566  13.174 -0.4480  0.1325  0.3998
  670MPD2    H7 9976   0.096   4.646  13.237 -0.0179  2.6436 -2.7644
  671TMC3    C1 9977   4.155   4.694  13.370  0.3492  0.1713 -0.3781
  671TMC3    C2 9978   4.226   4.735  13.486 -0.0379  0.5204  0.2028
  671TMC3    C3 9979   4.161   4.721  13.604 -0.5322  0.1091  0.0432
  671TMC3    C4 9980   4.022   4.661  13.380 -0.1883 -0.6454  0.7227
  671TMC3    C5 9981   3.970   4.640  13.501  0.0858 -0.3367 -0.0528
  671TMC3    C6 9982   4.029   4.679  13.611 -0.1498 -0.4238  0.1841
  671TMC3     C 9983   4.223   4.602  13.277 -0.1363  0.7239 -0.6058
  671TMC3     O 9984   4.169   4.490  13.263  0.4265 -0.0817  0.1843
  671TMC3     H 9985   4.334   0.003  13.479 -0.0520 -0.3539 -0.5169
  671TMC3    H1 9986   3.974   4.626  13.289 -1.5024  2.7554  0.1110
  671TMC3    H2 9987   3.986   4.658  13.709 -0.1181 -1.9421 -0.1382
  671TMC3    C7 9988   3.857   4.549  13.501  0.7084 -0.5003  0.4692
  671TMC3    C8 9989   4.251   4.655  13.698 -0.1856 -0.1163  0.2554
  671TMC3    O1 9990   3.858   4.475  13.405  0.4014  0.1603  0.6085
  671TMC3    O2 9991   4.353   4.605  13.650 -0.4314  0.4125 -0.6850
  672MPD2     C 9992   0.157   0.976   0.669 -0.1099  0.5947 -1.0573
  672MPD2    C1 9993   0.215   0.873   0.737 -0.7031 -0.5458  0.3211
  672MPD2    C2 9994   0.296   0.893   0.853 -0.2075 -0.4716  0.2887
  672MPD2    C3 9995   0.317   1.022   0.892 -0.1636 -0.1088 -0.4158
  672MPD2    C4 9996   0.260   1.116   0.823  0.0065 -0.6296  0.6638
  672MPD2    C5 9997   0.181   1.100   0.710  0.3873 -0.5294  0.1159
  672MPD2     H 9998   0.343   0.807   0.899 -0.4776  0.0146  1.4739
  672MPD2    H1 9999   0.263   1.222   0.846 -0.0764 -0.2324 -1.1441
  672MPD2    H210000   0.102   0.953   0.579  0.7375  0.2010 -1.4789
  672MPD2    H310001   0.134   1.184   0.661 -0.4919 -1.1121 -0.0363
  672MPD2     N10002   0.396   1.063   0.994 -0.4831 -0.4829  0.5217
  672MPD2    H510003   0.391   1.162   1.015  0.5620 -0.0548 -1.2973
  672MPD2    N110004   0.195   0.736   0.703  0.1919  0.1319 -0.0614
  672MPD2    H710005   0.262   0.668   0.738 -0.5748  0.2443  1.5912
  673TMC3    C110006   0.057   0.549   0.659 -0.4598 -0.8544  0.4183
  673TMC3    C210007   0.162   0.463   0.635 -0.5293 -0.6681 -0.0204
  673TMC3    C310008   0.138   0.339   0.583 -0.2801  0.1096 -0.0530
  673TMC3    C410009   4.662   0.516   0.616  0.0214 -0.6180  0.6400
  673TMC3    C510010   4.643   0.393   0.560  0.6000 -0.3339  0.0696
  673TMC3    C610011   0.009   0.301   0.554 -0.4468 -0.8906 -0.2884
  673TMC3     C10012   0.073   0.696   0.663  0.3231 -0.0222  0.4840
  673TMC3     O10013   4.708   0.757   0.650 -0.4561  0.1073  0.2569
  673TMC3     H10014   0.263   0.500   0.645 -0.8245 -0.3278  1.6896
  673TMC3    H110015   4.579   0.581   0.642 -1.1589 -1.3544 -1.3021
  673TMC3    H210016   4.731   0.201   0.516 -1.5240 -0.1896 -1.7386
  673TMC3    C710017   4.523   0.360   0.496  0.0901  0.3997  0.4181
  673TMC3    C810018   0.234   0.227   0.585 -0.1450  0.0407 -0.4115
  673TMC3    O110019   4.495   0.248   0.459  0.0467  0.3559  0.0581
  673TMC3    O210020   0.198   0.131   0.519 -0.3052  0.4583  0.1101
  674MPD2     C10021   4.320   0.946  17.680 -0.4652 -0.1726  0.0189
  674MPD2    C110022   4.242   0.840  17.670 -0.4220 -0.0674 -0.3540
  674MPD2    C210023   4.114   0.864  17.617  0.5021  0.1349  0.2919
  674MPD2    C310024   4.061   0.990  17.591 -0.0765  0.1744 -0.0510
  674MPD2    C410025   4.142   1.097  17.620  0.5973 -0.5190  0.0832
  674MPD2    C510026   4.277   1.076  17.664  0.5010  0.4534 -0.6925
  674MPD2     H10027   4.056   0.773  17.606 -0.0655  0.2664  2.2106
  674MPD2    H110028   4.099   1.196  17.623 -1.5844 -1.4764  0.5517
  674MPD2    H210029   4.417   0.936  17.729 -0.6042  0.5099  0.4308
  674MPD2    H310030   4.349   1.154  17.685 -0.0371  0.2426  1.9516
  674MPD2     N10031   3.920   0.994  17.559 -0.0942  0.4817 -0.0008
  674MPD2    H510032   3.873   0.906  17.539  1.3947 -0.5501  1.0687
  674MPD2    N110033   4.296   0.719  17.710 -0.2675  0.2236  1.0090
  674MPD2    H710034   4.374   0.727   0.032  0.1870 -0.8420  0.5915
  675TMC3    C110035   4.314   0.486   0.012  0.8294  0.2343 -0.3126
  675TMC3    C210036   4.256   0.363   0.009  0.3723  0.0397  0.3088
  675TMC3    C310037   4.321   0.254   0.059 -0.2390  0.2312 -0.1764
  675TMC3    C410038   4.441   0.497   0.061 -0.8750  0.0880  0.1422
  675TMC3    C510039   4.505   0.385   0.113  0.0596  0.0870 -0.5206
  675TMC3    C610040   4.441   0.264   0.124 -0.7650  0.0352 -0.1109
  675TMC3     C10041   4.238   0.594  17.696 -0.5017  0.2145  0.2675
  675TMC3     O10042   4.126   0.571  17.654  0.0980 -0.6249  0.3337
  675TMC3     H10043   4.173   0.349  17.681  0.7642 -0.1575 -0.1160
  675TMC3    H110044   4.486   0.596   0.052 -0.8719  0.3147  2.5784
  675TMC3    H210045   4.493   0.173   0.151 -1.7207 -0.4514  0.0906
  675TMC3    C710046   4.643   0.382   0.140  0.3014  0.4413 -0.5628
  675TMC3    C810047   4.234   0.145   0.096 -0.2856 -0.2770  0.0139
  675TMC3    O110048   4.706   0.279   0.125 -0.7705 -0.1729 -0.4299
  675TMC3    O210049   4.127   0.127   0.032 -0.6381  0.1314  0.5644
  676MPD2     C10050   2.115   3.548  11.530 -0.4233 -0.2551  0.6296
  676MPD2    C110051   2.002   3.501  11.467  0.2208  0.1414  0.9859
  676MPD2    C210052   1.967   3.372  11.480  0.3786  0.4560 -0.2830
  676MPD2    C310053   2.043   3.290  11.561 -0.0493  0.1096 -0.7445
  676MPD2    C410054   2.151   3.343  11.629  0.0558 -0.2635  0.6348
  676MPD2    C510055   2.188   3.470  11.612 -0.1899 -0.2120  0.5613
  676MPD2     H10056   1.886   3.330  11.421  1.4048 -3.0241  0.7993
  676MPD2    H110057   2.205   3.272  11.691  1.7911  1.1424  0.7206
  676MPD2    H210058   2.147   3.652  11.533  0.7264 -0.5432 -1.4072
  676MPD2    H310059   2.270   3.507  11.672 -2.2845 -0.5890  3.6619
  676MPD2     N10060   2.014   3.153  11.574 -0.0836  0.4717  0.0581
  676MPD2    H510061   2.074   3.099  11.635  0.3210  0.1861 -0.5932
  676MPD2    N110062   1.914   3.589  11.383 -0.0744 -0.0521 -0.0902
  676MPD2    H710063   1.841   3.542  11.332  0.1609  0.6048 -1.0487
  677TMC3    C110064   1.810   3.802  11.326 -0.1162  0.4093  0.1953
  677TMC3    C210065   1.693   3.739  11.368 -0.6562  0.0321  0.3234
  677TMC3    C310066   1.611   3.804  11.460 -0.2697 -1.2667 -0.2138
  677TMC3    C410067   1.828   3.933  11.348 -0.2566 -0.2739 -0.3086
  677TMC3    C510068   1.740   4.004  11.420  0.3717 -0.1600  0.2985
  677TMC3    C610069   1.640   3.938  11.478  0.3282 -0.0464  0.1974
  677TMC3     C10070   1.930   3.726  11.370  0.3422  0.7010 -0.1609
  677TMC3     O10071   2.022   3.792  11.417  0.2870  0.0820  0.2572
  677TMC3     H10072   1.662   3.638  11.345 -1.3612  0.6209 -1.3173
  677TMC3    H110073   1.908   3.982  11.294 -0.2519 -0.8623 -0.8307
  677TMC3    H210074   1.584   3.980  11.561  0.8603  0.7945  0.1352
  677TMC3    C710075   1.790   4.120  11.498  0.1374  0.2677  0.1895
  677TMC3    C810076   1.623   3.736  11.593  0.0385  0.2809  0.1551
  677TMC3    O110077   1.704   4.170  11.572 -0.5159  0.2415 -0.4799
  677TMC3    O210078   1.662   3.806  11.686  0.9253 -0.1156  0.0211
  678MPD2     C10079   3.343   3.102   1.305  0.0305 -0.6318  0.2500
  678MPD2    C110080   3.348   3.008   1.203  0.8306 -0.2959  0.4719
  678MPD2    C210081   3.228   2.968   1.144  0.3099 -0.1435  0.1387
  678MPD2    C310082   3.107   3.031   1.186  0.4879  0.2397  0.4567
  678MPD2    C410083   3.108   3.112   1.297 -0.5734 -0.1551 -0.6623
  678MPD2    C510084   3.221   3.146   1.361 -0.1918 -0.7698 -0.1682
  678MPD2     H10085   3.233   2.894   1.064 -0.5355 -1.1982  1.0605
  678MPD2    H110086   3.016   3.151   1.339 -0.9601 -0.1689 -1.5037
  678MPD2    H210087   3.427   3.145   1.357 -0.5391 -0.5337  1.0881
  678MPD2    H310088   3.231   3.209   1.449 -1.3825 -2.2258  1.0075
  678MPD2     N10089   2.992   3.012   1.111  0.5570  0.0288  0.1523
  678MPD2    H510090   3.010   2.978   1.017  0.9259 -0.6164  0.4599
  678MPD2    N110091   3.476   2.963   1.160  0.5113 -0.0197 -0.1264
  678MPD2    H710092   3.557   3.008   1.200 -0.7602  0.7825  1.5663
  679TMC3    C110093   3.832   2.729   1.033 -0.1788  0.4436  0.3888
  679TMC3    C210094   3.709   2.723   1.074  0.1617  0.8352 -0.2589
  679TMC3    C310095   3.637   2.844   1.056  0.7563 -0.2173 -0.5647
  679TMC3    C410096   3.892   2.833   0.975 -0.7282  0.3104 -0.5949
  679TMC3    C510097   3.815   2.946   0.940 -0.2880  0.6167 -0.9876
  679TMC3    C610098   3.688   2.953   0.986 -0.1307 -0.3178 -0.0754
  679TMC3     C10099   3.922   2.630   1.092 -0.0316 -0.4645  0.3103
  679TMC3     O10100   3.887   2.574   1.192 -0.0678  0.6077 -0.2942
  679TMC3     H10101   3.668   2.639   1.128  0.6979  0.8940  0.2391
  679TMC3    H110102   4.000   2.831   0.965 -0.7801 -1.6451 -0.7095
  679TMC3    H210103   3.642   3.051   0.983  1.5810  0.4688 -0.6704
  679TMC3    C710104   3.873   3.068   0.885  0.0606  0.0890  0.2008
  679TMC3    C810105   3.496   2.849   1.085 -0.1821  0.2498 -0.3129
  679TMC3    O110106   3.811   3.172   0.897  0.7293 -0.0422  0.6292
  679TMC3    O210107   3.423   2.754   1.070  0.5561  0.8186 -0.4987
  680MPD2     C10108   0.127   1.979  13.658  0.2065 -0.0501  0.4677
  680MPD2    C110109   0.000   1.945  13.624  0.4204  0.3522  0.4899
  680MPD2    C210110   4.634   2.034  13.631  0.9659  0.2728  0.2492
  680MPD2    C310111   4.656   2.165  13.648  0.0108 -0.3663 -0.7302
  680MPD2    C410112   0.051   2.210  13.672 -0.0374 -0.1082 -0.0548
  680MPD2    C510113   0.152   2.117  13.687 -0.7736  0.5231  0.4139
  680MPD2     H10114   4.532   2.003  13.610  1.3865  0.1184 -1.5668
  680MPD2    H110115   0.079   2.313  13.693  0.8341 -0.8263  2.4425
  680MPD2    H210116   0.207   1.906  13.657 -1.0903 -1.4042 -2.7723
  680MPD2    H310117   0.250   2.150  13.722 -1.0535  1.5955  0.2002
  680MPD2     N10118   4.551   2.254  13.656  0.2079 -0.3004  0.0339
  680MPD2    H510119   4.567   2.336  13.713 -1.0897 -0.0333  0.0079
  680MPD2    N110120   4.695   1.816  13.595  0.0606  0.6820  0.1154
  680MPD2    H710121   4.599   1.803  13.564 -0.8474  3.1052  1.8204
  681TMC3    C110122   4.714   1.593  13.510  0.4469 -0.6327 -0.6793
  681TMC3    C210123   4.576   1.583  13.517 -0.2861 -0.0797  0.5856
  681TMC3    C310124   4.523   1.486  13.431  0.2390 -0.4174  0.4440
  681TMC3    C410125   0.062   1.501  13.442 -0.0127 -0.5064 -0.8643
  681TMC3    C510126   0.007   1.400  13.379  0.2348  0.6770 -0.0261
  681TMC3    C610127   4.605   1.393  13.369 -0.1404 -0.3840 -0.0217
  681TMC3     C10128   0.041   1.702  13.588 -0.0457  0.1864  0.7781
  681TMC3     O10129   0.154   1.681  13.630 -0.4500 -0.2751  0.2891
  681TMC3     H10130   4.515   1.643  13.583  0.6515  0.2439  1.1610
  681TMC3    H110131   0.169   1.514  13.454  0.1044 -0.6306 -1.7971
  681TMC3    H210132   4.564   1.314  13.308 -0.7990 -1.8021  2.2384
  681TMC3    C710133   0.092   1.367  13.267 -0.6027 -0.8092  0.0647
  681TMC3    C810134   4.380   1.446  13.438 -0.1506  0.0420  0.8039
  681TMC3    O110135   0.187   1.300  13.303  0.4504 -0.1743  0.6653
  681TMC3    O210136   4.346   1.332  13.417  0.1708 -1.2557 -0.1697
  682MPD2     C10137   0.401   3.314  11.114 -0.3679 -0.0195  0.1029
  682MPD2    C110138   0.471   3.197  11.129 -0.1814  0.2588  0.3084
  682MPD2    C210139   0.511   3.154  11.257 -0.0819  0.2513 -0.1232
  682MPD2    C310140   0.469   3.228  11.370 -1.0601  0.1820 -0.8806
  682MPD2    C410141   0.398   3.342  11.350 -0.4501 -0.1955 -0.0514
  682MPD2    C510142   0.360   3.378  11.224  0.4042  0.4783 -0.5431
  682MPD2     H10143   0.571   3.065  11.272 -0.9095 -0.4119 -0.7153
  682MPD2    H110144   0.371   3.407  11.433  0.1925 -0.0886  0.0744
  682MPD2    H210145   0.373   3.354  11.017  1.1482 -0.3679 -0.4671
  682MPD2    H310146   0.319   3.476  11.207  0.8835  0.6806 -0.5335
  682MPD2     N10147   0.490   3.183  11.500 -0.0205 -0.1103 -0.3604
  682MPD2    H510148   0.470   3.249  11.574 -2.3739 -1.7717  0.5048
  682MPD2    N110149   0.510   3.124  11.015  0.1135 -0.4117 -0.3575
  682MPD2    H710150   0.550   3.034  11.038 -0.1945 -1.3881 -3.5574
  683TMC3    C110151   0.714   3.094  11.852 -0.8569 -0.6098  0.1587
  683TMC3    C210152   0.690   2.966  11.904  0.2970 -0.1013 -0.2748
  683TMC3    C310153   0.599   2.881  11.842 -0.5107 -0.0758  0.8030
  683TMC3    C410154   0.651   3.133  11.737  0.0759 -0.0511 -0.2397
  683TMC3    C510155   0.570   3.040  11.669 -0.2230  0.6237 -0.2866
  683TMC3    C610156   0.540   2.915  11.722  0.0093 -0.0915  0.9920
  683TMC3     C10157   0.829   3.164  11.894 -0.2715 -0.3551 -0.2529
  683TMC3     O10158   0.830   3.284  11.914  0.1606  0.2702 -0.1274
  683TMC3     H10159   0.739   2.947  11.999  1.1514  0.7940 -0.5340
  683TMC3    H110160   0.677   3.226  11.689 -0.9952 -0.0304 -0.7714
  683TMC3    H210161   0.462   2.854  11.677 -0.3143  0.8617  0.2598
  683TMC3    C710162   0.509   3.054  11.531  0.0400  0.0307 -0.3806
  683TMC3    C810163   0.625   2.740  11.874  0.7718 -0.4188  0.2746
  683TMC3    O110164   0.495   2.954  11.462 -0.1994 -0.4337  0.3536
  683TMC3    O210165   0.605   2.664  11.779  0.1701  0.2772 -0.2793
  684MPD2     C10166   4.279   2.825  16.377  0.0828 -0.0475  0.3645
  684MPD2    C110167   4.226   2.880  16.265  0.0816  0.7384 -0.4140
  684MPD2    C210168   4.226   3.022  16.262  0.9149 -0.2427 -0.1349
  684MPD2    C310169   4.287   3.098  16.363 -0.1559  0.4092  0.2122
  684MPD2    C410170   4.345   3.037  16.470 -0.0268 -0.0108 -0.0714
  684MPD2    C510171   4.330   2.902  16.472  0.3135 -0.3541 -0.3879
  684MPD2     H10172   4.180   3.076  16.180  2.5481 -0.4616 -1.1908
  684MPD2    H110173   4.416   3.086  16.535 -0.0311  0.6726 -0.5774
  684MPD2    H210174   4.282   2.717  16.391 -0.5897 -0.2075 -0.7092
  684MPD2    H310175   4.378   2.851  16.554 -1.1310 -3.3223 -1.3886
  684MPD2     N10176   4.306   3.238  16.358 -0.0635 -0.3162 -0.2155
  684MPD2    H510177   4.345   3.285  16.439 -4.1843  0.2450  1.3891
  684MPD2    N110178   4.163   2.815  16.157 -0.8670 -0.7159 -0.7445
  684MPD2    H710179   4.149   2.870  16.074 -1.5476  1.3698  0.7508
  685TMC3    C110180   4.113   2.643  16.004  0.2042  0.2377 -0.2918
  685TMC3    C210181   4.050   2.733  15.927 -0.5268  0.0886 -0.2368
  685TMC3    C310182   4.063   2.723  15.790  0.0941  0.0784  0.3611
  685TMC3    C410183   4.180   2.535  15.945  0.5152 -0.2378 -0.0593
  685TMC3    C510184   4.180   2.530  15.803 -0.1280  0.1957 -0.1462
  685TMC3    C610185   4.129   2.627  15.723  0.0238  0.0214 -0.0550
  685TMC3     C10186   4.156   2.683  16.141 -0.9330 -0.1897 -0.1956
  685TMC3     O10187   4.200   2.590  16.209 -0.1245  0.4206  0.1968
  685TMC3     H10188   3.995   2.816  15.971  1.4292  0.1703  2.0532
  685TMC3    H110189   4.233   2.465  16.008  2.1645  0.2173 -0.9630
  685TMC3    H210190   4.148   2.632  15.617  0.4808  0.0987  0.0289
  685TMC3    C710191   4.289   2.462  15.739  0.0480 -0.5569  0.5655
  685TMC3    C810192   3.995   2.813  15.710  0.1538  1.0807 -0.6487
  685TMC3    O110193   4.306   2.471  15.625 -0.1078  0.4154 -0.0746
  685TMC3    O210194   4.058   2.838  15.607  0.3341 -0.6933  0.0983
  686MPD2     C10195   0.525   3.208  15.595 -0.3365 -0.4068  0.4168
  686MPD2    C110196   0.594   3.101  15.646  0.0014  0.3860 -0.1009
  686MPD2    C210197   0.676   3.021  15.572 -0.6829  0.1917 -0.0361
  686MPD2    C310198   0.677   3.035  15.431 -0.4158 -0.2256 -0.6588
  686MPD2    C410199   0.605   3.142  15.377  0.2616  0.2649  0.0825
  686MPD2    C510200   0.530   3.223  15.454  0.9174 -0.6554  0.1442
  686MPD2     H10201   0.750   2.959  15.621  1.2286  1.8837 -0.7922
  686MPD2    H110202   0.583   3.145  15.271 -2.0539 -0.8486  0.5228
  686MPD2    H210203   0.461   3.268  15.658  0.1838 -0.3931  0.9270
  686MPD2    H310204   0.465   3.300  15.415  1.3925 -1.0076 -1.3638
  686MPD2     N10205   0.752   2.951  15.343  0.7264 -0.6116  0.1195
  686MPD2    H510206   0.765   2.978  15.246 -2.2809  0.1379 -0.0929
  686MPD2    N110207   0.583   3.076  15.790  0.7180 -0.2012 -0.3527
  686MPD2    H710208   0.525   3.137  15.847  1.1889 -0.3414  0.2727
  687TMC3    C110209   0.789   2.744  15.483  0.4077  0.4456 -0.6775
  687TMC3    C210210   0.656   2.725  15.511  0.7731  0.5083  0.0686
  687TMC3    C310211   0.627   2.648  15.623 -0.3593 -0.0706  0.3475
  687TMC3    C410212   0.890   2.685  15.552 -0.0334 -0.7667 -0.1677
  687TMC3    C510213   0.857   2.619  15.666 -0.1348  0.1841  0.2951
  687TMC3    C610214   0.729   2.600  15.701  0.5634 -0.1889  0.4577
  687TMC3     C10215   0.826   2.839  15.371 -0.4132  0.6875 -1.3135
  687TMC3     O10216   0.896   2.779  15.290 -0.1158 -0.7489  0.1430
  687TMC3     H10217   0.586   2.762  15.437  1.5196 -2.1564 -1.9691
  687TMC3    H110218   0.994   2.683  15.520  1.1053  0.2652  3.4115
  687TMC3    H210219   0.703   2.537  15.786 -0.7296 -0.3928 -0.0942
  687TMC3    C710220   0.951   2.546  15.744  0.4158 -0.0842  0.4066
  687TMC3    C810221   0.500   2.657  15.691  1.4507  0.3537 -0.2293
  687TMC3    O110222   0.914   2.518  15.857 -0.2038  0.0444  0.1257
  687TMC3    O210223   0.467   2.571  15.771 -0.2021  0.0231  0.2924
  688MPD2     C10224   0.323   1.921  17.383 -0.4317  0.0878  0.3753
  688MPD2    C110225   0.386   1.813  17.434  0.1869 -0.0237 -0.4980
  688MPD2    C210226   0.463   1.732  17.350  0.8850  0.1988  0.0823
  688MPD2    C310227   0.461   1.756  17.210 -0.1016 -0.2368  0.1725
  688MPD2    C410228   0.389   1.856  17.166  0.8939 -0.4054  0.6081
  688MPD2    C510229   0.311   1.931  17.251 -0.1232  0.2841  0.2045
  688MPD2     H10230   0.524   1.652  17.389 -0.1127 -0.9391 -0.6900
  688MPD2    H110231   0.371   1.877  17.061  2.0156  2.1681  0.9083
  688MPD2    H210232   0.260   1.988  17.441 -2.2157 -2.0731  0.9298
  688MPD2    H310233   0.247   2.002  17.201 -1.7782 -1.1687  0.2539
  688MPD2     N10234   0.535   1.678  17.116 -0.0201  0.4720 -0.1449
  688MPD2    H510235   0.519   1.697  17.018  1.2669  1.2159 -0.2112
  688MPD2    N110236   0.392   1.788  17.576  0.6350 -0.0057 -0.1248
  688MPD2    H710237   0.455   1.715  17.607 -0.3954 -0.1122  1.7524
  689TMC3    C110238   0.343   1.817   0.067 -0.4485 -0.5587  0.0828
  689TMC3    C210239   0.342   1.905   0.171  0.2163  0.7609 -0.7137
  689TMC3    C310240   0.358   1.856   0.298 -0.4047  0.3147  0.0801
  689TMC3    C410241   0.343   1.684   0.093 -0.0594  0.5099  0.3662
  689TMC3    C510242   0.349   1.639   0.219 -0.3735  0.6087  0.0515
  689TMC3    C610243   0.355   1.728   0.320 -0.1961  0.1584  0.0181
  689TMC3     C10244   0.347   1.875  17.674  0.3963 -0.5107 -0.8259
  689TMC3     O10245   0.341   1.998  17.668  0.0641  0.5713  0.0241
  689TMC3     H10246   0.346   2.009   0.141 -1.4278  0.5301 -1.7265
  689TMC3    H110247   0.337   1.609   0.015 -1.0317 -0.7287  1.6329
  689TMC3    H210248   0.360   1.681   0.418  0.1392 -0.5971 -0.3606
  689TMC3    C710249   0.310   1.499   0.255  0.4856  0.3849  0.6071
  689TMC3    C810250   0.371   1.941   0.413 -0.8087  0.0328  0.1308
  689TMC3    O110251   0.356   1.448   0.355  0.0976 -0.4230  0.5263
  689TMC3    O210252   0.402   1.876   0.511 -0.0314  0.3608 -0.0300
  690MPD2     C10253   2.854   3.572  15.871  0.6352  0.2267 -0.1182
  690MPD2    C110254   2.744   3.568  15.786 -0.2334 -0.7121  0.9019
  690MPD2    C210255   2.755   3.632  15.659  0.2024 -0.2687 -0.0635
  690MPD2    C310256   2.874   3.704  15.631  0.3417  0.1256  0.2214
  690MPD2    C410257   2.980   3.716  15.721  0.1907 -0.9399  0.0730
  690MPD2    C510258   2.967   3.642  15.839  0.3587  0.2922  0.5057
  690MPD2     H10259   2.666   3.626  15.597 -0.9986 -1.9220  1.8107
  690MPD2    H110260   3.071   3.769  15.697  0.2261 -0.8162  0.4832
  690MPD2    H210261   2.855   3.535  15.972  0.9913  2.6499  0.7710
  690MPD2    H310262   3.045   3.649  15.913  0.5618 -1.4622  0.4478
  690MPD2     N10263   2.872   3.762  15.503 -0.0511  0.8078 -0.2266
  690MPD2    H510264   2.793   3.728  15.449  0.0473  0.6798 -0.2914
  690MPD2    N110265   2.629   3.491  15.818 -0.3737 -0.1867  0.6940
  690MPD2    H710266   2.555   3.497  15.750 -0.2214  1.1436  0.6445
  691TMC3    C110267   2.488   3.358  15.947  0.1199  0.4432 -0.0780
  691TMC3    C210268   2.398   3.405  15.862  0.1054 -0.0371  0.0242
  691TMC3    C310269   2.279   3.343  15.847  0.2584  0.5172  0.3241
  691TMC3    C410270   2.464   3.247  16.018  0.6619  0.7612 -0.1872
  691TMC3    C510271   2.342   3.188  16.006 -0.1185 -0.2943  0.1615
  691TMC3    C610272   2.248   3.235  15.921  0.0011  0.0691  0.5136
  691TMC3     C10273   2.622   3.408  15.928 -0.6873 -0.2562  0.8077
  691TMC3     O10274   2.703   3.382  16.020  0.2376  0.3300  0.0896
  691TMC3     H10275   2.403   3.509  15.833 -1.1786  0.2579  0.8691
  691TMC3    H110276   2.534   3.214  16.094  0.4763  1.8759  0.4580
  691TMC3    H210277   2.152   3.189  15.900 -0.5889  1.5083  0.0666
  691TMC3    C710278   2.321   3.071  16.088 -0.0468  0.5682  0.7160
  691TMC3    C810279   2.184   3.389  15.751  0.5354 -0.6537  0.3311
  691TMC3    O110280   2.407   3.034  16.164 -0.2620  0.3623 -0.0946
  691TMC3    O210281   2.244   3.440  15.654 -0.5760 -0.1800 -0.2305
  692TMC3    C110282   3.791   4.488  15.592  0.4454 -0.7190 -0.3512
  692TMC3    C210283   3.923   4.534  15.599 -0.1480 -0.2601 -0.3646
  692TMC3    C310284   4.026   4.452  15.627  0.6468 -0.1840  0.5651
  692TMC3    C410285   3.766   4.353  15.609  0.7954 -0.0150  0.3600
  692TMC3    C510286   3.874   4.269  15.647 -0.2013 -0.5609 -0.3583
  692TMC3    C610287   3.998   4.324  15.666 -0.7032  0.0476  1.1983
  692TMC3     C10288   3.678   4.578  15.613 -0.2104  0.5149  0.2877
  692TMC3     O10289   3.570   4.527  15.596 -0.1203 -0.2740  0.1217
  692TMC3     H10290   3.949   4.629  15.554  1.8083  0.7165  2.8122
  692TMC3    H110291   3.671   4.321  15.567 -0.0898  1.0109  1.5896
  692TMC3    H210292   4.082   4.256  15.666 -0.2216  0.6262 -2.0413
  692TMC3    C710293   3.835   4.135  15.690 -0.2862 -0.4522  0.2431
  692TMC3    C810294   4.111   4.523  15.724  1.6230 -0.7589 -0.2875
  692TMC3    O110295   3.733   4.093  15.642 -0.5244 -0.1059  0.0791
  692TMC3    O210296   4.196   4.451  15.776 -0.6169  0.3085 -0.4259
  693MPD2     C10297   3.287   2.122  10.440 -0.5038  0.5865 -0.8792
  693MPD2    C110298   3.196   2.026  10.479 -0.6307 -0.0009  0.4156
  693MPD2    C210299   3.238   1.899  10.522 -0.3251 -0.5151  0.1229
  693MPD2    C310300   3.376   1.871  10.507 -0.5854  0.3629 -0.1114
  693MPD2    C410301   3.457   1.967  10.444 -0.3241 -0.6655  0.1105
  693MPD2    C510302   3.412   2.086  10.402  0.3391 -0.1957 -0.0955
  693MPD2     H10303   3.167   1.827  10.562 -0.7362 -0.1039  0.1409
  693MPD2    H110304   3.563   1.947  10.428 -0.7123 -1.5239 -1.4339
  693MPD2    H210305   3.257   2.219  10.400 -0.1394  0.9669 -0.2317
  693MPD2    H310306   3.480   2.154  10.353 -0.3059  0.1645 -0.4917
  693MPD2     N10307   3.436   1.757  10.549  1.0830 -0.4453 -0.1128
  693MPD2    H510308   3.537   1.758  10.538  0.5935  3.4341 -4.2405
  693MPD2    N110309   3.064   2.074  10.491 -0.3535 -0.4136  0.2455
  693MPD2    H710310   3.047   2.173  10.477  1.2314 -0.2731 -0.6151
  694TMC3    C110311   2.836   2.074  10.505  0.4424  0.5561  0.0319
  694TMC3    C210312   2.716   2.017  10.448  0.0919  0.4897  0.5154
  694TMC3    C310313   2.602   2.078  10.491  0.5687 -0.2535 -0.2325
  694TMC3    C410314   2.843   2.157  10.606  0.0344 -0.1266 -0.4881
  694TMC3    C510315   2.720   2.208  10.649 -0.5628  0.1746  0.2185
  694TMC3    C610316   2.601   2.177  10.588  0.1793  0.1872 -0.0653
  694TMC3     C10317   2.958   1.993  10.484 -0.2139  0.4542 -0.5905
  694TMC3     O10318   2.945   1.869  10.470  0.0553  0.0644  0.0404
  694TMC3     H10319   2.711   1.947  10.366 -2.0485  2.5731 -1.1286
  694TMC3    H110320   2.938   2.190  10.645  0.1248 -0.4210 -0.4568
  694TMC3    H210321   2.502   2.210  10.617 -0.5259 -0.9946 -1.1552
  694TMC3    C710322   2.727   2.241  10.790  0.1324  0.2206  0.2413
  694TMC3    C810323   2.476   2.039  10.412 -0.0548 -0.2467  0.5183
  694TMC3    O110324   2.824   2.299  10.834  0.4351  0.4507 -0.3472
  694TMC3    O210325   2.477   1.924  10.365 -0.9224 -0.0935 -0.6252
  695MPD2     C10326   4.318   3.804  13.285 -0.4319 -0.1405  0.5154
  695MPD2    C110327   4.251   3.846  13.400 -0.5708 -0.3538  0.4709
  695MPD2    C210328   4.119   3.877  13.390  0.6840  0.5580  0.2293
  695MPD2    C310329   4.050   3.850  13.277 -0.6148 -1.1225  0.6679
  695MPD2    C410330   4.114   3.796  13.168  0.0717 -0.0883 -0.4122
  695MPD2    C510331   4.247   3.778  13.171 -0.1114  0.5053  0.7088
  695MPD2     H10332   4.063   3.917  13.473  1.9192  2.6747  0.0557
  695MPD2    H110333   4.062   3.763  13.079 -0.3972  2.1482 -0.9877
  695MPD2    H210334   4.421   3.772  13.290 -0.7421 -1.3464 -0.9370
  695MPD2    H310335   4.296   3.735  13.084 -2.9353 -1.3627  0.0390
  695MPD2     N10336   3.914   3.890  13.273  0.2936 -0.1525 -0.1180
  695MPD2    H510337   3.877   3.937  13.355  1.7260  2.3786 -0.9135
  695MPD2    N110338   4.304   3.859  13.531 -0.4887 -0.3671 -0.1947
  695MPD2    H710339   4.240   3.876  13.608  2.6049  0.3744  2.2050
  696TMC3    C110340   3.708   3.921  13.184  0.2204 -0.5643  0.6038
  696TMC3    C210341   3.662   3.909  13.314  0.0173  0.3287  0.3020
  696TMC3    C310342   3.572   3.994  13.362  0.8079  0.3132 -0.4318
  696TMC3    C410343   3.662   4.030  13.105  0.2477 -0.1470 -0.2988
  696TMC3    C510344   3.559   4.115  13.153 -0.9759 -0.8721  0.4761
  696TMC3    C610345   3.512   4.090  13.285  0.1798  0.6769 -0.7552
  696TMC3     C10346   3.835   3.867  13.160  0.1960  0.1363  0.7795
  696TMC3     O10347   3.852   3.828  13.041  0.2574 -0.1743  0.2189
  696TMC3     H10348   3.697   3.823  13.369 -1.9216 -1.2038 -0.8339
  696TMC3    H110349   3.691   4.041  13.001  1.3291 -1.7124 -0.1485
  696TMC3    H210350   3.445   4.160  13.333  3.0368  1.9629  1.3334
  696TMC3    C710351   3.558   4.251  13.091 -0.4594  0.1353  0.2072
  696TMC3    C810352   3.631   4.063  13.469 -0.0458 -0.6113  0.2590
  696TMC3    O110353   3.585   4.259  12.969  0.5664  0.4295  0.5632
  696TMC3    O210354   3.752   4.088  13.455  0.2884 -0.1029 -0.0525
  697MPD2     C10355   3.095   1.593  15.708 -0.2465  0.3677 -0.8375
  697MPD2    C110356   3.167   1.539  15.605  0.2811  0.0387  0.2741
  697MPD2    C210357   3.195   1.618  15.493  1.1266  0.1103  0.2698
  697MPD2    C310358   3.157   1.756  15.496 -0.0637 -0.0040 -0.7544
  697MPD2    C410359   3.077   1.805  15.600  0.4133  0.5787 -0.1648
  697MPD2    C510360   3.044   1.718  15.700  0.0958 -0.0484  0.5092
  697MPD2     H10361   3.256   1.578  15.413 -1.4449 -0.6625 -1.3105
  697MPD2    H110362   3.044   1.907  15.608 -0.0569  0.5198 -1.4061
  697MPD2    H210363   3.063   1.534  15.794 -1.3101  0.5480 -1.1081
  697MPD2    H310364   2.982   1.751  15.783 -0.9915 -1.7313  0.3560
  697MPD2     N10365   3.213   1.828  15.394 -0.4934 -0.5632  0.0068
  697MPD2    H510366   3.286   1.788  15.336  0.0023 -0.0139  0.2464
  697MPD2    N110367   3.217   1.406  15.601  0.3798 -0.6035  0.3246
  697MPD2    H710368   3.255   1.377  15.511  3.3493  0.4074  1.2596
  698TMC3    C110369   3.272   2.022  15.263 -0.7460  0.2940 -0.8989
  698TMC3    C210370   3.291   2.156  15.267  0.4523 -0.1202  0.2321
  698TMC3    C310371   3.370   2.214  15.174 -0.1129 -1.5064  1.0112
  698TMC3    C410372   3.333   1.944  15.167  0.0852 -0.5374  0.2159
  698TMC3    C510373   3.424   2.003  15.099  0.0101  1.6258  0.7296
  698TMC3    C610374   3.448   2.136  15.092  0.2102 -0.1066  0.0819
  698TMC3     C10375   3.188   1.965  15.368  0.6870 -0.0535 -0.5850
  698TMC3     O10376   3.113   2.039  15.430  0.8230  0.1725 -0.2016
  698TMC3     H10377   3.237   2.222  15.335 -0.3731  0.4976 -1.0155
  698TMC3    H110378   3.311   1.840  15.149  0.7848 -0.4729 -1.0028
  698TMC3    H210379   3.512   2.183  15.018 -0.7177 -1.8552 -1.8351
  698TMC3    C710380   3.460   1.934  14.972  0.1629  0.0089  0.4224
  698TMC3    C810381   3.433   2.331  15.220 -0.0383  0.1841 -0.7859
  698TMC3    O110382   3.378   1.858  14.930  0.3904 -0.4156  0.0662
  698TMC3    O210383   3.385   2.376  15.323  0.4494 -0.2604 -0.7524
  699TMC3    C110384   3.297   4.471  12.766 -0.4183  0.3356  0.3312
  699TMC3    C210385   3.292   4.335  12.779 -0.0793  0.1323  0.3104
  699TMC3    C310386   3.215   4.303  12.889 -0.1475 -0.4629 -0.2062
  699TMC3    C410387   3.228   4.566  12.841  0.4149 -0.1527  0.1497
  699TMC3    C510388   3.150   4.524  12.944  0.1514  0.2802  0.2514
  699TMC3    C610389   3.158   4.392  12.979 -0.6407  0.0797 -0.0948
  699TMC3     C10390   3.416   4.529  12.694 -0.7451 -0.3793  0.2076
  699TMC3     O10391   3.443   4.648  12.711 -0.8467 -0.5836 -0.3588
  699TMC3     H10392   3.327   4.268  12.702 -2.5548 -0.8005  0.0206
  699TMC3    H110393   3.222   4.669  12.807  1.7932 -0.9367 -2.4803
  699TMC3    H210394   3.096   4.354  13.060 -2.5560  0.6567 -1.2850
  699TMC3    C710395   3.128   4.611  13.058  0.8702 -0.2239  0.0693
  699TMC3    C810396   3.212   4.161  12.922  0.4985  0.2645 -0.6798
  699TMC3    O110397   3.055   4.572  13.148 -0.2525 -0.6053  0.1747
  699TMC3    O210398   3.117   4.119  12.994 -0.1724 -0.5418 -0.2600
  700TMC3    C110399   3.022   2.108   0.262 -0.0336  0.8221  0.3442
  700TMC3    C210400   3.112   2.009   0.281  0.0154  0.5665  0.0224
  700TMC3    C310401   3.239   2.033   0.326 -0.1997 -1.2716 -0.0655
  700TMC3    C410402   3.051   2.238   0.303 -0.2115  0.7192 -0.3205
  700TMC3    C510403   3.182   2.266   0.337 -0.7847  0.6169  0.0910
  700TMC3    C610404   3.276   2.164   0.342 -0.2325 -0.3929 -0.0084
  700TMC3     C10405   2.974   2.098   0.127  0.2561 -0.0145 -0.2767
  700TMC3     O10406   2.903   2.003   0.095 -0.2648  0.1893  0.1611
  700TMC3     H10407   3.086   1.913   0.238 -0.3572  0.9204 -0.5318
  700TMC3    H110408   2.978   2.312   0.271  0.3674  1.8257  0.9055
  700TMC3    H210409   3.379   2.187   0.370 -1.2167  0.5214  2.8451
  700TMC3    C710410   3.238   2.399   0.351 -0.2861  0.5499 -0.6793
  700TMC3    C810411   3.334   1.941   0.269  0.3989 -0.1169  0.2969
  700TMC3    O110412   3.355   2.413   0.321 -0.4015 -0.2393  0.2924
  700TMC3    O210413   3.397   1.991   0.176 -0.0311  0.2613 -0.1129
  701TMC3    C110414   2.974   0.482  15.368  0.0294  0.6018  0.0954
  701TMC3    C210415   2.982   0.453  15.233 -0.2429 -0.3737 -0.3332
  701TMC3    C310416   3.002   0.555  15.149 -0.3955 -0.1265 -0.3288
  701TMC3    C410417   2.995   0.607  15.411 -0.7187 -0.6836 -0.2209
  701TMC3    C510418   3.009   0.706  15.313  0.6551  0.7200  0.3473
  701TMC3    C610419   3.013   0.687  15.179  0.5835  0.0274  0.3094
  701TMC3     C10420   2.917   0.387  15.463  0.2604  0.2388  0.4874
  701TMC3     O10421   2.820   0.429  15.529  0.3578 -0.0597  0.4479
  701TMC3     H10422   2.974   0.350  15.202 -1.2531 -0.5642  0.5638
  701TMC3    H110423   2.978   0.624  15.517  0.5871  0.7354 -0.2445
  701TMC3    H210424   3.011   0.766  15.105 -0.2141  0.5616  0.8862
  701TMC3    C710425   2.993   0.850  15.358  0.2207 -0.0078  0.1453
  701TMC3    C810426   2.946   0.534  15.017 -0.1123 -0.7854 -0.4039
  701TMC3    O110427   3.003   0.925  15.265  0.5024  0.4358 -0.2607
  701TMC3    O210428   2.956   0.629  14.938  0.8742 -0.3210 -0.1535
  702MPD2     C10429   2.477   2.865  11.142  0.2640  0.0666  0.4842
  702MPD2    C110430   2.346   2.899  11.130  0.0165 -0.9493 -0.0854
  702MPD2    C210431   2.308   2.961  11.017 -0.3228  0.8866  0.0983
  702MPD2    C310432   2.394   2.975  10.905 -0.0256 -0.8637 -0.2599
  702MPD2    C410433   2.522   2.942  10.917 -0.1416 -0.3675  0.1614
  702MPD2    C510434   2.567   2.887  11.034  0.7393  0.5740  0.9682
  702MPD2     H10435   2.211   3.008  11.009 -0.8529 -0.5285 -1.8267
  702MPD2    H110436   2.593   2.949  10.834  1.2086 -0.6489  1.2898
  702MPD2    H210437   2.508   2.814  11.233 -1.8859 -0.2584  1.0426
  702MPD2    H310438   2.672   2.859  11.034  0.3450 -0.9010  2.3094
  702MPD2     N10439   2.343   3.032  10.783 -0.3536  0.0618 -0.5452
  702MPD2    H510440   2.249   3.070  10.791 -0.1132  0.0046  2.6668
  702MPD2    N110441   2.248   2.885  11.234  0.3110 -0.0048  0.5616
  702MPD2    H710442   2.161   2.937  11.226  0.9641  1.1659  1.2320
  703TMC3    C110443   2.339   3.138  10.572 -0.0512 -0.4970 -0.1169
  703TMC3    C210444   2.230   3.190  10.634 -0.8708  0.0773 -0.3648
  703TMC3    C310445   2.229   3.319  10.672  0.8702 -0.0407 -0.3554
  703TMC3    C410446   2.440   3.222  10.538  0.0151  0.5682  0.3443
  703TMC3    C510447   2.440   3.354  10.578 -0.9665  0.2634  0.8853
  703TMC3    C610448   2.327   3.407  10.638  0.8123  0.3127 -0.7162
  703TMC3     C10449   2.401   3.037  10.659  0.2514  0.6735 -0.2786
  703TMC3     O10450   2.517   3.004  10.634 -0.0539 -0.2353 -0.5862
  703TMC3     H10451   2.146   3.123  10.648  1.2351 -2.6809 -0.7678
  703TMC3    H110452   2.526   3.183  10.484 -0.4267  0.4497 -0.2719
  703TMC3    H210453   2.318   3.513  10.659  2.2625  0.8966 -2.9627
  703TMC3    C710454   2.541   3.439  10.528  0.1416  0.5502  0.1323
  703TMC3    C810455   2.161   3.353  10.786  0.4560  0.2440  0.0923
  703TMC3    O110456   2.587   3.408  10.418  0.0198 -0.1346  0.0836
  703TMC3    O210457   2.207   3.432  10.867  0.4548  0.3985 -0.3031
  704TMC3    C110458   0.660   1.359  12.135  0.0162 -0.3299  0.8528
  704TMC3    C210459   0.695   1.323  12.008 -0.1466  0.3759 -0.8471
  704TMC3    C310460   0.737   1.192  11.985 -0.0074 -0.5566  0.2239
  704TMC3    C410461   0.691   1.281  12.241  0.3735 -0.0340  0.9189
  704TMC3    C510462   0.752   1.155  12.217 -0.5247  0.5965  1.4929
  704TMC3    C610463   0.760   1.106  12.091  0.7873 -0.0975  0.0899
  704TMC3     C10464   0.525   1.416  12.148  0.3205  0.7395 -0.8679
  704TMC3     O10465   0.479   1.435  12.260  0.2030  0.2765  0.2002
  704TMC3     H10466   0.686   1.400  11.933  0.6981  1.0291 -0.2752
  704TMC3    H110467   0.667   1.318  12.339  0.1936 -0.2722  0.9651
  704TMC3    H210468   0.802   1.008  12.073  0.5105 -0.1225 -0.4335
  704TMC3    C710469   0.731   1.056  12.322 -0.2474  0.5922  0.0075
  704TMC3    C810470   0.659   1.132  11.885  0.3894 -0.0211 -0.3426
  704TMC3    O110471   0.672   0.959  12.289 -0.5502  0.0301 -0.9960
  704TMC3    O210472   0.555   1.184  11.853  0.9544  0.1835 -0.1129
  705MPD2     C10473   4.027   4.232  16.257 -0.2089  0.3244 -0.1743
  705MPD2    C110474   4.036   4.370  16.262  0.1800  0.7112  0.3547
  705MPD2    C210475   3.925   4.439  16.314  0.0486  0.2866 -0.9019
  705MPD2    C310476   3.805   4.368  16.344 -0.1545 -0.2465  0.5847
  705MPD2    C410477   3.802   4.227  16.320 -0.5123  0.3254 -0.0121
  705MPD2    C510478   3.919   4.167  16.290  0.4166  0.4822  0.4602
  705MPD2     H10479   3.924   4.547  16.327  0.9092  0.0225  1.4000
  705MPD2    H110480   3.714   4.164  16.325 -0.9510  1.0016  0.8495
  705MPD2    H210481   4.108   4.173  16.215 -1.1819 -0.5107 -0.8758
  705MPD2    H310482   3.911   4.060  16.275 -2.3835  0.5518  1.3082
  705MPD2     N10483   3.685   4.431  16.375  0.7070  0.4231  0.1191
  705MPD2    H510484   3.605   4.369  16.389 -0.4659  2.6571  3.3642
  705MPD2    N110485   4.133   4.451  16.195 -0.4168  0.1259  0.1433
  705MPD2    H710486   4.114   4.551  16.187 -1.1905 -0.0654 -0.3994
  706TMC3    C110487   4.531   4.547  15.981 -0.1085  0.2057  0.3116
  706TMC3    C210488   4.561   4.661  16.053 -0.1763  0.3249 -0.9608
  706TMC3    C310489   4.463   4.698  16.138  0.1800 -0.3487 -0.0589
  706TMC3    C410490   4.430   4.459  16.012  0.6798 -0.2302  0.9340
  706TMC3    C510491   4.346   4.496  16.109  0.2921  0.0438 -1.2654
  706TMC3    C610492   4.353   4.621  16.166  0.1926  0.4315  0.1209
  706TMC3     C10493   4.617   4.502  15.872  0.2516 -0.1562 -0.2420
  706TMC3     O10494   0.002   4.511  15.887 -0.4579 -0.7392 -0.7173
  706TMC3     H10495   4.642   4.731  16.039  0.0525  0.3958  0.7155
  706TMC3    H110496   4.421   4.361  15.966  1.6416  0.4243 -0.6354
  706TMC3    H210497   4.289   4.639  16.251 -1.6706 -2.6255 -0.6246
  706TMC3    C710498   4.248   4.397  16.138 -0.6693  0.3360 -0.8808
  706TMC3    C810499   4.458   0.086  16.219  0.0095  0.3826  0.6308
  706TMC3    O110500   4.259   4.289  16.084  0.1009  0.7317 -0.2313
  706TMC3    O210501   4.346   0.113  16.264  0.3243 -0.3425  0.8637
  707TMC3    C110502   1.089   3.019   0.955 -0.6205 -0.1972  0.2370
  707TMC3    C210503   1.107   2.951   1.068  0.5854  0.0098 -0.1417
  707TMC3    C310504   0.997   2.899   1.131 -0.6371  0.2642 -0.1672
  707TMC3    C410505   0.970   3.027   0.886  0.1972 -0.1189  0.3536
  707TMC3    C510506   0.861   2.969   0.945 -0.3378 -0.1627 -0.1446
  707TMC3    C610507   0.869   2.904   1.071  0.0114 -0.2410 -0.1325
  707TMC3     C10508   1.206   3.087   0.902 -0.2896  0.5932  0.2205
  707TMC3     O10509   1.310   3.085   0.964  0.2636  0.3504  0.4093
  707TMC3     H10510   1.205   2.950   1.114  1.1897  0.6106 -1.4038
  707TMC3    H110511   0.956   3.075   0.790  0.3252  0.2036  0.4969
  707TMC3    H210512   0.779   2.876   1.124  1.7522  1.8805  3.9470
  707TMC3    C710513   0.727   2.993   0.892  0.0606 -0.6444 -0.4741
  707TMC3    C810514   1.002   2.848   1.267 -0.1297 -0.0135  0.2682
  707TMC3    O110515   0.705   3.093   0.825 -0.0206  0.0035 -0.2317
  707TMC3    O210516   0.900   2.831   1.325 -0.5875 -0.0932  0.6879
  708MPD2     C10517   3.020   1.861  13.893  0.7364 -0.1725 -0.2174
  708MPD2    C110518   2.977   1.990  13.870 -0.4923 -0.5812 -0.3909
  708MPD2    C210519   2.845   2.031  13.882 -0.0012 -0.1811 -0.8024
  708MPD2    C310520   2.745   1.931  13.907 -0.3660  0.9743 -0.3455
  708MPD2    C410521   2.793   1.797  13.908 -0.5820 -0.0693 -0.2169
  708MPD2    C510522   2.924   1.769  13.902 -0.3497  0.0897 -0.5301
  708MPD2     H10523   2.816   2.134  13.869  0.3171 -0.0638 -0.5768
  708MPD2    H110524   2.734   1.705  13.908 -1.7548  0.6906 -1.2538
  708MPD2    H210525   3.118   1.819  13.876  1.7392  1.4532  1.5285
  708MPD2    H310526   2.955   1.665  13.910  0.0269  0.0691 -2.3311
  708MPD2     N10527   2.605   1.964  13.942  0.3200 -0.0627  0.4559
  708MPD2    H510528   2.546   1.902  13.997  0.0481  0.0040  0.2377
  708MPD2    N110529   3.068   2.099  13.860  0.3976  0.3135 -0.3675
  708MPD2    H710530   3.042   2.194  13.883  2.2556  1.0291 -1.2770
  709TMC3    C110531   3.241   2.210  13.758  0.0168  0.8264 -0.3432
  709TMC3    C210532   3.230   2.221  13.628  0.3367 -0.1632 -0.2634
  709TMC3    C310533   3.177   2.339  13.570  0.7539 -0.1286  0.5278
  709TMC3    C410534   3.199   2.310  13.841  0.1310  0.1569  0.4638
  709TMC3    C510535   3.140   2.421  13.793 -0.6361 -0.0785 -0.4652
  709TMC3    C610536   3.124   2.436  13.655 -0.9429  0.3485 -0.1386
  709TMC3     C10537   3.198   2.079  13.813 -0.2873 -0.2277  0.1505
  709TMC3     O10538   3.245   1.982  13.750  0.1865  0.2227  0.0194
  709TMC3     H10539   3.274   2.143  13.568  1.8653  1.4181 -1.2109
  709TMC3    H110540   3.214   2.297  13.948 -0.1726 -0.8183  0.3871
  709TMC3    H210541   3.055   2.513  13.622  0.6691  0.7505 -2.5696
  709TMC3    C710542   3.018   2.447  13.861  0.1206 -0.2779 -0.6020
  709TMC3    C810543   3.125   2.344  13.432 -0.1139 -0.2696  0.2116
  709TMC3    O110544   2.989   2.356  13.932 -0.1757  0.5373 -0.1831
  709TMC3    O210545   3.027   2.412  13.405  0.0585 -0.7078 -0.1620
  710TMC3    C110546   3.745   3.837   0.575  0.1520  0.1662  0.5454
  710TMC3    C210547   3.825   3.904   0.484 -0.1300 -0.1257  0.2721
  710TMC3    C310548   3.897   3.822   0.403 -0.1701 -0.3752 -0.3728
  710TMC3    C410549   3.749   3.698   0.593 -0.0305 -0.4166  0.1499
  710TMC3    C510550   3.842   3.623   0.522  0.6407  0.4626 -0.2041
  710TMC3    C610551   3.916   3.687   0.424 -0.3075 -0.7688 -0.1294
  710TMC3     C10552   3.700   3.906   0.687  1.0484 -0.3504 -0.4858
  710TMC3     O10553   3.670   3.843   0.785 -0.0237 -0.0579  0.0041
  710TMC3     H10554   3.849   4.010   0.477  0.7859 -0.3584 -0.0735
  710TMC3    H110555   3.676   3.647   0.654 -1.2620  0.0137 -0.9566
  710TMC3    H210556   3.991   3.639   0.363 -0.7744  0.1987 -1.4670
  710TMC3    C710557   3.867   3.487   0.559  0.6136  0.1423  0.1979
  710TMC3    C810558   3.958   3.885   0.293 -0.2857 -0.4235 -1.0585
  710TMC3    O110559   3.790   3.453   0.649 -0.0661 -0.6071  0.2022
  710TMC3    O210560   4.051   3.825   0.234  0.2057  0.6207  0.1056
  711TMC3    C110561   3.501   0.517  15.182  0.2810 -0.2002  0.7634
  711TMC3    C210562   3.482   0.521  15.320 -0.2870 -0.1427  0.1496
  711TMC3    C310563   3.577   0.578  15.396  0.2090  0.1017  0.6996
  711TMC3    C410564   3.619   0.561  15.124 -0.5450  0.4562 -0.5423
  711TMC3    C510565   3.712   0.620  15.206  0.0108  0.1693 -0.2674
  711TMC3    C610566   3.692   0.626  15.338  0.2289  0.3508  0.7716
  711TMC3     C10567   3.393   0.445  15.103 -0.5296  1.0255 -0.8924
  711TMC3     O10568   3.294   0.403  15.164  0.3866  0.0486 -0.1672
  711TMC3     H10569   3.386   0.492  15.361 -0.6651  0.7069 -0.1254
  711TMC3    H110570   3.640   0.543  15.019  0.4171 -0.1119 -0.2521
  711TMC3    H210571   3.768   0.680  15.394 -1.2952  3.9259 -0.6353
  711TMC3    C710572   3.854   0.609  15.171 -0.2167  0.7969 -0.1694
  711TMC3    C810573   3.530   0.613  15.526 -0.5508  0.3062  0.6540
  711TMC3    O110574   3.933   0.585  15.259 -0.7761 -0.1602 -1.1904
  711TMC3    O210575   3.409   0.606  15.546 -0.0555 -0.3913 -0.1434
  712MPD2     C10576   0.263   1.119  14.190 -0.3367  0.0896  0.6087
  712MPD2    C110577   0.239   1.114  14.055  0.1591 -0.6634 -0.2321
  712MPD2    C210578   0.338   1.150  13.966 -0.4751  0.0905 -0.6995
  712MPD2    C310579   0.459   1.191  14.014 -0.1315  0.8822  0.7691
  712MPD2    C410580   0.483   1.195  14.151 -0.0038 -0.2349  0.3082
  712MPD2    C510581   0.386   1.156  14.233 -0.3163  0.4944  0.1326
  712MPD2     H10582   0.318   1.144  13.859  1.4742  1.4173 -1.1587
  712MPD2    H110583   0.574   1.240  14.188  1.3813 -1.0856 -2.0854
  712MPD2    H210584   0.189   1.097  14.266  0.7254  0.7711  1.8502
  712MPD2    H310585   0.406   1.163  14.339  3.1611 -1.1113 -0.4006
  712MPD2     N10586   0.555   1.234  13.927 -0.8644 -0.1616  0.3178
  712MPD2    H510587   0.640   1.272  13.968 -0.4836  0.4274 -0.9990
  712MPD2    N110588   0.111   1.094  14.007 -0.8956 -0.1515  0.2528
  712MPD2    H710589   0.035   1.114  14.072 -2.1064 -0.9015 -0.9221
  713TMC3    C110590   0.647   1.347  13.744  0.0071  0.0618  0.1963
  713TMC3    C210591   0.765   1.304  13.802 -0.2404 -0.0847 -0.2472
  713TMC3    C310592   0.867   1.395  13.794 -1.3432  0.6143 -0.9437
  713TMC3    C410593   0.628   1.468  13.691 -0.1835  0.1807  0.1186
  713TMC3    C510594   0.731   1.558  13.694  0.1693  0.3759  0.0345
  713TMC3    C610595   0.851   1.526  13.758  0.0261  0.8535 -0.3907
  713TMC3     C10596   0.535   1.281  13.794  0.6801 -0.0210  0.1648
  713TMC3     O10597   0.439   1.279  13.716  0.1437 -0.2872  0.6896
  713TMC3     H10598   0.778   1.198  13.820  0.0164  0.2991  1.8801
  713TMC3    H110599   0.528   1.499  13.661  0.0754  2.5125  1.6397
  713TMC3    H210600   0.938   1.589  13.748  1.5472 -0.9165  1.8923
  713TMC3    C710601   0.708   1.699  13.654 -0.4362  0.6521  0.5368
  713TMC3    C810602   0.994   1.340  13.771  0.2542 -0.0059  0.1509
  713TMC3    O110603   0.789   1.770  13.704 -0.0694  0.0243  0.2863
  713TMC3    O210604   1.063   1.412  13.699 -0.0807 -0.2134 -0.1923
  714MPD2     C10605   2.747   0.011   1.453  0.3379 -0.0349  0.4177
  714MPD2    C110606   2.732   4.719   1.318 -0.2272 -0.0766  0.6822
  714MPD2    C210607   2.620   0.023   1.242 -0.7673  0.6037  0.7148
  714MPD2    C310608   2.527   0.105   1.301  0.5058  0.2005 -0.8636
  714MPD2    C410609   2.544   0.145   1.434  0.4406 -0.1324  1.0612
  714MPD2    C510610   2.653   0.097   1.507  0.4816  0.3072  0.4619
  714MPD2     H10611   2.604   4.727   1.140  3.3569 -0.2115  0.3115
  714MPD2    H110612   2.478   0.215   1.484  0.7217  1.6780 -1.1073
  714MPD2    H210613   2.833   4.706   1.504  1.5713  0.2773 -1.3964
  714MPD2    H310614   2.666   0.131   1.610 -1.5443  1.3558  0.3850
  714MPD2     N10615   2.424   0.146   1.218 -0.3203 -0.1033  0.2361
  714MPD2    H510616   2.417   0.120   1.120  1.8638 -0.0952  0.0643
  714MPD2    N110617   2.838   4.640   1.262  0.6260  0.0591  0.6667
  714MPD2    H710618   2.893   4.592   1.332 -0.2277  0.8991  1.9021
  715TMC3    C110619   2.956   4.520   1.109 -0.1861  0.2936 -0.1333
  715TMC3    C210620   2.947   4.427   0.998  0.0377  0.1731  1.2907
  715TMC3    C310621   3.064   4.368   0.970 -0.2121 -0.5600  1.1855
  715TMC3    C410622   3.069   4.533   1.185 -0.1797 -0.4748 -0.1073
  715TMC3    C510623   3.179   4.458   1.153  0.0922 -0.2281 -0.4200
  715TMC3    C610624   3.177   4.367   1.051  0.0351  0.5101  0.3141
  715TMC3     C10625   2.843   4.605   1.133 -0.2850  1.1690  0.1769
  715TMC3     O10626   2.773   4.632   1.034  0.0858 -0.3214  0.0305
  715TMC3     H10627   2.860   4.415   0.934  1.0621  0.4778 -0.1494
  715TMC3    H110628   3.079   4.601   1.269  0.3666 -0.5915 -0.0779
  715TMC3    H210629   3.262   4.301   1.037 -0.6328 -0.1056 -0.7846
  715TMC3    C710630   3.296   4.459   1.245 -0.3358 -0.7693  0.1171
  715TMC3    C810631   3.060   4.272   0.863 -0.7621 -0.1084  0.1907
  715TMC3    O110632   3.338   4.570   1.285  0.2602  0.6661  0.6428
  715TMC3    O210633   2.950   4.228   0.835  0.3752  0.3894 -0.4475
  716MPD2     C10634   1.354   2.994   9.701 -0.0314 -0.4318 -0.4801
  716MPD2    C110635   1.343   2.890   9.613 -0.0893 -0.7196 -0.2342
  716MPD2    C210636   1.455   2.823   9.584 -0.2526  0.2509 -0.5440
  716MPD2    C310637   1.575   2.850   9.655 -0.9903  0.1968 -0.7525
  716MPD2    C410638   1.578   2.942   9.754 -0.6748 -0.6994  0.5139
  716MPD2    C510639   1.468   3.017   9.777  0.1285 -0.1524  0.4931
  716MPD2     H10640   1.453   2.738   9.517 -1.3082 -2.3065  2.7422
  716MPD2    H110641   1.663   2.969   9.815 -0.5886 -0.1105  0.1437
  716MPD2    H210642   1.266   3.057   9.706  0.8272  0.8030 -0.6607
  716MPD2    H310643   1.473   3.107   9.838 -1.9503  1.0786 -1.1767
  716MPD2     N10644   1.683   2.761   9.625  0.2783 -0.3786 -0.2909
  716MPD2    H510645   1.663   2.689   9.555 -0.9957  0.9752 -1.3200
  716MPD2    N110646   1.220   2.862   9.547 -0.0206 -0.1492 -0.6398
  716MPD2    H710647   1.139   2.916   9.576 -0.0176 -0.1137 -0.6963
  717TMC3    C110648   1.888   2.656   9.618 -0.1012 -0.2777 -0.5700
  717TMC3    C210649   1.837   2.565   9.529 -0.1784 -0.0699 -0.0699
  717TMC3    C310650   1.899   2.444   9.523  0.6136 -0.0473 -0.1828
  717TMC3    C410651   2.002   2.629   9.687  0.2133 -0.1376 -0.2364
  717TMC3    C510652   2.066   2.507   9.679  0.5337 -0.1264  0.2347
  717TMC3    C610653   2.004   2.413   9.601 -0.3553  0.1812 -0.3210
  717TMC3     C10654   1.812   2.767   9.666 -0.6340  0.1086  0.2990
  717TMC3     O10655   1.866   2.849   9.738  0.0616 -0.3654  0.0694
  717TMC3     H10656   1.741   2.571   9.480 -1.0779  1.9455  1.9411
  717TMC3    H110657   2.057   2.708   9.737 -0.1193  0.8985 -1.4932
  717TMC3    H210658   2.033   2.310   9.592  0.4085  0.4884 -1.2730
  717TMC3    C710659   2.208   2.495   9.712 -0.6255  0.4572  0.1705
  717TMC3    C810660   1.815   2.345   9.456 -0.1397 -0.2735  0.1260
  717TMC3    O110661   2.251   2.587   9.782 -0.0700 -0.1376 -0.4726
  717TMC3    O210662   1.697   2.371   9.437 -0.3859  0.1961 -0.7223
  718MPD2     C10663   1.607   1.252  12.099  0.6695 -0.3486  0.0139
  718MPD2    C110664   1.499   1.171  12.089  0.7215  0.2538  0.3336
  718MPD2    C210665   1.459   1.124  12.213  0.0492 -0.2867 -0.5159
  718MPD2    C310666   1.523   1.149  12.338 -0.7335  0.1191  0.6343
  718MPD2    C410667   1.619   1.246  12.338  0.2913 -0.0406  1.0739
  718MPD2    C510668   1.658   1.294  12.215 -0.3184 -0.2644 -0.6366
  718MPD2     H10669   1.369   1.064  12.209  0.0731 -0.1857 -2.7231
  718MPD2    H110670   1.660   1.284  12.431  0.7330 -2.7776  1.9917
  718MPD2    H210671   1.643   1.304  12.010 -0.7354  1.6261  0.6131
  718MPD2    H310672   1.732   1.373  12.203 -0.2237 -0.2744 -0.1105
  718MPD2     N10673   1.461   1.099  12.450 -0.2340  0.3711 -0.2408
  718MPD2    H510674   1.379   1.041  12.442  0.4461 -0.6681  0.3931
  718MPD2    N110675   1.456   1.130  11.970 -0.1165  0.1437  0.2897
  718MPD2    H710676   1.514   1.152  11.890  0.5310  0.7250  0.9209
  719TMC3    C110677   1.373   0.963  11.815 -0.0258  0.4842  0.5694
  719TMC3    C210678   1.353   0.830  11.840 -0.4011 -0.4493 -1.0493
  719TMC3    C310679   1.455   0.747  11.843 -0.5320 -0.7923  0.2967
  719TMC3    C410680   1.493   1.000  11.758  0.0182  0.3915  0.1551
  719TMC3    C510681   1.597   0.910  11.746 -0.0558  0.3581  0.6905
  719TMC3    C610682   1.579   0.779  11.792  0.1696  0.1105  0.2984
  719TMC3     C10683   1.352   1.041  11.939 -0.6224 -0.5211  0.3279
  719TMC3     O10684   1.266   0.998  12.018 -0.2157 -0.2294  0.2006
  719TMC3     H10685   1.262   0.800  11.891  1.4376 -2.1641  1.2157
  719TMC3    H110686   1.512   1.106  11.747 -0.7795  0.3795 -1.3627
  719TMC3    H210687   1.646   0.694  11.791  0.2988  0.2181  0.0117
  719TMC3    C710688   1.710   0.977  11.809 -0.5809  0.2790  0.5783
  719TMC3    C810689   1.469   0.651  11.959  0.0676 -0.0723 -0.8149
  719TMC3    O110690   1.732   1.088  11.766 -0.2063 -0.0404 -0.0041
  719TMC3    O210691   1.570   0.668  12.028 -0.7761  0.3138  0.1083
  720MPD2     C10692   4.542   3.121  14.145  0.1978 -0.7547 -0.0923
  720MPD2    C110693   4.630   3.179  14.051 -0.0872  0.1899 -0.5820
  720MPD2    C210694   0.016   3.226  14.100 -0.2134  0.0879  0.5613
  720MPD2    C310695   0.052   3.213  14.238  1.0138 -0.2121  0.1473
  720MPD2    C410696   4.698   3.161  14.326  0.3032 -0.3954 -0.1545
  720MPD2    C510697   4.580   3.116  14.278 -0.0473  0.0500  0.2333
  720MPD2     H10698   0.079   3.270  14.023  0.8344 -1.0220  0.7980
  720MPD2    H110699   4.722   3.130  14.427  2.9981  3.8397  0.4597
  720MPD2    H210700   4.446   3.082  14.113 -0.1128 -0.3523  0.3560
  720MPD2    H310701   4.509   3.070  14.346 -0.4600  0.1578 -0.1315
  720MPD2     N10702   0.162   3.291  14.285 -0.5847  0.1592 -0.0362
  720MPD2    H510703   0.222   3.342  14.221  0.1700 -0.9813 -0.2238
  720MPD2    N110704   4.600   3.194  13.913  0.5561  0.4156  0.2035
  720MPD2    H710705   4.678   3.232  13.861 -0.6442  0.5391 -1.4918
  721TMC3    C110706   0.304   3.394  14.441  0.4862  0.2797 -0.8199
  721TMC3    C210707   0.329   3.436  14.566 -0.5306 -0.2704 -0.4648
  721TMC3    C310708   0.457   3.474  14.597  0.3631 -0.9291 -0.0783
  721TMC3    C410709   0.408   3.393  14.341  0.0467  0.2183  0.7868
  721TMC3    C510710   0.531   3.437  14.372  0.4780  0.3224  0.5160
  721TMC3    C610711   0.557   3.481  14.504 -0.0481  0.4096  0.0502
  721TMC3     C10712   0.194   3.309  14.420 -0.1558 -0.4492 -0.2113
  721TMC3     O10713   0.154   3.246  14.518 -0.3355  0.2906  0.4169
  721TMC3     H10714   0.259   3.456  14.647  1.5110 -1.0051  1.4952
  721TMC3    H110715   0.394   3.336  14.251  2.1890 -0.8510  1.1406
  721TMC3    H210716   0.653   3.525  14.526  0.8837 -1.1698 -0.8942
  721TMC3    C710717   0.642   3.426  14.276 -0.1637 -0.4486 -0.7872
  721TMC3    C810718   0.514   3.506  14.726 -0.5601  0.7058  0.1784
  721TMC3    O110719   0.750   3.418  14.338 -0.0671 -0.6174  0.2778
  721TMC3    O210720   0.600   3.592  14.742  0.2888 -0.2913 -0.6577
  722MPD2     C10721   4.437   1.574  13.128 -0.4423 -0.7044 -0.7063
  722MPD2    C110722   4.399   1.699  13.153  0.1533 -0.4692 -0.0378
  722MPD2    C210723   4.265   1.729  13.167  0.0518  0.4550  0.5477
  722MPD2    C310724   4.168   1.633  13.147 -0.7077 -0.0099  0.2801
  722MPD2    C410725   4.206   1.511  13.104 -0.3502 -0.3941 -0.1382
  722MPD2    C510726   4.340   1.479  13.104 -0.3576 -0.8971 -0.5925
  722MPD2     H10727   4.242   1.834  13.181  0.1588  0.7575 -1.5387
  722MPD2    H110728   4.140   1.433  13.067 -0.3777  0.0703 -1.0627
  722MPD2    H210729   4.535   1.542  13.094  0.2275  0.3985  0.1799
  722MPD2    H310730   4.372   1.381  13.072 -0.7781 -2.2519  3.2507
  722MPD2     N10731   4.040   1.677  13.165  0.6169 -0.8037 -0.5462
  722MPD2    H510732   4.020   1.763  13.215 -0.9211 -1.1856 -0.5134
  722MPD2    N110733   4.486   1.808  13.153  0.4642  0.3962 -0.6373
  722MPD2    H710734   4.441   1.899  13.153 -1.4240 -0.5601 -2.3016
  723TMC3    C110735   3.811   1.663  13.179  0.4771  0.1579  0.4420
  723TMC3    C210736   3.704   1.610  13.243  0.1638  0.0207 -0.3848
  723TMC3    C310737   3.607   1.689  13.281  0.0556  0.6104  0.5953
  723TMC3    C410738   3.804   1.792  13.156  0.2491  0.0593 -0.5853
  723TMC3    C510739   3.701   1.876  13.192  0.6883  0.9052  0.1543
  723TMC3    C610740   3.591   1.824  13.254 -0.4961 -0.5268 -0.2036
  723TMC3     C10741   3.936   1.592  13.172  0.3507  0.3940 -0.6562
  723TMC3     O10742   3.937   1.471  13.184  0.0669  0.0927 -0.3004
  723TMC3     H10743   3.714   1.504  13.264 -0.1829  0.0730  0.0460
  723TMC3    H110744   3.870   1.834  13.081  0.8418  1.8065  0.9378
  723TMC3    H210745   3.511   1.893  13.279  0.2492  0.0868  0.5036
  723TMC3    C710746   3.701   2.011  13.144  0.5008 -0.2502 -0.7106
  723TMC3    C810747   3.472   1.620  13.312  0.2856 -0.5901 -0.3612
  723TMC3    O110748   3.670   2.088  13.233 -0.1007 -0.9825 -0.0663
  723TMC3    O210749   3.387   1.683  13.375  0.5850 -0.0280 -0.3229
  724TMC3    C110750   3.755   4.241  10.492  0.5352  0.1190  0.2145
  724TMC3    C210751   3.766   4.188  10.369  0.7506  0.1955  0.7203
  724TMC3    C310752   3.890   4.151  10.330  0.5763 -0.4686  0.3278
  724TMC3    C410753   3.855   4.267  10.571  0.5421 -0.6327 -0.0655
  724TMC3    C510754   3.982   4.237  10.526  0.4208 -0.1721  0.1236
  724TMC3    C610755   4.001   4.186  10.402  0.4659  0.0346 -1.1288
  724TMC3     C10756   3.616   4.265  10.551 -0.3606  0.2942  0.4829
  724TMC3     O10757   3.607   4.270  10.676  0.0783  0.1336 -0.3180
  724TMC3     H10758   3.680   4.160  10.310  0.0963  1.0929  1.2525
  724TMC3    H110759   3.838   4.295  10.674 -1.1844 -1.1311 -0.2130
  724TMC3    H210760   4.097   4.188  10.352 -0.2824 -2.7253 -2.7012
  724TMC3    C710761   4.098   4.312  10.573 -0.3216  0.2844  0.6346
  724TMC3    C810762   3.907   4.141  10.188  0.3475  0.2135  0.8594
  724TMC3    O110763   4.201   4.299  10.517  0.4409  0.0523 -0.7848
  724TMC3    O210764   3.840   4.053  10.137  0.1648  0.0197  0.7214
  725TMC3    C110765   1.447   3.274  12.889  0.7832  0.0634  0.3576
  725TMC3    C210766   1.318   3.305  12.842  0.3414 -0.4299 -0.5417
  725TMC3    C310767   1.240   3.203  12.804  0.2296  0.0029  0.3358
  725TMC3    C410768   1.493   3.146  12.906 -0.0386  0.6122 -0.5270
  725TMC3    C510769   1.408   3.044  12.865  0.1631 -0.3954 -1.1961
  725TMC3    C610770   1.284   3.074  12.815 -0.1175  0.6277 -0.2493
  725TMC3     C10771   1.511   3.377  12.968 -0.1583  0.1151 -0.2193
  725TMC3     O10772   1.499   3.497  12.945 -0.5806  0.4565 -0.1623
  725TMC3     H10773   1.286   3.408  12.846 -0.6876 -0.6616 -2.8942
  725TMC3    H110774   1.589   3.117  12.949 -0.0894 -0.6571 -1.2774
  725TMC3    H210775   1.222   2.995  12.774  0.5179  0.4460 -0.8684
  725TMC3    C710776   1.453   2.908  12.872 -0.0968 -0.0749 -0.1283
  725TMC3    C810777   1.105   3.219  12.771 -0.8117 -0.5055 -0.4364
  725TMC3    O110778   1.567   2.886  12.911 -0.0298 -0.1116  0.0560
  725TMC3    O210779   1.028   3.128  12.771 -0.2276 -0.1342 -0.0607
  726MPD2     C10780   3.461   0.060  10.535  0.7511  0.1368 -0.4395
  726MPD2    C110781   3.382   0.121  10.441 -0.5670 -0.0972 -0.6216
  726MPD2    C210782   3.241   0.105  10.465  0.5017 -0.1543 -0.6284
  726MPD2    C310783   3.178   0.043  10.572  0.0915  0.0006  0.7847
  726MPD2    C410784   3.257   4.722  10.662 -0.4514  0.4646 -0.5447
  726MPD2    C510785   3.396   4.732  10.644  0.3602  1.0705  0.0563
  726MPD2     H10786   3.171   0.163  10.406 -0.0307  0.7013  0.8622
  726MPD2    H110787   3.219   4.654  10.737  0.4980 -0.1034 -0.5781
  726MPD2    H210788   3.568   0.048  10.522  0.8692 -0.2242  0.8967
  726MPD2    H310789   3.457   4.683  10.719  0.1066 -0.4862 -0.7729
  726MPD2     N10790   3.036   0.054  10.603  0.1380  0.1528  0.2686
  726MPD2    H510791   3.011   0.033  10.699 -2.1817  0.9362 -0.1623
  726MPD2    N110792   3.430   0.185  10.324  0.4327  0.3100 -0.2003
  726MPD2    H710793   3.361   0.210  10.254  0.5921  0.8738 -0.1518
  727TMC3    C110794   3.567   0.329  10.207  0.8406 -0.2765 -0.1980
  727TMC3    C210795   3.689   0.388  10.195  0.4593  0.2144  0.3448
  727TMC3    C310796   3.698   0.508  10.125  0.0715  0.3227 -0.6369
  727TMC3    C410797   3.456   0.387  10.148  0.5351 -0.5379 -0.4566
  727TMC3    C510798   3.473   0.501  10.075 -0.4051  0.4219 -0.0021
  727TMC3    C610799   3.592   0.566  10.060  0.1309 -0.7293 -0.2186
  727TMC3     C10800   3.561   0.219  10.307 -0.2712  0.8125 -0.7319
  727TMC3     O10801   3.663   0.209  10.374  0.2088 -0.3137  0.0941
  727TMC3     H10802   3.783   0.347  10.232  0.2883 -0.4604  0.0404
  727TMC3    H110803   3.356   0.350  10.169  0.2953  0.0567 -0.5719
  727TMC3    H210804   3.603   0.657  10.002  2.6601  0.5442  2.2482
  727TMC3    C710805   3.354   0.560  10.008  0.1021 -0.9322  0.3722
  727TMC3    C810806   3.808   0.590  10.159  0.6676 -0.3107 -0.2581
  727TMC3    O110807   3.356   0.677   9.969 -0.0300 -1.4196 -0.2745
  727TMC3    O210808   3.907   0.530  10.202 -0.1217 -0.4817 -0.0247
  728TMC3    C110809   2.937   3.874  15.306 -0.2607  0.1264 -0.4097
  728TMC3    C210810   3.050   3.931  15.244  0.6301  0.1475  0.9292
  728TMC3    C310811   3.056   3.928  15.104 -0.3795  0.4360  0.0962
  728TMC3    C410812   2.841   3.805  15.232 -0.7618 -0.1492  0.2619
  728TMC3    C510813   2.848   3.797  15.095 -0.1131 -0.4343 -0.5310
  728TMC3    C610814   2.967   3.847  15.039  0.0744 -0.0903 -0.4131
  728TMC3     C10815   2.952   3.858  15.449 -0.1900 -0.5213  0.1346
  728TMC3     O10816   3.040   3.933  15.496  0.8486  0.2225 -1.1159
  728TMC3     H10817   3.128   3.980  15.301  1.4052 -0.6199  0.5160
  728TMC3    H110818   2.743   3.783  15.271 -0.7568 -0.6046  0.0213
  728TMC3    H210819   2.982   3.836  14.932  3.2140  2.3044 -0.1955
  728TMC3    C710820   2.735   3.847  15.028 -0.5498 -0.8850 -0.6875
  728TMC3    C810821   3.183   3.955  15.049 -0.2343 -0.1850  0.0479
  728TMC3    O110822   2.624   3.804  15.052  0.7730  0.9143 -0.0436
  728TMC3    O210823   3.224   3.886  14.964 -0.1867  0.0862 -0.0347
  729MPD2     C10824   0.202   0.148  16.975  0.2876  0.0461 -0.0531
  729MPD2    C110825   0.330   0.176  17.021  0.2495  0.9351 -0.2304
  729MPD2    C210826   0.344   0.226  17.146  0.0033 -0.2912  0.2996
  729MPD2    C310827   0.240   0.259  17.227 -0.2426  0.4298 -0.1221
  729MPD2    C410828   0.110   0.244  17.179  0.0724 -0.2359 -0.0511
  729MPD2    C510829   0.097   0.196  17.052 -1.1007  0.5601 -0.0573
  729MPD2     H10830   0.445   0.243  17.184 -0.7138  0.7411  1.7575
  729MPD2    H110831   0.028   0.290  17.234 -0.3217 -1.5795  0.4871
  729MPD2    H210832   0.185   0.118  16.872 -0.6573  0.9726 -0.1741
  729MPD2    H310833   4.732   0.193  17.014 -0.5457 -1.1939 -1.4024
  729MPD2     N10834   0.267   0.313  17.356 -0.2040  0.0319  0.2645
  729MPD2    H510835   0.366   0.311  17.380 -0.5042 -0.4267  1.4604
  729MPD2    N110836   0.435   0.157  16.933 -0.2007  0.6420 -0.2167
  729MPD2    H710837   0.423   0.114  16.842 -0.9887  0.5929 -0.0973
  730TMC3    C110838   0.227   0.383  17.578 -0.1560 -0.6670 -0.8109
  730TMC3    C210839   0.363   0.373  17.585  0.6291 -0.1486  0.0337
  730TMC3    C310840   0.433   0.475  17.648  0.2503 -0.4019  0.0590
  730TMC3    C410841   0.160   0.488  17.635  0.7506 -1.3430 -0.3844
  730TMC3    C510842   0.228   0.595  17.695 -0.3447  0.2049 -0.6428
  730TMC3    C610843   0.363   0.576  17.710 -0.7428  0.6594 -0.0469
  730TMC3     C10844   0.172   0.330  17.454  0.2234 -0.3637  0.0911
  730TMC3     O10845   0.052   0.300  17.454 -0.0892  0.0144  0.5657
  730TMC3     H10846   0.423   0.296  17.539  2.2290  0.1717  1.5814
  730TMC3    H110847   0.052   0.497  17.627  0.8072 -0.8439 -0.5713
  730TMC3    H210848   0.422   0.660   0.002  1.3512 -1.0865  0.7014
  730TMC3    C710849   0.182   0.725  17.643  0.4186  0.3276 -0.0024
  730TMC3    C810850   0.554   0.516  17.577 -0.0132 -0.9944  0.7458
  730TMC3    O110851   0.132   0.734  17.527 -0.3646 -0.0274  0.3177
  730TMC3    O210852   0.597   0.443  17.489  0.0046  0.3948 -0.0330
  731MPD2     C10853   0.703   3.059  12.994 -0.0130 -0.5606 -0.1780
  731MPD2    C110854   0.751   2.934  12.966  0.2082  0.0829 -0.6672
  731MPD2    C210855   0.797   2.849  13.064  0.0721  0.1019 -0.8245
  731MPD2    C310856   0.793   2.878  13.200 -0.5987  0.0906  0.1365
  731MPD2    C410857   0.747   3.005  13.229 -0.0285  0.0871 -0.2961
  731MPD2    C510858   0.700   3.088  13.131  0.0502  0.4633 -0.8613
  731MPD2     H10859   0.819   2.745  13.043 -0.7845 -0.3120  0.3244
  731MPD2    H110860   0.721   3.037  13.329 -1.5018  0.5898 -0.8438
  731MPD2    H210861   0.662   3.124  12.918 -0.9441  0.9455  1.6226
  731MPD2    H310862   0.660   3.185  13.157  3.2244  1.0229  1.8460
  731MPD2     N10863   0.831   2.787  13.304  0.1971 -0.4352 -0.1351
  731MPD2    H510864   0.870   2.701  13.267  0.2885  0.9781 -3.2732
  731MPD2    N110865   0.773   2.901  12.829  0.3028 -0.0382  0.0924
  731MPD2    H710866   0.748   2.971  12.760 -0.3479 -1.7388 -1.4128
  732TMC3    C110867   0.810   2.780  12.627  0.3271  0.5846  0.0889
  732TMC3    C210868   0.705   2.833  12.561 -0.0224  0.8897  0.1123
  732TMC3    C310869   0.725   2.881  12.436  0.0678 -0.0953  1.2647
  732TMC3    C410870   0.933   2.774  12.567  0.0006 -0.3742 -0.0317
  732TMC3    C510871   0.950   2.826  12.441 -0.4512  0.4318 -0.0472
  732TMC3    C610872   0.844   2.891  12.380 -0.4524 -0.4087  0.7379
  732TMC3     C10873   0.814   2.779  12.779  0.4059  0.1797 -0.4823
  732TMC3     O10874   0.889   2.694  12.833  0.1133  0.2842 -0.1946
  732TMC3     H10875   0.614   2.850  12.618 -0.2085  0.1450  0.0394
  732TMC3    H110876   1.020   2.750  12.627 -0.3697 -2.5896 -0.3508
  732TMC3    H210877   0.853   2.927  12.278  1.7073  0.1769  1.1261
  732TMC3    C710878   1.065   2.910  12.419 -0.6202  0.7905 -0.1380
  732TMC3    C810879   0.616   2.869  12.344 -0.1001 -0.9944 -1.2956
  732TMC3    O110880   1.033   3.025  12.399 -0.1085  0.2378  0.1198
  732TMC3    O210881   0.636   2.915  12.233  0.2779  0.1235 -0.3843
  733TMC3    C110882   1.437   0.871  12.848 -0.7578 -0.6831 -0.6574
  733TMC3    C210883   1.454   0.990  12.780 -0.4411 -0.0369  0.0883
  733TMC3    C310884   1.479   0.978  12.650  0.9334  0.6501 -0.5039
  733TMC3    C410885   1.457   0.751  12.792 -0.8044 -0.0409  0.7709
  733TMC3    C510886   1.493   0.750  12.659 -0.0825 -0.3199  0.1901
  733TMC3    C610887   1.502   0.857  12.584  0.2489 -0.6657 -0.2019
  733TMC3     C10888   1.321   0.882  12.938  0.9088 -0.0130  0.4643
  733TMC3     O10889   1.239   0.965  12.905 -0.1769  0.1368  0.2628
  733TMC3     H10890   1.446   1.088  12.826  1.3656 -0.5835  1.5846
  733TMC3    H110891   1.433   0.657  12.841 -1.2406 -0.7119 -0.7298
  733TMC3    H210892   1.556   0.859  12.490 -0.2335 -0.5730 -0.4776
  733TMC3    C710893   1.408   0.652  12.602 -0.3003 -0.3757  0.6478
  733TMC3    C810894   1.527   1.094  12.571  0.0541 -0.0556  0.2831
  733TMC3    O110895   1.301   0.638  12.657 -0.3254 -0.2906  0.0198
  733TMC3    O210896   1.625   1.147  12.623  0.9933  0.6896 -0.2164
  734MPD2     C10897   3.420   3.259  12.417  0.0512 -0.2785 -0.2306
  734MPD2    C110898   3.303   3.218  12.366  0.0805 -0.2388 -0.2161
  734MPD2    C210899   3.230   3.304  12.296  0.3827 -0.1706 -0.3495
  734MPD2    C310900   3.273   3.429  12.270  0.4141 -0.4517 -0.3267
  734MPD2    C410901   3.393   3.469  12.315 -0.1350  0.0576 -0.8027
  734MPD2    C510902   3.466   3.375  12.385 -0.1246  0.2912 -0.0061
  734MPD2     H10903   3.130   3.286  12.259  0.6109  0.7032 -1.3962
  734MPD2    H110904   3.435   3.568  12.304  1.0003 -0.6120 -2.5591
  734MPD2    H210905   3.472   3.191  12.483  0.1757  0.2007  0.1672
  734MPD2    H310906   3.565   3.396  12.423 -0.1629  0.4691 -0.0061
  734MPD2     N10907   3.193   3.513  12.189  0.8000 -0.1755  0.1746
  734MPD2    H510908   3.120   3.461  12.141  1.3550 -1.6529  0.9244
  734MPD2    N110909   3.254   3.087  12.390 -0.8632 -0.0682 -0.3086
  734MPD2    H710910   3.305   3.017  12.443  0.8350 -0.0423 -1.8858
  735TMC3    C110911   3.095   2.913  12.367  0.5000  0.4439  0.1152
  735TMC3    C210912   2.958   2.887  12.381 -0.3865 -0.2770 -0.7517
  735TMC3    C310913   2.905   2.791  12.300 -0.0535 -0.3480 -0.2490
  735TMC3    C410914   3.175   2.834  12.288  0.1921  0.3040  0.4063
  735TMC3    C510915   3.119   2.734  12.216  0.2827  0.1406 -0.5914
  735TMC3    C610916   2.984   2.701  12.230  0.0192 -0.0100  0.1805
  735TMC3     C10917   3.127   3.048  12.350 -0.5796  0.3317  0.4570
  735TMC3     O10918   3.026   3.106  12.301 -0.4522  0.2925 -0.1993
  735TMC3     H10919   2.888   2.950  12.435  0.2272 -0.9214  0.7869
  735TMC3    H110920   3.277   2.862  12.265 -0.1393 -0.4426 -1.9572
  735TMC3    H210921   2.940   2.630  12.161  1.1894 -1.5860  1.0688
  735TMC3    C710922   3.209   2.641  12.146 -0.3389 -0.1926  0.2185
  735TMC3    C810923   2.790   2.843  12.226 -0.5439  0.4507 -0.1304
  735TMC3    O110924   3.316   2.686  12.110 -0.6499  0.1845  0.4969
  735TMC3    O210925   2.714   2.774  12.161 -0.5512 -0.0741 -0.0879
  736MPD2     C10926   3.185   2.274  12.117 -0.0952  0.0193 -0.2020
  736MPD2    C110927   3.248   2.405  12.118  0.3858  0.0031  0.4993
  736MPD2    C210928   3.381   2.407  12.088 -0.3415  0.6108 -1.1001
  736MPD2    C310929   3.456   2.291  12.054 -0.0512 -0.2568  0.3585
  736MPD2    C410930   3.391   2.170  12.064 -0.0522  0.4917  0.1759
  736MPD2    C510931   3.256   2.164  12.095  0.0206  0.1306  0.5880
  736MPD2     H10932   3.442   2.496  12.083  3.4427 -1.8285  1.0185
  736MPD2    H110933   3.450   2.079  12.063  0.0648  0.5699  0.0705
  736MPD2    H210934   3.082   2.254  12.144 -0.1994  2.0537  0.8617
  736MPD2    H310935   3.207   2.067  12.095  0.3057 -0.0114 -1.1572
  736MPD2     N10936   3.590   2.287  12.013  0.1312  0.1533  0.1974
  736MPD2    H510937   3.627   2.194  11.996  0.1348  0.4498 -1.4595
  736MPD2    N110938   3.168   2.513  12.144 -0.0943  0.4790  0.4171
  736MPD2    H710939   3.073   2.494  12.173 -1.2945  5.6255 -0.0312
  737TMC3    C110940   3.799   2.382  11.919  0.1104  0.4290  0.3338
  737TMC3    C210941   3.881   2.489  11.907  0.7952 -0.0656 -0.1705
  737TMC3    C310942   3.961   2.501  11.795 -0.1945  0.3172 -0.1320
  737TMC3    C410943   3.799   2.284  11.830 -0.3623  0.5480  0.2261
  737TMC3    C510944   3.865   2.300  11.712  0.0781  0.0600  0.6748
  737TMC3    C610945   3.948   2.403  11.696  0.2886  0.4896 -0.3320
  737TMC3     C10946   3.665   2.402  11.983 -0.2393 -0.1307 -0.3295
  737TMC3     O10947   3.636   2.520  11.985 -0.0922 -0.1075  0.3051
  737TMC3     H10948   3.891   2.567  11.982 -0.2970 -1.4325  1.3845
  737TMC3    H110949   3.738   2.196  11.843  1.0134  0.0141  2.9797
  737TMC3    H210950   4.031   2.405  11.627  0.8056  3.4494  0.3698
  737TMC3    C710951   3.877   2.175  11.630  0.7329 -0.0085  0.6721
  737TMC3    C810952   4.003   2.636  11.762  0.3678  0.2378  0.5272
  737TMC3    O110953   3.812   2.074  11.658 -0.0020  0.5102  0.9300
  737TMC3    O210954   4.039   2.717  11.845  0.1396 -0.2699 -0.1739
  738MPD2     C10955   3.575   2.579  15.267  0.5940 -0.4422  0.5484
  738MPD2    C110956   3.578   2.513  15.150  0.6660  0.6518 -0.7137
  738MPD2    C210957   3.658   2.555  15.048 -0.3086 -0.0391 -0.1423
  738MPD2    C310958   3.726   2.678  15.062 -0.3060 -0.5667  0.2829
  738MPD2    C410959   3.712   2.744  15.178  0.4376 -0.0268 -0.7497
  738MPD2    C510960   3.649   2.692  15.282  0.8067  0.4141  0.2452
  738MPD2     H10961   3.670   2.507  14.952 -2.4063  0.0223 -0.4318
  738MPD2    H110962   3.766   2.836  15.196 -0.3177  0.7219 -2.2576
  738MPD2    H210963   3.515   2.549  15.352  2.0608 -0.0834  1.7104
  738MPD2    H310964   3.648   2.750  15.373  0.0098 -1.1135  1.2144
  738MPD2     N10965   3.832   2.714  14.972  0.3764  0.5436 -0.1940
  738MPD2    H510966   3.882   2.798  15.000  0.1522  0.7604 -0.4411
  738MPD2    N110967   3.514   2.388  15.125  0.1954  0.1712  0.3669
  738MPD2    H710968   3.513   2.353  15.030  0.5381 -0.6563  0.6625
  739TMC3    C110969   3.990   2.705  14.795 -0.2714 -0.1675 -0.0044
  739TMC3    C210970   4.014   2.690  14.660 -0.4604  0.2859 -0.1989
  739TMC3    C310971   4.139   2.705  14.614  0.2373 -0.3267 -0.3009
  739TMC3    C410972   4.094   2.724  14.880  0.3068 -0.2946  0.5406
  739TMC3    C510973   4.215   2.748  14.840 -0.3897  0.4114  0.1817
  739TMC3    C610974   4.243   2.734  14.704 -0.1603  0.8359 -0.4945
  739TMC3     C10975   3.864   2.653  14.851  0.0122 -0.0114 -0.2258
  739TMC3     O10976   3.798   2.573  14.788 -0.5964  0.6293 -0.3253
  739TMC3     H10977   3.931   2.652  14.602  0.3636 -1.1573 -0.4408
  739TMC3    H110978   4.082   2.708  14.987 -1.4914 -1.7599  0.1266
  739TMC3    H210979   4.344   2.736  14.665 -0.2075 -0.1315 -0.6608
  739TMC3    C710980   4.322   2.736  14.933  0.5542 -0.6522  1.3673
  739TMC3    C810981   4.167   2.692  14.472  0.2589  0.2080  0.4771
  739TMC3    O110982   4.295   2.697  15.042  0.7716 -0.7317 -0.3170
  739TMC3    O210983   4.076   2.644  14.401 -0.2343 -0.0635 -0.4960
  740TMC3    C110984   4.441   3.728  14.217 -0.9564  0.2779 -0.1274
  740TMC3    C210985   4.506   3.787  14.320  0.0154  0.3847 -0.7087
  740TMC3    C310986   4.642   3.753  14.340 -0.9839 -0.1288  0.2389
  740TMC3    C410987   4.502   3.644  14.122 -0.2363 -0.2644 -0.1742
  740TMC3    C510988   4.638   3.619  14.148 -0.1509  0.3040  0.3099
  740TMC3    C610989   4.705   3.670  14.252  0.2494  0.2100 -0.6946
  740TMC3     C10990   4.307   3.773  14.174 -0.6524 -0.4331  0.6119
  740TMC3     O10991   4.284   3.754  14.056  0.1805  0.0737  0.0051
  740TMC3     H10992   4.455   3.863  14.379 -0.8267 -1.6407  1.1530
  740TMC3    H110993   4.447   3.599  14.041  0.5726 -1.0642 -0.2737
  740TMC3    H210994   0.070   3.640  14.279 -0.6437 -0.4034  2.0280
  740TMC3    C710995   4.712   3.551  14.045 -0.0409  0.0487  0.0959
  740TMC3    C810996   4.695   3.763  14.465  0.0354  0.2274 -0.4690
  740TMC3    O110997   0.089   3.521  14.078  0.6563 -0.4253  0.4166
  740TMC3    O210998   0.080   3.772  14.471  0.4851  0.2068  0.3671
  741TMC3    C110999   4.038   2.834  13.902 -0.4879 -0.4107 -0.2357
  741TMC3    C211000   3.917   2.769  13.925 -0.1916 -0.6917 -0.3258
  741TMC3    C311001   3.872   2.783  14.053  0.4228 -0.2370  0.7380
  741TMC3    C411002   4.103   2.922  13.997 -0.6878 -0.1902  1.1046
  741TMC3    C511003   4.040   2.942  14.115 -0.2579 -0.3393  0.0456
  741TMC3    C611004   3.929   2.867  14.150  0.0712  0.8013 -1.1463
  741TMC3     C11005   4.100   2.791  13.782  0.0637 -0.5101 -0.2046
  741TMC3     O11006   4.055   2.717  13.696  0.7680  0.6624  0.3215
  741TMC3     H11007   3.865   2.711  13.850 -2.1804  0.5470  0.0955
  741TMC3    H111008   4.176   2.997  13.969 -0.3661 -1.0224 -0.3066
  741TMC3    H211009   3.889   2.880  14.250  0.4245  1.8038 -1.1435
  741TMC3    C711010   4.119   2.998  14.226  0.1080 -0.1597 -0.6727
  741TMC3    C811011   3.749   2.714  14.090 -0.4610  0.4417 -0.4149
  741TMC3    O111012   4.235   3.013  14.186 -0.3081  0.0008 -0.2639
  741TMC3    O211013   3.668   2.688  14.001 -0.0852  0.1755  0.1582
  742TMC3    C111014   3.857   1.509  15.292  0.3057  0.2531 -0.2000
  742TMC3    C211015   3.816   1.438  15.186 -0.5174  0.0507  0.3218
  742TMC3    C311016   3.909   1.369  15.106  0.6086  0.5513 -0.8209
  742TMC3    C411017   3.993   1.527  15.314 -0.7295  0.4177 -0.0269
  742TMC3    C511018   4.086   1.446  15.237 -0.1424 -0.3013 -0.3510
  742TMC3    C611019   4.048   1.366  15.130 -0.7579  0.2380 -0.5619
  742TMC3     C11020   3.757   1.562  15.383 -0.4505  0.6892  0.5454
  742TMC3     O11021   3.638   1.524  15.368  0.5889 -0.9741  0.3692
  742TMC3     H11022   3.710   1.447  15.162 -0.1099 -0.0056 -1.5143
  742TMC3    H111023   4.037   1.566  15.405  1.8907 -0.0570 -1.0865
  742TMC3    H211024   4.112   1.323  15.054 -1.9391 -3.2604  0.4457
  742TMC3    C711025   4.223   1.482  15.237  0.3977 -0.2946 -0.0558
  742TMC3    C811026   3.866   1.337  14.966  1.2666  0.4964 -0.2835
  742TMC3    O111027   4.294   1.402  15.191 -0.0165 -0.8606  0.2305
  742TMC3    O211028   3.934   1.250  14.912 -0.5165  0.4475  0.0864
  743MPD2     C11029   2.003   2.731   1.782 -0.0719 -0.8231  0.0198
  743MPD2    C111030   2.052   2.642   1.688 -0.1019 -0.4065 -0.2148
  743MPD2    C211031   2.194   2.625   1.676 -0.4735  0.1652  0.3569
  743MPD2    C311032   2.289   2.700   1.745 -0.0928  0.4895 -0.6166
  743MPD2    C411033   2.239   2.797   1.827  0.3134  0.4179 -0.3798
  743MPD2    C511034   2.103   2.812   1.845  0.0394 -0.4557 -0.1138
  743MPD2     H11035   2.228   2.530   1.635  2.3231  1.6119 -0.6729
  743MPD2    H111036   2.304   2.868   1.876 -0.8753  0.7859  0.6583
  743MPD2    H211037   1.899   2.746   1.808  0.0211 -1.6174  0.8570
  743MPD2    H311038   2.065   2.884   1.917  0.4759 -1.8320  1.5187
  743MPD2     N11039   2.423   2.664   1.723 -0.9600 -0.5490 -0.1745
  743MPD2    H511040   2.431   2.569   1.690 -2.1222  0.2563 -2.7791
  743MPD2    N111041   1.952   2.556   1.639  0.0934 -0.7020 -0.7191
  743MPD2    H711042   1.857   2.570   1.672  0.7086 -1.1214  1.1900
  744TMC3    C111043   1.849   2.406   1.478  0.8862  0.2775  0.9895
  744TMC3    C211044   1.721   2.438   1.524 -0.1163 -0.0435 -0.4931
  744TMC3    C311045   1.618   2.391   1.450  0.0549 -0.5253  0.9003
  744TMC3    C411046   1.875   2.319   1.378  0.5134 -0.2110  0.1088
  744TMC3    C511047   1.770   2.272   1.308 -0.0887  0.1268 -0.6517
  744TMC3    C611048   1.643   2.314   1.340 -0.2754 -0.4010  0.7482
  744TMC3     C11049   1.972   2.472   1.535  0.1933  0.0811  0.6708
  744TMC3     O11050   2.074   2.449   1.468 -0.2935 -0.1528 -0.1873
  744TMC3     H11051   1.708   2.521   1.592 -0.1148  0.7813 -1.5105
  744TMC3    H111052   1.978   2.302   1.349  0.0186 -2.8160 -0.0749
  744TMC3    H211053   1.562   2.279   1.277 -1.2490  2.6688  0.2874
  744TMC3    C711054   1.796   2.213   1.180  0.4926  0.3843  0.2645
  744TMC3    C811055   1.502   2.481   1.428 -0.0751 -0.2220 -0.0048
  744TMC3    O111056   1.900   2.250   1.127  0.2542 -0.0309  0.4534
  744TMC3    O211057   1.456   2.471   1.314 -0.2692  0.1926 -0.0486
  745TMC3    C111058   4.684   1.062  13.836 -0.5098  0.1291  0.0904
  745TMC3    C211059   4.616   1.178  13.874  0.4186  0.7174 -0.4970
  745TMC3    C311060   4.511   1.216  13.803 -0.5577 -0.2471  0.2551
  745TMC3    C411061   4.645   1.002  13.718 -0.0786 -0.2027 -0.2628
  745TMC3    C511062   4.534   1.053  13.652 -0.3838  0.4838 -0.2048
  745TMC3    C611063   4.465   1.161  13.692  0.5544 -0.2673  0.3077
  745TMC3     C11064   0.079   1.030  13.889 -0.3076 -0.2220  0.1732
  745TMC3     O11065   0.152   0.961  13.819  0.4899 -0.0961  0.1162
  745TMC3     H11066   4.647   1.229  13.964 -0.8017 -1.1501  0.9583
  745TMC3    H111067   4.701   0.918  13.680  0.3063  0.1612 -0.5029
  745TMC3    H211068   4.397   1.213  13.625  1.0817  0.0008 -0.0189
  745TMC3    C711069   4.525   1.013  13.514 -1.1044 -0.0291 -0.6171
  745TMC3    C811070   4.468   1.351  13.820 -0.5529 -0.1137 -0.3187
  745TMC3    O111071   4.415   0.995  13.464 -0.1648  0.7071 -0.3195
  745TMC3    O211072   4.348   1.368  13.799  0.1272  0.5526  0.1166
  746TMC3    C111073   1.963   2.948  11.482  0.0000 -0.4779 -0.3438
  746TMC3    C211074   2.093   2.925  11.443  0.1539  0.3338  0.2616
  746TMC3    C311075   2.133   2.798  11.412 -0.3148 -0.7185  0.2701
  746TMC3    C411076   1.867   2.852  11.477 -0.2715  0.3734 -0.2675
  746TMC3    C511077   1.914   2.722  11.454 -0.0362 -0.2406  0.2040
  746TMC3    C611078   2.040   2.698  11.410  0.0582  0.0509  0.2796
  746TMC3     C11079   1.922   3.085  11.495 -0.8005 -0.1027 -0.0620
  746TMC3     O11080   1.809   3.107  11.450 -0.2739 -0.0823  0.1953
  746TMC3     H11081   2.168   3.004  11.441 -0.4476  0.8930 -0.4821
  746TMC3    H111082   1.767   2.882  11.505 -0.4202 -0.3310 -0.0543
  746TMC3    H211083   2.068   2.599  11.374 -0.9752  0.4235 -1.5435
  746TMC3    C711084   1.823   2.599  11.458 -0.1664  0.1993 -0.4901
  746TMC3    C811085   2.244   2.788  11.328 -1.4733 -0.4181 -0.4183
  746TMC3    O111086   1.870   2.500  11.406  0.0524  0.6823  0.0121
  746TMC3    O211087   2.310   2.684  11.325  0.1045 -0.0381  0.5312
  747TMC3    C111088   4.234   2.361  10.676 -1.1890 -0.9951 -0.6252
  747TMC3    C211089   4.176   2.262  10.752 -0.2842 -0.8437  0.8890
  747TMC3    C311090   4.218   2.251  10.878  0.9005 -0.0921 -0.0864
  747TMC3    C411091   4.341   2.437  10.723  0.0685 -0.0350 -0.3557
  747TMC3    C511092   4.396   2.394  10.842  0.2114  0.4860 -0.4073
  747TMC3    C611093   4.327   2.310  10.932 -0.2667  0.2955 -0.1354
  747TMC3     C11094   4.167   2.413  10.559 -0.4660  0.2624 -0.6345
  747TMC3     O11095   4.180   2.534  10.533  0.6601 -0.4694  0.0913
  747TMC3     H11096   4.084   2.215  10.720 -1.9342  0.6489  3.5067
  747TMC3    H111097   4.384   2.521  10.669  0.1079 -0.3811 -0.8596
  747TMC3    H211098   4.372   2.281  11.026  0.6130  2.5051  0.1464
  747TMC3    C711099   4.519   2.447  10.893  0.9770  0.8052 -0.7828
  747TMC3    C811100   4.147   2.146  10.953  0.2688  0.4389 -1.1826
  747TMC3    O111101   4.530   2.471  11.012  0.0611  0.3531  0.0476
  747TMC3    O211102   4.103   2.054  10.888  0.4169 -0.0916 -0.2434
  748MPD2     C11103   1.394   3.639   0.885  0.0402 -0.2381  0.4775
  748MPD2    C111104   1.408   3.770   0.897 -0.5831 -0.8922 -0.7349
  748MPD2    C211105   1.535   3.828   0.899  0.2187  0.4416 -0.3315
  748MPD2    C311106   1.650   3.747   0.883 -0.0469  0.3965  0.0715
  748MPD2    C411107   1.630   3.612   0.883 -0.1600 -0.3796  0.4140
  748MPD2    C511108   1.504   3.556   0.870  0.2492  0.0204 -0.8891
  748MPD2     H11109   1.551   3.935   0.907  0.7508  0.2781  0.7291
  748MPD2    H111110   1.711   3.540   0.882  0.6894  0.5756  0.7606
  748MPD2    H211111   1.295   3.594   0.888 -0.7175  1.5640  2.7340
  748MPD2    H311112   1.486   3.450   0.865  0.1456 -0.0547  1.2282
  748MPD2     N11113   1.776   3.808   0.891  0.4254  0.5288  0.7327
  748MPD2    H511114   1.770   3.909   0.891 -0.3080  0.4842  2.3542
  748MPD2    N111115   1.283   3.835   0.900 -1.0342 -0.5704  0.4007
  748MPD2    H711116   1.196   3.782   0.898 -0.1497 -2.0433  1.0927
  749TMC3    C111117   1.994   3.827   0.948 -0.2795  0.4247  0.5581
  749TMC3    C211118   2.082   3.809   1.054 -0.2691  0.2421  0.5629
  749TMC3    C311119   2.187   3.896   1.063 -0.2663  1.2918  1.4042
  749TMC3    C411120   2.014   3.922   0.854 -0.1592 -0.1129  0.2016
  749TMC3    C511121   2.124   4.000   0.860 -0.3586 -0.1881  0.7298
  749TMC3    C611122   2.207   3.992   0.969  0.4469  0.0094 -0.5157
  749TMC3     C11123   1.877   3.741   0.948  0.6010 -0.6167  0.4134
  749TMC3     O11124   1.873   3.636   1.010 -0.6308  0.0056 -0.1476
  749TMC3     H11125   2.067   3.741   1.137 -0.1398  0.5278  0.8195
  749TMC3    H111126   1.929   3.951   0.793  0.1934 -1.9454 -1.1386
  749TMC3    H211127   2.299   4.049   0.978 -1.3566  2.9274 -0.7826
  749TMC3    C711128   2.151   4.104   0.766 -0.2262  0.1171 -0.5601
  749TMC3    C811129   2.308   3.855   1.125 -0.8763  0.5334  0.3590
  749TMC3    O111130   2.221   4.199   0.802 -0.0318 -0.0375  0.2071
  749TMC3    O211131   2.387   3.948   1.145  0.1472  0.7974 -0.5657
  750MPD2     C11132   2.086   4.279  11.200 -0.0738 -0.0755 -0.3554
  750MPD2    C111133   1.951   4.266  11.183 -0.3353  0.4435  0.7638
  750MPD2    C211134   1.911   4.160  11.103  0.1552 -0.4991 -0.1995
  750MPD2    C311135   2.002   4.069  11.044 -0.9026 -0.2157 -0.1276
  750MPD2    C411136   2.134   4.086  11.071  0.4054  0.2763  0.0813
  750MPD2    C511137   2.180   4.190  11.146  0.2364  0.1217 -0.1089
  750MPD2     H11138   1.804   4.150  11.090 -0.2896  1.3352  2.0636
  750MPD2    H111139   2.209   4.022  11.027  0.7868  0.4565  0.4714
  750MPD2    H211140   2.132   4.355  11.262  1.4741 -0.5928 -0.8657
  750MPD2    H311141   2.287   4.203  11.151  0.2275 -0.0533  0.5792
  750MPD2     N11142   1.963   3.961  10.962 -0.0381  0.2913  0.2246
  750MPD2    H511143   2.034   3.889  10.947 -2.6456 -2.1943 -0.0821
  750MPD2    N111144   1.860   4.358  11.248 -0.1214  0.3005 -0.3754
  750MPD2    H711145   1.906   4.440  11.286 -1.8164  1.3525 -0.6250
  751TMC3    C111146   1.835   3.818  10.829  0.6422 -0.8538  0.6817
  751TMC3    C211147   1.728   3.735  10.827 -1.0082 -0.7394 -0.3478
  751TMC3    C311148   1.733   3.631  10.734  0.5936 -0.0007 -0.1933
  751TMC3    C411149   1.945   3.797  10.749  0.6648  0.4375  0.3845
  751TMC3    C511150   1.942   3.693  10.658  0.0691 -0.3232  0.0747
  751TMC3    C611151   1.842   3.602  10.651 -0.0599  0.7134 -0.4867
  751TMC3     C11152   1.840   3.925  10.928 -0.0973 -0.2074  0.0678
  751TMC3     O11153   1.734   3.975  10.964 -0.1936  0.3081  0.9311
  751TMC3     H11154   1.636   3.760  10.878 -0.9006 -1.3405  0.1364
  751TMC3    H111155   2.024   3.872  10.748  1.5858 -0.5296 -0.2072
  751TMC3    H211156   1.825   3.520  10.582 -0.4669  0.6534 -0.3164
  751TMC3    C711157   2.046   3.701  10.559  0.7283 -0.3968 -0.1845
  751TMC3    C811158   1.621   3.536  10.720 -0.0217 -0.3243  1.1023
  751TMC3    O111159   2.112   3.808  10.557  0.6188  0.5888 -0.7995
  751TMC3    O211160   1.644   3.424  10.682 -0.1182  0.1323  0.4850
  752TMC3    C111161   0.974   0.778  17.573  0.0125  0.0829  0.5455
  752TMC3    C211162   0.987   0.657  17.624  0.3501  0.2842 -0.4667
  752TMC3    C311163   0.959   0.649   0.010  0.4173  1.1111 -0.7661
  752TMC3    C411164   0.953   0.889  17.646  0.2197 -0.3990 -0.1449
  752TMC3    C511165   0.915   0.872   0.036  0.5833  0.5293 -0.1450
  752TMC3    C611166   0.912   0.748   0.090 -0.4807 -0.6468  0.1790
  752TMC3     C11167   1.011   0.790  17.433  0.6762  0.0028  0.6146
  752TMC3     O11168   1.033   0.903  17.388  0.3372  0.3028 -0.2789
  752TMC3     H11169   1.028   0.574  17.568 -0.8282  1.3318 -2.8766
  752TMC3    H111170   0.941   0.985  17.597  2.1720  0.0294  0.2251
  752TMC3    H211171   0.889   0.723   0.193  1.1197 -0.8993  0.4793
  752TMC3    C711172   0.834   0.977   0.097  0.5865 -0.4495 -0.1623
  752TMC3    C811173   0.926   0.516   0.050  0.2073  0.9403 -0.0821
  752TMC3    O111174   0.801   1.066   0.024  0.2973  0.1510  0.7298
  752TMC3    O211175   0.813   0.479   0.069  0.6503  0.0153  0.1962
  753TMC3    C111176   3.483   0.801  13.547 -0.3872  0.0524 -0.1472
  753TMC3    C211177   3.529   0.852  13.665  0.0506 -0.0484 -0.7513
  753TMC3    C311178   3.567   0.758  13.759  0.1790  0.3685  0.0711
  753TMC3    C411179   3.477   0.663  13.521  0.3283 -0.0104 -0.5088
  753TMC3    C511180   3.505   0.578  13.630 -0.1177  0.3690  0.1857
  753TMC3    C611181   3.560   0.623  13.744  0.2150  0.8914 -0.4845
  753TMC3     C11182   3.373   0.871  13.488 -0.9964 -0.4091 -0.1551
  753TMC3     O11183   3.324   0.829  13.382  0.4209  0.1372 -0.1786
  753TMC3     H11184   3.555   0.957  13.660  0.5586 -0.1691 -0.6156
  753TMC3    H111185   3.416   0.615  13.445  0.4063 -0.3291 -0.3720
  753TMC3    H211186   3.595   0.566  13.830 -1.3673  2.5209  1.2361
  753TMC3    C711187   3.495   0.433  13.608  0.5871  0.1927  0.1428
  753TMC3    C811188   3.546   0.802  13.898 -0.5116  0.8048 -0.2473
  753TMC3    O111189   3.506   0.408  13.485 -0.3107  0.0613  0.7618
  753TMC3    O211190   3.510   0.721  13.982  0.1684  0.0163 -0.0470
  754MPD2     C11191   2.365   4.429  13.589  0.3356 -0.5561 -0.0730
  754MPD2    C111192   2.345   4.294  13.594  0.7157 -0.2986 -0.5230
  754MPD2    C211193   2.250   4.241  13.511  0.0756 -0.0020 -0.7848
  754MPD2    C311194   2.174   4.320  13.423 -0.2804 -0.1882  0.1786
  754MPD2    C411195   2.197   4.458  13.431 -0.1152  0.3796 -0.0660
  754MPD2    C511196   2.302   4.510  13.503  0.3025  0.9830  0.0639
  754MPD2     H11197   2.232   4.134  13.517  0.4456 -0.1937 -3.0437
  754MPD2    H111198   2.152   4.520  13.354 -0.1690  0.9069  0.3922
  754MPD2    H211199   2.444   4.475  13.647  1.4507 -2.6537  0.0746
  754MPD2    H311200   2.312   4.618  13.503  2.5500  0.7755  0.6345
  754MPD2     N11201   2.075   4.273  13.339  0.7185 -0.2120  0.1337
  754MPD2    H511202   2.042   4.339  13.269 -2.1547 -0.3699  1.3582
  754MPD2    N111203   2.416   4.214  13.684  0.2680  0.6851 -0.6995
  754MPD2    H711204   2.478   4.269  13.744 -0.3539 -0.4017  0.9427
  755MPD2     C11205   1.410   4.721  13.193 -1.2177 -0.1482 -0.2111
  755MPD2    C111206   1.377   4.601  13.242 -0.6351  0.7036  0.2185
  755MPD2    C211207   1.453   4.485  13.218  0.0690  0.9437  0.0706
  755MPD2    C311208   1.564   4.497  13.135  0.0903 -0.3457 -1.0257
  755MPD2    C411209   1.595   4.617  13.075  0.7314  0.0437 -0.1898
  755MPD2    C511210   1.512   4.727  13.107 -0.2726 -0.1014 -0.2367
  755MPD2     H11211   1.439   4.390  13.268  0.0336  0.7103 -0.3838
  755MPD2    H111212   1.679   4.626  13.006 -0.3733 -0.6771 -1.6120
  755MPD2    H211213   1.352   0.077  13.203  0.0496  0.7508 -1.3094
  755MPD2    H311214   1.533   0.091  13.069 -1.5597 -0.2988 -1.5062
  755MPD2     N11215   1.648   4.391  13.098 -1.1313 -0.0490  0.1471
  755MPD2    H511216   1.733   4.420  13.050 -1.0018 -2.4714 -1.1009
  755MPD2    N111217   1.267   4.576  13.327 -0.0411  0.3110 -0.5165
  755MPD2    H711218   1.256   4.479  13.358  0.4877  0.4399  0.0712
  756MPD2     C11219   1.381   0.989   9.909  0.6737  0.4531 -0.6651
  756MPD2    C111220   1.318   0.882   9.971  0.5652 -0.1020 -0.0180
  756MPD2    C211221   1.178   0.873   9.957  0.1454  0.1455  0.4228
  756MPD2    C311222   1.112   0.958   9.873  0.4969  0.2174 -0.2067
  756MPD2    C411223   1.187   1.046   9.794 -0.1044  0.1137  1.0394
  756MPD2    C511224   1.312   1.066   9.823  0.9499 -0.0623  0.1903
  756MPD2     H11225   1.130   0.788  10.005  3.5315 -2.6235 -1.1260
  756MPD2    H111226   1.141   1.118   9.727 -0.0790 -1.3796 -0.5779
  756MPD2    H211227   1.488   1.005   9.910  0.7220  0.1913 -2.0126
  756MPD2    H311228   1.366   1.146   9.773 -2.2034 -0.2881 -3.5551
  756MPD2     N11229   0.973   0.945   9.846 -0.0855  0.6488  0.8969
  756MPD2    H511230   0.927   1.000   9.775 -0.1079 -0.6513 -0.0964
  756MPD2    N111231   1.383   0.779  10.046  0.6954 -0.4060  0.2984
  756MPD2    H711232   1.318   0.719  10.096  0.5460 -1.6512 -1.4123
  757MPD2     C11233   0.491   0.218  10.242 -0.5141  0.0930  0.3864
  757MPD2    C111234   0.515   0.209  10.105 -0.3644  0.6192 -0.1620
  757MPD2    C211235   0.535   0.323  10.036 -0.4067  0.3027 -0.1753
  757MPD2    C311236   0.506   0.449  10.087  0.6972 -0.0962 -0.0481
  757MPD2    C411237   0.462   0.456  10.218 -0.4492 -0.3000  0.7432
  757MPD2    C511238   0.456   0.341  10.299 -0.4148  0.3619 -0.3114
  757MPD2     H11239   0.569   0.315   9.933 -0.8482 -1.5637 -0.1596
  757MPD2    H111240   0.431   0.552  10.257 -0.4211 -0.2171  0.5582
  757MPD2    H211241   0.506   0.130  10.304  0.5964 -0.5636 -0.8267
  757MPD2    H311242   0.448   0.350  10.407  1.1215  0.4999 -0.2143
  757MPD2     N11243   0.533   0.569  10.015  0.2785 -0.3504  0.2751
  757MPD2    H511244   0.597   0.558   9.936  0.1511 -1.4690  0.3299
  757MPD2    N111245   0.517   0.078  10.044  0.0566  0.0665  0.5410
  757MPD2    H711246   0.511   4.733  10.106 -0.4844 -1.2373 -1.2024
  758MPD2     C11247   1.710   4.413  15.726  0.4350  0.1109  0.6197
  758MPD2    C111248   1.692   4.295  15.796  0.6150  0.1918 -0.0966
  758MPD2    C211249   1.648   4.298  15.923 -0.0246 -0.0539 -0.5421
  758MPD2    C311250   1.620   4.422  15.990 -0.5434 -0.2465 -0.0607
  758MPD2    C411251   1.626   4.537  15.912 -0.4174  0.3246  0.6367
  758MPD2    C511252   1.684   4.535  15.785  0.4272  0.1145 -0.7704
  758MPD2     H11253   1.623   4.209  15.981 -1.1379  0.8142  0.3243
  758MPD2    H111254   1.585   4.631  15.948  1.4487  1.6056 -0.5593
  758MPD2    H211255   1.729   4.418  15.620 -1.8046  0.1619  0.2201
  758MPD2    H311256   1.677   4.628  15.729  0.4383  0.4390 -0.2288
  758MPD2     N11257   1.580   4.439  16.129  0.0496 -0.3612 -0.1421
  758MPD2    H511258   1.576   4.534  16.166 -0.9817 -0.7063  0.6074
  758MPD2    N111259   1.750   4.184  15.730  0.6216 -0.5317  0.1425
  758MPD2    H711260   1.771   4.195  15.632 -0.2557 -0.2291 -0.0087
  759MPD2     C11261   4.357   2.166  10.015  0.1187  0.3990  0.5167
  759MPD2    C111262   4.492   2.145  10.057  0.4697 -0.4496  0.3233
  759MPD2    C211263   4.585   2.167   9.961  0.1226 -0.6296  0.4125
  759MPD2    C311264   4.551   2.201   9.829 -0.2401  0.4876 -0.2261
  759MPD2    C411265   4.421   2.210   9.792 -0.2532 -0.1711 -0.1806
  759MPD2    C511266   4.325   2.187   9.894  0.0566  0.3944  0.6412
  759MPD2     H11267   4.690   2.160   9.985  0.5612 -4.0622 -2.5647
  759MPD2    H111268   4.387   2.242   9.695  2.4423 -0.6680 -1.2765
  759MPD2    H211269   4.275   2.173  10.086 -0.7949  0.8397 -0.5806
  759MPD2    H311270   4.220   2.200   9.871  0.5325  1.6926 -0.7815
  759MPD2     N11271   4.660   2.235   9.743 -0.2342  0.5705  0.1033
  759MPD2    H511272   0.019   2.227   9.778 -0.4427 -0.6948  0.3759
  759MPD2    N111273   4.530   2.111  10.187 -0.1945 -0.2827 -0.1304
  759MPD2    H711274   4.629   2.126  10.206 -0.0925  0.3340 -1.1491
  760MPD2     C11275   0.267   4.466  12.321  0.2327 -0.1339  0.4255
  760MPD2    C111276   0.388   4.445  12.255  0.8827  0.2420  0.3418
  760MPD2    C211277   0.428   4.309  12.243 -0.0294  1.1049 -0.1624
  760MPD2    C311278   0.361   4.202  12.296 -0.9905 -0.3063 -0.1796
  760MPD2    C411279   0.258   4.228  12.382  0.6047 -0.4262  0.0562
  760MPD2    C511280   0.211   4.359  12.390  0.0231 -0.0851 -0.7317
  760MPD2     H11281   0.525   4.293  12.197 -0.7377 -0.8749 -0.9907
  760MPD2    H111282   0.208   4.146  12.432 -2.0654  1.4482  0.5025
  760MPD2    H211283   0.221   4.564  12.335  0.8591  0.0554  1.1577
  760MPD2    H311284   0.120   4.379  12.446  0.1677 -1.9676  0.1840
  760MPD2     N11285   0.413   4.070  12.290  0.8912  0.0344  0.0611
  760MPD2    H511286   0.391   4.007  12.367 -0.4596  1.5759  0.9180
  760MPD2    N111287   0.473   4.546  12.191 -0.2908 -0.0802  0.0107
  760MPD2    H711288   0.561   4.520  12.148 -0.5218 -1.2541  0.2534
  761MPD2     C11289   1.191   3.395  10.926 -0.0439  0.4474  0.1013
  761MPD2    C111290   1.296   3.315  10.884  0.0732 -0.1236  0.1111
  761MPD2    C211291   1.396   3.380  10.824  0.9727 -0.5942  1.0538
  761MPD2    C311292   1.385   3.518  10.805 -0.4887  0.4587  0.1294
  761MPD2    C411293   1.275   3.591  10.833  0.2152 -0.0697  0.7048
  761MPD2    C511294   1.176   3.531  10.901 -0.2755 -0.0410  0.2240
  761MPD2     H11295   1.490   3.328  10.811  0.1360 -1.6794 -0.5589
  761MPD2    H111296   1.274   3.696  10.805 -0.1892 -0.4784 -0.7871
  761MPD2    H211297   1.112   3.345  10.981 -0.5840 -2.0783 -3.0008
  761MPD2    H311298   1.075   3.571  10.912 -1.3513 -2.9396  0.8828
  761MPD2     N11299   1.499   3.588  10.758 -0.5226  0.6326  0.3471
  761MPD2    H511300   1.492   3.689  10.750  1.4647  0.7203 -0.1432
  761MPD2    N111301   1.288   3.171  10.897  0.0518 -0.6092 -0.1014
  761MPD2    H711302   1.217   3.137  10.961  1.2669 -0.0351  1.5503
  762MPD2     C11303   1.898   3.069  11.119 -0.0751 -0.1317  0.0613
  762MPD2    C111304   1.835   3.060  10.996  0.0457  0.1060  0.4456
  762MPD2    C211305   1.876   3.140  10.890 -0.0865 -0.5119 -0.5372
  762MPD2    C311306   1.991   3.225  10.911 -1.0360 -0.0972 -0.0463
  762MPD2    C411307   2.044   3.240  11.037 -0.1956 -0.2296 -0.3079
  762MPD2    C511308   2.004   3.158  11.139  0.4736 -0.4263 -0.7318
  762MPD2     H11309   1.830   3.132  10.792 -2.7153 -0.8969  0.7245
  762MPD2    H111310   2.121   3.315  11.050 -0.0666 -0.2378 -1.0046
  762MPD2    H211311   1.870   3.010  11.205  1.1661  0.4462  0.8601
  762MPD2    H311312   2.039   3.168  11.241  0.8768 -0.4562 -0.8670
  762MPD2     N11313   2.041   3.283  10.790  0.3459 -0.1247  0.8177
  762MPD2    H511314   2.008   3.245  10.702 -2.5191  0.5342  1.6183
  762MPD2    N111315   1.731   2.970  10.975 -0.0921 -0.3070 -0.5497
  762MPD2    H711316   1.689   2.969  10.883  4.3583  0.2007 -2.5734
  763MPD2     C11317   3.705   4.364  15.976 -0.1826 -0.0211  0.4585
  763MPD2    C111318   3.594   4.444  15.963 -0.4778 -0.5545 -0.1636
  763MPD2    C211319   3.602   4.577  15.984  0.1740  0.5405 -0.5369
  763MPD2    C311320   3.719   4.635  16.020  0.2056 -0.0185  0.1214
  763MPD2    C411321   3.837   4.564  16.012  0.3221  0.9201 -0.7002
  763MPD2    C511322   3.830   4.426  16.005 -0.5052  0.6169  0.5414
  763MPD2     H11323   3.514   4.637  15.966  0.5697  1.2105 -0.2677
  763MPD2    H111324   3.933   4.611  16.028 -0.7703  3.1313 -0.6038
  763MPD2    H211325   3.708   4.257  15.960 -1.5968  0.0220 -0.1515
  763MPD2    H311326   3.920   4.365  16.005 -1.0464 -0.1597 -1.8649
  763MPD2     N11327   3.729   0.030  16.067  0.2722 -0.3829 -0.2746
  763MPD2    H511328   3.824   0.064  16.082  0.8699 -1.6460 -1.1721
  763MPD2    N111329   3.473   4.393  15.914  0.3960 -0.3461 -0.2888
  763MPD2    H711330   3.396   4.457  15.896  1.0732  0.8498  1.0978
  764MPD2     C11331   2.068   1.108  17.297  0.0373  0.5761  0.1820
  764MPD2    C111332   1.928   1.107  17.317 -0.2199 -0.8445  0.0913
  764MPD2    C211333   1.871   1.086  17.438  0.8432  0.8339  0.1408
  764MPD2    C311334   1.957   1.066  17.551 -0.0416  0.0708  0.2381
  764MPD2    C411335   2.087   1.072  17.540  0.5990  0.1748 -0.2752
  764MPD2    C511336   2.147   1.079  17.413 -0.2878 -0.4703 -0.0429
  764MPD2     H11337   1.764   1.092  17.454  0.6342 -0.2739 -0.9177
  764MPD2    H111338   2.153   1.036  17.618 -0.0938 -0.5189 -0.0106
  764MPD2    H211339   2.115   1.104  17.199  0.5328 -0.2880  0.4502
  764MPD2    H311340   2.249   1.046  17.403  0.2168  0.8777  0.5885
  764MPD2     N11341   1.891   1.033  17.672  0.2006  0.3726  0.3293
  764MPD2    H511342   1.789   1.035  17.673  0.2450  1.6145  2.0886
  764MPD2    N111343   1.836   1.123  17.214 -0.0799  0.5150  0.4544
  764MPD2    H711344   1.743   1.088  17.233  0.6370 -2.0414 -0.6693
  765MPD2     C11345   1.763   3.477  15.521  0.1035 -0.5343  0.6926
  765MPD2    C111346   1.727   3.474  15.655 -0.7099 -0.3384  0.3227
  765MPD2    C211347   1.824   3.428  15.741 -0.8559  0.1307  0.3827
  765MPD2    C311348   1.951   3.400  15.692 -0.1382 -0.2163  0.0123
  765MPD2    C411349   1.978   3.391  15.557  0.3047  0.5667  0.5173
  765MPD2    C511350   1.880   3.438  15.468  0.9505  0.1526  0.3088
  765MPD2     H11351   1.820   3.427  15.849 -1.2809 -2.9152  0.3342
  765MPD2    H111352   2.075   3.357  15.523 -0.0733  0.7060 -0.7171
  765MPD2    H211353   1.696   3.528  15.452  0.7220  1.4431  1.5492
  765MPD2    H311354   1.900   3.437  15.362  0.1041 -1.1905  0.1577
  765MPD2     N11355   2.052   3.369  15.780  0.2011 -0.7253  0.5363
  765MPD2    H511356   2.031   3.341  15.875 -1.2397 -1.5069 -0.0139
  765MPD2    N111357   1.626   3.560  15.701 -0.3858 -0.2630 -0.7096
  765MPD2    H711358   1.577   3.607  15.626  0.8381  2.4032  0.1765
  766MPD2     C11359   0.995   3.351  16.001 -0.6616 -0.5383 -0.0229
  766MPD2    C111360   1.027   3.474  15.948 -0.1932  0.0585 -0.1937
  766MPD2    C211361   0.983   3.511  15.821  0.1108  0.3373  0.4458
  766MPD2    C311362   0.913   3.425  15.743 -0.0617  0.9174 -0.0462
  766MPD2    C411363   0.875   3.303  15.801 -0.2234  0.7269  0.1648
  766MPD2    C511364   0.907   3.276  15.929 -0.0488 -0.5379 -0.3512
  766MPD2     H11365   1.029   3.596  15.773 -1.0276  1.9144  2.1643
  766MPD2    H111366   0.812   3.230  15.753 -2.0277  0.6583  2.6720
  766MPD2    H211367   1.040   3.327  16.096  0.2437  4.4059  0.7987
  766MPD2    H311368   0.887   3.177  15.967 -1.6471  0.4992  1.4926
  766MPD2     N11369   0.900   3.444  15.608  0.2256 -0.1660 -0.3169
  766MPD2    H511370   0.884   3.364  15.547  1.8128 -2.1844  1.9065
  766MPD2    N111371   1.129   3.553  15.996 -0.0654 -0.2657  0.0192
  766MPD2    H711372   1.194   3.502  16.054 -0.4346 -0.1873  0.4963
  767MPD2     C11373   0.116   4.231  15.040 -0.0298  0.6073  1.0971
  767MPD2    C111374   0.224   4.164  15.097  0.1740 -0.1743 -0.0187
  767MPD2    C211375   0.294   4.071  15.020 -0.0101 -0.3352  0.0687
  767MPD2    C311376   0.262   4.055  14.885  0.3482  0.3249 -0.1738
  767MPD2    C411377   0.150   4.119  14.834  0.8373  0.5492 -0.7255
  767MPD2    C511378   0.080   4.196  14.919 -0.0435 -0.4488 -0.4456
  767MPD2     H11379   0.376   4.011  15.058  2.2218  2.9380  0.3874
  767MPD2    H111380   0.107   4.107  14.735  1.8712 -0.4122 -1.0507
  767MPD2    H211381   0.059   4.306  15.094 -0.8499  0.8773 -0.1391
  767MPD2    H311382   4.724   4.234  14.875 -0.2967 -1.1856 -0.5549
  767MPD2     N11383   0.346   3.978  14.800  0.3847  0.1156 -0.2778
  767MPD2    H511384   0.418   3.927  14.849  1.3553 -1.3176 -3.2166
  767MPD2    N111385   0.262   4.200  15.226  0.1845 -0.3343 -0.5236
  767MPD2    H711386   0.221   4.288  15.255 -0.6810 -1.0823  0.5040
  768MPD2     C11387   1.923   2.661  10.944  0.1233  0.1786  0.8607
  768MPD2    C111388   1.887   2.528  10.993  0.1205 -0.1809 -0.2630
  768MPD2    C211389   1.984   2.463  11.056  0.6312  0.5407 -0.1183
  768MPD2    C311390   2.113   2.506  11.076  0.2745  0.5526 -0.1611
  768MPD2    C411391   2.142   2.624  11.016 -0.0397  0.1397  0.0237
  768MPD2    C511392   2.051   2.704  10.962 -0.5265 -0.3005 -0.3118
  768MPD2     H11393   1.957   2.363  11.090 -0.5850  0.5180 -1.2009
  768MPD2    H111394   2.241   2.667  11.031 -1.1448  2.6813  0.1253
  768MPD2    H211395   1.847   2.725  10.899  1.1064 -1.1492 -2.6741
  768MPD2    H311396   2.082   2.795  10.914  1.4033 -0.0129  1.4792
  768MPD2     N11397   2.219   2.440  11.138 -0.2891  0.0393  0.3272
  768MPD2    H511398   2.301   2.499  11.146  1.0797 -2.0116  1.3673
  768MPD2    N111399   1.761   2.462  10.983  0.2558  0.3157 -0.2324
  768MPD2    H711400   1.750   2.370  11.025  0.5930  1.4203  2.2577
  769MPD2     C11401   2.542   0.432  14.751 -0.1726 -1.0278  0.0224
  769MPD2    C111402   2.549   0.337  14.852 -0.7739 -1.3087 -0.6209
  769MPD2    C211403   2.661   0.322  14.928  0.9803  0.9494  0.2352
  769MPD2    C311404   2.760   0.417  14.904  0.4934 -0.0151  0.3460
  769MPD2    C411405   2.756   0.499  14.793  0.5873  0.5830 -0.0223
  769MPD2    C511406   2.649   0.500  14.709  0.3950  0.4051 -0.6101
  769MPD2     H11407   2.675   0.252  15.009 -0.8163  0.9433  0.5399
  769MPD2    H111408   2.842   0.557  14.762  1.6138 -0.2788  1.2159
  769MPD2    H211409   2.449   0.437  14.697 -0.7376  0.8001  1.1767
  769MPD2    H311410   2.640   0.568  14.626  1.9772  0.5634 -0.6495
  769MPD2     N11411   2.859   0.426  15.007 -0.3425 -0.0622  0.0807
  769MPD2    H511412   2.845   0.373  15.093 -0.1214  0.9190  0.7153
  769MPD2    N111413   2.430   0.256  14.858 -0.0591  0.3991 -0.6954
  769MPD2    H711414   2.346   0.279  14.805 -1.3460 -1.4906  0.5408
  770MPD2     C11415   1.963   3.995  14.906 -0.0753  0.2980 -0.5246
  770MPD2    C111416   1.872   4.084  14.857  0.3449 -0.4063 -0.0510
  770MPD2    C211417   1.906   4.216  14.840  0.7454  0.1929  0.2585
  770MPD2    C311418   2.036   4.255  14.857  0.4895  0.4200 -0.0240
  770MPD2    C411419   2.129   4.159  14.901  0.0473 -0.5174 -0.4501
  770MPD2    C511420   2.095   4.034  14.929  0.0271 -0.1878  0.8382
  770MPD2     H11421   1.837   4.281  14.787 -2.5680 -1.3157  2.7081
  770MPD2    H111422   2.236   4.176  14.900 -0.1384  0.7057  1.1070
  770MPD2    H211423   1.949   3.889  14.926 -0.7035  0.1340 -1.7718
  770MPD2    H311424   2.157   3.951  14.963  1.1617 -0.4866 -1.9747
  770MPD2     N11425   2.069   4.392  14.836 -0.4733  0.4599 -0.1188
  770MPD2    H511426   2.002   4.442  14.779 -0.7889  1.8495  1.4711
  770MPD2    N111427   1.739   4.032  14.835  0.7321 -0.0057  0.4810
  770MPD2    H711428   1.729   3.932  14.848  0.7196  0.0070  0.5712
  771MPD2     C11429   3.582   3.116  13.558 -0.0084  0.2340 -0.3275
  771MPD2    C111430   3.440   3.126  13.546  0.0584 -0.1281 -0.3251
  771MPD2    C211431   3.365   3.014  13.516  0.1351  0.0516 -0.3516
  771MPD2    C311432   3.425   2.893  13.490  0.0036  0.3974  0.8654
  771MPD2    C411433   3.563   2.880  13.496  0.3150 -0.1553  0.4091
  771MPD2    C511434   3.642   2.992  13.532  0.2961  0.1585 -0.3499
  771MPD2     H11435   3.256   3.013  13.515  0.1188  3.2155 -1.2734
  771MPD2    H111436   3.614   2.791  13.460  1.6065  1.0855 -0.8228
  771MPD2    H211437   3.636   3.205  13.587  0.0312 -0.2542  1.1252
  771MPD2    H311438   3.749   2.983  13.539  0.3092 -0.5297 -1.5499
  771MPD2     N11439   3.337   2.792  13.437  0.1041  0.1023  0.1837
  771MPD2    H511440   3.249   2.833  13.407  0.9361  1.2945 -0.5959
  771MPD2    N111441   3.388   3.250  13.579 -0.3238  0.2816  0.3088
  771MPD2    H711442   3.454   3.325  13.597 -0.2228  0.2337  0.1368
  772MPD2     C11443   2.850   3.823  13.841 -0.1808  0.2376  0.5953
  772MPD2    C111444   2.838   3.693  13.798 -0.1971 -0.3193 -0.2957
  772MPD2    C211445   2.754   3.610  13.876  0.2311  0.6633 -0.8390
  772MPD2    C311446   2.688   3.657  13.980  0.8131 -0.3234  0.2435
  772MPD2    C411447   2.696   3.787  14.024 -0.0946  0.2742 -0.2056
  772MPD2    C511448   2.776   3.869  13.951  0.0708 -0.1813 -0.0820
  772MPD2     H11449   2.739   3.505  13.855 -0.6685  0.6547 -0.1417
  772MPD2    H111450   2.643   3.822  14.112 -1.2216  0.5848 -1.0124
  772MPD2    H211451   2.906   3.898  13.786  2.0397 -0.3465  2.0918
  772MPD2    H311452   2.776   3.974  13.977 -1.4374  0.5030 -2.9492
  772MPD2     N11453   2.600   3.576  14.061  0.3761  0.3989 -0.5695
  772MPD2    H511454   2.568   3.612  14.150  1.0054 -1.4027  0.3847
  772MPD2    N111455   2.919   3.631  13.698 -0.3594  0.4216 -0.9202
  772MPD2    H711456   2.902   3.534  13.676  2.1433  0.3557 -2.6059
  773MPD2     C11457   2.526   4.320   0.255  0.1729  0.4097  0.4086
  773MPD2    C111458   2.463   4.248   0.156 -0.0206 -0.5237 -0.4436
  773MPD2    C211459   2.510   4.117   0.128  0.5219 -0.5342  0.1276
  773MPD2    C311460   2.630   4.076   0.182  0.0246  0.2053  0.3402
  773MPD2    C411461   2.700   4.159   0.267  0.5201  0.1460 -0.1171
  773MPD2    C511462   2.644   4.275   0.308  0.0494 -0.6007 -0.3873
  773MPD2     H11463   2.458   4.038   0.074 -0.4804  1.0906 -1.2993
  773MPD2    H111464   2.795   4.135   0.312  0.1540 -1.2084 -0.0580
  773MPD2    H211465   2.482   4.414   0.288  0.0047  0.0765  1.1277
  773MPD2    H311466   2.687   4.325   0.394  0.2813 -1.1245 -0.1965
  773MPD2     N11467   2.679   3.949   0.150 -0.0472  0.0467  0.2062
  773MPD2    H511468   2.624   3.893   0.086 -1.2606  2.8840 -1.2829
  773MPD2    N111469   2.344   4.296   0.095 -0.9008  0.1138  0.2367
  773MPD2    H711470   2.285   4.231   0.044 -2.4358  0.2425  1.8556
  774MPD2     C11471   1.790   3.607  13.781  0.4863  0.0860 -0.1796
  774MPD2    C111472   1.800   3.720  13.862 -0.3565 -0.2850  0.7706
  774MPD2    C211473   1.921   3.756  13.922 -0.2003  0.4814  0.5738
  774MPD2    C311474   2.042   3.694  13.888 -0.2048 -0.5486 -0.7443
  774MPD2    C411475   2.034   3.582  13.805 -0.0099 -0.6232  0.3724
  774MPD2    C511476   1.913   3.543  13.750 -0.3836 -0.1150 -0.0650
  774MPD2     H11477   1.920   3.842  13.988  1.0325  0.7909  0.1860
  774MPD2    H111478   2.114   3.517  13.773  1.4523 -0.4648  3.7239
  774MPD2    H211479   1.699   3.572  13.734  0.3800 -0.7708  0.6785
  774MPD2    H311480   1.919   3.449  13.697 -0.1857 -0.2982  0.2809
  774MPD2     N11481   2.168   3.743  13.943  0.1742  1.4314 -0.4720
  774MPD2    H511482   2.141   3.812  14.012  0.6655 -0.6735  1.8438
  774MPD2    N111483   1.682   3.786  13.900 -1.0340  0.5480  0.2922
  774MPD2    H711484   1.685   3.862  13.968 -0.7549  1.3749 -0.6347
  775MPD2     C11485   2.995   0.361  15.818 -0.1009  0.2566 -0.2053
  775MPD2    C111486   2.941   0.478  15.865 -0.1501  0.3934  0.2377
  775MPD2    C211487   3.009   0.595  15.840 -0.3771  0.3445  0.6884
  775MPD2    C311488   3.111   0.588  15.747  0.2729  0.2035  0.6639
  775MPD2    C411489   3.156   0.471  15.691 -0.1641  0.7245 -0.2765
  775MPD2    C511490   3.100   0.359  15.731 -0.0053  0.4923  0.4759
  775MPD2     H11491   2.979   0.693  15.875 -2.2066  0.6215 -1.6038
  775MPD2    H111492   3.239   0.467  15.622 -0.5470  0.5261 -0.7273
  775MPD2    H211493   2.945   0.270  15.848 -3.6437  1.2870 -2.8801
  775MPD2    H311494   3.141   0.270  15.686 -2.2653  0.1005 -0.8007
  775MPD2     N11495   3.179   0.706  15.696  0.7536 -0.1077  0.2381
  775MPD2    H511496   3.243   0.682  15.621 -0.4835  0.2397 -0.9356
  775MPD2    N111497   2.839   0.460  15.956 -0.0003  0.0817  0.5072
  775MPD2    H711498   2.801   0.366  15.958 -0.1665  0.1086 -1.1357
  776MPD2     C11499   2.079   0.134  11.392  0.2691  0.5762 -0.3376
  776MPD2    C111500   1.953   0.161  11.429 -0.3270  0.1926 -0.4381
  776MPD2    C211501   1.910   0.287  11.463 -0.0555 -0.1799  0.3145
  776MPD2    C311502   2.003   0.389  11.474 -0.0724  0.0024 -0.1186
  776MPD2    C411503   2.135   0.360  11.445  0.6505 -0.6525 -0.3739
  776MPD2    C511504   2.169   0.234  11.404 -0.7084  0.1422 -0.5768
  776MPD2     H11505   1.805   0.308  11.483 -0.0191  2.2926 -2.1690
  776MPD2    H111506   2.213   0.436  11.449 -0.2014  0.1856  0.4731
  776MPD2    H211507   2.112   0.032  11.378 -1.4870 -0.1630  0.8233
  776MPD2    H311508   2.274   0.208  11.390  0.0590  2.6993  0.4504
  776MPD2     N11509   1.978   0.523  11.485 -0.2891 -0.5088  0.2020
  776MPD2    H511510   2.059   0.584  11.478  1.4538 -2.8140  0.4144
  776MPD2    N111511   1.876   0.044  11.436  0.4369 -0.0361  0.2485
  776MPD2    H711512   1.919   4.697  11.395 -0.1300  0.2971 -1.0079
  777MPD2     C11513   2.284   2.961   0.583  0.0890 -0.7531 -0.5600
  777MPD2    C111514   2.279   2.865   0.675  0.7284 -0.0972  0.8855
  777MPD2    C211515   2.226   2.734   0.650 -0.1435 -0.9802 -0.0877
  777MPD2    C311516   2.183   2.704   0.521  0.0910 -0.6596 -0.6617
  777MPD2    C411517   2.193   2.802   0.425  0.4498 -0.3269 -0.4424
  777MPD2    C511518   2.241   2.928   0.458  0.3918 -0.0814  0.0961
  777MPD2     H11519   2.205   2.659   0.726  0.0899 -2.5287 -1.5340
  777MPD2    H111520   2.160   2.787   0.323 -2.2321  1.9090  0.0962
  777MPD2    H211521   2.316   3.062   0.607 -1.3117 -0.5453  0.4165
  777MPD2    H311522   2.249   3.004   0.382 -0.5450 -0.7930 -0.7117
  777MPD2     N11523   2.135   2.569   0.494  0.0388  0.5932  0.3396
  777MPD2    H511524   2.138   2.506   0.574 -3.4506 -2.2298 -1.7395
  777MPD2    N111525   2.305   2.906   0.808 -0.2954 -0.2240  0.0228
  777MPD2    H711526   2.322   3.005   0.826  2.6359 -0.8484  0.6077
  778MPD2     C11527   3.111   3.345  14.468  0.4464  0.5670  0.1433
  778MPD2    C111528   3.180   3.231  14.462 -0.5525 -0.2527  0.1847
  778MPD2    C211529   3.303   3.230  14.394  0.7271 -0.8720  0.2003
  778MPD2    C311530   3.356   3.344  14.324 -0.0038  0.5448  0.0964
  778MPD2    C411531   3.287   3.458  14.339  0.0212  0.1991 -0.4051
  778MPD2    C511532   3.167   3.458  14.411  0.1548 -0.1803  0.6389
  778MPD2     H11533   3.366   3.143  14.382  2.0410 -0.0749  1.3512
  778MPD2    H111534   3.300   3.558  14.298  0.8277  0.5040  0.5832
  778MPD2    H211535   3.015   3.347  14.517  1.2781 -0.6724  1.7959
  778MPD2    H311536   3.112   3.551  14.417  0.3140  0.0578 -1.3669
  778MPD2     N11537   3.482   3.333  14.253 -0.2020  0.1976  0.4907
  778MPD2    H511538   3.531   3.244  14.256 -1.5029 -0.4785  2.2066
  778MPD2    N111539   3.135   3.109  14.527  0.5178  0.2193 -0.0536
  778MPD2    H711540   3.205   3.035  14.526  1.4057  1.0363  1.2136
  779MPD2     C11541   2.859   1.897  14.282 -0.1756  0.3323  0.1625
  779MPD2    C111542   2.979   1.948  14.229 -0.3712 -0.5979 -0.5208
  779MPD2    C211543   2.980   2.081  14.194 -0.4174  0.2836  0.0061
  779MPD2    C311544   2.872   2.166  14.208  0.7183 -0.1879  0.4011
  779MPD2    C411545   2.753   2.116  14.259  0.5861 -0.8161  0.6291
  779MPD2    C511546   2.749   1.984  14.300 -0.1306  0.4141  0.5328
  779MPD2     H11547   3.071   2.122  14.152 -0.5942  0.9186  0.2273
  779MPD2    H111548   2.665   2.177  14.277  0.9676 -0.3691  0.9844
  779MPD2    H211549   2.858   1.792  14.309  1.3500  0.6505  1.4932
  779MPD2    H311550   2.664   1.950  14.357 -0.2320  0.7508  0.5809
  779MPD2     N11551   2.891   2.302  14.187  0.5997  0.3801 -0.9330
  779MPD2    H511552   2.980   2.330  14.148  0.2925  0.8266 -1.3142
  779MPD2    N111553   3.104   1.880  14.224  0.4498  0.0289  0.1259
  779MPD2    H711554   3.183   1.930  14.184 -0.7832  1.4422 -0.5630
  780MPD2     C11555   3.258   1.659   1.483 -1.2727 -0.6913 -0.1789
  780MPD2    C111556   3.151   1.660   1.402 -0.0557  0.1860  0.0433
  780MPD2    C211557   3.158   1.723   1.276  0.1504 -0.0686  0.8890
  780MPD2    C311558   3.272   1.778   1.232 -0.1816 -0.6216 -0.9747
  780MPD2    C411559   3.387   1.773   1.307  0.2633 -0.5233  0.4189
  780MPD2    C511560   3.376   1.708   1.431  0.5630  0.3926  0.5261
  780MPD2     H11561   3.073   1.738   1.210 -1.1063 -1.3338  2.2276
  780MPD2    H111562   3.482   1.810   1.270 -0.0166 -1.6490 -1.4300
  780MPD2    H211563   3.248   1.612   1.580 -0.7302 -1.2786 -0.4057
  780MPD2    H311564   3.460   1.696   1.498 -0.2372 -1.6843  1.1428
  780MPD2     N11565   3.269   1.830   1.101  0.4886  0.1301  0.2783
  780MPD2    H511566   3.189   1.793   1.051 -0.2660 -1.2895  2.5036
  780MPD2    N111567   3.034   1.597   1.447  0.3557 -0.2668  0.4617
  780MPD2    H711568   3.038   1.544   1.534  1.5893  1.6915  1.5987
  781MPD2     C11569   0.000   3.263  11.665 -1.0809  0.0903 -1.0715
  781MPD2    C111570   0.003   3.150  11.751 -0.1055 -0.6896 -0.4058
  781MPD2    C211571   0.058   3.034  11.696  0.8374 -0.1303  0.2488
  781MPD2    C311572   0.120   3.031  11.577 -0.2394 -0.0491 -0.2427
  781MPD2    C411573   0.108   3.142  11.492 -0.5994  0.3956 -0.0860
  781MPD2    C511574   0.045   3.255  11.536  0.1282  0.1760  0.1920
  781MPD2     H11575   0.066   2.948  11.761 -3.6859 -1.0478 -0.3702
  781MPD2    H111576   0.153   3.140  11.393  1.9954 -2.1564  1.1163
  781MPD2    H211577   4.694   3.357  11.697 -0.8902  0.1919 -1.1210
  781MPD2    H311578   0.019   3.336  11.469 -0.9636 -0.6219 -0.3555
  781MPD2     N11579   0.193   2.923  11.528  0.5234 -1.0221 -0.5164
  781MPD2    H511580   0.234   2.940  11.437 -0.1291  1.1755 -0.4070
  781MPD2    N111581   4.696   3.153  11.877  0.4892  0.0361  0.2091
  781MPD2    H711582   4.693   3.066  11.928  1.4551  0.8709  1.6936
  782MPD2     C11583   2.291   4.378  10.426 -0.2236 -0.4980 -0.6040
  782MPD2    C111584   2.426   4.368  10.426 -0.3895  0.3136  0.0841
  782MPD2    C211585   2.499   4.478  10.466  0.9078  0.9763 -0.1064
  782MPD2    C311586   2.434   4.596  10.513  0.2096  0.2468 -0.5045
  782MPD2    C411587   2.298   4.592  10.516  0.2407 -0.0251 -0.6819
  782MPD2    C511588   2.225   4.485  10.466  0.0368 -0.4696  0.4009
  782MPD2     H11589   2.607   4.479  10.474  0.9783 -1.6728 -0.8301
  782MPD2    H111590   2.240   4.679  10.546  1.4012  0.9110 -1.1825
  782MPD2    H211591   2.235   4.289  10.395 -0.2380 -0.0405 -1.8861
  782MPD2    H311592   2.117   4.484  10.471 -0.1266  0.8571 -2.9005
  782MPD2     N11593   2.517   4.705  10.547  0.4305 -0.1458 -0.1023
  782MPD2    H511594   2.616   4.689  10.533  0.4973 -0.8741  1.2627
  782MPD2    N111595   2.489   4.248  10.362  0.0697 -0.3627 -0.1672
  782MPD2    H711596   2.428   4.172  10.333  1.0649 -1.1717 -0.1319
  783MPD2     C11597   2.143   3.483  10.279 -0.1030 -0.1560  0.3942
  783MPD2    C111598   2.149   3.595  10.363 -0.0375 -0.5444  0.0536
  783MPD2    C211599   2.250   3.689  10.352 -0.3698 -1.3760  0.2275
  783MPD2    C311600   2.339   3.679  10.250  0.3319  0.5762 -0.2976
  783MPD2    C411601   2.331   3.574  10.162 -0.2449 -0.3272 -0.2555
  783MPD2    C511602   2.239   3.473  10.179 -0.0909 -0.3486  0.2274
  783MPD2     H11603   2.274   3.760  10.430  1.4887 -1.3919 -0.3430
  783MPD2    H111604   2.400   3.556  10.080  0.8829  0.5310  0.4990
  783MPD2    H211605   2.058   3.416  10.291 -1.6904  1.4798 -1.8534
  783MPD2    H311606   2.245   3.393  10.106  2.9155  0.9270 -0.9519
  783MPD2     N11607   2.449   3.770  10.248 -0.2305 -0.1818 -0.2959
  783MPD2    H511608   2.447   3.850  10.310 -0.7208  0.8297 -1.6221
  783MPD2    N111609   2.052   3.596  10.467  0.5227  0.7501 -0.0829
  783MPD2    H711610   1.982   3.523  10.473  0.7171  0.3059 -3.3746
  784MPD2     C11611   0.652   4.710   0.718 -0.1950  0.6455 -0.5718
  784MPD2    C111612   0.652   0.092   0.798  0.3903 -0.4900  0.1325
  784MPD2    C211613   0.550   0.184   0.776 -0.6133 -0.2451  0.1640
  784MPD2    C311614   0.448   0.156   0.690  0.0499 -0.1882 -0.8201
  784MPD2    C411615   0.462   0.048   0.605  0.1083 -0.0193 -0.5229
  784MPD2    C511616   0.566   4.692   0.614  0.0602 -0.3133  0.6224
  784MPD2     H11617   0.550   0.274   0.837 -0.1968  0.1618 -0.4281
  784MPD2    H111618   0.382   0.014   0.540 -1.5180  2.0260  0.3970
  784MPD2    H211619   0.731   4.636   0.726 -2.0350 -1.3004 -0.4240
  784MPD2    H311620   0.564   4.604   0.550  1.1604  0.6317 -0.7311
  784MPD2     N11621   0.334   0.246   0.675  0.0349 -0.0058 -0.0607
  784MPD2    H511622   0.324   0.336   0.721  1.0767 -0.1047  0.3611
  784MPD2    N111623   0.751   0.127   0.891 -0.1116  0.4542  0.1773
  784MPD2    H711624   0.752   0.222   0.927 -0.3318  0.6618 -0.3621
  785MPD2     C11625   0.116   2.655   9.745 -0.1052 -0.6323  0.9451
  785MPD2    C111626   0.111   2.638   9.879  1.2794  0.2447  0.6958
  785MPD2    C211627   4.724   2.607   9.932 -0.5153 -0.0802  0.1324
  785MPD2    C311628   4.608   2.587   9.858 -0.4674 -0.4553  0.6265
  785MPD2    C411629   4.615   2.597   9.725 -0.6240  0.0926  0.2042
  785MPD2    C511630   4.735   2.636   9.669 -0.1036 -0.1065 -0.1650
  785MPD2     H11631   4.711   2.623  10.039  0.8672 -0.4953  0.3741
  785MPD2    H111632   4.531   2.582   9.658 -0.9417  2.1407  0.1535
  785MPD2    H211633   0.208   2.683   9.697 -2.2640 -1.2516 -3.5188
  785MPD2    H311634   0.007   2.648   9.562 -1.7784  0.3150 -0.2440
  785MPD2     N11635   4.487   2.572   9.933 -0.5282 -0.8024  0.6578
  785MPD2    H511636   4.499   2.562  10.033 -1.5236 -3.2692  0.5345
  785MPD2    N111637   0.225   2.672   9.955 -0.0670  0.2318 -0.2728
  785MPD2    H711638   0.311   2.684   9.904 -0.3001  0.7214 -0.5449
  786MPD2     C11639   3.605   1.446  14.550 -0.7096 -0.6213 -0.4144
  786MPD2    C111640   3.706   1.353  14.567  0.4085 -0.3927  0.3750
  786MPD2    C211641   3.764   1.340  14.692  0.0939  0.0661  0.2506
  786MPD2    C311642   3.710   1.416  14.797 -0.6558 -0.4638 -0.0918
  786MPD2    C411643   3.604   1.500  14.782 -0.0391 -0.0035 -0.5324
  786MPD2    C511644   3.548   1.511  14.657  0.1189  0.3973 -0.4162
  786MPD2     H11645   3.850   1.276  14.704 -0.1092 -0.4936 -1.3933
  786MPD2    H111646   3.560   1.559  14.862  0.6214  1.0759 -0.9691
  786MPD2    H211647   3.570   1.477  14.452 -0.2430 -1.6020 -0.8950
  786MPD2    H311648   3.465   1.578  14.635 -0.7679  0.0720  1.8868
  786MPD2     N11649   3.763   1.415  14.923 -0.4834 -0.0972  0.0139
  786MPD2    H511650   3.727   1.482  14.991 -0.1323 -2.4025  2.4441
  786MPD2    N111651   3.761   1.277  14.459 -0.2795 -0.3757  0.1736
  786MPD2    H711652   3.834   1.208  14.477 -0.0565  0.8583  3.9952
  787MPD2     C11653   3.767   0.655  14.495  0.9057 -0.2878  0.5147
  787MPD2    C111654   3.859   0.686  14.396 -0.6189 -0.6060  0.1351
  787MPD2    C211655   3.933   0.590  14.336 -0.6625  0.6412 -0.4251
  787MPD2    C311656   3.948   0.461  14.395  0.0460  0.3012  0.3078
  787MPD2    C411657   3.862   0.434  14.500 -0.0896  0.4886 -0.6873
  787MPD2    C511658   3.772   0.526  14.542 -0.7477  0.2492  0.0397
  787MPD2     H11659   3.995   0.614  14.251 -2.0719 -1.3999 -2.0219
  787MPD2    H111660   3.878   0.345  14.560  1.6919 -1.0632 -3.4325
  787MPD2    H211661   3.682   0.716  14.524  1.5289  0.9505 -0.2567
  787MPD2    H311662   3.704   0.483  14.615 -3.1508  0.7602 -1.8901
  787MPD2     N11663   4.051   0.373  14.351  0.7983  0.5313  0.0574
  787MPD2    H511664   4.096   0.398  14.264 -1.3962 -0.1076 -1.2511
  787MPD2    N111665   3.837   0.814  14.337  0.8856 -0.1927 -0.0842
  787MPD2    H711666   3.809   0.894  14.393  2.9934 -0.0026  0.7253
  788MPD2     C11667   1.452   0.225   1.054 -0.2747 -0.0610  0.1456
  788MPD2    C111668   1.401   0.144   0.961 -0.3967 -0.0084  0.3701
  788MPD2    C211669   1.292   0.192   0.887  0.5339  0.3935 -0.1357
  788MPD2    C311670   1.251   0.328   0.896 -0.4175 -0.3579  0.0295
  788MPD2    C411671   1.315   0.409   0.986  1.0118 -0.5630 -0.4436
  788MPD2    C511672   1.417   0.356   1.065  0.4346 -0.0136  0.2074
  788MPD2     H11673   1.258   0.131   0.804  1.7986  1.2612 -1.3053
  788MPD2    H111674   1.296   0.516   0.991  0.6387 -0.5629 -1.8752
  788MPD2    H211675   1.530   0.192   1.123  0.6777 -1.2182 -1.5009
  788MPD2    H311676   1.468   0.414   1.141  0.0752  0.5871 -0.0134
  788MPD2     N11677   1.153   0.388   0.823  0.0001 -0.0759  0.3949
  788MPD2    H511678   1.138   0.488   0.834  1.9282  0.2508  0.0209
  788MPD2    N111679   1.463   0.019   0.936 -0.0685 -0.3634  0.1107
  788MPD2    H711680   1.429   4.690   0.865 -1.3094  1.2472 -0.7461
  789MPD2     C11681   1.031   3.712  16.925  0.3919 -0.4857 -0.0900
  789MPD2    C111682   0.933   3.753  16.840 -0.5454 -0.0620 -0.1574
  789MPD2    C211683   0.898   3.887  16.827  0.5633 -0.4836  0.5470
  789MPD2    C311684   0.950   3.977  16.913  0.0040 -0.6209 -0.1704
  789MPD2    C411685   1.047   3.932  17.003 -0.4828 -0.3298 -0.9163
  789MPD2    C511686   1.088   3.805  17.007  0.2503  0.6041  0.1482
  789MPD2     H11687   0.834   3.911  16.744 -1.0937  0.7864  2.1889
  789MPD2    H111688   1.093   4.002  17.072 -0.2905 -0.4864 -0.8843
  789MPD2    H211689   1.051   3.608  16.949 -0.3767 -0.3023  1.3510
  789MPD2    H311690   1.139   3.772  17.097 -1.3709 -1.1163  0.4306
  789MPD2     N11691   0.918   4.114  16.890 -0.0869  0.2635  0.1286
  789MPD2    H511692   0.866   4.141  16.808  1.4175 -0.2895 -1.0095
  789MPD2    N111693   0.848   3.659  16.767  0.4101  0.1084 -0.0724
  789MPD2    H711694   0.772   3.693  16.709  0.3062  0.8748  0.5271
  790MPD2     C11695   2.206   1.139  13.554 -0.4243  0.2327 -0.3370
  790MPD2    C111696   2.314   1.058  13.586 -0.2506  0.1164  0.9344
  790MPD2    C211697   2.361   0.969  13.488  0.3023 -0.2664 -0.9107
  790MPD2    C311698   2.297   0.944  13.366 -0.2593 -0.8589  0.1279
  790MPD2    C411699   2.208   1.038  13.331  0.1285  0.4607 -0.6954
  790MPD2    C511700   2.164   1.134  13.422  0.3601  0.1094 -0.7510
  790MPD2     H11701   2.439   0.896  13.507  0.0034  0.2211  2.1478
  790MPD2    H111702   2.160   1.031  13.235 -1.1585 -0.5833  0.0374
  790MPD2    H211703   2.159   1.208  13.623 -1.0441 -0.3022 -0.2201
  790MPD2    H311704   2.073   1.186  13.395  0.4775  0.9752  0.5468
  790MPD2     N11705   2.339   0.833  13.288 -0.0067 -0.0229  0.0015
  790MPD2    H511706   2.415   0.779  13.328  0.6538  0.9944  0.1258
  790MPD2    N111707   2.357   1.061  13.721 -0.6317 -0.2249  0.0116
  790MPD2    H711708   2.290   1.107  13.783 -0.1950 -0.2964  0.5303
  791MPD2     C11709   2.035   0.540  12.715  0.6318  0.2199 -0.0588
  791MPD2    C111710   2.051   0.433  12.809  0.0368  0.3780 -0.4502
  791MPD2    C211711   1.961   0.332  12.814  0.3147 -0.4952 -0.1154
  791MPD2    C311712   1.867   0.319  12.709 -0.4847 -0.4001 -0.3479
  791MPD2    C411713   1.868   0.413  12.606 -0.3688 -0.4855  0.4395
  791MPD2    C511714   1.952   0.521  12.609 -0.5938 -0.1878 -1.0037
  791MPD2     H11715   1.976   0.249  12.883 -0.5311  0.4269  1.1889
  791MPD2    H111716   1.799   0.403  12.522  0.5036 -0.4855 -0.2798
  791MPD2    H211717   2.093   0.632  12.717 -1.5438  1.6374 -2.6289
  791MPD2    H311718   1.948   0.600  12.534  1.6779  0.4534 -0.4453
  791MPD2     N11719   1.789   0.203  12.724  0.7221 -0.4339  0.2659
  791MPD2    H511720   1.819   0.134  12.792  0.5901 -2.6529 -1.9065
  791MPD2    N111721   2.146   0.448  12.916  0.5133  0.2159  0.6174
  791MPD2    H711722   2.197   0.534  12.930  2.3783 -0.8644  0.4089
  792MPD2     C11723   2.533   4.632  10.922  0.4634 -0.3188 -0.0763
  792MPD2    C111724   2.412   4.689  10.974 -0.1332 -0.2038 -0.4733
  792MPD2    C211725   2.293   4.615  10.960 -0.5960  0.3796 -0.3859
  792MPD2    C311726   2.293   4.501  10.888  0.9612 -0.1925  0.0498
  792MPD2    C411727   2.408   4.441  10.841  0.1479  0.0976  0.1787
  792MPD2    C511728   2.525   4.504  10.870  0.6828  0.2359 -0.4994
  792MPD2     H11729   2.207   4.667  11.000  0.8304  0.6601  2.2781
  792MPD2    H111730   2.412   4.351  10.782  1.2333  0.8729 -0.9254
  792MPD2    H211731   2.625   4.688  10.931  0.1393 -0.1330  2.1203
  792MPD2    H311732   2.616   4.450  10.848  0.8620  0.4080 -0.1683
  792MPD2     N11733   2.170   4.431  10.868 -0.4433 -0.0567  0.4586
  792MPD2    H511734   2.170   4.356  10.800  1.2031  0.0830  0.3037
  792MPD2    N111735   2.424   0.082  11.037  0.2547  0.4924  0.2265
  792MPD2    H711736   2.518   0.119  11.030  0.0807  0.5766 -1.6625
  793MPD2     C11737   1.313   0.099  10.385  0.1492  0.4183  0.3280
  793MPD2    C111738   1.444   0.137  10.420  0.4288  0.3176 -0.8574
  793MPD2    C211739   1.529   0.045  10.480  0.0102  0.2253  0.8289
  793MPD2    C311740   1.476   4.656  10.523 -0.4697  0.2654  0.5325
  793MPD2    C411741   1.349   4.626  10.492 -0.3207 -0.0929  0.3507
  793MPD2    C511742   1.267   4.706  10.426 -0.5160  0.2009  0.6432
  793MPD2     H11743   1.634   0.063  10.499  0.6458 -1.7187 -0.7733
  793MPD2    H111744   1.302   4.537  10.533 -1.8657  0.9506  0.8573
  793MPD2    H211745   1.236   0.160  10.339 -0.6235 -0.3667  0.5839
  793MPD2    H311746   1.162   4.689  10.403 -0.5096  0.2344  0.5880
  793MPD2     N11747   1.546   4.568  10.603  0.0268 -0.2057 -0.7022
  793MPD2    H511748   1.489   4.492  10.639 -0.2487  0.7646  0.9134
  793MPD2    N111749   1.506   0.255  10.379 -0.6133 -0.7403  0.7646
  793MPD2    H711750   1.597   0.276  10.420 -0.4966  0.6641 -0.2250
  794MPD2     C11751   2.082   0.220  17.368 -0.2027  0.1004  0.7510
  794MPD2    C111752   1.995   0.113  17.354  1.6545  0.2784  0.2146
  794MPD2    C211753   1.911   0.102  17.248 -0.3624 -0.0042 -0.7047
  794MPD2    C311754   1.910   0.198  17.148 -0.0112 -0.0968  0.2972
  794MPD2    C411755   1.995   0.306  17.164 -0.4866  0.5774  0.6858
  794MPD2    C511756   2.077   0.318  17.274  0.1867  0.0859 -0.2803
  794MPD2     H11757   1.857   0.010  17.229  0.7666 -0.7470 -0.3360
  794MPD2    H111758   2.000   0.383  17.088  2.8223 -0.8291 -0.5256
  794MPD2    H211759   2.161   0.223  17.442 -0.2629 -2.3754  0.9075
  794MPD2    H311760   2.146   0.401  17.272 -3.3114  3.0213 -0.6542
  794MPD2     N11761   1.834   0.169  17.032 -0.2529  0.4365  0.1040
  794MPD2    H511762   1.753   0.108  17.039  0.3171 -0.6411 -2.7133
  794MPD2    N111763   2.014   4.734  17.431 -0.6483 -0.1568  0.1952
  794MPD2    H711764   1.969   4.650  17.395 -0.3645  0.8457 -2.5097
  795MPD2     C11765   0.475   2.111  13.460 -0.1183  0.7428 -0.2645
  795MPD2    C111766   0.395   2.002  13.430  0.4980 -0.6566  0.0413
  795MPD2    C211767   0.444   1.875  13.463  0.1151  0.5329  0.2169
  795MPD2    C311768   0.561   1.853  13.535 -0.1787  0.0281 -0.9761
  795MPD2    C411769   0.632   1.969  13.574 -0.1144 -0.5263 -0.7706
  795MPD2    C511770   0.585   2.092  13.534  0.1227 -0.0310  0.4703
  795MPD2     H11771   0.382   1.793  13.429  1.4661 -0.7273  0.8083
  795MPD2    H111772   0.725   1.969  13.630 -2.1186  3.0411  2.5945
  795MPD2    H211773   0.455   2.214  13.431  0.3362  0.2292 -2.4359
  795MPD2    H311774   0.634   2.182  13.570  0.0076 -0.8026  2.5186
  795MPD2     N11775   0.599   1.725  13.573 -0.0460  0.3319  0.5110
  795MPD2    H511776   0.548   1.644  13.539 -0.2869  1.3318 -1.5504
  795MPD2    N111777   0.273   2.010  13.365  0.0666 -0.0673  0.2712
  795MPD2    H711778   0.226   1.921  13.357 -1.0824  0.3212  2.6270
  796MPD2     C11779   3.834   3.759  16.039  0.3018 -0.7048  0.1427
  796MPD2    C111780   3.958   3.812  16.040 -0.3438  0.3795  0.1045
  796MPD2    C211781   3.983   3.919  15.949  0.0748 -0.0231  0.4672
  796MPD2    C311782   3.884   3.974  15.873  0.5191 -0.0226  0.5273
  796MPD2    C411783   3.758   3.921  15.871 -0.4195 -0.1652 -0.2048
  796MPD2    C511784   3.731   3.817  15.963  0.2301 -0.0256 -0.0384
  796MPD2     H11785   4.078   3.971  15.939  0.9050 -1.6735 -0.2497
  796MPD2    H111786   3.666   3.951  15.823 -1.4065 -2.1049  0.5211
  796MPD2    H211787   3.818   3.669  16.098 -0.7828 -0.9392 -0.5129
  796MPD2    H311788   3.631   3.773  15.962  0.3343 -0.2996  1.7388
  796MPD2     N11789   3.913   4.088  15.794 -0.8672 -0.0935  0.1888
  796MPD2    H511790   3.998   4.137  15.817 -0.6875 -0.4221  0.2352
  796MPD2    N111791   4.061   3.737  16.110  0.0449  0.2183 -0.0977
  796MPD2    H711792   4.045   3.647  16.154 -1.1706 -0.5938 -2.1687
  797MPD2     C11793   0.496   3.436  17.603 -0.1034 -0.5483  0.3921
  797MPD2    C111794   0.495   3.573  17.610  0.1594  0.1939  0.4656
  797MPD2    C211795   0.413   3.644  17.522  0.6946  0.9279  0.6693
  797MPD2    C311796   0.337   3.589  17.420  0.4061  0.0174 -0.7829
  797MPD2    C411797   0.345   3.453  17.400 -0.5120  0.2336  0.0937
  797MPD2    C511798   0.430   3.386  17.492  0.2950  0.7649  0.4647
  797MPD2     H11799   0.422   3.751  17.535  0.8615  0.9493  0.3865
  797MPD2    H111800   0.290   3.410  17.316  1.0860 -1.9205  0.1384
  797MPD2    H211801   0.553   3.371  17.669 -0.8254 -1.1776  0.4049
  797MPD2    H311802   0.443   3.280  17.473  0.1669  0.7081  0.6875
  797MPD2     N11803   0.263   3.683  17.339  0.5888  0.3061  0.4450
  797MPD2    H511804   0.263   3.782  17.363  0.7155  0.4903 -0.3208
  797MPD2    N111805   0.566   3.650  17.700  0.4451  0.2056 -0.1024
  797MPD2    H711806   0.549   3.750  17.694  0.8686  0.0861 -3.4288
  798MPD2     C11807   0.432   4.332  17.480 -1.2433 -1.0919  0.0658
  798MPD2    C111808   0.418   4.199  17.447  0.8537  0.8673  0.0291
  798MPD2    C211809   0.498   4.111  17.508 -0.8164 -0.4075  0.2809
  798MPD2    C311810   0.587   4.156  17.608 -0.1575  0.2556 -0.9500
  798MPD2    C411811   0.587   4.285  17.652 -0.4634  0.0023  0.1108
  798MPD2    C511812   0.504   4.373  17.587  0.5034 -0.5744  0.4534
  798MPD2     H11813   0.517   4.011  17.470 -0.4160 -0.4380  0.5614
  798MPD2    H111814   0.647   4.321  17.735 -1.0360  3.0859 -0.7913
  798MPD2    H211815   0.383   4.411  17.424 -0.7426 -1.4884 -0.9363
  798MPD2    H311816   0.506   4.475  17.624 -1.4058  0.0638 -1.1944
  798MPD2     N11817   0.658   4.051  17.675 -0.1436 -0.9021  0.5228
  798MPD2    H511818   0.662   3.964  17.623 -3.1953  0.6556 -2.3583
  798MPD2    N111819   0.330   4.159  17.345 -0.4270 -0.2631 -0.2124
  798MPD2    H711820   0.299   4.234  17.284  0.8950  1.1803  0.8848
  799MPD2     C11821   3.822   4.725  14.287 -0.3851 -1.0983 -0.4119
  799MPD2    C111822   3.858   4.664  14.167  0.4779  0.5815 -0.4145
  799MPD2    C211823   3.855   0.006  14.054  0.5683 -0.4996  0.0671
  799MPD2    C311824   3.809   0.136  14.054  0.0762 -0.3769  0.0480
  799MPD2    C411825   3.778   0.193  14.173  0.0275  0.0934 -0.7693
  799MPD2    C511826   3.786   0.124  14.292  0.5801 -0.8478 -0.7750
  799MPD2     H11827   3.904   4.692  13.971  1.8241  0.8038  0.0256
  799MPD2    H111828   3.744   0.295  14.175  0.2560  0.0922  2.8738
  799MPD2    H211829   3.815   4.674  14.382  1.8817 -0.6246  0.0112
  799MPD2    H311830   3.767   0.171  14.388 -0.7917  1.6381 -2.2604
  799MPD2     N11831   3.797   0.211  13.938 -0.4784 -0.3274  0.3402
  799MPD2    H511832   3.787   0.311  13.951  0.3320 -0.0508 -1.1398
  799MPD2    N111833   3.912   4.532  14.166 -0.0897  0.8136 -0.3241
  799MPD2    H711834   3.934   4.486  14.078 -1.1933  3.1569 -1.8144
  800MPD2     C11835   4.544   1.861  13.889 -0.0273 -0.2159 -0.5594
  800MPD2    C111836   4.665   1.798  13.914 -0.8602  0.3589  0.4197
  800MPD2    C211837   4.662   1.658  13.900 -0.2773  0.0739  0.2008
  800MPD2    C311838   4.553   1.580  13.864 -0.5067  0.1735  0.2845
  800MPD2    C411839   4.430   1.655  13.845  0.1640 -0.3165  0.2435
  800MPD2    C511840   4.428   1.792  13.865  0.5374  0.2908  0.1874
  800MPD2     H11841   0.019   1.608  13.928 -1.0653 -2.7303 -2.3215
  800MPD2    H111842   4.341   1.603  13.812 -0.6886  0.6979  0.9071
  800MPD2    H211843   4.521   1.965  13.911  1.4453 -0.0712  0.2782
  800MPD2    H311844   4.338   1.847  13.837 -0.3587 -0.8219  0.8968
  800MPD2     N11845   4.571   1.438  13.848  0.3561 -0.4991 -0.0972
  800MPD2    H511846   4.662   1.394  13.851 -0.0484 -1.3545 -0.2397
  800MPD2    N111847   0.020   1.880  13.988 -0.0166 -0.0312  0.2275
  800MPD2    H711848   4.735   1.979  13.994  1.7175  0.4804 -2.0358
  801MPD2     C11849   4.570   2.356  14.411 -0.3138  0.5913  0.8482
  801MPD2    C111850   4.588   2.255  14.318 -0.1348  0.4186 -0.3680
  801MPD2    C211851   4.481   2.224  14.232 -0.5868  0.1652 -0.0480
  801MPD2    C311852   4.354   2.277  14.253  0.2061 -0.0404  0.3305
  801MPD2    C411853   4.335   2.368  14.356 -0.5544 -0.2305 -1.0213
  801MPD2    C511854   4.443   2.412  14.429 -0.0106 -0.4514  0.3463
  801MPD2     H11855   4.496   2.154  14.150  0.8665 -2.0534  2.1238
  801MPD2    H111856   4.238   2.413  14.368 -0.0599  0.7052 -0.5326
  801MPD2    H211857   4.648   2.399  14.472  1.9477 -1.1046 -0.8634
  801MPD2    H311858   4.432   2.495  14.497 -1.2803 -2.1345  2.1882
  801MPD2     N11859   4.244   2.241  14.169 -0.0862 -0.1611  0.1443
  801MPD2    H511860   4.161   2.298  14.180 -0.5522 -0.8517  0.2067
  801MPD2    N111861   4.712   2.189  14.285  0.3320 -0.7585  0.0527
  801MPD2    H711862   4.715   2.138  14.198  0.6068  0.0216 -0.3885
  802MPD2     C11863   3.873   3.193   0.278 -0.0680 -1.0186  0.1218
  802MPD2    C111864   3.837   3.067   0.319  0.2889  0.5444 -0.7296
  802MPD2    C211865   3.887   2.955   0.247  1.1440  0.7099  0.3677
  802MPD2    C311866   3.963   2.977   0.134  0.5503 -0.5762  0.5065
  802MPD2    C411867   3.991   3.105   0.088 -0.6796  0.2450  0.4589
  802MPD2    C511868   3.945   3.215   0.159 -0.0688  0.1210  0.3708
  802MPD2     H11869   3.867   2.854   0.278  2.8581 -0.1108 -1.2357
  802MPD2    H111870   4.039   3.125  17.734  0.6357 -0.2674  1.0215
  802MPD2    H211871   3.817   3.281   0.310  1.5371  0.2659 -0.6319
  802MPD2    H311872   3.959   3.314   0.117 -0.5938 -0.2857 -0.7623
  802MPD2     N11873   4.013   2.870   0.056  0.3107  0.2706 -0.6813
  802MPD2    H511874   4.052   2.899  17.708 -1.7093  3.2233 -0.6106
  802MPD2    N111875   3.755   3.040   0.429 -0.3592 -0.3128  0.3637
  802MPD2    H711876   3.750   2.945   0.463  0.0308 -1.2404 -2.1270
  803MPD2     C11877   4.564   0.457  12.412  0.3096  0.0379  0.0101
  803MPD2    C111878   4.674   0.528  12.385 -0.1855 -0.1890 -0.1100
  803MPD2    C211879   0.053   0.516  12.451 -0.0208  0.1894  0.1899
  803MPD2    C311880   0.053   0.426  12.556  0.3638 -1.0826  0.4597
  803MPD2    C411881   4.683   0.347  12.587  0.2091 -0.0300  0.0912
  803MPD2    C511882   4.571   0.363  12.508 -0.3143  0.2511  0.7215
  803MPD2     H11883   0.141   0.565  12.412 -0.0583  0.0736 -0.0398
  803MPD2    H111884   4.680   0.273  12.666  2.2011 -1.0073 -0.7596
  803MPD2    H211885   4.472   0.462  12.354  0.3294 -0.6082 -0.0766
  803MPD2    H311886   4.480   0.308  12.531 -0.8546 -0.5070 -3.2205
  803MPD2     N11887   0.172   0.417  12.636  0.1255  0.5235  0.0313
  803MPD2    H511888   0.179   0.325  12.678  0.1010 -0.5270 -2.2358
  803MPD2    N111889   4.680   0.617  12.272  0.7708  0.2568 -0.2313
  803MPD2    H711890   0.035   0.653  12.243  0.5415  1.2591  0.3049
  804MPD2     C11891   4.595   2.161  17.148  0.1673  0.6714 -0.9485
  804MPD2    C111892   4.694   2.150  17.242 -0.1948  0.1652  0.8701
  804MPD2    C211893   0.051   2.251  17.247  1.3110  0.1951 -0.1157
  804MPD2    C311894   0.046   2.367  17.174  0.2082  0.6007 -0.1919
  804MPD2    C411895   4.687   2.373  17.071  0.4554 -0.8603  0.6382
  804MPD2    C511896   4.595   2.278  17.066  0.3283 -0.0659  0.1709
  804MPD2     H11897   0.131   2.253  17.320  0.2336  0.8952  1.0717
  804MPD2    H111898   4.683   2.453  16.997 -0.9034 -0.9998  0.5621
  804MPD2    H211899   4.509   2.095  17.148 -0.5227  1.5715 -0.7535
  804MPD2    H311900   4.511   2.291  16.998  0.9698 -0.8090 -0.7600
  804MPD2     N11901   0.139   2.469  17.194  0.3570  0.3792 -0.4974
  804MPD2    H511902   0.202   2.460  17.273  0.1717  1.7662 -0.1991
  804MPD2    N111903   4.710   2.034  17.326  0.3966 -0.2896 -0.5470
  804MPD2    H711904   0.042   2.047  17.400 -0.8676 -2.8447  1.0311
  805MPD2     C11905   3.492   0.645  15.833 -0.7240 -0.1213  0.1113
  805MPD2    C111906   3.613   0.653  15.764 -0.0648 -0.0861 -1.1840
  805MPD2    C211907   3.722   0.679  15.844 -0.0276  0.3724 -0.5593
  805MPD2    C311908   3.712   0.685  15.983 -0.3879 -0.4354  0.2566
  805MPD2    C411909   3.588   0.668  16.044  0.5792 -0.2024 -0.2142
  805MPD2    C511910   3.476   0.651  15.973  0.8963 -0.7088 -0.0848
  805MPD2     H11911   3.823   0.686  15.804  0.4455  0.8708  0.7405
  805MPD2    H111912   3.583   0.669  16.152 -4.7586 -0.0778 -0.4672
  805MPD2    H211913   3.396   0.642  15.783 -1.2832  0.0749  1.1631
  805MPD2    H311914   3.378   0.640  16.018  1.6108 -3.1078  0.8854
  805MPD2     N11915   3.826   0.712  16.057 -0.6151 -0.1575  0.0221
  805MPD2    H511916   3.911   0.712  16.001 -0.1983 -1.6282  0.6717
  805MPD2    N111917   3.636   0.635  15.619 -0.2729  0.5127 -0.4525
  805MPD2    H711918   3.732   0.631  15.588 -0.4225  1.0150 -0.9795
  806MPD2     C11919   4.039   4.552   0.415  0.0052  0.1528 -0.6868
  806MPD2    C111920   4.127   4.625   0.489  0.2736 -0.1144  0.1069
  806MPD2    C211921   4.204   4.715   0.416 -0.5005 -0.3578 -0.0429
  806MPD2    C311922   4.190   4.728   0.277 -0.9711 -0.1045  0.0231
  806MPD2    C411923   4.099   4.646   0.209  0.9645 -0.3363  0.2496
  806MPD2    C511924   4.022   4.561   0.279 -0.1465 -0.1439  0.1603
  806MPD2     H11925   4.273   0.047   0.464  0.5160 -2.0019  0.8335
  806MPD2    H111926   4.070   4.662   0.105  0.7445  1.4441  0.5726
  806MPD2    H211927   3.979   4.472   0.459  1.4290 -0.9124 -0.6748
  806MPD2    H311928   3.952   4.493   0.231 -0.6181 -0.5858  1.4762
  806MPD2     N11929   4.269   0.096   0.219  0.3546  0.5322 -0.1353
  806MPD2    H511930   4.331   0.155   0.273  0.1009 -2.1151  3.0495
  806MPD2    N111931   4.134   4.608   0.625 -0.1327  0.5723 -0.0782
  806MPD2    H711932   4.084   4.526   0.657  0.8250 -0.1615 -0.4724
  807MPD2     C11933   3.839   4.196   1.146 -0.6628  0.3459  0.4559
  807MPD2    C111934   3.931   4.199   1.048 -0.2533  0.4681  0.4518
  807MPD2    C211935   3.968   4.075   0.993  0.1289 -0.6287 -0.7066
  807MPD2    C311936   3.930   3.951   1.035 -0.5953  0.0649  0.0759
  807MPD2    C411937   3.838   3.949   1.139  0.3814  0.1761 -0.6698
  807MPD2    C511938   3.787   4.071   1.186 -0.3633 -0.3974 -0.4984
  807MPD2     H11939   4.030   4.084   0.904  1.2539 -0.0050  0.1487
  807MPD2    H111940   3.788   3.860   1.176  0.1186  0.4453 -0.3754
  807MPD2    H211941   3.817   4.290   1.196 -1.3472 -0.0894  0.9610
  807MPD2    H311942   3.715   4.067   1.267  1.8412 -0.2622  1.4826
  807MPD2     N11943   3.981   3.836   0.970  0.4880 -0.0925 -0.1363
  807MPD2    H511944   4.050   3.849   0.896 -3.0084 -2.1635 -3.7237
  807MPD2    N111945   4.008   4.314   1.011 -0.5230 -0.6373 -0.0938
  807MPD2    H711946   4.048   4.317   0.917  0.7001 -1.2719  0.4044
  808MPD2     C11947   4.177   0.645   9.889  0.0664 -0.3011  0.5044
  808MPD2    C111948   4.291   0.609   9.821 -0.4343 -0.4524 -0.3318
  808MPD2    C211949   4.375   0.703   9.762  0.3670 -0.4133  0.3659
  808MPD2    C311950   4.347   0.840   9.777 -0.0095 -0.0765 -0.0795
  808MPD2    C411951   4.230   0.871   9.843 -1.2315 -0.1434  0.0142
  808MPD2    C511952   4.141   0.775   9.894  0.0620 -0.0607 -0.7836
  808MPD2     H11953   4.462   0.666   9.709  1.0686 -0.2321  1.3917
  808MPD2    H111954   4.196   0.974   9.845 -1.1677 -0.0880 -1.8561
  808MPD2    H211955   4.099   0.577   9.922 -0.3179  0.0586  0.3335
  808MPD2    H311956   4.042   0.795   9.932  0.2528 -1.9053  0.6974
  808MPD2     N11957   4.431   0.945   9.735  0.5444  0.6614 -0.0095
  808MPD2    H511958   4.413   1.041   9.763  1.0804  0.7565  0.0102
  808MPD2    N111959   4.316   0.472   9.797 -0.2517  0.0566  0.5526
  808MPD2    H711960   4.386   0.449   9.728  0.1597  2.2424  0.2240
  809MPD2     C11961   0.268   1.145   8.965 -0.6138 -0.4017  0.1865
  809MPD2    C111962   0.320   1.228   9.065  0.7006 -0.7468  0.8163
  809MPD2    C211963   0.262   1.235   9.192  0.0761 -0.1865 -0.0798
  809MPD2    C311964   0.156   1.150   9.220 -0.0568  0.1105 -0.1493
  809MPD2    C411965   0.104   1.063   9.122 -0.7481 -0.7519 -0.0266
  809MPD2    C511966   0.159   1.060   8.990  0.4024 -0.4097 -0.8415
  809MPD2     H11967   0.307   1.304   9.262 -1.4939 -0.5553  1.2802
  809MPD2    H111968   0.027   0.993   9.151 -1.3213 -0.2742 -0.4093
  809MPD2    H211969   0.314   1.138   8.867 -0.2307 -2.9783  0.5575
  809MPD2    H311970   0.119   0.992   8.916 -1.3173 -0.6715  0.3278
  809MPD2     N11971   0.092   1.144   9.342 -0.7645  0.2140  0.2588
  809MPD2    H511972   0.013   1.081   9.350 -1.5817  1.3960  1.5148
  809MPD2    N111973   0.401   1.340   9.022 -0.3597 -0.2247 -0.0261
  809MPD2    H711974   0.416   1.418   9.084  1.7067  0.9003 -1.9611
  810MPD2     C11975   4.480   0.101  10.069 -0.1352  0.1814  0.3158
  810MPD2    C111976   4.397   0.133  10.168  0.3751 -0.4215  0.1922
  810MPD2    C211977   4.421   0.240  10.251 -0.6615 -0.7131 -0.0256
  810MPD2    C311978   4.533   0.319  10.228  0.5732  0.2639 -0.7345
  810MPD2    C411979   4.610   0.288  10.115 -0.1349  0.6051  0.2473
  810MPD2    C511980   4.579   0.181  10.033 -0.2706 -0.0900  1.1270
  810MPD2     H11981   4.349   0.262  10.328  1.3268  2.1465  1.0162
  810MPD2    H111982   4.701   0.346  10.104 -0.0490  0.0517 -2.0022
  810MPD2    H211983   4.458   0.016  10.005 -2.3882  0.7683  0.2834
  810MPD2    H311984   4.639   0.156   9.946 -0.6695  1.4658  0.4031
  810MPD2     N11985   4.570   0.436  10.299  0.2063 -0.3329  0.3697
  810MPD2    H511986   4.653   0.485  10.267 -0.6521  0.3186 -0.8534
  810MPD2    N111987   4.288   0.045  10.189 -0.1485 -0.2869  0.0493
  810MPD2    H711988   4.256   4.723  10.112 -0.4717  0.0074 -0.0357
  811MPD2     C11989   3.455   4.725   9.940 -0.2846  0.0375  0.3400
  811MPD2    C111990   3.580   0.048   9.955 -0.4869  0.0030  0.0127
  811MPD2    C211991   3.603   0.172   9.902  0.3002 -0.2535  0.3057
  811MPD2    C311992   3.512   0.230   9.820  0.8024 -0.3032  0.4416
  811MPD2    C411993   3.395   0.162   9.796 -0.0954 -0.0698  0.7265
  811MPD2    C511994   3.357   0.051   9.858 -0.0770 -0.2297  0.6731
  811MPD2     H11995   3.695   0.227   9.916 -0.3586  1.2474 -1.2761
  811MPD2    H111996   3.315   0.196   9.732  1.3817 -1.7455 -1.9999
  811MPD2    H211997   3.434   4.630   9.988  4.8806 -0.8941  0.7865
  811MPD2    H311998   3.257   0.012   9.844  0.6701 -1.9800  0.2596
  811MPD2     N11999   3.538   0.357   9.758 -0.0222  0.0395  0.5547
  811MPD2    H512000   3.626   0.400   9.785 -0.5271  1.3189  0.1453
  811MPD2    N112001   3.682   4.715  10.018  0.1934  0.2830 -0.1027
  811MPD2    H712002   3.654   4.624  10.053  0.8508  1.4995  3.5932
  812MPD2     C12003   3.301   0.840  12.041 -0.1600  0.1047  0.8088
  812MPD2    C112004   3.162   0.828  12.059 -0.4767  0.0689  0.6292
  812MPD2    C212005   3.106   0.766  12.170 -0.3241  1.1781  0.0425
  812MPD2    C312006   3.199   0.714  12.263  0.3786  0.2900  0.7474
  812MPD2    C412007   3.335   0.726  12.245 -0.2701  0.0981 -0.3896
  812MPD2    C512008   3.386   0.790  12.134  0.8556  0.2032 -0.2025
  812MPD2     H12009   3.001   0.751  12.193 -0.2084 -0.3576 -0.4456
  812MPD2    H112010   3.410   0.687  12.313  0.1244  1.1437 -0.2177
  812MPD2    H212011   3.347   0.886  11.955 -1.9328  0.8128  0.2245
  812MPD2    H312012   3.494   0.795  12.122  1.1686 -1.5296  1.9296
  812MPD2     N12013   3.158   0.636  12.370 -0.3984  0.6262  0.0147
  812MPD2    H512014   3.232   0.591  12.422 -0.3536 -0.2402 -0.7877
  812MPD2    N112015   3.087   0.881  11.956 -0.5034  0.2436  0.4651
  812MPD2    H712016   3.134   0.940  11.888  1.7439 -2.1002 -0.0169
  813MPD2     C12017   2.175   2.133  13.125 -0.4363  0.2821 -0.6138
  813MPD2    C112018   2.214   2.265  13.112 -0.5492 -0.4771 -0.3546
  813MPD2    C212019   2.150   2.372  13.181  0.4925  0.0350 -0.3577
  813MPD2    C312020   2.055   2.336  13.276 -0.0280  0.3315 -0.5930
  813MPD2    C412021   2.010   2.208  13.278  0.4277  0.3348  0.0067
  813MPD2    C512022   2.064   2.108  13.206  0.4925 -0.8883 -0.0598
  813MPD2     H12023   2.188   2.473  13.183  0.5051  0.0404 -0.8266
  813MPD2    H112024   1.923   2.184  13.338  0.7015  2.2643  1.1692
  813MPD2    H212025   2.227   2.058  13.067 -0.3214  0.2642 -0.4855
  813MPD2    H312026   2.007   2.016  13.213  2.1549 -1.8558  0.9045
  813MPD2     N12027   1.984   2.439  13.342  0.0812 -0.7003  0.0363
  813MPD2    H512028   2.010   2.536  13.325  1.5523 -1.2192 -0.6319
  813MPD2    N112029   2.305   2.281  13.004 -0.0162  0.1335 -0.5636
  813MPD2    H712030   2.338   2.191  12.971  1.3102  0.7177 -0.8233
  814MPD2     C12031   2.695   3.328  12.367 -0.2861 -0.1729 -0.1903
  814MPD2    C112032   2.670   3.462  12.335  0.5791 -0.2151  0.5677
  814MPD2    C212033   2.765   3.559  12.348 -0.0363  0.4741  0.0773
  814MPD2    C312034   2.884   3.527  12.407 -0.5183  0.3842 -0.3196
  814MPD2    C412035   2.913   3.399  12.442  0.0352 -0.1354  0.0176
  814MPD2    C512036   2.815   3.303  12.425  0.1574  0.4772  0.3872
  814MPD2     H12037   2.730   3.660  12.332 -1.1700  0.0671  0.0318
  814MPD2    H112038   3.015   3.365  12.456 -0.2289 -1.0944 -0.4006
  814MPD2    H212039   2.618   3.254  12.348 -1.9482  1.0856  1.6739
  814MPD2    H312040   2.846   3.203  12.454  1.5661  0.8786  0.2852
  814MPD2     N12041   2.985   3.615  12.443 -0.3134  0.5350  0.8360
  814MPD2    H512042   3.062   3.575  12.496 -0.5066  3.3919  3.2223
  814MPD2    N112043   2.554   3.503  12.264  0.5719  0.1635 -0.1054
  814MPD2    H712044   2.555   3.603  12.245 -1.6253  0.5540  1.8988
  815MPD2     C12045   2.939   1.630  12.036 -0.3807  0.4278  0.0990
  815MPD2    C112046   2.848   1.656  11.936 -0.0083 -0.2880  0.1515
  815MPD2    C212047   2.714   1.657  11.978 -1.0700 -0.4513 -0.0333
  815MPD2    C312048   2.670   1.649  12.106  0.1370 -0.2652  0.3932
  815MPD2    C412049   2.759   1.624  12.202 -0.3884  0.0284  0.4555
  815MPD2    C512050   2.892   1.615  12.166 -0.1837  0.3571 -0.3266
  815MPD2     H12051   2.638   1.674  11.903 -0.4446  0.1386 -0.5409
  815MPD2    H112052   2.728   1.586  12.299 -0.7423 -2.3245 -0.5600
  815MPD2    H212053   3.045   1.620  12.017 -0.9509 -0.6604 -2.4505
  815MPD2    H312054   2.973   1.610  12.238 -0.4415 -0.5357 -0.0965
  815MPD2     N12055   2.531   1.646  12.131 -0.1432 -0.4374 -0.0372
  815MPD2    H512056   2.463   1.649  12.057 -0.3729 -2.4861  0.0767
  815MPD2    N112057   2.897   1.670  11.807  0.3855 -0.4035  0.3612
  815MPD2    H712058   2.998   1.680  11.802  0.3797  0.1558  1.5581
  816MPD2     C12059   3.353   1.584   0.319  0.0508 -0.6477 -0.0490
  816MPD2    C112060   3.371   1.701   0.251  0.3567  0.0572 -0.4784
  816MPD2    C212061   3.421   1.698   0.126 -0.6593 -0.3312  0.5803
  816MPD2    C312062   3.449   1.571   0.070  0.7877  0.7994 -0.7614
  816MPD2    C412063   3.437   1.454   0.142  0.2230  0.7554  0.2244
  816MPD2    C512064   3.385   1.460   0.272  0.3083 -0.0766 -0.4762
  816MPD2     H12065   3.444   1.791   0.075 -0.6883 -0.6786 -0.0672
  816MPD2    H112066   3.450   1.356   0.098  0.2062  0.4080  0.9964
  816MPD2    H212067   3.321   1.588   0.422 -2.7962  0.3813 -0.9480
  816MPD2    H312068   3.381   1.375   0.339  0.2175 -1.1544 -1.8536
  816MPD2     N12069   3.480   1.561  17.668  1.1121  0.7259 -0.3520
  816MPD2    H512070   3.488   1.465  17.637  0.8383  0.1766  1.2296
  816MPD2    N112071   3.324   1.815   0.319 -0.0674  0.2347 -0.2256
  816MPD2    H712072   3.258   1.798   0.394 -0.3381  1.0701 -0.2762
  817MPD2     C12073   2.471   2.913  10.086  0.2183  0.5625 -0.2123
  817MPD2    C112074   2.411   2.822   9.996 -0.4159  0.0738  0.2984
  817MPD2    C212075   2.319   2.876   9.910  0.4107  0.1378  0.5203
  817MPD2    C312076   2.273   3.005   9.913  0.8096  0.1328 -0.5809
  817MPD2    C412077   2.330   3.088  10.007 -0.6378  0.9316 -0.1903
  817MPD2    C512078   2.423   3.042  10.094 -0.4556  0.1776 -0.6295
  817MPD2     H12079   2.282   2.808   9.834  0.6161  1.0351 -0.3844
  817MPD2    H112080   2.301   3.192  10.019 -2.4612  0.4561 -0.4952
  817MPD2    H212081   2.550   2.880  10.153  2.5776  0.9751 -2.7771
  817MPD2    H312082   2.464   3.096  10.179 -0.4787 -0.7331 -0.0313
  817MPD2     N12083   2.165   3.032   9.832 -0.0721 -0.1026 -0.4863
  817MPD2    H512084   2.137   2.967   9.760 -0.5310 -0.7815  0.3041
  817MPD2    N112085   2.442   2.685   9.987  0.6666 -0.4894 -0.6404
  817MPD2    H712086   2.380   2.624   9.935 -0.2631 -0.1010  0.0201
  818MPD2     C12087   0.846   3.221  10.212 -0.2982 -0.7877 -0.7169
  818MPD2    C112088   0.892   3.122  10.298  0.9816  0.5890  0.5715
  818MPD2    C212089   1.011   3.060  10.270  1.0694 -0.6890 -0.1999
  818MPD2    C312090   1.085   3.082  10.154  0.6771 -0.3608  0.6808
  818MPD2    C412091   1.038   3.178  10.068 -0.4096 -0.1699  0.1733
  818MPD2    C512092   0.918   3.242  10.096 -0.1260  0.2293  0.4763
  818MPD2     H12093   1.044   2.996  10.351 -1.5778 -1.6689  0.0935
  818MPD2    H112094   1.088   3.200   9.974  1.3315 -0.1898  1.0964
  818MPD2    H212095   0.754   3.279  10.221  0.0807 -0.4777  1.3186
  818MPD2    H312096   0.878   3.322  10.035  1.6477  1.9491  1.5710
  818MPD2     N12097   1.209   3.016  10.124 -0.5417  1.0161  0.1496
  818MPD2    H512098   1.246   3.026  10.030 -2.9630 -0.9844 -1.0177
  818MPD2    N112099   0.821   3.084  10.410  0.3124  0.3512  0.4694
  818MPD2    H712100   0.862   3.015  10.473  0.2643 -0.0237  0.0919
  819MPD2     C12101   4.684   0.316  15.852  0.2335 -0.5821 -0.2389
  819MPD2    C112102   4.697   0.212  15.761  0.3833  0.5254  0.7540
  819MPD2    C212103   0.056   0.112  15.784  0.0626 -0.3306 -0.1536
  819MPD2    C312104   0.126   0.107  15.900  0.2848  0.7397 -0.7452
  819MPD2    C412105   0.108   0.204  15.994 -0.3714 -0.9934  0.9460
  819MPD2    C512106   0.017   0.304  15.969 -0.1473 -0.0748  0.1542
  819MPD2     H12107   0.063   0.035  15.707  0.0865 -2.2415  1.7695
  819MPD2    H112108   0.168   0.212  16.084 -1.7089 -1.4383  1.8657
  819MPD2    H212109   4.607   0.392  15.852 -0.3815 -1.2101  0.1566
  819MPD2    H312110   4.730   0.382  16.042 -0.0167  1.1306 -1.0999
  819MPD2     N12111   0.214   4.735  15.922 -0.2708  0.2813 -0.5600
  819MPD2    H512112   0.228   4.671  15.845 -0.2560 -0.6107  0.1821
  819MPD2    N112113   4.619   0.203  15.644 -0.7093 -0.1794 -0.0106
  819MPD2    H712114   4.617   0.112  15.599 -0.2971 -0.2811  0.1779
  820MPD2     C12115   3.991   0.527  14.844  0.2757 -0.7867 -0.5302
  820MPD2    C112116   3.999   0.569  14.974  0.1825 -0.4328  0.7997
  820MPD2    C212117   4.117   0.531  15.039  0.2552  0.2371  0.1459
  820MPD2    C312118   4.205   0.452  14.972 -0.5069  0.2669  0.0093
  820MPD2    C412119   4.191   0.398  14.849 -0.0352 -0.1145 -1.1168
  820MPD2    C512120   4.083   0.443  14.786 -0.3635 -0.6969  0.0743
  820MPD2     H12121   4.133   0.558  15.143  1.0102 -0.1105  0.1139
  820MPD2    H112122   4.261   0.335  14.798 -1.5273 -2.3713 -0.3883
  820MPD2    H212123   3.914   0.566  14.777  0.5368 -0.6986 -0.7774
  820MPD2    H312124   4.062   0.412  14.684 -2.0377  1.8500 -0.3644
  820MPD2     N12125   4.302   0.396  15.048 -0.5883 -0.1053  0.2436
  820MPD2    H512126   4.325   0.302  15.019 -0.0914 -0.2401  1.0792
  820MPD2    N112127   3.880   0.619  15.036  0.5389 -0.2569  0.2615
  820MPD2    H712128   3.798   0.639  14.979  0.5144 -2.8612 -0.6310
  821MPD2     C12129   4.594   0.953  13.226  0.2748 -1.0449 -0.7634
  821MPD2    C112130   4.687   0.971  13.324 -0.0305 -0.5113  0.4591
  821MPD2    C212131   0.086   0.972  13.290 -0.2234  0.2937  0.2097
  821MPD2    C312132   0.133   0.947  13.163  0.1028  0.1316 -0.6266
  821MPD2    C412133   0.039   0.920  13.065 -0.5686 -0.0698 -0.3862
  821MPD2    C512134   4.640   0.912  13.103 -0.3153  0.1833 -0.4906
  821MPD2     H12135   0.156   0.997  13.369  0.1872  1.9685 -0.6885
  821MPD2    H112136   0.066   0.872  12.972 -0.7967  1.2932 -1.1567
  821MPD2    H212137   4.486   0.964  13.231  0.4517  1.2532 -2.1128
  821MPD2    H312138   4.571   0.882  13.025  0.3964  2.7433 -2.1197
  821MPD2     N12139   0.267   0.919  13.139  0.1022  0.9044  0.0286
  821MPD2    H512140   0.325   0.914  13.222  1.3949 -0.6696 -0.9928
  821MPD2    N112141   4.654   1.007  13.462 -0.4109 -0.3513  0.7980
  821MPD2    H712142   4.730   1.019  13.527 -1.1592 -0.7146  1.7469
  822MPD2     C12143   0.095   1.122  15.879 -0.1467 -0.1253 -0.5370
  822MPD2    C112144   0.208   1.200  15.914  0.1361  0.3041 -0.3491
  822MPD2    C212145   0.193   1.331  15.967 -0.5325  0.0999  0.0390
  822MPD2    C312146   0.061   1.381  15.988  0.1259 -0.0889  0.2470
  822MPD2    C412147   4.692   1.292  15.964  0.0390 -0.3234 -0.2265
  822MPD2    C512148   4.707   1.176  15.907 -0.3976  0.4709 -0.7109
  822MPD2     H12149   0.281   1.390  15.989 -0.2078 -0.3402 -0.0835
  822MPD2    H112150   4.590   1.312  15.993  0.3187  0.2196  0.3970
  822MPD2    H212151   0.088   1.028  15.827  0.5879 -0.5812  0.1921
  822MPD2    H312152   4.612   1.124  15.900 -0.0506 -0.2814  0.1414
  822MPD2     N12153   0.033   1.496  16.064  0.5070  0.8749 -0.2458
  822MPD2    H512154   4.685   1.498  16.122 -0.5801  1.1971 -1.8353
  822MPD2    N112155   0.335   1.139  15.926  0.5736 -0.1716 -0.1206
  822MPD2    H712156   0.413   1.188  15.970 -0.2183  0.1533  0.9391
  823MPD2     C12157   4.680   1.884  16.811  0.5566  0.7972  0.0545
  823MPD2    C112158   4.722   1.798  16.718  0.0280  0.4443 -0.5124
  823MPD2    C212159   0.065   1.694  16.758  0.3569  0.7882  0.3424
  823MPD2    C312160   0.116   1.686  16.884  0.1921 -0.2479 -0.0395
  823MPD2    C412161   0.081   1.780  16.973  0.1642 -0.1686  0.3573
  823MPD2    C512162   4.727   1.878  16.938 -0.3754 -0.7924 -1.1131
  823MPD2     H12163   0.097   1.616  16.690  1.2126  2.1312 -0.8185
  823MPD2    H112164   0.120   1.774  17.074 -0.8067 -2.1169  0.6293
  823MPD2    H212165   4.606   1.958  16.783 -1.9238 -1.3045  1.0715
  823MPD2    H312166   4.699   1.955  17.009  0.2958  1.0150 -2.8098
  823MPD2     N12167   0.200   1.585  16.937  0.0914 -0.4340  0.7318
  823MPD2    H512168   0.205   1.574  17.037  1.4015  0.1796  0.7328
  823MPD2    N112169   4.667   1.804  16.589  0.4627  0.0997  0.4488
  823MPD2    H712170   4.634   1.891  16.550  0.4577 -0.3993 -0.6540
  824MPD2     C12171   0.600   0.298  15.889  0.6128  0.5021 -0.7866
  824MPD2    C112172   0.692   0.391  15.907 -0.5917 -0.2333 -0.5706
  824MPD2    C212173   0.827   0.365  15.876  0.3661 -0.0542 -0.3400
  824MPD2    C312174   0.862   0.237  15.844  0.4065  0.1702  0.2460
  824MPD2    C412175   0.767   0.144  15.854  0.0786  0.1901  0.3071
  824MPD2    C512176   0.641   0.170  15.872 -0.8807 -0.4389 -0.5238
  824MPD2     H12177   0.890   0.453  15.875  2.1259 -1.3133  1.2358
  824MPD2    H112178   0.779   0.039  15.827 -1.0179 -0.1781  1.2461
  824MPD2    H212179   0.498   0.334  15.890  0.1538 -0.8528  1.6501
  824MPD2    H312180   0.565   0.093  15.876 -0.1089 -1.2620 -1.6556
  824MPD2     N12181   0.997   0.223  15.807  0.3261  0.4295  0.1211
  824MPD2    H512182   1.054   0.302  15.777  0.2611  0.8562  1.1253
  824MPD2    N112183   0.658   0.527  15.937  0.6454 -0.6181 -0.2600
  824MPD2    H712184   0.737   0.591  15.933 -0.0127  0.2824  1.2140
  825MPD2     C12185   1.717   0.461  15.416 -0.0950 -0.3000  0.4586
  825MPD2    C112186   1.589   0.478  15.469  0.0520  0.1512  0.0850
  825MPD2    C212187   1.536   0.607  15.471  0.2772  0.2838  0.0938
  825MPD2    C312188   1.619   0.712  15.428 -0.0491 -0.7151  0.4581
  825MPD2    C412189   1.737   0.681  15.370 -0.5542 -0.7142 -0.3988
  825MPD2    C512190   1.792   0.559  15.363  0.3755 -0.2706 -0.0828
  825MPD2     H12191   1.437   0.620  15.514  0.1818 -0.3289  0.0622
  825MPD2    H112192   1.787   0.761  15.317  0.9907 -1.6271 -0.3127
  825MPD2    H212193   1.755   0.360  15.413 -0.9541 -0.6015 -0.2059
  825MPD2    H312194   1.885   0.532  15.313  0.8171  0.3504  0.4117
  825MPD2     N12195   1.582   0.850  15.443  0.1585 -0.4817 -0.2155
  825MPD2    H512196   1.643   0.923  15.408 -0.6970 -0.1438 -1.0247
  825MPD2    N112197   1.516   0.361  15.516 -0.1586  0.7301  0.2168
  825MPD2    H712198   1.555   0.269  15.497  5.1910  2.9730  0.2027
  826MPD2     C12199   1.199   4.664  13.802  0.6151  0.0982  0.3437
  826MPD2    C112200   1.264   0.014  13.728 -0.7284 -0.4632  0.3210
  826MPD2    C212201   1.209   0.141  13.697 -0.3791  1.1446  0.4063
  826MPD2    C312202   1.080   0.173  13.731 -0.7271 -0.3955  0.8303
  826MPD2    C412203   1.009   0.075  13.805 -0.4603  0.1903 -0.1488
  826MPD2    C512204   1.071   4.698  13.849 -0.4695  0.7811  0.3514
  826MPD2     H12205   1.265   0.213  13.639 -1.8321  0.9894 -1.2158
  826MPD2    H112206   0.901   0.082  13.808 -0.4860 -0.6644  0.8669
  826MPD2    H212207   1.243   4.570  13.830  2.4598  0.3651 -1.6976
  826MPD2    H312208   1.013   4.627  13.907  1.7537  0.3445  2.0576
  826MPD2     N12209   1.017   0.292  13.703 -0.0205  0.1132  0.2301
  826MPD2    H512210   0.920   0.299  13.733  0.1257  1.8267  0.3021
  826MPD2    N112211   1.390   4.709  13.679  0.1123  0.4250  0.1827
  826MPD2    H712212   1.434   4.619  13.698 -1.3221 -0.2636  0.2325
  827MPD2     C12213   1.492   1.830   9.920  0.6025 -0.5507  0.1920
  827MPD2    C112214   1.467   1.724  10.013 -0.2803 -0.2230  0.1195
  827MPD2    C212215   1.338   1.667  10.020 -0.8415 -0.0027 -0.7456
  827MPD2    C312216   1.235   1.719   9.943  0.8397  0.1644  0.0571
  827MPD2    C412217   1.258   1.822   9.851 -0.1872 -0.3263  0.1273
  827MPD2    C512218   1.390   1.867   9.833 -0.4300 -0.1264  0.0245
  827MPD2     H12219   1.305   1.602  10.101 -0.3083  1.5804  0.7483
  827MPD2    H112220   1.182   1.865   9.787  0.0815  0.1614  0.1345
  827MPD2    H212221   1.592   1.868   9.902  0.9922 -0.6779  2.1350
  827MPD2    H312222   1.422   1.930   9.751  2.5381  1.7415  2.5664
  827MPD2     N12223   1.102   1.670   9.958  0.0055 -0.3326 -0.6199
  827MPD2    H512224   1.093   1.598  10.029 -1.8072 -0.8248 -1.3605
  827MPD2    N112225   1.574   1.688  10.099 -0.5885 -0.2192  0.0048
  827MPD2    H712226   1.651   1.754  10.089  0.7709 -1.6887  0.7887
  828MPD2     C12227   0.876   1.574  11.709 -0.3667 -0.5869 -0.3176
  828MPD2    C112228   0.761   1.550  11.644 -0.1206  0.5747 -0.2411
  828MPD2    C212229   0.768   1.499  11.516  0.0979  0.5423 -0.0383
  828MPD2    C312230   0.896   1.473  11.453 -0.0910  0.2902 -0.5619
  828MPD2    C412231   1.012   1.496  11.524 -1.1274  0.0239 -0.2129
  828MPD2    C512232   0.998   1.537  11.652  0.1975 -0.4814 -0.2417
  828MPD2     H12233   0.673   1.488  11.464 -0.3325  2.3620  0.3627
  828MPD2    H112234   1.108   1.472  11.480 -0.4198  2.7880 -0.1762
  828MPD2    H212235   0.885   1.614  11.810  0.5277 -2.5420  0.3655
  828MPD2    H312236   1.090   1.562  11.703  0.0754 -0.9337  0.2090
  828MPD2     N12237   0.915   1.423  11.320 -0.4093 -0.0690  0.3008
  828MPD2    H512238   1.009   1.388  11.303  0.5598  2.6015  0.2662
  828MPD2    N112239   0.632   1.587  11.694  0.2473  0.5173 -0.2137
  828MPD2    H712240   0.552   1.579  11.632  1.2360 -0.4155 -1.3698
  829MPD2     C12241   4.627   1.661  11.331 -0.2878 -1.0689 -0.1514
  829MPD2    C112242   4.605   1.748  11.441 -0.3850  0.8149  0.1028
  829MPD2    C212243   4.716   1.789  11.508 -0.2807  0.0422 -0.3459
  829MPD2    C312244   0.109   1.768  11.462  0.3340 -0.2620 -0.0675
  829MPD2    C412245   0.128   1.673  11.359 -0.0966 -0.6137  0.7805
  829MPD2    C512246   0.020   1.629  11.293  0.7859  0.4632 -0.9385
  829MPD2     H12247   4.700   1.841  11.602  0.7811 -1.9304  0.9243
  829MPD2    H112248   0.227   1.644  11.326 -0.4137  0.5360 -1.1583
  829MPD2    H212249   4.546   1.614  11.276  0.0282 -2.3336  0.4533
  829MPD2    H312250   0.024   1.562  11.208 -1.3979 -1.5573  0.5283
  829MPD2     N12251   0.223   1.801  11.542 -1.1735  0.1887  0.0700
  829MPD2    H512252   0.307   1.747  11.521  0.7548  2.5076  1.7373
  829MPD2    N112253   4.467   1.762  11.477 -0.3238 -0.3499 -0.1469
  829MPD2    H712254   4.410   1.703  11.418  0.2425 -1.5663  0.5423
  830MPD2     C12255   0.775   4.609  15.584  0.3281 -0.1765 -0.0583
  830MPD2    C112256   0.646   4.589  15.625  0.0209  0.1064 -0.8080
  830MPD2    C212257   0.546   4.693  15.612  0.1574  0.1709  0.3261
  830MPD2    C312258   0.577   0.075  15.543  0.4137  0.2744 -0.5108
  830MPD2    C412259   0.714   0.086  15.495  0.6377  0.0831  0.3908
  830MPD2    C512260   0.801   4.722  15.509 -0.3724 -0.6596 -0.0769
  830MPD2     H12261   0.447   4.682  15.655  0.4110  0.9415  1.1432
  830MPD2    H112262   0.739   0.181  15.448 -0.8798 -0.2791 -1.1775
  830MPD2    H212263   0.836   4.521  15.599  2.8796  1.3461 -1.6558
  830MPD2    H312264   0.903   0.011  15.484  0.0140 -1.0831  1.0797
  830MPD2     N12265   0.492   0.183  15.528 -0.2948 -0.2391 -0.4984
  830MPD2    H512266   0.535   0.272  15.504 -0.6690  0.2469  0.6161
  830MPD2    N112267   0.624   4.474  15.704 -0.2735  0.0990  0.0609
  830MPD2    H712268   0.705   4.434  15.751  1.4191  1.0156 -2.0587
  831MPD2     C12269   0.494   1.684  16.303 -0.1398 -0.4162 -0.0757
  831MPD2    C112270   0.476   1.568  16.223  0.0141  0.1644 -0.7027
  831MPD2    C212271   0.380   1.468  16.267 -0.5966 -0.0531 -0.7266
  831MPD2    C312272   0.309   1.490  16.384 -1.2617 -0.4568  0.3469
  831MPD2    C412273   0.340   1.605  16.455  0.0313  0.8282  0.4349
  831MPD2    C512274   0.433   1.703  16.426 -0.0361 -0.0658 -0.9437
  831MPD2     H12275   0.356   1.386  16.201  0.7631 -1.3814  0.4548
  831MPD2    H112276   0.298   1.605  16.555  1.4998 -0.1548  1.0748
  831MPD2    H212277   0.571   1.757  16.281 -1.6101  0.9765 -0.5589
  831MPD2    H312278   0.452   1.789  16.489 -0.2134 -1.3995  0.9009
  831MPD2     N12279   0.190   1.415  16.422 -0.2908 -0.0877 -0.6336
  831MPD2    H512280   0.130   1.455  16.494 -0.4835 -1.5309  0.0010
  831MPD2    N112281   0.558   1.554  16.111  0.1709  0.1691  0.0952
  831MPD2    H712282   0.612   1.633  16.078 -0.5403  0.4702 -0.3665
  832MPD2     C12283   3.765   3.284  17.121 -0.1757 -0.2162  0.0486
  832MPD2    C112284   3.796   3.153  17.164 -0.0829 -0.2042  0.3943
  832MPD2    C212285   3.692   3.068  17.181  0.8377  0.2927 -0.3749
  832MPD2    C312286   3.559   3.111  17.165 -0.0527 -0.3912  0.3472
  832MPD2    C412287   3.528   3.246  17.126 -0.2216  0.2936  0.3170
  832MPD2    C512288   3.633   3.330  17.109 -0.6448  0.3454  0.6945
  832MPD2     H12289   3.712   2.962  17.192 -0.7810 -0.0402 -0.5422
  832MPD2    H112290   3.426   3.280  17.113 -0.2293  0.9849  2.2469
  832MPD2    H212291   3.838   3.363  17.106  0.2213 -0.6258 -0.1517
  832MPD2    H312292   3.624   3.436  17.089  1.1292  0.6282  1.4281
  832MPD2     N12293   3.448   3.031  17.198 -0.3417  0.2466 -0.5668
  832MPD2    H512294   3.355   3.065  17.177  0.0739 -0.2977 -3.2412
  832MPD2    N112295   3.934   3.115  17.176 -0.0529 -0.0554 -0.3774
  832MPD2    H712296   3.945   3.018  17.202 -1.2750 -0.4463 -1.3817
  833MPD2     C12297   1.030   3.848  12.957 -0.6583 -0.4039  0.1850
  833MPD2    C112298   0.997   3.912  12.842 -0.1308  1.3470 -0.3716
  833MPD2    C212299   1.051   3.864  12.723 -0.0687 -0.0128 -0.3752
  833MPD2    C312300   1.139   3.756  12.723 -0.0588  0.4248 -0.4439
  833MPD2    C412301   1.171   3.695  12.840  0.1183 -0.3064 -0.0455
  833MPD2    C512302   1.112   3.741  12.953  0.2251 -0.0235 -0.9535
  833MPD2     H12303   1.038   3.914  12.628 -0.9895  0.3332 -0.0800
  833MPD2    H112304   1.231   3.605  12.850  2.3096  1.1765  0.0331
  833MPD2    H212305   0.987   3.885  13.050  0.7241 -1.0985  1.0858
  833MPD2    H312306   1.139   3.691  13.045  3.8237  1.7157 -1.0935
  833MPD2     N12307   1.199   3.724  12.600  0.3073  0.1286  0.7800
  833MPD2    H512308   1.170   3.788  12.527 -1.8847 -1.2094  0.4819
  833MPD2    N112309   0.907   4.025  12.841 -0.1325  0.1236  0.0884
  833MPD2    H712310   0.855   4.044  12.926  1.7256  0.5356  1.1543
  834MPD2     C12311   1.131   2.988  12.025  0.1077 -0.4373  0.4598
  834MPD2    C112312   1.049   3.102  11.999 -0.2299 -0.7457  0.7130
  834MPD2    C212313   1.102   3.227  12.039 -0.3802 -0.1739 -0.1082
  834MPD2    C312314   1.215   3.234  12.115  0.8080 -0.3198  0.2160
  834MPD2    C412315   1.294   3.119  12.136 -0.1729  0.5053  0.0913
  834MPD2    C512316   1.247   2.995  12.088 -0.5622  0.2125  0.2255
  834MPD2     H12317   1.054   3.319  12.007 -0.2775  0.2158  0.8584
  834MPD2    H112318   1.377   3.130  12.205 -1.8823 -1.0858  2.3846
  834MPD2    H212319   1.099   2.891  11.988  1.4143 -0.2445 -1.1689
  834MPD2    H312320   1.304   2.905  12.106  0.8688  0.9018 -0.8017
  834MPD2     N12321   1.273   3.348  12.158 -0.3859 -0.3121  0.3627
  834MPD2    H512322   1.358   3.350  12.214  0.5176  2.6965 -1.1237
  834MPD2    N112323   0.925   3.074  11.921  0.0256 -0.1243 -0.2352
  834MPD2    H712324   0.910   2.979  11.888 -0.8482  0.0022 -0.2022
  835MPD2     C12325   1.132   1.669  10.938  0.3016 -0.2638 -0.1627
  835MPD2    C112326   1.079   1.672  11.070 -0.2429 -0.0065 -0.2261
  835MPD2    C212327   1.167   1.631  11.169 -0.0327 -1.0411 -0.1357
  835MPD2    C312328   1.302   1.587  11.137  0.5673  0.3412  0.2024
  835MPD2    C412329   1.350   1.583  11.002  0.0617 -0.7570  0.0537
  835MPD2    C512330   1.261   1.626  10.909  0.0459 -0.2515 -0.2148
  835MPD2     H12331   1.129   1.633  11.270  0.7875 -1.1857  0.1698
  835MPD2    H112332   1.452   1.566  10.970  0.4155 -1.7229  1.7360
  835MPD2    H212333   1.068   1.694  10.854  0.4240 -2.9300 -1.0465
  835MPD2    H312334   1.292   1.611  10.806  0.8527 -0.5269  0.0666
  835MPD2     N12335   1.382   1.546  11.241  0.7832  0.6192 -0.1515
  835MPD2    H512336   1.363   1.581  11.335 -0.0415 -2.2999  0.7714
  835MPD2    N112337   0.949   1.699  11.107 -0.4388 -0.3026 -0.2873
  835MPD2    H712338   0.937   1.709  11.208  0.0323  0.0562 -0.2693
  836MPD2     C12339   1.184   1.275  11.776  0.2710 -0.8482  1.0616
  836MPD2    C112340   1.295   1.352  11.807  0.2529 -0.0969  0.8079
  836MPD2    C212341   1.308   1.409  11.930 -0.0021 -0.0601  0.0802
  836MPD2    C312342   1.212   1.393  12.025  0.2103  0.2148  0.2477
  836MPD2    C412343   1.089   1.336  11.994 -0.6467  0.3550 -0.3345
  836MPD2    C512344   1.078   1.279  11.867  0.6274  0.1226  0.0338
  836MPD2     H12345   1.401   1.458  11.955 -0.8526  1.7410 -0.2606
  836MPD2    H112346   1.012   1.330  12.070  0.3345 -0.2099  0.6125
  836MPD2    H212347   1.177   1.241  11.673  0.9086  2.3834 -0.0449
  836MPD2    H312348   0.977   1.242  11.854  0.8611 -0.3309 -0.4773
  836MPD2     N12349   1.230   1.429  12.161  0.5228  0.9308 -0.3750
  836MPD2    H512350   1.154   1.414  12.226  1.0494 -0.8969 -0.1814
  836MPD2    N112351   1.384   1.363  11.703  0.6405  0.1719  0.2920
  836MPD2    H712352   1.364   1.309  11.620  0.4303  0.8638 -0.1072
  837MPD2     C12353   3.920   1.033   9.843  0.1674  0.0033 -0.0002
  837MPD2    C112354   3.783   1.013   9.849 -0.0974  0.3616 -0.2819
  837MPD2    C212355   3.710   1.101   9.930  0.6673  0.8805 -0.4580
  837MPD2    C312356   3.769   1.211   9.987 -0.1912  0.6962  0.2006
  837MPD2    C412357   3.906   1.239   9.973 -0.3177  0.4365 -0.7520
  837MPD2    C512358   3.985   1.142   9.905 -0.8111  0.2979  0.1252
  837MPD2     H12359   3.602   1.106   9.934  0.6468  0.8174 -0.9301
  837MPD2    H112360   3.961   1.320  10.022 -0.8388  0.7554 -0.6988
  837MPD2    H212361   3.975   0.965   9.779  1.0595 -0.8206  1.6233
  837MPD2    H312362   4.092   1.149   9.894 -0.6065 -0.4314  1.6255
  837MPD2     N12363   3.677   1.302  10.059 -1.0203 -0.1661  0.2870
  837MPD2    H512364   3.580   1.273  10.066 -1.2874  1.0172  1.4295
  837MPD2    N112365   3.717   0.902   9.787  0.8370 -0.3354  0.9768
  837MPD2    H712366   3.618   0.896   9.808  0.6440  0.8485  0.3955
  838MPD2     C12367   2.416   0.003  12.042  0.7259  0.4955 -0.1318
  838MPD2    C112368   2.427   4.604  12.016 -0.2606 -0.2702  0.1025
  838MPD2    C212369   2.346   4.511  12.074  1.0459  0.3390  0.6445
  838MPD2    C312370   2.259   4.547  12.175  0.2217  0.6401 -0.4913
  838MPD2    C412371   2.259   4.690  12.206 -0.3858 -0.1701  0.2619
  838MPD2    C512372   2.332   0.045  12.135 -0.1827 -0.0564  0.2418
  838MPD2     H12373   2.349   4.405  12.053 -0.4572  0.7627 -1.6350
  838MPD2    H112374   2.204   4.732  12.290 -2.0602  1.4961 -1.6837
  838MPD2    H212375   2.470   0.082  11.989  0.6892  0.2356 -0.5551
  838MPD2    H312376   2.324   0.149  12.165 -0.0531  0.0236  0.0060
  838MPD2     N12377   2.182   4.454  12.240 -0.0222 -0.0098  0.2404
  838MPD2    H512378   2.187   4.356  12.217 -2.1787  0.7790 -3.5837
  838MPD2    N112379   2.505   4.549  11.913 -0.0778  0.4446 -0.9547
  838MPD2    H712380   2.495   4.448  11.907  1.6872  0.3020 -1.3096
  839MPD2     C12381   1.917   4.354  11.632 -0.2737  0.2282 -0.1208
  839MPD2    C112382   1.986   4.260  11.552  0.5483  0.0083  0.1759
  839MPD2    C212383   2.123   4.283  11.535  0.4094  0.3723  0.5258
  839MPD2    C312384   2.186   4.397  11.592  0.2296 -1.0589 -0.5726
  839MPD2    C412385   2.115   4.485  11.676 -0.5070  0.3854  0.5978
  839MPD2    C512386   1.989   4.452  11.699  0.9449  0.0450 -0.4372
  839MPD2     H12387   2.181   4.207  11.483 -0.2293  0.0774  0.2350
  839MPD2    H112388   2.169   4.568  11.723 -2.5621  2.3289 -0.4919
  839MPD2    H212389   1.818   4.331  11.671 -0.1276  2.1959  1.4117
  839MPD2    H312390   1.932   4.509  11.772  1.4263  0.9005 -0.7248
  839MPD2     N12391   2.325   4.425  11.585 -0.1455 -0.5019  0.8438
  839MPD2    H512392   2.350   4.513  11.628  0.0402 -0.4720  0.6704
  839MPD2    N112393   1.930   4.148  11.496  0.4577  0.1092 -0.1130
  839MPD2    H712394   1.993   4.082  11.453  0.9378  0.3632  0.2000
  840MPD2     C12395   1.988   2.117  10.278 -0.4128  0.0858  0.3714
  840MPD2    C112396   2.057   2.000  10.304  0.3130 -0.4308  0.8801
  840MPD2    C212397   2.191   2.007  10.342 -0.3936  0.1737  0.7208
  840MPD2    C312398   2.254   2.128  10.353 -0.8500  0.0128 -0.8321
  840MPD2    C412399   2.181   2.242  10.335 -0.5286  0.1638  0.0893
  840MPD2    C512400   2.051   2.237  10.298  0.0042 -0.2316 -0.4528
  840MPD2     H12401   2.248   1.920  10.374  0.0835 -0.3550 -1.6069
  840MPD2    H112402   2.224   2.341  10.342  0.3857 -0.3224  1.2737
  840MPD2    H212403   1.888   2.112  10.237  0.3374  0.9921 -1.5565
  840MPD2    H312404   1.996   2.330  10.290  0.4595  0.2724  2.4030
  840MPD2     N12405   2.390   2.140  10.399  0.6918 -0.1216 -0.3827
  840MPD2    H512406   2.420   2.236  10.413  0.8020 -0.1956 -0.1207
  840MPD2    N112407   1.981   1.879  10.299 -0.0164  0.8719 -0.1779
  840MPD2    H712408   1.883   1.881  10.274  0.4675 -0.7630 -2.1977
  841MPD2     C12409   1.819   1.763  14.630  0.2920  0.7981 -0.2572
  841MPD2    C112410   1.907   1.656  14.647  0.1513 -0.4792 -0.2314
  841MPD2    C212411   2.035   1.673  14.695 -0.1334 -1.1563 -0.3002
  841MPD2    C312412   2.078   1.800  14.733  0.1749  0.4540  0.4292
  841MPD2    C412413   1.997   1.910  14.716  0.0664  0.2477  0.7405
  841MPD2    C512414   1.871   1.887  14.661  0.5072 -0.2927  0.1956
  841MPD2     H12415   2.110   1.594  14.696  1.5921  0.4971  0.8479
  841MPD2    H112416   2.027   2.013  14.732  0.9986 -0.0778  1.0478
  841MPD2    H212417   1.718   1.755  14.592  1.0734 -2.6515 -1.6014
  841MPD2    H312418   1.813   1.976  14.642  0.7501 -0.2103 -0.1630
  841MPD2     N12419   2.214   1.809  14.780 -0.0024  0.2218 -0.1418
  841MPD2    H512420   2.263   1.721  14.785  0.6531  0.5778 -0.2676
  841MPD2    N112421   1.868   1.533  14.605 -0.0907 -0.5564  0.1146
  841MPD2    H712422   1.943   1.467  14.627 -0.9345 -1.7448 -0.5651
  842MPD2     C12423   2.407   2.972  17.352 -0.1673 -0.2044 -0.0767
  842MPD2    C112424   2.327   2.899  17.273 -0.1018 -0.6532 -0.7958
  842MPD2    C212425   2.194   2.889  17.309  0.3968  0.0435  0.0014
  842MPD2    C312426   2.149   2.969  17.420  0.4142 -0.2368 -0.1374
  842MPD2    C412427   2.242   3.023  17.507  0.4999 -0.7172 -0.3532
  842MPD2    C512428   2.376   3.026  17.472  0.1090 -0.1969 -0.7403
  842MPD2     H12429   2.123   2.844  17.241 -0.8450  3.8081 -1.2344
  842MPD2    H112430   2.225   3.075  17.601 -0.5189 -0.5016 -0.6573
  842MPD2    H212431   2.508   2.976  17.312 -0.3979 -0.9555 -0.7432
  842MPD2    H312432   2.455   3.081  17.521 -0.0844 -0.1768 -0.4469
  842MPD2     N12433   2.005   2.974  17.436 -0.3236  0.1225  0.2894
  842MPD2    H512434   1.958   2.894  17.397 -0.2598  0.9239 -1.4439
  842MPD2    N112435   2.380   2.848  17.156 -0.1942 -0.2481 -0.3899
  842MPD2    H712436   2.474   2.880  17.136  0.2032  0.3525  2.5183
  843MPD2     C12437   0.019   3.804  17.638 -0.2144 -0.7457 -0.4368
  843MPD2    C112438   0.113   3.738  17.717  0.2109 -0.1198  0.1232
  843MPD2    C212439   0.202   3.820   0.043  0.6059 -0.0059  0.3583
  843MPD2    C312440   0.199   3.960   0.037 -0.0141 -0.6768  0.7580
  843MPD2    C412441   0.109   4.016  17.696  0.2475 -1.0065 -0.5694
  843MPD2    C512442   0.023   3.945  17.624 -0.4340  0.5931 -0.3525
  843MPD2     H12443   0.285   3.775   0.096  0.5140 -1.2831 -0.5787
  843MPD2    H112444   0.101   4.123  17.684  0.8157 -1.0484 -1.3928
  843MPD2    H212445   4.677   3.744  17.593 -0.7464 -1.9808  2.1004
  843MPD2    H312446   4.694   3.998  17.555 -2.1088  1.3162  1.7912
  843MPD2     N12447   0.286   4.050   0.103  0.8456  0.4330  0.6245
  843MPD2    H512448   0.281   4.151   0.089 -3.6578  0.0270 -0.7486
  843MPD2    N112449   0.120   3.593  17.721 -0.8002  0.0774 -0.1020
  843MPD2    H712450   0.061   3.550  17.651  0.1793 -0.0393 -0.8441
  844MPD2     C12451   3.401   2.792  16.826 -0.6080 -0.3162 -0.1670
  844MPD2    C112452   3.504   2.702  16.814  0.0608  0.5219 -0.2332
  844MPD2    C212453   3.634   2.749  16.803 -0.5167  0.5660  0.8090
  844MPD2    C312454   3.662   2.886  16.806 -0.0798  0.2831  0.1206
  844MPD2    C412455   3.557   2.980  16.821 -0.3221  0.5343 -0.1972
  844MPD2    C512456   3.435   2.926  16.831  0.0223  0.1084 -0.5131
  844MPD2     H12457   3.714   2.676  16.803 -0.5104  0.5728  0.9978
  844MPD2    H112458   3.567   3.085  16.843 -3.2229  0.5109  1.2842
  844MPD2    H212459   3.295   2.768  16.825 -1.1117  1.8795  0.4985
  844MPD2    H312460   3.357   3.002  16.835 -0.6671 -0.5885 -0.6362
  844MPD2     N12461   3.797   2.923  16.803  0.8691  0.4257 -0.7925
  844MPD2    H512462   3.863   2.846  16.811  3.2222  2.3904 -1.5109
  844MPD2    N112463   3.479   2.560  16.802  0.4701 -0.0975 -0.2664
  844MPD2    H712464   3.560   2.502  16.783  1.1089  0.5692  0.4432
  845MPD2     C12465   4.216   3.828  16.842  0.2735 -0.5815 -0.2493
  845MPD2    C112466   4.150   3.764  16.945  0.3723  0.1663  1.1724
  845MPD2    C212467   4.136   3.627  16.934  0.2463 -0.6284  0.4355
  845MPD2    C312468   4.200   3.554  16.839 -0.1903  0.3808  0.9068
  845MPD2    C412469   4.267   3.616  16.729 -0.3590 -0.1813 -0.5377
  845MPD2    C512470   4.269   3.758  16.737  0.6068  0.3401  0.0757
  845MPD2     H12471   4.081   3.575  17.012  1.7235 -2.3936  0.2802
  845MPD2    H112472   4.318   3.565  16.649  0.7271  0.8279 -0.4788
  845MPD2    H212473   4.218   3.936  16.846  2.3802 -0.6372  0.3905
  845MPD2    H312474   4.326   3.810  16.660 -0.7960  0.0416 -1.1422
  845MPD2     N12475   4.174   3.415  16.841 -0.2686  0.2970 -0.4401
  845MPD2    H512476   4.111   3.376  16.911 -0.2828 -2.8822 -2.2340
  845MPD2    N112477   4.108   3.844  17.050 -0.1782  0.2401  0.0395
  845MPD2    H712478   4.119   3.945  17.048 -1.5323  0.4299  1.6850
  846MPD2     C12479   0.080   3.401  13.566  0.1557  0.2327 -0.0320
  846MPD2    C112480   4.699   3.483  13.567  0.2233 -0.4612  0.6569
  846MPD2    C212481   4.639   3.522  13.679 -0.2159  0.3087  0.2680
  846MPD2    C312482   4.709   3.507  13.799  0.1209  0.3439  0.4659
  846MPD2    C412483   0.087   3.426  13.805 -0.0422  0.1915  0.1132
  846MPD2    C512484   0.144   3.377  13.685 -0.7030  0.2485  0.0952
  846MPD2     H12485   4.547   3.579  13.668 -0.1781  0.3302  0.0483
  846MPD2    H112486   0.157   3.413  13.887 -0.8536  1.8762  1.0827
  846MPD2    H212487   0.135   3.382  13.475  1.6171 -0.7855  1.0628
  846MPD2    H312488   0.245   3.338  13.684 -0.4697  0.7539  3.0414
  846MPD2     N12489   4.655   3.561  13.920  0.1726 -0.0854 -0.2629
  846MPD2    H512490   4.560   3.595  13.913  0.0700  0.7248  4.7831
  846MPD2    N112491   4.643   3.537  13.451 -0.4477  0.3285  0.2404
  846MPD2    H712492   4.600   3.627  13.470 -1.0957  0.0024  0.3129
  847MPD2     C12493   0.109   0.038  14.024 -0.0853  0.5180  0.3087
  847MPD2    C112494   0.211   0.019  14.118 -0.3541  0.2003 -0.1929
  847MPD2    C212495   0.198   4.651  14.221  0.2218  0.2534 -0.3622
  847MPD2    C312496   0.078   4.577  14.229 -0.2409  0.0670  0.1597
  847MPD2    C412497   4.713   4.604  14.136  0.7213  0.0604 -0.7045
  847MPD2    C512498   4.731   4.697  14.038 -0.4858 -0.6468  0.3584
  847MPD2     H12499   0.280   4.639  14.291  0.3080 -0.0713 -0.5167
  847MPD2    H112500   4.628   4.538  14.126  1.6094 -1.6396  3.2654
  847MPD2    H212501   0.113   0.095  13.931 -2.3477  0.6382  0.2869
  847MPD2    H312502   4.648   4.718  13.972 -1.1980  1.7234  2.0166
  847MPD2     N12503   0.070   4.486  14.335 -0.1296  0.2786 -0.1731
  847MPD2    H512504   0.141   4.494  14.406  0.2444  1.0529 -0.6382
  847MPD2    N112505   0.328   0.102  14.113 -0.1015  0.5832 -0.0610
  847MPD2    H712506   0.408   0.082  14.172 -1.4956 -1.7139  1.0467
  848MPD2     C12507   2.766   3.161  17.332  0.6166 -0.3078 -0.7630
  848MPD2    C112508   2.893   3.183  17.275 -0.8688  0.5569  0.2053
  848MPD2    C212509   2.920   3.304  17.210 -0.1966  0.7272 -0.2974
  848MPD2    C312510   2.823   3.404  17.199 -0.1123 -0.4182 -0.0380
  848MPD2    C412511   2.696   3.380  17.255  0.3209  0.9846  0.2569
  848MPD2    C512512   2.668   3.259  17.321  0.0806  0.1232  0.2861
  848MPD2     H12513   3.019   3.313  17.168 -0.1631  0.4866 -0.2697
  848MPD2    H112514   2.612   3.448  17.246  0.4843  1.1964  0.3327
  848MPD2    H212515   2.722   3.066  17.364 -0.9889  0.5236 -0.4936
  848MPD2    H312516   2.565   3.238  17.348 -0.1726 -1.1886 -1.6693
  848MPD2     N12517   2.844   3.515  17.118  0.2936 -0.3651 -0.1981
  848MPD2    H512518   2.761   3.568  17.095  0.2904  0.2624  1.2763
  848MPD2    N112519   2.997   3.087  17.280 -0.5438 -0.2861 -0.3618
  848MPD2    H712520   3.085   3.101  17.231  0.8347  1.1571  2.4948
  849MPD2     C12521   2.763   2.704  13.786 -0.2114 -0.4108  0.3047
  849MPD2    C112522   2.810   2.580  13.825  0.0713 -0.6991  0.3468
  849MPD2    C212523   2.721   2.493  13.882 -0.7092 -0.0717 -0.2454
  849MPD2    C312524   2.589   2.531  13.897  0.3100  0.4549  0.6743
  849MPD2    C412525   2.548   2.658  13.881  0.0028  0.0777 -0.5626
  849MPD2    C512526   2.643   2.748  13.832  0.4176 -0.1317 -0.3442
  849MPD2     H12527   2.745   2.393  13.915 -1.8284 -0.6626 -1.2037
  849MPD2    H112528   2.450   2.700  13.899 -0.5559 -0.3175 -2.6211
  849MPD2    H212529   2.825   2.782  13.743 -3.0049  1.6253  0.0309
  849MPD2    H312530   2.613   2.848  13.802  0.4017 -0.2386 -0.6847
  849MPD2     N12531   2.495   2.430  13.928 -0.8049 -0.1314  0.2811
  849MPD2    H512532   2.530   2.334  13.928  2.6555  1.1405 -0.5784
  849MPD2    N112533   2.946   2.547  13.805  0.5318  0.0855 -0.0572
  849MPD2    H712534   3.002   2.613  13.753  1.0728  0.1575  0.6147
  850MPD2     C12535   0.532   1.719  14.863  0.0086 -0.3773 -0.1841
  850MPD2    C112536   0.603   1.725  14.981  0.0821  0.0681 -0.1485
  850MPD2    C212537   0.742   1.719  14.977 -0.1084  0.3442 -0.6593
  850MPD2    C312538   0.803   1.682  14.857  0.2535 -0.1922 -0.1267
  850MPD2    C412539   0.728   1.687  14.741 -0.0973  0.4812  0.3294
  850MPD2    C512540   0.599   1.702  14.748 -0.2433 -0.0974  0.1676
  850MPD2     H12541   0.806   1.704  15.064 -5.4134 -0.8434  3.0849
  850MPD2    H112542   0.784   1.658  14.653  0.7032 -3.7503  2.2117
  850MPD2    H212543   0.425   1.727  14.854 -0.1415 -1.5602  0.5265
  850MPD2    H312544   0.543   1.698  14.655 -0.3087  0.3705  0.1879
  850MPD2     N12545   0.933   1.633  14.869  0.5720  0.1500  0.2934
  850MPD2    H512546   0.977   1.652  14.959  2.8165  0.7183 -0.9451
  850MPD2    N112547   0.527   1.713  15.097  0.2081 -0.8845  0.1850
  850MPD2    H712548   0.426   1.718  15.087  0.2480  0.2586  0.4009
  851MPD2     C12549   0.656   1.110  15.574  0.4401  0.3029  0.4325
  851MPD2    C112550   0.537   1.125  15.512  0.3559  0.3605  0.3525
  851MPD2    C212551   0.458   1.011  15.489  0.3439  0.3714 -0.5205
  851MPD2    C312552   0.504   0.885  15.522 -0.5204  0.7969 -0.3517
  851MPD2    C412553   0.625   0.873  15.592 -0.3409  0.4844 -0.2061
  851MPD2    C512554   0.698   0.986  15.611  0.5670 -0.0494 -0.9917
  851MPD2     H12555   0.369   1.024  15.429  0.4387 -2.6124 -1.2930
  851MPD2    H112556   0.672   0.780  15.622 -0.5165  0.9598  1.5824
  851MPD2    H212557   0.733   1.186  15.585 -0.2604  1.2425 -1.1696
  851MPD2    H312558   0.795   0.975  15.659 -0.2326  2.0381  1.0624
  851MPD2     N12559   0.424   0.775  15.497  0.1913 -0.2019  0.2142
  851MPD2    H512560   0.351   0.772  15.426 -0.1304  0.0757  0.5333
  851MPD2    N112561   0.500   1.257  15.472 -0.2882 -0.3727 -0.2141
  851MPD2    H712562   0.568   1.326  15.499  1.7957 -2.2736 -0.5702
  852MPD2     C12563   3.968   3.090  10.020 -0.0804  0.4337 -0.0791
  852MPD2    C112564   4.091   3.064  10.084 -0.1880  0.3773 -0.0029
  852MPD2    C212565   4.176   3.177  10.084 -0.2516  0.4551  0.3953
  852MPD2    C312566   4.141   3.300  10.026 -0.2158 -0.5198  0.4581
  852MPD2    C412567   4.018   3.316   9.983 -0.1173  0.0911 -0.0570
  852MPD2    C512568   3.932   3.214   9.974 -0.4698  1.2002 -0.2281
  852MPD2     H12569   4.281   3.170  10.113 -0.2382 -3.0617 -0.5079
  852MPD2    H112570   3.971   3.405   9.943  0.2331  0.6199  0.7186
  852MPD2    H212571   3.887   3.020  10.006  0.5482 -0.1278 -0.8863
  852MPD2    H312572   3.826   3.233   9.956 -0.7202 -0.4192 -0.4606
  852MPD2     N12573   4.250   3.397  10.012 -0.2485 -0.1152 -0.4358
  852MPD2    H512574   4.344   3.367  10.039 -0.2769  1.9607  1.9855
  852MPD2    N112575   4.134   2.937  10.121 -0.7391  0.2612 -0.7130
  852MPD2    H712576   4.228   2.941  10.160 -0.6885  0.0899 -0.8151
  853MPD2     C12577   1.700   3.597  12.328  0.2706  0.1541 -0.4058
  853MPD2    C112578   1.739   3.489  12.403 -0.0857  0.6722 -0.2445
  853MPD2    C212579   1.742   3.371  12.333 -0.5975  0.5929  0.7282
  853MPD2    C312580   1.702   3.361  12.202  0.3692  0.0454 -0.0593
  853MPD2    C412581   1.662   3.475  12.134 -0.6293 -0.6718  0.7007
  853MPD2    C512582   1.661   3.593  12.200  0.0526 -0.0945 -0.3548
  853MPD2     H12583   1.784   3.282  12.379 -1.5381 -0.6124 -0.7462
  853MPD2    H112584   1.630   3.485  12.031  0.5096 -0.8301  0.3268
  853MPD2    H212585   1.709   3.697  12.369 -0.7078  1.0201 -2.2561
  853MPD2    H312586   1.638   3.682  12.144 -2.1848 -0.5271 -0.1707
  853MPD2     N12587   1.706   3.239  12.127 -0.1213  0.1425 -0.2806
  853MPD2    H512588   1.681   3.243  12.028  3.3263 -0.3082 -1.1623
  853MPD2    N112589   1.788   3.512  12.536  0.4906  0.7624 -0.6008
  853MPD2    H712590   1.797   3.603  12.580 -0.5428  0.3771  0.4100
  854MPD2     C12591   3.753   3.125  12.383 -0.2731 -0.2225 -0.0297
  854MPD2    C112592   3.843   3.212  12.438  0.2352  0.4289 -0.1618
  854MPD2    C212593   3.915   3.181  12.549 -0.7217 -0.0339  0.5017
  854MPD2    C312594   3.876   3.069  12.615  0.1160  0.2186 -0.2150
  854MPD2    C412595   3.772   2.991  12.568  0.6940 -0.0780  0.2969
  854MPD2    C512596   3.719   3.009  12.444 -0.5685 -0.5708  0.8032
  854MPD2     H12597   3.986   3.251  12.591 -1.1943 -0.6023  2.2411
  854MPD2    H112598   3.746   2.901  12.623 -2.3365  2.1739  2.5331
  854MPD2    H212599   3.705   3.153  12.290  1.4963  2.0773 -0.2579
  854MPD2    H312600   3.639   2.948  12.404  1.4147 -1.1492 -2.3212
  854MPD2     N12601   3.929   3.029  12.738  0.4554  0.1594 -0.6441
  854MPD2    H512602   3.871   2.967  12.794  1.6473 -0.4003 -0.0311
  854MPD2    N112603   3.855   3.340  12.379  0.4004 -0.1105  0.3004
  854MPD2    H712604   3.810   3.337  12.288 -0.1582  0.1793  0.5708
  855MPD2     C12605   3.794   2.461  13.342  0.1996 -0.0511  0.1043
  855MPD2    C112606   3.871   2.550  13.416  0.2198  0.0763  0.8910
  855MPD2    C212607   3.888   2.684  13.376  0.2677 -0.4426  0.1757
  855MPD2    C312608   3.844   2.720  13.247 -0.7314 -0.7887  0.6136
  855MPD2    C412609   3.764   2.632  13.176  0.1543 -0.0160  0.4483
  855MPD2    C512610   3.742   2.505  13.227 -0.0223  0.0778  0.0369
  855MPD2     H12611   3.939   2.736  13.457 -0.3856 -0.1480  0.3949
  855MPD2    H112612   3.714   2.659  13.083  0.3096  2.3255  1.0444
  855MPD2    H212613   3.760   2.363  13.373 -1.7034  0.6249  0.1156
  855MPD2    H312614   3.670   2.436  13.184  0.7865 -0.1065 -1.0139
  855MPD2     N12615   3.880   2.849  13.189 -0.3897 -0.2467  0.7239
  855MPD2    H512616   3.864   2.863  13.090  0.4616  2.5384  0.9832
  855MPD2    N112617   3.938   2.516  13.531  0.2477 -0.3155  0.2790
  855MPD2    H712618   3.981   2.587  13.589  0.2183 -0.1925  0.1510
  856MPD2     C12619   1.243   3.618  14.437 -0.4182 -0.3621  0.4264
  856MPD2    C112620   1.270   3.737  14.388  0.1773 -0.2001  0.0971
  856MPD2    C212621   1.178   3.817  14.331  0.2954  0.5215 -0.4997
  856MPD2    C312622   1.043   3.767  14.314  0.3177  0.0109  0.0520
  856MPD2    C412623   1.019   3.639  14.353 -0.0264 -0.3499  0.7031
  856MPD2    C512624   1.116   3.580  14.420 -0.1242 -0.4502  0.2892
  856MPD2     H12625   1.203   3.918  14.300  0.1117  0.4828 -0.7790
  856MPD2    H112626   0.921   3.593  14.345 -0.5081  0.7406  0.3414
  856MPD2    H212627   1.311   3.550  14.488 -1.3091 -0.8967  0.9007
  856MPD2    H312628   1.081   3.485  14.460 -0.5196 -0.4659 -0.0877
  856MPD2     N12629   0.941   3.843  14.253 -0.3334  0.7628  0.2168
  856MPD2    H512630   0.851   3.798  14.240 -1.3797  2.8330  0.2808
  856MPD2    N112631   1.405   3.793  14.405 -0.0348 -0.4691 -0.5024
  856MPD2    H712632   1.418   3.884  14.361 -0.0684  0.1939  0.8671
  857MPD2     C12633   3.094   1.317  13.189  0.0972 -0.3848  0.5305
  857MPD2    C112634   3.172   1.339  13.072  0.3394 -0.1988  0.2900
  857MPD2    C212635   3.297   1.399  13.089  0.1055  0.3060 -0.5668
  857MPD2    C312636   3.331   1.452  13.209  0.0006 -0.3216  0.5969
  857MPD2    C412637   3.249   1.443  13.318 -0.0162  0.0597  0.4106
  857MPD2    C512638   3.135   1.380  13.303 -0.1054  0.6897  0.4824
  857MPD2     H12639   3.361   1.406  13.003  0.4696  0.6673 -0.2671
  857MPD2    H112640   3.272   1.488  13.414 -0.1586  0.0574  0.4454
  857MPD2    H212641   2.999   1.265  13.186  0.7960 -1.5213 -1.9872
  857MPD2    H312642   3.069   1.355  13.385 -0.5422 -0.9326 -0.3664
  857MPD2     N12643   3.454   1.514  13.221 -0.1019  0.5056 -0.0533
  857MPD2    H512644   3.521   1.512  13.145 -0.6407 -1.5575 -0.4590
  857MPD2    N112645   3.140   1.271  12.949 -0.3163  0.2676 -0.0132
  857MPD2    H712646   3.069   1.200  12.959 -1.0745  1.1513  0.9165
  858MPD2     C12647   4.049   0.551  16.643  0.4863 -0.1307  0.4149
  858MPD2    C112648   3.931   0.478  16.613  0.0589  0.2746  0.2545
  858MPD2    C212649   3.824   0.488  16.691 -0.0729 -0.6119 -0.1599
  858MPD2    C312650   3.828   0.569  16.805 -0.0106 -0.2831 -0.1286
  858MPD2    C412651   3.947   0.648  16.834 -0.1523 -0.0399 -0.3102
  858MPD2    C512652   4.056   0.628  16.754  0.4482 -0.1467 -0.6399
  858MPD2     H12653   3.736   0.425  16.689 -0.4448 -0.1130  0.6466
  858MPD2    H112654   3.968   0.687  16.933  1.6315  1.2136 -1.1775
  858MPD2    H212655   4.137   0.547  16.580 -1.3888  0.9581 -2.2786
  858MPD2    H312656   4.157   0.657  16.780 -0.2079  0.3373  1.4007
  858MPD2     N12657   3.727   0.576  16.902  0.2278 -0.4324  0.2154
  858MPD2    H512658   3.728   0.652  16.969 -0.7668 -2.0129  2.0170
  858MPD2    N112659   3.930   0.418  16.486  0.5289 -0.0134 -0.0128
  858MPD2    H712660   4.016   0.405  16.433 -0.2063 -1.2299 -0.9059
  859MPD2     C12661   2.056   2.375  15.883  0.8413 -0.4675  0.1525
  859MPD2    C112662   2.035   2.315  15.757  0.2025 -0.3695  0.6532
  859MPD2    C212663   2.057   2.178  15.738 -0.4996 -0.2223  0.0900
  859MPD2    C312664   2.109   2.108  15.849 -0.3262  0.6665 -0.1086
  859MPD2    C412665   2.117   2.166  15.970 -0.0785  0.3941  0.0953
  859MPD2    C512666   2.086   2.298  15.991 -0.4297 -0.1166  0.2985
  859MPD2     H12667   2.046   2.135  15.639 -0.1714 -0.9123  0.3577
  859MPD2    H112668   2.151   2.111  16.057 -1.3346 -1.6273 -0.6942
  859MPD2    H212669   2.045   2.482  15.898 -3.1058 -0.5986 -1.8483
  859MPD2    H312670   2.111   2.341  16.087 -1.5005  1.9899 -0.3728
  859MPD2     N12671   2.150   1.972  15.846  0.0906 -0.5803  0.0274
  859MPD2    H512672   2.186   1.939  15.935 -2.8828 -0.6293  1.2091
  859MPD2    N112673   1.975   2.396  15.659 -0.0735 -0.3030  0.6145
  859MPD2    H712674   1.954   2.492  15.682  2.0564  0.6337 -1.3221
  860MPD2     C12675   0.377   2.785  12.180 -0.2954 -0.3196 -0.6728
  860MPD2    C112676   0.406   2.743  12.308 -0.1744  0.3542  0.8714
  860MPD2    C212677   0.330   2.649  12.368 -0.1183  0.2464 -0.6661
  860MPD2    C312678   0.228   2.593  12.288 -0.0521  0.5224  0.0342
  860MPD2    C412679   0.199   2.631  12.158  0.4621 -1.0636  0.5257
  860MPD2    C512680   0.278   2.722  12.099 -0.9687 -0.2676 -0.4553
  860MPD2     H12681   0.342   2.616  12.471 -1.7737 -1.1756 -0.9159
  860MPD2    H112682   0.120   2.580  12.103 -1.6508  2.3692  0.3690
  860MPD2    H212683   0.432   2.870  12.142  3.0790 -1.6791  1.2239
  860MPD2    H312684   0.277   2.742  11.992  0.4036 -2.6408 -0.9260
  860MPD2     N12685   0.138   2.509  12.354  0.2030  0.6221  0.2153
  860MPD2    H512686   0.169   2.490  12.449 -2.1339  0.5118  0.9447
  860MPD2    N112687   0.517   2.787  12.383  0.2634 -0.3964 -0.3915
  860MPD2    H712688   0.520   2.747  12.476  1.4869  0.9226  0.1361
  861MPD2     C12689   3.807   0.751  11.038 -0.2498  0.9624  0.2185
  861MPD2    C112690   3.694   0.792  11.118  0.1831 -0.8826  0.4244
  861MPD2    C212691   3.573   0.796  11.055 -0.6521 -0.2697  0.0064
  861MPD2    C312692   3.562   0.776  10.918 -0.0493 -0.0977 -0.3767
  861MPD2    C412693   3.672   0.753  10.843 -0.0536  0.7108 -0.2252
  861MPD2    C512694   3.794   0.739  10.905  0.5547 -0.0784 -0.0650
  861MPD2     H12695   3.487   0.832  11.110  1.4840  2.8192  1.3199
  861MPD2    H112696   3.666   0.741  10.735 -1.2489  0.3994 -0.1245
  861MPD2    H212697   3.908   0.745  11.076 -0.4779 -0.3594  0.6250
  861MPD2    H312698   3.882   0.738  10.842 -0.8836 -1.9737 -2.0118
  861MPD2     N12699   3.438   0.803  10.846  0.1170 -0.6460  0.0705
  861MPD2    H512700   3.434   0.795  10.745 -0.8272  0.4216  0.0215
  861MPD2    N112701   3.706   0.822  11.264  0.1193  0.4616 -0.1907
  861MPD2    H712702   3.621   0.831  11.318  0.9888 -3.4300  1.8246
  862MPD2     C12703   3.146   0.948  10.183 -0.1412 -0.1359  0.4265
  862MPD2    C112704   3.049   0.889  10.262  0.1511  0.1499  0.1105
  862MPD2    C212705   2.950   0.812  10.201 -0.4709 -0.6671  0.9698
  862MPD2    C312706   2.948   0.792  10.062 -0.0449  0.0649  0.9133
  862MPD2    C412707   3.034   0.869   9.982 -0.1685 -1.0519 -0.3383
  862MPD2    C512708   3.132   0.949  10.047  0.4126  0.1364 -0.8364
  862MPD2     H12709   2.879   0.762  10.267 -0.7865  0.0241  1.1578
  862MPD2    H112710   3.024   0.881   9.875  1.2095  2.5168 -0.0864
  862MPD2    H212711   3.221   1.010  10.230  0.3873  0.4576 -1.1804
  862MPD2    H312712   3.206   1.016  10.005  0.0346 -0.5004 -2.5038
  862MPD2     N12713   2.867   0.696   9.986  0.0806 -0.5833 -0.2054
  862MPD2    H512714   2.879   0.702   9.886  1.1282 -1.5101 -0.1360
  862MPD2    N112715   3.052   0.892  10.407  0.3974  0.3886 -0.0313
  862MPD2    H712716   2.978   0.853  10.465 -0.1606 -1.1245 -1.7846
  863MPD2     C12717   1.626   3.919  16.709 -0.2444 -0.1846 -0.0636
  863MPD2    C112718   1.691   4.046  16.725  0.0977  0.9110 -0.2773
  863MPD2    C212719   1.806   4.060  16.799 -0.0536  0.0277 -0.0513
  863MPD2    C312720   1.859   3.949  16.862  0.6523 -0.3967 -0.2991
  863MPD2    C412721   1.789   3.827  16.869  0.5162 -1.0839  0.1360
  863MPD2    C512722   1.675   3.816  16.791 -0.4918 -0.3041  0.0044
  863MPD2     H12723   1.855   4.157  16.797 -0.3062  0.1578 -0.0983
  863MPD2    H112724   1.820   3.748  16.937 -0.7957 -0.9845  0.8397
  863MPD2    H212725   1.542   3.907  16.642  0.0874  0.4379 -0.5961
  863MPD2    H312726   1.627   3.719  16.791 -0.8224 -0.1415 -0.1547
  863MPD2     N12727   1.989   3.938  16.920  0.0884  0.3040 -0.0693
  863MPD2    H512728   2.012   3.852  16.968 -1.2144  0.4566  0.8343
  863MPD2    N112729   1.627   4.148  16.664 -0.2453 -0.2690 -0.2705
  863MPD2    H712730   1.565   4.134  16.584  0.2027  0.5793 -0.7690
  864MPD2     C12731   2.401   0.209  17.353  0.0682 -0.2312 -0.2219
  864MPD2    C112732   2.402   0.172  17.219 -0.9612  0.2492  0.3218
  864MPD2    C212733   2.480   0.245  17.131  0.0358 -0.0054  0.3509
  864MPD2    C312734   2.525   0.370  17.168 -0.0607 -0.3028 -0.3361
  864MPD2    C412735   2.508   0.408  17.295 -0.1024 -0.1078  0.6209
  864MPD2    C512736   2.456   0.327  17.390  0.4475  0.8036  0.0421
  864MPD2     H12737   2.499   0.209  17.030  0.0508 -1.0970  0.7440
  864MPD2    H112738   2.543   0.502  17.335 -2.2224  0.5765  0.8503
  864MPD2    H212739   2.369   0.140  17.430 -0.4186  0.6478  0.3548
  864MPD2    H312740   2.452   0.363  17.492  0.5997  2.8031 -0.6557
  864MPD2     N12741   2.589   0.463  17.086 -0.0118  0.4435  0.1448
  864MPD2    H512742   2.604   0.557  17.123 -1.1065 -0.0135  1.7216
  864MPD2    N112743   2.349   0.040  17.183 -0.0732  0.1079  0.7521
  864MPD2    H712744   2.330   4.715  17.262 -2.3929 -1.5113 -1.0763
  865MPD2     C12745   2.531   1.002  16.380  0.2014 -0.2395 -0.1975
  865MPD2    C112746   2.512   0.881  16.441  0.5723 -0.4255 -0.0791
  865MPD2    C212747   2.504   0.884  16.579  0.0866 -0.5035  0.2711
  865MPD2    C312748   2.520   1.001  16.655  0.6272 -0.4420 -0.3950
  865MPD2    C412749   2.538   1.120  16.588 -1.1506  0.3038  0.5610
  865MPD2    C512750   2.546   1.118  16.450  0.6658  0.3182  0.0143
  865MPD2     H12751   2.491   0.793  16.637  0.1822 -1.1062 -0.6515
  865MPD2    H112752   2.545   1.215  16.640  0.2428  1.5852 -1.9497
  865MPD2    H212753   2.538   0.998  16.272  0.0255 -2.7287 -0.1239
  865MPD2    H312754   2.553   1.214  16.399  2.0392  0.1018 -0.2004
  865MPD2     N12755   2.510   1.006  16.793 -0.0631 -0.1681 -0.2237
  865MPD2    H512756   2.506   1.101  16.831  0.7058  1.3849 -4.0727
  865MPD2    N112757   2.512   0.768  16.363  0.6677  0.5262  0.5556
  865MPD2    H712758   2.519   0.793  16.265 -2.4609  2.7302  0.8967
  866MPD2     C12759   4.079   1.198  11.322 -0.6791  0.7103 -0.0693
  866MPD2    C112760   4.038   1.131  11.208  0.0457  0.6791  0.9428
  866MPD2    C212761   3.903   1.134  11.169  0.9157 -0.0880  0.3543
  866MPD2    C312762   3.805   1.178  11.255 -0.0682 -0.1616  0.2013
  866MPD2    C412763   3.849   1.250  11.370  0.5900 -0.0612  0.0578
  866MPD2    C512764   3.982   1.254  11.402 -0.0826  0.7949 -0.5143
  866MPD2     H12765   3.872   1.085  11.078 -0.4736  0.8404  0.3189
  866MPD2    H112766   3.777   1.284  11.443 -1.2006  1.1147 -2.2948
  866MPD2    H212767   4.182   1.189  11.356 -0.5287  0.2789 -0.6229
  866MPD2    H312768   4.006   1.289  11.501 -1.6711  2.5360 -0.7421
  866MPD2     N12769   3.672   1.164  11.218  0.6302  0.1695  0.0302
  866MPD2    H512770   3.645   1.131  11.126 -0.2665 -1.0920  0.7492
  866MPD2    N112771   4.143   1.061  11.146 -0.1803  0.1760  0.2609
  866MPD2    H712772   4.230   1.052  11.198 -0.8972 -1.9551  1.1055
  867MPD2     C12773   1.234   0.621  16.620  0.7130 -0.5295  0.2923
  867MPD2    C112774   1.338   0.597  16.704 -0.3187 -0.0400 -1.0712
  867MPD2    C212775   1.392   0.713  16.768 -0.4359 -0.3396  0.1791
  867MPD2    C312776   1.344   0.842  16.744  0.2639 -0.9245  0.3316
  867MPD2    C412777   1.242   0.868  16.657 -0.0556  0.2181 -0.7947
  867MPD2    C512778   1.187   0.756  16.600  0.0935  0.7269  0.1655
  867MPD2     H12779   1.468   0.699  16.844  0.3652  0.2953 -0.4921
  867MPD2    H112780   1.206   0.967  16.630  0.9848  0.3874 -1.5311
  867MPD2    H212781   1.182   0.538  16.572  0.6144  0.5149 -1.4119
  867MPD2    H312782   1.100   0.766  16.536  0.7920  1.1109 -0.7214
  867MPD2     N12783   1.416   0.954  16.798 -0.1568  0.6530  0.1265
  867MPD2    H512784   1.386   1.047  16.771 -1.1666  0.3225  0.1141
  867MPD2    N112785   1.396   0.466  16.718  0.1113 -0.3063 -0.1917
  867MPD2    H712786   1.364   0.391  16.658  0.9355 -1.8576  1.2804
  868MPD2     C12787   3.326   0.183  13.122  0.0440  0.1542 -0.5138
  868MPD2    C112788   3.225   0.090  13.145  0.0149  0.7509  0.0534
  868MPD2    C212789   3.143   0.105  13.253 -0.4175 -0.3779 -0.5827
  868MPD2    C312790   3.155   0.207  13.336  0.4894  0.0804 -0.3617
  868MPD2    C412791   3.249   0.303  13.315 -0.1230 -0.1023  0.6686
  868MPD2    C512792   3.332   0.289  13.206 -0.2539  0.4205  0.2954
  868MPD2     H12793   3.079   0.021  13.277 -2.8463  0.9397 -2.5083
  868MPD2    H112794   3.267   0.389  13.379 -0.0054  1.6704 -1.7867
  868MPD2    H212795   3.400   0.179  13.043 -1.1333  0.5140 -1.6230
  868MPD2    H312796   3.403   0.369  13.188 -3.2355  2.8171 -0.7075
  868MPD2     N12797   3.086   0.200  13.460  0.2063  0.0533  0.9563
  868MPD2    H512798   3.027   0.118  13.471  0.9839 -0.4465  1.4692
  868MPD2    N112799   3.216   4.716  13.056  0.1897  0.3060  0.0897
  868MPD2    H712800   3.278   4.720  12.976  1.8663  0.5791  1.3885
  869MPD2     C12801   4.302   1.861   0.410  0.3761  0.3398 -1.0399
  869MPD2    C112802   4.250   1.985   0.429  0.6624  0.2893  0.0868
  869MPD2    C212803   4.339   2.087   0.453 -0.5586 -0.9448 -0.7904
  869MPD2    C312804   4.474   2.066   0.470  0.0765  0.2632 -0.2745
  869MPD2    C412805   4.523   1.939   0.458 -0.1074  0.3655 -0.3035
  869MPD2    C512806   4.432   1.837   0.426  0.0222  0.3033 -0.0204
  869MPD2     H12807   4.300   2.186   0.471 -0.7072 -0.8304 -1.7084
  869MPD2    H112808   4.624   1.903   0.473 -0.6132 -0.9782 -0.1305
  869MPD2    H212809   4.246   1.769   0.397  1.5916 -0.5913  0.2144
  869MPD2    H312810   4.462   1.733   0.420  0.6676  0.4776  0.2624
  869MPD2     N12811   4.552   2.176   0.511 -0.1702  0.6342  0.0347
  869MPD2    H512812   4.509   2.263   0.540 -1.2884 -0.8076  2.7343
  869MPD2    N112813   4.108   1.994   0.411  0.0121 -0.0581 -0.1569
  869MPD2    H712814   4.058   1.909   0.386  0.0409 -0.0010 -0.4111
  870MPD2     C12815   4.588   1.299   1.466  0.1928 -0.1945  0.5454
  870MPD2    C112816   4.520   1.198   1.398  0.6284 -0.1398 -0.3918
  870MPD2    C212817   4.383   1.204   1.357 -0.2672  0.3470 -0.3172
  870MPD2    C312818   4.311   1.311   1.397  0.1654  0.3207 -0.2492
  870MPD2    C412819   4.379   1.408   1.470 -0.6418  0.3086  0.1625
  870MPD2    C512820   4.514   1.407   1.501 -0.2001  0.6411  0.8705
  870MPD2     H12821   4.336   1.121   1.306  3.9881 -1.4038 -1.3969
  870MPD2    H112822   4.329   1.497   1.508  0.1840  0.3841  1.0817
  870MPD2    H212823   4.694   1.296   1.488  0.6062  0.2164 -1.4491
  870MPD2    H312824   4.550   1.487   1.565  0.7688  0.1023  0.9997
  870MPD2     N12825   4.175   1.322   1.362 -0.7071  0.3803  0.0077
  870MPD2    H512826   4.137   1.254   1.297  0.7230 -0.9782  0.5849
  870MPD2    N112827   4.607   1.097   1.362 -0.2468  0.0871 -0.7692
  870MPD2    H712828   4.705   1.117   1.349 -0.0295  0.7168  1.7664
  871MPD2     C12829   0.195   0.858  16.595  0.2408 -0.4921  0.7369
  871MPD2    C112830   0.297   0.874  16.690  0.4999  0.4469 -0.6270
  871MPD2    C212831   0.395   0.777  16.689  0.1536  0.3210 -0.0482
  871MPD2    C312832   0.384   0.659  16.617  0.0251 -0.1387 -0.1151
  871MPD2    C412833   0.290   0.646  16.524 -0.2649  0.0582 -0.2139
  871MPD2    C512834   0.195   0.747  16.520  0.1735 -0.1402 -0.3374
  871MPD2     H12835   0.476   0.785  16.760 -0.3472 -1.1745  0.6939
  871MPD2    H112836   0.281   0.555  16.465  0.9403 -0.4666  0.4040
  871MPD2    H212837   0.114   0.928  16.582  0.4092 -0.1946  1.2703
  871MPD2    H312838   0.124   0.720  16.443 -0.2641 -1.6385  0.5785
  871MPD2     N12839   0.482   0.561  16.637  0.3228  0.3107 -0.5408
  871MPD2    H512840   0.565   0.588  16.688 -0.5880  1.8771  0.1126
  871MPD2    N112841   0.292   0.994  16.776  0.3153  0.0750  0.3968
  871MPD2    H712842   0.214   1.058  16.762 -0.3626 -0.5099  1.4500
  872MPD2     C12843   0.855   3.459  13.812 -0.0266 -0.1574 -0.3172
  872MPD2    C112844   0.906   3.494  13.942  0.3350 -0.4551 -0.3092
  872MPD2    C212845   0.828   3.471  14.056 -0.3556  0.0931 -0.3471
  872MPD2    C312846   0.697   3.431  14.037  0.0945 -0.5334 -0.3991
  872MPD2    C412847   0.648   3.406  13.907 -0.2969  0.0100 -0.5380
  872MPD2    C512848   0.729   3.416  13.802 -0.5770  0.2969 -0.7624
  872MPD2     H12849   0.863   3.495  14.156 -0.5338 -2.1987  0.2548
  872MPD2    H112850   0.545   3.374  13.900  0.1237 -1.7896  1.7135
  872MPD2    H212851   0.915   3.462  13.722 -1.3146 -0.1178 -1.1656
  872MPD2    H312852   0.696   3.374  13.707 -0.4953 -1.5619  0.0265
  872MPD2     N12853   0.604   3.424  14.144  0.3320  0.4794 -0.5133
  872MPD2    H512854   0.507   3.426  14.113  0.1806  1.6811  0.0440
  872MPD2    N112855   1.037   3.541  13.961 -0.2810 -0.1228  0.6249
  872MPD2    H712856   1.076   3.547  14.054 -0.9130  0.0812  0.8819
  873MPD2     C12857   2.569   2.683   0.445  0.1453 -0.0609 -0.0105
  873MPD2    C112858   2.593   2.674   0.580  0.6233 -0.0226  1.1358
  873MPD2    C212859   2.600   2.548   0.636  0.9679 -0.0575 -0.9627
  873MPD2    C312860   2.592   2.437   0.553 -0.0789 -0.5552  0.2829
  873MPD2    C412861   2.561   2.451   0.423  0.1751  0.6942 -0.6045
  873MPD2    C512862   2.553   2.574   0.370 -0.2234 -0.4384 -0.2429
  873MPD2     H12863   2.627   2.538   0.741 -1.2839 -1.1043 -0.4976
  873MPD2    H112864   2.552   2.367   0.355 -1.2571  0.6705 -0.3891
  873MPD2    H212865   2.566   2.782   0.401 -0.2520 -0.3017 -0.5213
  873MPD2    H312866   2.539   2.592   0.264  0.3257  1.3644 -0.0002
  873MPD2     N12867   2.618   2.304   0.594 -0.0952 -0.1120  0.0029
  873MPD2    H512868   2.623   2.238   0.518 -0.1211  0.1834 -0.2566
  873MPD2    N112869   2.619   2.794   0.651 -0.1056  0.2021  0.1754
  873MPD2    H712870   2.629   2.880   0.597  3.2338 -1.0142 -1.1226
  874MPD2     C12871   2.543   3.254  16.416  0.2917  0.0264  0.1204
  874MPD2    C112872   2.505   3.252  16.552  0.1828 -0.0954 -0.6982
  874MPD2    C212873   2.559   3.349  16.629 -0.1346 -0.6548  0.1878
  874MPD2    C312874   2.651   3.443  16.581  0.2568 -0.0343  0.0886
  874MPD2    C412875   2.681   3.436  16.449 -0.2691 -0.1520  0.0610
  874MPD2    C512876   2.621   3.352  16.363 -0.0361  0.2806 -0.1536
  874MPD2     H12877   2.521   3.362  16.729 -2.2125 -1.3355 -0.5219
  874MPD2    H112878   2.742   3.509  16.397  0.0507  1.2698  2.3982
  874MPD2    H212879   2.508   3.167  16.361 -0.0494  0.3794 -0.2275
  874MPD2    H312880   2.630   3.360  16.255 -1.1028  1.0600 -0.1809
  874MPD2     N12881   2.702   3.541  16.680 -0.1365 -0.2133 -0.1962
  874MPD2    H512882   2.671   3.538  16.776 -1.1260 -2.5998 -0.6061
  874MPD2    N112883   2.432   3.144  16.607 -0.0519  0.2170  0.6607
  874MPD2    H712884   2.417   3.070  16.540  0.7084  1.6539 -1.0814
  875MPD2     C12885   3.782   1.866  14.582 -0.4554 -0.5299 -0.2005
  875MPD2    C112886   3.646   1.851  14.589 -0.6407 -0.4140  0.2499
  875MPD2    C212887   3.582   1.879  14.703 -0.0060 -0.5265 -0.5042
  875MPD2    C312888   3.652   1.913  14.822 -0.5579 -0.2419  0.1908
  875MPD2    C412889   3.790   1.918  14.817  0.0671  0.4356  0.2097
  875MPD2    C512890   3.852   1.903  14.694 -0.2412 -0.2321 -0.0176
  875MPD2     H12891   3.474   1.870  14.698 -0.1558  2.0730 -2.0726
  875MPD2    H112892   3.835   1.970  14.901 -0.0490  0.0361  0.5194
  875MPD2    H212893   3.837   1.852  14.490  2.5672 -0.1350  1.5341
  875MPD2    H312894   3.954   1.938  14.681 -0.2037  0.6219  2.6517
  875MPD2     N12895   3.590   1.956  14.941  0.4011 -0.3460  0.3648
  875MPD2    H512896   3.649   1.998  15.012 -0.8490  1.3812  0.3811
  875MPD2    N112897   3.562   1.816  14.484 -0.3308 -0.2965 -0.7994
  875MPD2    H712898   3.463   1.820  14.505 -0.5285 -0.5905 -1.6729
  876MPD2     C12899   2.833   3.097  16.133  0.0378 -0.3180  0.2685
  876MPD2    C112900   2.814   3.028  16.017 -0.1298 -0.6163  0.1932
  876MPD2    C212901   2.821   2.894  16.024 -0.4357  0.0563  0.2181
  876MPD2    C312902   2.846   2.827  16.144 -0.3032  0.2257 -0.5115
  876MPD2    C412903   2.856   2.894  16.255  0.1432  0.4642  0.0248
  876MPD2    C512904   2.850   3.035  16.255  0.5618 -0.2357  0.2574
  876MPD2     H12905   2.810   2.838  15.932  0.3898 -0.7524  0.6168
  876MPD2    H112906   2.892   2.841  16.343  0.6044 -0.5271 -0.7541
  876MPD2    H212907   2.823   3.205  16.135  0.2391 -0.3013  0.4252
  876MPD2    H312908   2.861   3.097  16.344 -0.3394  0.3597 -0.0440
  876MPD2     N12909   2.848   2.684  16.143  0.5287  0.6621 -0.4653
  876MPD2    H512910   2.834   2.639  16.053  2.3070  0.8229 -0.8302
  876MPD2    N112911   2.788   3.102  15.901 -0.3892  0.2712 -0.2884
  876MPD2    H712912   2.771   3.201  15.914 -2.2897 -0.1610  0.5512
  877MPD2     C12913   2.920   3.423  15.181  1.4061 -0.1173  0.1116
  877MPD2    C112914   2.792   3.366  15.199 -0.0001 -0.5529 -0.2936
  877MPD2    C212915   2.722   3.319  15.089  0.0589  0.0962 -0.3944
  877MPD2    C312916   2.790   3.309  14.971  0.2908 -0.9475  0.2888
  877MPD2    C412917   2.920   3.353  14.956  0.1500  0.0819  0.1853
  877MPD2    C512918   2.984   3.409  15.060 -0.3752  0.5154 -0.5789
  877MPD2     H12919   2.622   3.281  15.105 -0.4152  1.5691  0.1336
  877MPD2    H112920   2.976   3.345  14.863  0.6710  0.6087  0.4557
  877MPD2    H212921   2.980   3.465  15.261  0.0096  1.3939  0.3626
  877MPD2    H312922   3.086   3.440  15.038 -0.2641 -0.7621 -1.9379
  877MPD2     N12923   2.743   3.241  14.855 -0.6392 -0.3956 -0.3058
  877MPD2    H512924   2.808   3.225  14.780 -1.4387  1.1631 -1.3311
  877MPD2    N112925   2.730   3.353  15.325 -0.3320 -0.0281 -0.2091
  877MPD2    H712926   2.639   3.309  15.314  0.5511 -2.7063  3.0472
  878MPD2     C12927   3.135   2.190  12.940 -1.1132 -0.3812 -0.0335
  878MPD2    C112928   3.032   2.231  13.021 -0.1152 -0.5454 -0.1540
  878MPD2    C212929   3.042   2.237  13.164 -0.2752 -0.7537  0.7101
  878MPD2    C312930   3.170   2.228  13.220  0.0833 -1.0525 -0.7212
  878MPD2    C412931   3.269   2.177  13.139  1.0144  0.6328  0.3279
  878MPD2    C512932   3.254   2.157  13.004 -0.3247 -0.4030 -0.1849
  878MPD2     H12933   2.958   2.274  13.221  0.5120  1.0953  0.6643
  878MPD2    H112934   3.370   2.173  13.177 -0.0262  1.5166  3.1910
  878MPD2    H212935   3.123   2.186  12.832  1.4917  1.4512 -0.3804
  878MPD2    H312936   3.322   2.099  12.943  0.4117 -0.3931  0.6381
  878MPD2     N12937   3.199   2.261  13.351 -0.0001 -0.2490  0.2445
  878MPD2    H512938   3.282   2.223  13.395 -1.6932 -2.6505  1.3737
  878MPD2    N112939   2.918   2.273  12.949  0.0133 -0.1852 -0.6826
  878MPD2    H712940   2.931   2.271  12.848 -0.8934  0.3497 -0.8147
  879MPD2     C12941   2.402   4.177  16.706  0.2537 -0.3858 -0.1501
  879MPD2    C112942   2.486   4.078  16.761  0.1731 -0.1165  0.2691
  879MPD2    C212943   2.428   3.951  16.752  0.6130  0.7774  0.0783
  879MPD2    C312944   2.316   3.924  16.677  0.1812  0.0217  1.0525
  879MPD2    C412945   2.246   4.033  16.629 -0.5518  0.0706  0.0237
  879MPD2    C512946   2.286   4.162  16.640  0.4628  0.7662 -0.0599
  879MPD2     H12947   2.471   3.867  16.806  1.2766  0.4319 -0.9822
  879MPD2    H112948   2.165   4.013  16.560 -0.8766  1.3687  0.0266
  879MPD2    H212949   2.433   4.280  16.719  2.3232 -1.0238 -0.0674
  879MPD2    H312950   2.227   4.242  16.597 -1.0388 -0.9441 -1.2080
  879MPD2     N12951   2.265   3.801  16.651 -0.0361 -0.1072  0.7471
  879MPD2    H512952   2.192   3.797  16.581  1.0052 -1.1558 -0.2897
  879MPD2    N112953   2.619   4.106  16.817 -0.2791 -0.0186  0.5450
  879MPD2    H712954   2.667   4.192  16.791 -1.2171  0.4425  0.3231
  880MPD2     C12955   4.081   0.593   0.337 -0.8217 -0.0784 -0.4665
  880MPD2    C112956   4.177   0.695   0.356  0.1471 -0.4959 -0.5311
  880MPD2    C212957   4.298   0.645   0.408 -0.5810  0.6283 -0.7926
  880MPD2    C312958   4.330   0.508   0.413 -0.4680  0.2206 -0.2378
  880MPD2    C412959   4.228   0.413   0.395  0.3232 -0.2155 -0.9856
  880MPD2    C512960   4.112   0.462   0.340 -0.5871 -0.6112  0.3279
  880MPD2     H12961   4.371   0.721   0.435  0.2398 -0.5843  0.4471
  880MPD2    H112962   4.249   0.307   0.407  2.0089  0.1311 -0.8702
  880MPD2    H212963   3.981   0.620   0.307 -0.9174  0.4991  0.3715
  880MPD2    H312964   4.039   0.387   0.313  0.3143 -1.3826  0.0445
  880MPD2     N12965   4.459   0.481   0.464 -0.2134  0.1160 -0.6600
  880MPD2    H512966   4.513   0.560   0.498 -0.7622  0.5112 -0.7121
  880MPD2    N112967   4.135   0.830   0.351  0.4651 -0.8517 -0.5133
  880MPD2    H712968   4.035   0.841   0.358  0.7633  1.3590  0.2737
  881MPD2     C12969   4.293   1.883   0.049 -0.1697 -0.0653  0.5210
  881MPD2    C112970   4.392   1.787   0.070  0.7524  0.1283 -0.1806
  881MPD2    C212971   4.348   1.664   0.117 -0.0584  0.0185  0.1918
  881MPD2    C312972   4.218   1.642   0.147  0.9131  0.2638  0.5757
  881MPD2    C412973   4.129   1.743   0.129  0.4847 -0.0938  0.3429
  881MPD2    C512974   4.165   1.864   0.072 -0.5073  0.3742 -0.3393
  881MPD2     H12975   4.423   1.587   0.133  0.2503  0.0298 -1.1597
  881MPD2    H112976   4.025   1.716   0.145  1.1841 -2.7008  0.6450
  881MPD2    H212977   4.307   1.973  17.732 -0.5086 -0.0268  0.4995
  881MPD2    H312978   4.094   1.940   0.042 -1.1200 -0.5528 -1.2409
  881MPD2     N12979   4.164   1.518   0.201  0.3458 -0.2923 -0.3222
  881MPD2    H512980   4.067   1.516   0.231  1.0229 -1.9368  1.7420
  881MPD2    N112981   4.515   1.804  17.738 -0.0131  0.2864  0.1785
  881MPD2    H712982   4.532   1.896  17.697 -0.7469 -0.1409 -1.0543
  882MPD2     C12983   2.148   2.963  14.198  0.4447 -1.3942 -0.0041
  882MPD2    C112984   2.159   3.040  14.314  0.4798  0.5636  0.2927
  882MPD2    C212985   2.047   3.113  14.360 -0.1797  0.3661  0.0384
  882MPD2    C312986   1.922   3.093  14.305  0.1195 -0.1584  0.1885
  882MPD2    C412987   1.915   3.007  14.197  0.5062  0.5913 -0.1685
  882MPD2    C512988   2.025   2.953  14.141 -0.0486 -0.2790  0.3066
  882MPD2     H12989   2.065   3.160  14.456  0.0266  1.9832 -0.7870
  882MPD2    H112990   1.827   2.997  14.134  0.4051 -1.4011  0.2882
  882MPD2    H212991   2.221   2.893  14.161  1.3618 -0.8458  0.7642
  882MPD2    H312992   2.002   2.880  14.064  2.2424 -0.4080 -0.2581
  882MPD2     N12993   1.797   3.143  14.356  0.0779  0.0878  0.7597
  882MPD2    H512994   1.716   3.082  14.354  1.2548 -1.3817 -1.4731
  882MPD2    N112995   2.281   3.033  14.387  0.2890  0.4451  0.5831
  882MPD2    H712996   2.349   2.959  14.372  0.4577  0.2998  1.9978
  883MPD2     C12997   3.791   3.294  15.945  0.2020 -0.0173  0.7371
  883MPD2    C112998   3.879   3.377  15.874 -0.4664 -0.8650  0.0884
  883MPD2    C212999   4.012   3.345  15.860 -0.4074 -0.6853  0.0868
  883MPD2    C313000   4.057   3.224  15.902  0.2170 -0.7134  0.2591
  883MPD2    C413001   3.967   3.134  15.961  0.0877 -0.2250 -0.4631
  883MPD2    C513002   3.839   3.171  15.987 -0.2728  0.1716  0.4820
  883MPD2     H13003   4.069   3.411  15.796  1.7105 -3.4219 -0.8322
  883MPD2    H113004   4.002   3.044  16.011  1.0987  1.2193  1.4764
  883MPD2    H213005   3.683   3.297  15.954  0.1535 -0.2597  0.2317
  883MPD2    H313006   3.771   3.097  16.028 -0.1226  0.0576  0.5239
  883MPD2     N13007   4.196   3.199  15.899 -0.0902 -0.3514 -0.3294
  883MPD2    H513008   4.253   3.268  15.852 -1.3247  1.3370  0.6586
  883MPD2    N113009   3.835   3.489  15.800 -0.6920  0.0598 -0.4918
  883MPD2    H713010   3.907   3.534  15.744 -0.0797 -2.6981 -1.8916
  884MPD2     C13011   1.221   3.892  15.415  0.0918  0.0257 -0.0037
  884MPD2    C113012   1.205   3.987  15.313 -0.2950  0.2574  0.5848
  884MPD2    C213013   1.098   4.073  15.313 -0.1064  0.2890  0.6422
  884MPD2    C313014   1.002   4.066  15.413  0.3707  0.4331  0.5326
  884MPD2    C413015   1.027   3.983  15.530 -0.4457  0.0361 -0.1973
  884MPD2    C513016   1.135   3.898  15.523  0.6192 -0.6215  0.1909
  884MPD2     H13017   1.087   4.136  15.225  4.1595 -1.2005 -0.9719
  884MPD2    H113018   0.956   3.958  15.609  0.3614  1.3522  0.9538
  884MPD2    H213019   1.299   3.818  15.418 -1.4224 -1.6597 -1.7049
  884MPD2    H313020   1.152   3.821  15.598  2.3890  0.0557  0.4802
  884MPD2     N13021   0.878   4.138  15.389 -0.0920  0.0800 -0.5092
  884MPD2    H513022   0.872   4.188  15.301  2.2458 -1.1540 -1.3757
  884MPD2    N113023   1.286   3.988  15.197 -0.2559  0.2381  0.2394
  884MPD2    H713024   1.255   4.050  15.123 -0.0820  1.0304  0.8331
  885MPD2     C13025   0.187   4.233   0.490 -0.8686  0.5123 -0.3378
  885MPD2    C113026   0.219   4.372   0.503 -0.2211 -0.1321  0.2140
  885MPD2    C213027   0.190   4.449   0.397  0.5010  0.6951 -0.6048
  885MPD2    C313028   0.112   4.402   0.287  0.2941  0.1866  0.3578
  885MPD2    C413029   0.083   4.266   0.280 -0.7659  0.6932  1.1447
  885MPD2    C513030   0.121   4.186   0.382  0.7309  0.5370  0.0506
  885MPD2     H13031   0.212   4.555   0.392  1.4771  0.5334  0.4782
  885MPD2    H113032   0.022   4.233   0.196 -1.8416  0.2503  2.1038
  885MPD2    H213033   0.199   4.163   0.571 -1.6330 -1.2423 -1.7415
  885MPD2    H313034   0.082   4.085   0.387 -1.4223  1.4268  1.3079
  885MPD2     N13035   0.081   4.496   0.188 -0.2995  0.2588  0.1160
  885MPD2    H513036   0.103   4.594   0.204  2.3266  0.1198 -2.5930
  885MPD2    N113037   0.295   4.421   0.613 -0.0360 -0.2712  0.0889
  885MPD2    H713038   0.319   4.520   0.616  2.3513 -0.8928  1.7159
  886MPD2     C13039   1.128   2.886  15.814 -0.1353  0.2350  0.7761
  886MPD2    C113040   1.207   2.828  15.711 -0.2272 -0.2868 -0.0101
  886MPD2    C213041   1.191   2.874  15.574  0.0461  0.1678  0.0359
  886MPD2    C313042   1.102   2.976  15.553 -0.2828 -0.0406  0.4532
  886MPD2    C413043   1.019   3.026  15.654  0.0011 -0.8612  0.2460
  886MPD2    C513044   1.037   2.975  15.776  0.4863 -0.2372  0.3170
  886MPD2     H13045   1.251   2.825  15.499 -2.8372 -1.5834 -1.1123
  886MPD2    H113046   0.937   3.092  15.628  0.6279 -0.5008 -0.8000
  886MPD2    H213047   1.117   2.851  15.916  0.0008 -0.0931  0.6767
  886MPD2    H313048   0.977   3.022  15.854  0.4502 -1.1340  0.8441
  886MPD2     N13049   1.095   3.031  15.420 -0.4961  0.2922 -0.0289
  886MPD2    H513050   1.147   2.979  15.350 -2.3162 -0.1646 -1.0684
  886MPD2    N113051   1.302   2.735  15.742  0.0773  0.0446 -0.4353
  886MPD2    H713052   1.362   2.710  15.664  1.3676  0.3538  0.4575
  887MPD2     C13053   2.008   2.674  16.202  0.1166 -0.4781 -1.0509
  887MPD2    C113054   1.948   2.749  16.101  0.0417  0.6796 -0.2453
  887MPD2    C213055   2.013   2.862  16.055 -0.0596 -0.2591 -0.4539
  887MPD2    C313056   2.138   2.901  16.107  0.2585 -0.2938 -0.3014
  887MPD2    C413057   2.190   2.829  16.215  0.3282  0.0425  0.2890
  887MPD2    C513058   2.124   2.715  16.254 -0.8328  0.2760 -0.4975
  887MPD2     H13059   1.974   2.920  15.972  0.3904 -0.5641 -0.8870
  887MPD2    H113060   2.275   2.867  16.269 -0.4402  2.4707 -0.1967
  887MPD2    H213061   1.957   2.586  16.237 -0.3304  0.4583  0.6421
  887MPD2    H313062   2.160   2.668  16.345  0.6510  1.6617 -0.3765
  887MPD2     N13063   2.197   3.019  16.060 -0.3054  0.3789  0.5376
  887MPD2    H513064   2.143   3.066  15.989 -0.3944 -1.3705 -0.5628
  887MPD2    N113065   1.842   2.694  16.020  0.5124 -0.4881  0.0124
  887MPD2    H713066   1.837   2.725  15.924  0.4872 -0.2896  0.0761
  888MPD2     C13067   3.508   2.807  14.797 -0.0139 -0.6185 -0.0542
  888MPD2    C113068   3.411   2.883  14.863 -0.7470 -0.3504 -0.0780
  888MPD2    C213069   3.414   3.019  14.836 -0.7704 -0.1379 -0.1931
  888MPD2    C313070   3.513   3.074  14.755 -0.3667  0.1705  0.4810
  888MPD2    C413071   3.595   2.999  14.684  0.0202  0.0776  0.2306
  888MPD2    C513072   3.595   2.867  14.707  0.0449 -0.0637 -0.2603
  888MPD2     H13073   3.347   3.088  14.886  2.5202  1.0272  2.6364
  888MPD2    H113074   3.682   3.039  14.632 -0.7142  0.1449 -0.9451
  888MPD2    H213075   3.522   2.701  14.819  0.5606 -0.3544  0.8385
  888MPD2    H313076   3.672   2.807  14.660 -1.7637 -0.6832 -2.4345
  888MPD2     N13077   3.521   3.216  14.751 -1.2735 -0.1027  0.7811
  888MPD2    H513078   3.455   3.273  14.803 -1.9538  0.6195 -0.9160
  888MPD2    N113079   3.328   2.831  14.963  0.0467  0.1457  0.4818
  888MPD2    H713080   3.283   2.893  15.030 -0.9382  1.4396 -1.4018
  889MPD2     C13081   3.650   2.127  12.799  0.6178 -0.4601  0.0253
  889MPD2    C113082   3.668   2.137  12.934  0.5797  0.2402  0.0475
  889MPD2    C213083   3.598   2.244  12.999  0.1562 -0.1789  0.2831
  889MPD2    C313084   3.511   2.329  12.926 -0.1586  0.0270 -0.6617
  889MPD2    C413085   3.510   2.316  12.789 -1.0354 -0.7191  0.2823
  889MPD2    C513086   3.572   2.214  12.726  1.0927  0.3157  0.2309
  889MPD2     H13087   3.607   2.258  13.106 -1.9812  0.7656  0.3370
  889MPD2    H113088   3.455   2.381  12.723  1.8348  0.6050 -0.8314
  889MPD2    H213089   3.683   2.041  12.741 -1.6488 -1.4486  0.1988
  889MPD2    H313090   3.566   2.199  12.619  1.1649 -0.2844  0.3095
  889MPD2     N13091   3.450   2.433  12.992  0.0986 -0.0480  0.5193
  889MPD2    H513092   3.442   2.432  13.093  1.5822 -1.0894  0.6244
  889MPD2    N113093   3.702   2.021  13.003  0.1380 -0.2869  0.2836
  889MPD2    H713094   3.714   1.938  12.947 -2.7069 -2.4932  2.9391
  890MPD2     C13095   2.489   4.206  14.754 -0.0316 -0.6022  0.1905
  890MPD2    C113096   2.605   4.261  14.799 -0.4440  0.5513  0.0774
  890MPD2    C213097   2.689   4.186  14.876 -0.1638  0.3618 -0.0789
  890MPD2    C313098   2.667   4.053  14.904 -0.3564  0.0953 -0.9519
  890MPD2    C413099   2.549   4.002  14.848  0.0896  0.1115 -0.0141
  890MPD2    C513100   2.462   4.073  14.772  0.7456 -0.2103 -0.1158
  890MPD2     H13101   2.783   4.226  14.912 -1.4853  1.2824  2.3269
  890MPD2    H113102   2.520   3.898  14.849  3.4902 -0.8622 -1.2955
  890MPD2    H213103   2.426   4.274  14.699 -1.5423 -2.5549 -0.5007
  890MPD2    H313104   2.370   4.033  14.732  0.3277 -0.7781  1.3929
  890MPD2     N13105   2.766   3.970  14.971  0.2089 -0.0140  1.0514
  890MPD2    H513106   2.860   4.010  14.979  0.7483 -0.6360 -2.0696
  890MPD2    N113107   2.629   4.393  14.761  0.5196  0.6078  0.3010
  890MPD2    H713108   2.567   4.434  14.692  0.2097 -0.1173  0.1457
  891MPD2     C13109   0.628   2.086  16.614  0.4241  0.8778  0.4963
  891MPD2    C113110   0.606   2.221  16.599  0.3850 -0.1016  0.7673
  891MPD2    C213111   0.715   2.312  16.603 -0.1589  0.6008 -0.2341
  891MPD2    C313112   0.844   2.272  16.639  0.0629  0.0753 -0.3036
  891MPD2    C413113   0.872   2.136  16.643  0.0071 -0.1445  0.2408
  891MPD2    C513114   0.765   2.048  16.625 -0.0482  0.0189  0.2008
  891MPD2     H13115   0.699   2.419  16.601 -0.9214  0.4726 -0.9789
  891MPD2    H113116   0.972   2.093  16.641 -0.5767 -1.4481 -2.0953
  891MPD2    H213117   0.555   2.006  16.608  1.2387  0.1830 -0.0765
  891MPD2    H313118   0.780   1.943  16.647  1.7501  0.3759  0.6845
  891MPD2     N13119   0.938   2.376  16.652 -0.4444 -0.0851  0.7102
  891MPD2    H513120   0.897   2.469  16.661  1.8136  0.8520  1.2430
  891MPD2    N113121   0.467   2.260  16.581 -0.3916 -0.1531 -0.2614
  891MPD2    H713122   0.399   2.186  16.595 -1.2521  0.7535  0.3118
  892MPD2     C13123   1.529   3.382  15.288 -0.0706 -0.0319 -0.2320
  892MPD2    C113124   1.435   3.436  15.206  0.5915  0.7541 -0.3244
  892MPD2    C213125   1.444   3.418  15.069  0.5516  0.2307  0.2265
  892MPD2    C313126   1.545   3.343  15.014 -1.1107 -0.4686  0.6429
  892MPD2    C413127   1.647   3.302  15.091 -0.0852 -0.5945 -0.4760
  892MPD2    C513128   1.632   3.319  15.226 -0.5265 -0.3565 -0.4005
  892MPD2     H13129   1.373   3.469  15.005  0.1627 -1.7752 -0.9438
  892MPD2    H113130   1.732   3.270  15.032 -0.2465 -0.2294 -0.9041
  892MPD2    H213131   1.533   3.393  15.396  0.5038 -2.9793  0.0569
  892MPD2    H313132   1.714   3.290  15.291  0.0482 -1.3662 -1.5978
  892MPD2     N13133   1.564   3.318  14.874  0.3263  0.7166  0.4294
  892MPD2    H513134   1.658   3.286  14.851  0.2196  0.1419  0.7821
  892MPD2    N113135   1.319   3.502  15.273 -0.2732  0.2258 -0.0428
  892MPD2    H713136   1.305   3.483  15.372 -0.9938 -0.5909 -0.3078
  893MPD2     C13137   3.556   1.752   1.869 -0.7204 -0.0164 -0.2762
  893MPD2    C113138   3.514   1.862   1.793  0.0809 -0.2589  0.3558
  893MPD2    C213139   3.375   1.888   1.782  0.1288 -0.5613 -0.1011
  893MPD2    C313140   3.288   1.808   1.853  0.4416 -0.8926 -0.5188
  893MPD2    C413141   3.333   1.705   1.935  0.2136 -0.6856  0.3621
  893MPD2    C513142   3.467   1.684   1.945  0.0580  0.2115 -0.2234
  893MPD2     H13143   3.339   1.965   1.714 -1.3692 -2.2737 -1.2563
  893MPD2    H113144   3.262   1.646   1.993 -0.4652  1.6576  1.8855
  893MPD2    H213145   3.660   1.721   1.872 -0.2860  1.2384 -1.8983
  893MPD2    H313146   3.504   1.604   2.009 -0.8539  0.3180  0.4296
  893MPD2     N13147   3.152   1.824   1.866 -0.3713  0.1400 -0.3156
  893MPD2    H513148   3.103   1.749   1.914 -0.7139 -0.0433 -0.9442
  893MPD2    N113149   3.615   1.923   1.720  0.0193  0.0009  0.1685
  893MPD2    H713150   3.706   1.882   1.737  0.6149  2.3624  2.6957
  894MPD2     C13151   1.881   4.300   0.835  0.0923 -0.0302  0.3770
  894MPD2    C113152   1.923   4.313   0.963  0.2570 -0.9564  0.2938
  894MPD2    C213153   1.982   4.434   1.002  0.0276  0.7363 -0.8781
  894MPD2    C313154   1.996   4.541   0.914 -0.1306 -0.0482 -0.5114
  894MPD2    C413155   1.948   4.523   0.783  0.7282  0.4652 -0.1367
  894MPD2    C513156   1.892   4.403   0.754  0.1136  0.9417 -0.2550
  894MPD2     H13157   2.011   4.443   1.106  0.8907  3.3260 -1.3371
  894MPD2    H113158   1.949   4.592   0.700  0.4579 -0.6587 -1.0739
  894MPD2    H213159   1.852   4.208   0.784 -0.8825 -0.1920  1.2174
  894MPD2    H313160   1.851   4.387   0.655 -0.0336  1.6617 -0.3074
  894MPD2     N13161   2.062   4.664   0.953 -0.2649  0.2628 -0.5153
  894MPD2    H513162   2.104   4.671   1.045  1.0270  0.4599 -1.1160
  894MPD2    N113163   1.891   4.222   1.061  0.1479  0.4728  0.2320
  894MPD2    H713164   1.927   4.237   1.155  0.0300  1.8997  0.0532
  895MPD2     C13165   1.796   1.733  14.092  0.5167  0.0393 -0.4793
  895MPD2    C113166   1.777   1.803  13.976 -0.3926 -0.5942 -0.3037
  895MPD2    C213167   1.807   1.744  13.857 -0.0851 -0.0467  0.0003
  895MPD2    C313168   1.845   1.615  13.855  0.3774  0.1266  0.4143
  895MPD2    C413169   1.863   1.545  13.972 -0.7099 -0.0866  0.2812
  895MPD2    C513170   1.847   1.607  14.097 -0.0882  0.2301 -0.0209
  895MPD2     H13171   1.787   1.805  13.770  2.9440 -1.1765 -1.4832
  895MPD2    H113172   1.884   1.439  13.968 -1.8761 -0.3320  0.6030
  895MPD2    H213173   1.769   1.769  14.190 -1.7039  2.5078 -1.9983
  895MPD2    H313174   1.859   1.557  14.192 -1.1306  1.8090  0.9592
  895MPD2     N13175   1.833   1.557  13.729  0.0221 -0.0637  0.4803
  895MPD2    H513176   1.792   1.610  13.653 -0.4092  2.0428  2.2072
  895MPD2    N113177   1.715   1.930  13.967 -0.3910 -0.0230 -0.3331
  895MPD2    H713178   1.693   1.962  13.874 -0.2003  2.4963  0.4882
  896MPD2     C13179   3.788   0.365   1.269  0.1269  0.2514  0.5475
  896MPD2    C113180   3.728   0.367   1.138  0.2463 -0.2545  0.1438
  896MPD2    C213181   3.614   0.304   1.120  1.0026 -0.1325  0.1102
  896MPD2    C313182   3.537   0.253   1.228  0.1768 -1.1384 -0.6261
  896MPD2    C413183   3.596   0.243   1.349  0.5608  0.3537 -0.1117
  896MPD2    C513184   3.723   0.294   1.370  0.0761  0.1924  0.4221
  896MPD2     H13185   3.574   0.301   1.019  1.3421  0.3315 -0.0400
  896MPD2    H113186   3.557   0.194   1.437 -2.7876  1.4095 -1.0136
  896MPD2    H213187   3.881   0.418   1.284 -0.1283  1.3675 -1.7729
  896MPD2    H313188   3.777   0.276   1.462  0.6414 -1.5990 -0.2667
  896MPD2     N13189   3.405   0.216   1.196  0.1027  0.2962 -0.2164
  896MPD2    H513190   3.373   0.203   1.101  1.9035 -2.0694 -0.5164
  896MPD2    N113191   3.792   0.440   1.038 -0.0078 -0.2368 -0.2495
  896MPD2    H713192   3.870   0.493   1.076 -0.3363 -0.4854  0.7757
  897MPD2     C13193   4.160   1.394  10.309 -0.6350 -0.5238 -0.5680
  897MPD2    C113194   4.082   1.503  10.271 -0.4921  0.5458 -0.0715
  897MPD2    C213195   3.973   1.525  10.359  0.5820 -0.5571  0.4154
  897MPD2    C313196   3.953   1.457  10.476 -0.2088 -0.3751 -0.5739
  897MPD2    C413197   4.037   1.348  10.510  0.4968  0.1559 -0.4413
  897MPD2    C513198   4.133   1.316  10.422  0.3192  0.0194 -0.6265
  897MPD2     H13199   3.923   1.620  10.343  0.7401 -0.6634 -0.6830
  897MPD2    H113200   4.018   1.271  10.583 -1.1539  1.0144  0.0454
  897MPD2    H213201   4.243   1.362  10.246  0.2325 -1.0696  0.8367
  897MPD2    H313202   4.193   1.228  10.440 -0.3357  0.0358  1.7490
  897MPD2     N13203   3.849   1.500  10.558  0.6102  0.4940  0.4293
  897MPD2    H513204   3.806   1.583  10.519 -0.6022 -0.8631 -1.0956
  897MPD2    N113205   4.115   1.584  10.160 -0.0691  0.0232  0.3043
  897MPD2    H713206   4.194   1.559  10.101  0.9083 -0.2222  1.7141
  898MPD2     C13207   0.908   3.205  17.552 -0.0216  0.5588  0.1733
  898MPD2    C113208   1.040   3.195  17.560  0.0902  0.3169 -0.4746
  898MPD2    C213209   1.110   3.311  17.559 -0.1815  0.4239 -0.0836
  898MPD2    C313210   1.048   3.434  17.556 -0.5516 -0.2247 -0.0847
  898MPD2    C413211   0.907   3.438  17.553  0.1909  0.0224 -0.5241
  898MPD2    C513212   0.838   3.326  17.553 -0.0760  0.3387 -0.8629
  898MPD2     H13213   1.218   3.311  17.555 -0.2150 -1.6633 -1.0895
  898MPD2    H113214   0.849   3.529  17.540 -0.1163  0.1072  1.4721
  898MPD2    H213215   0.841   3.120  17.549  2.4644 -1.3832  0.0691
  898MPD2    H313216   0.732   3.331  17.571  0.1089  0.3368  0.2540
  898MPD2     N13217   1.124   3.559  17.550 -0.2612  0.2848  0.0246
  898MPD2    H513218   1.224   3.545  17.551 -0.1452  1.1346  0.4932
  898MPD2    N113219   1.110   3.081  17.568 -0.7841  0.7241  0.3093
  898MPD2    H713220   1.211   3.091  17.562 -0.8821  1.0876 -0.8537
  899MPD2     C13221   2.211   3.423  17.087 -0.6491  0.3179  0.6164
  899MPD2    C113222   2.245   3.516  17.180 -1.0875 -0.2494  0.1851
  899MPD2    C213223   2.209   3.502  17.309 -0.2464  0.6232 -0.4626
  899MPD2    C313224   2.147   3.385  17.358 -0.0308 -0.3471 -0.8114
  899MPD2    C413225   2.118   3.288  17.268 -0.7538 -0.2382 -0.3989
  899MPD2    C513226   2.151   3.311  17.133  0.1367 -0.1101 -0.6561
  899MPD2     H13227   2.232   3.580  17.380 -0.5790  0.3034  0.0057
  899MPD2    H113228   2.080   3.189  17.292  0.3473  0.1132  2.7285
  899MPD2    H213229   2.243   3.425  16.984 -2.3754 -1.6960  0.0395
  899MPD2    H313230   2.140   3.233  17.058 -0.3467  0.4893 -1.2066
  899MPD2     N13231   2.114   3.358  17.493 -0.2105 -0.0472 -0.8772
  899MPD2    H513232   2.064   3.272  17.513  0.5074 -0.1286  0.5619
  899MPD2    N113233   2.299   3.633  17.120  0.7735 -0.2441 -0.2366
  899MPD2    H713234   2.293   3.639  17.019  1.1947  0.0511 -0.2448
  900MPD2     C13235   2.313   0.282  12.623 -0.0088  0.5214 -0.2744
  900MPD2    C113236   2.293   0.147  12.611  0.6918 -0.4532  0.2872
  900MPD2    C213237   2.187   0.097  12.530  0.7631 -0.1839  0.0223
  900MPD2    C313238   2.116   0.185  12.450 -0.8973  0.3555 -0.5555
  900MPD2    C413239   2.145   0.318  12.442  0.3039  0.1661  0.0304
  900MPD2    C513240   2.238   0.368  12.533 -0.3828 -0.1236 -0.1022
  900MPD2     H13241   2.163   4.727  12.530  1.3743 -0.3252  0.6168
  900MPD2    H113242   2.087   0.388  12.384  1.1364  0.2565 -0.6890
  900MPD2    H213243   2.381   0.330  12.693 -0.0491 -1.1788  0.9147
  900MPD2    H313244   2.247   0.476  12.544  0.5691 -0.2960  0.7614
  900MPD2     N13245   2.019   0.133  12.373 -0.0787 -0.6002 -0.4556
  900MPD2    H513246   2.011   0.033  12.392  1.3345 -0.6528 -0.1577
  900MPD2    N113247   2.379   0.065  12.680 -0.0122  0.3815 -0.3492
  900MPD2    H713248   2.450   0.113  12.735  0.8724  2.0256 -2.9304
  901MPD2     C13249   2.420   3.864  13.179 -0.1410  0.8669  0.8060
  901MPD2    C113250   2.536   3.876  13.099  0.2533 -0.2592  0.4348
  901MPD2    C213251   2.570   4.000  13.048 -0.9977  0.6467 -0.1425
  901MPD2    C313252   2.493   4.110  13.092  0.4369  0.3596 -0.2360
  901MPD2    C413253   2.393   4.091  13.186  0.1435 -0.1670 -0.5300
  901MPD2    C513254   2.356   3.969  13.234 -0.2237 -0.4640 -0.6904
  901MPD2     H13255   2.660   4.015  12.989  0.7979 -1.8185  1.9711
  901MPD2    H113256   2.322   4.171  13.204 -0.1192 -0.6923  0.7444
  901MPD2    H213257   2.390   3.763  13.203  1.4959  0.5038  1.2892
  901MPD2    H313258   2.270   3.961  13.299  0.1402  5.4842  0.5833
  901MPD2     N13259   2.522   4.228  13.024  0.4067  0.5724  0.4259
  901MPD2    H513260   2.607   4.228  12.969 -0.4682  1.4762 -0.9523
  901MPD2    N113261   2.581   3.756  13.051  0.4075 -0.6427 -0.0648
  901MPD2    H713262   2.514   3.680  13.055 -0.3831  0.0822  0.5309
  902MPD2     C13263   1.296   2.580  12.811  0.1792 -0.1271  0.4820
  902MPD2    C113264   1.395   2.678  12.813  0.1589  0.3178 -0.2278
  902MPD2    C213265   1.525   2.641  12.771 -0.2313  0.0513 -0.2711
  902MPD2    C313266   1.552   2.509  12.746 -0.1297 -1.0195  0.0990
  902MPD2    C413267   1.459   2.415  12.749 -0.3158  0.3541 -0.0743
  902MPD2    C513268   1.330   2.452  12.772 -0.5258 -0.0794 -0.8090
  902MPD2     H13269   1.602   2.717  12.771  0.9487 -1.1528  1.0544
  902MPD2    H113270   1.469   2.309  12.728  0.9781  1.1955 -3.6737
  902MPD2    H213271   1.192   2.606  12.828 -0.2344 -3.2002  2.7821
  902MPD2    H313272   1.256   2.373  12.780 -2.1177  1.6644  1.6142
  902MPD2     N13273   1.682   2.470  12.708 -0.0741 -0.0753  0.2535
  902MPD2    H513274   1.688   2.374  12.673  0.2943  1.1441 -3.0657
  902MPD2    N113275   1.362   2.811  12.844 -0.4676 -0.2630  0.3956
  902MPD2    H713276   1.266   2.844  12.857 -0.0773  1.3272 -0.7729
  903MPD2     C13277   1.567   3.035  12.486  0.2032 -0.5057  0.3582
  903MPD2    C113278   1.562   2.902  12.448  0.3192 -0.0544  0.0925
  903MPD2    C213279   1.439   2.845  12.433  0.2690 -0.2921 -0.2181
  903MPD2    C313280   1.318   2.920  12.438 -1.1689 -0.4960  0.7037
  903MPD2    C413281   1.327   3.054  12.471  0.5277 -0.1079 -0.1478
  903MPD2    C513282   1.451   3.111  12.501  0.2430  0.2010 -0.7578
  903MPD2     H13283   1.432   2.738  12.422 -0.5497 -0.1105 -1.4533
  903MPD2    H113284   1.239   3.105  12.507  0.9154  1.5120 -1.5232
  903MPD2    H213285   1.661   3.076  12.521  0.6078 -0.7420 -0.4427
  903MPD2    H313286   1.455   3.208  12.549 -1.0131  0.6015 -1.4584
  903MPD2     N13287   1.190   2.856  12.442 -0.2714  0.3742 -0.1873
  903MPD2    H513288   1.191   2.754  12.443 -1.7119  0.3601  0.4541
  903MPD2    N113289   1.683   2.828  12.429 -0.0424 -0.1454  0.9998
  903MPD2    H713290   1.766   2.878  12.458  0.3746  0.2891 -0.9643
  904MPD2     C13291   1.453   1.938  14.393  0.3606 -0.9671  0.2929
  904MPD2    C113292   1.419   2.051  14.315 -0.6630 -0.6139 -0.6421
  904MPD2    C213293   1.453   2.178  14.363 -0.2995  0.6940 -0.0641
  904MPD2    C313294   1.524   2.197  14.477  0.0344 -0.0853  0.4284
  904MPD2    C413295   1.557   2.082  14.545  1.2014  1.1524 -0.1660
  904MPD2    C513296   1.518   1.959  14.509 -0.6852 -1.0669  0.3817
  904MPD2     H13297   1.423   2.265  14.305 -1.1073 -0.8078 -1.8885
  904MPD2    H113298   1.626   2.100  14.627  0.0188  0.0864  1.0565
  904MPD2    H213299   1.406   1.842  14.370 -3.0633  1.0463 -1.2134
  904MPD2    H313300   1.545   1.875  14.572  0.7095 -1.0209 -0.1496
  904MPD2     N13301   1.571   2.331  14.508  0.4747 -0.2078 -0.0269
  904MPD2    H513302   1.537   2.404  14.447  0.9439 -0.5049 -0.6512
  904MPD2    N113303   1.331   2.037  14.203  1.1928  0.2408  0.1984
  904MPD2    H713304   1.307   1.940  14.183  0.5944  0.4543 -0.1196
  905MPD2     C13305   1.049   1.702  13.449 -0.3912  0.3017 -0.3569
  905MPD2    C113306   1.146   1.715  13.542  1.1190  0.4782  0.2049
  905MPD2    C213307   1.265   1.650  13.523 -0.2546 -0.3148  0.4848
  905MPD2    C313308   1.289   1.586  13.404  0.3643 -0.1431  0.0951
  905MPD2    C413309   1.187   1.568  13.310 -0.2663  0.3018  0.1121
  905MPD2    C513310   1.070   1.633  13.336 -0.2583 -0.1935 -0.2498
  905MPD2     H13311   1.340   1.651  13.601 -0.5780 -1.0438  0.8038
  905MPD2    H113312   1.206   1.525  13.212 -1.6427  1.3137 -0.5978
  905MPD2    H213313   0.952   1.747  13.467 -0.3639 -0.0798  0.7894
  905MPD2    H313314   0.989   1.636  13.264 -0.1864 -1.0486 -0.3631
  905MPD2     N13315   1.418   1.536  13.364 -0.5945 -0.0390  0.0968
  905MPD2    H513316   1.425   1.472  13.286  0.1674 -0.2031  0.3035
  905MPD2    N113317   1.119   1.800  13.653  0.5192 -1.1003  0.3523
  905MPD2    H713318   1.027   1.842  13.655 -0.0504 -2.3113 -0.6206
  906MPD2     C13319   2.725   2.202  11.088 -0.7252 -0.3035 -0.6467
  906MPD2    C113320   2.621   2.157  11.004  0.1307  0.7461  0.2323
  906MPD2    C213321   2.528   2.075  11.055 -0.3863 -0.0325  0.0622
  906MPD2    C313322   2.535   2.019  11.183 -0.0073 -0.2267  0.5638
  906MPD2    C413323   2.632   2.077  11.264  0.0813 -0.2282 -0.5418
  906MPD2    C513324   2.725   2.168  11.221  0.3001  0.4102 -0.9988
  906MPD2     H13325   2.459   2.030  10.984 -1.4000  0.3582  0.8068
  906MPD2    H113326   2.643   2.043  11.367  0.7427 -1.8899 -1.1549
  906MPD2    H213327   2.794   2.280  11.059 -0.6818 -0.5972 -1.3174
  906MPD2    H313328   2.796   2.212  11.289  0.4953  0.0326 -0.9611
  906MPD2     N13329   2.454   1.913  11.237 -0.0748  0.0498  0.2864
  906MPD2    H513330   2.472   1.902  11.336  1.1216  0.3767  0.1095
  906MPD2    N113331   2.624   2.182  10.862  0.1400  0.5720  0.6091
  906MPD2    H713332   2.560   2.131  10.803  0.9307  1.6831 -1.2231
  907MPD2     C13333   1.497   1.546  15.911 -1.1327 -0.2412 -0.6269
  907MPD2    C113334   1.541   1.414  15.903  0.5536 -0.0897 -0.0889
  907MPD2    C213335   1.642   1.363  15.989  0.6767  0.2198 -0.4139
  907MPD2    C313336   1.712   1.447  16.075 -0.9346  0.3298  0.6643
  907MPD2    C413337   1.678   1.582  16.064 -0.1066 -0.1241  0.3255
  907MPD2    C513338   1.572   1.632  15.986  0.1428 -0.2751 -0.7661
  907MPD2     H13339   1.667   1.258  15.985 -0.0640  0.1581 -3.2236
  907MPD2    H113340   1.737   1.664  16.102  2.5271 -2.0273  0.3301
  907MPD2    H213341   1.412   1.578  15.852 -0.4642  2.8054  0.0541
  907MPD2    H313342   1.556   1.738  15.978 -1.0003 -0.6355 -3.2642
  907MPD2     N13343   1.804   1.394  16.174  0.1520  0.4946  0.3734
  907MPD2    H513344   1.824   1.295  16.164 -0.9706  0.2721  0.3344
  907MPD2    N113345   1.507   1.329  15.796  0.5323  0.2560  0.5872
  907MPD2    H713346   1.561   1.244  15.803  0.9547  0.2343 -2.7862
  908MPD2     C13347   3.620   1.221   9.571 -0.3050  0.0516  0.4353
  908MPD2    C113348   3.755   1.215   9.581  0.3719  0.1366  0.4680
  908MPD2    C213349   3.818   1.312   9.657  1.0453  0.4506  0.2298
  908MPD2    C313350   3.751   1.422   9.699 -0.1170 -0.1025  0.2195
  908MPD2    C413351   3.618   1.430   9.668  0.2631  0.2544  0.3954
  908MPD2    C513352   3.547   1.328   9.619 -0.5538  0.4879  0.1978
  908MPD2     H13353   3.924   1.297   9.672  0.5007 -1.4387  2.1424
  908MPD2    H113354   3.560   1.515   9.703 -0.7482 -0.3341  0.1300
  908MPD2    H213355   3.573   1.142   9.514  0.9019 -0.4342  0.1199
  908MPD2    H313356   3.446   1.344   9.586  0.1128 -0.9038 -2.5090
  908MPD2     N13357   3.829   1.524   9.752 -0.4633  0.2554  0.1545
  908MPD2    H513358   3.924   1.498   9.776 -0.4917 -0.3825 -0.4381
  908MPD2    N113359   3.827   1.117   9.506 -0.2541 -0.0816  0.6885
  908MPD2    H713360   3.770   1.059   9.445 -1.1652  2.4222 -0.8310
  909MPD2     C13361   0.364   4.504  11.816 -0.0061 -0.3996 -0.7715
  909MPD2    C113362   0.300   4.591  11.719 -0.2484  0.7163 -0.1752
  909MPD2    C213363   0.165   4.623  11.746 -0.1995 -0.2658  0.3043
  909MPD2    C313364   0.098   4.581  11.855  0.0471  0.6779  0.4534
  909MPD2    C413365   0.159   4.492  11.938 -0.3383  0.7195 -0.6198
  909MPD2    C513366   0.290   4.448  11.917 -0.1898 -0.2829 -0.4977
  909MPD2     H13367   0.122   4.694  11.677 -0.6429 -0.2756  0.5677
  909MPD2    H113368   0.110   4.457  12.028  0.8390  0.6794 -0.0008
  909MPD2    H213369   0.467   4.471  11.806 -0.4859 -1.9096 -0.7849
  909MPD2    H313370   0.336   4.383  11.990  0.3685  0.3683 -0.2722
  909MPD2     N13371   4.707   4.640  11.881  0.5763 -0.6712 -0.1202
  909MPD2    H513372   4.668   4.696  11.805  0.0261 -0.8973 -0.0067
  909MPD2    N113373   0.366   4.655  11.611  0.0475  0.1598 -0.5413
  909MPD2    H713374   0.322   0.001  11.570 -1.2496 -0.5085 -0.4764
  910MPD2     C13375   1.098   2.160  16.293 -0.9536 -0.4823 -0.4772
  910MPD2    C113376   1.136   2.069  16.202 -0.4617 -0.2226  0.5823
  910MPD2    C213377   1.071   2.086  16.076 -0.5347  0.4722 -0.7518
  910MPD2    C313378   0.982   2.190  16.045 -0.6967  0.2594 -0.1141
  910MPD2    C413379   0.954   2.281  16.147  0.1866  0.5011  0.3266
  910MPD2    C513380   1.011   2.264  16.269  0.9907 -0.2922 -0.4599
  910MPD2     H13381   1.098   2.019  15.995  1.4140 -0.1010  0.3742
  910MPD2    H113382   0.902   2.374  16.129 -0.0674  0.3460  0.2591
  910MPD2    H213383   1.136   2.155  16.394 -0.2996  2.7497 -0.5348
  910MPD2    H313384   0.985   2.334  16.347  1.5835 -0.6453  0.0521
  910MPD2     N13385   0.912   2.217  15.926  0.8727  0.2494 -0.1285
  910MPD2    H513386   0.842   2.290  15.935 -0.2091 -0.6132 -1.6756
  910MPD2    N113387   1.218   1.959  16.222  0.5259 -0.5930  0.3381
  910MPD2    H713388   1.232   1.903  16.139  0.4633 -2.2541  1.4408
  911MPD2     C13389   3.943   2.973  16.456  0.2102  0.4084  0.0850
  911MPD2    C113390   3.871   2.870  16.399  0.4835 -0.2079  0.4316
  911MPD2    C213391   3.762   2.898  16.315 -0.6370  0.0041 -0.4365
  911MPD2    C313392   3.717   3.031  16.304  0.3490 -0.2662 -0.1709
  911MPD2    C413393   3.795   3.134  16.365 -0.0567  0.0368 -0.4783
  911MPD2    C513394   3.911   3.099  16.424 -0.0146 -0.8584  0.2961
  911MPD2     H13395   3.700   2.824  16.266 -0.4433 -0.7563  0.4560
  911MPD2    H113396   3.765   3.237  16.383 -2.6303 -0.4675 -1.8133
  911MPD2    H213397   4.029   2.947  16.517  2.1360  3.8337 -1.1532
  911MPD2    H313398   3.973   3.176  16.468 -2.3711  1.1041  0.1907
  911MPD2     N13399   3.593   3.056  16.241 -0.0764  0.3606 -0.1643
  911MPD2    H513400   3.538   2.973  16.219  0.0321  0.5709 -1.2402
  911MPD2    N113401   3.906   2.733  16.427  0.0366 -0.2903  0.4444
  911MPD2    H713402   3.973   2.713  16.500  1.9568  2.2155 -0.6362
  912MPD2     C13403   3.216   2.607  15.965  1.2527  0.5110  0.0631
  912MPD2    C113404   3.206   2.674  16.085  0.0602  0.4694  1.0126
  912MPD2    C213405   3.216   2.606  16.205 -0.0695 -0.1833 -0.1904
  912MPD2    C313406   3.237   2.469  16.212  0.2763  0.6163 -0.2265
  912MPD2    C413407   3.232   2.396  16.097 -0.2711 -0.4627 -0.0405
  912MPD2    C513408   3.210   2.472  15.976 -0.2876  0.0342 -0.1716
  912MPD2     H13409   3.213   2.658  16.300  3.1016  0.2344 -0.3178
  912MPD2    H113410   3.225   2.287  16.093  0.9209 -0.5953  1.4513
  912MPD2    H213411   3.212   2.658  15.869  0.0957  1.0911  0.4207
  912MPD2    H313412   3.193   2.420  15.882 -1.1271 -3.5790  1.9998
  912MPD2     N13413   3.242   2.407  16.343 -0.3267  0.1647 -0.0542
  912MPD2    H513414   3.213   2.470  16.417  1.1011  0.2110  0.4669
  912MPD2    N113415   3.201   2.812  16.076  0.0167 -0.2442  0.3673
  912MPD2    H713416   3.215   2.850  15.983 -0.8321 -2.3884 -0.6351
  913MPD2     C13417   4.266   2.770  10.929  0.6956  0.0628 -0.2821
  913MPD2    C113418   4.292   2.901  10.940 -0.1685  0.7314  0.0654
  913MPD2    C213419   4.265   2.990  10.837  0.7778 -0.0901 -0.1448
  913MPD2    C313420   4.216   2.946  10.719  0.7464  0.0437 -0.5952
  913MPD2    C413421   4.162   2.822  10.720  0.2091 -0.7100  0.3290
  913MPD2    C513422   4.196   2.738  10.815  0.1716  0.2003  0.0861
  913MPD2     H13423   4.288   3.095  10.852  1.3530 -0.4887  1.8112
  913MPD2    H113424   4.094   2.793  10.641 -0.2291  1.7988 -0.2171
  913MPD2    H213425   4.290   2.690  10.997 -0.9121  1.1272  1.5274
  913MPD2    H313426   4.163   2.635  10.826 -2.4238  1.2599  2.3010
  913MPD2     N13427   4.183   3.023  10.609 -0.6432 -0.4263  0.2222
  913MPD2    H513428   4.129   2.978  10.536 -1.6370  1.1200 -0.0049
  913MPD2    N113429   4.349   2.939  11.066  0.0192 -0.6257 -0.7865
  913MPD2    H713430   4.385   2.861  11.120  0.2294  1.3345  1.9179
  914MPD2     C13431   2.050   3.656  12.345 -0.4603  0.3364  0.1214
  914MPD2    C113432   2.123   3.758  12.403 -0.3902 -0.1632 -0.1706
  914MPD2    C213433   2.229   3.733  12.488  0.3405 -0.2990  0.2860
  914MPD2    C313434   2.265   3.603  12.528  0.0619  0.0432 -0.0284
  914MPD2    C413435   2.187   3.496  12.470  0.0379 -0.0396  0.3057
  914MPD2    C513436   2.080   3.531  12.382 -0.4980  0.7728 -0.7862
  914MPD2     H13437   2.271   3.822  12.534 -0.2940  1.2461 -2.1344
  914MPD2    H113438   2.211   3.390  12.478  0.6634 -0.0057 -1.1567
  914MPD2    H213439   1.957   3.674  12.293  0.0732  0.4829 -0.7725
  914MPD2    H313440   2.017   3.452  12.343  0.3611 -0.8931  1.1952
  914MPD2     N13441   2.377   3.594  12.609 -0.1488  0.0605  0.3097
  914MPD2    H513442   2.427   3.680  12.629 -0.6120  0.6171 -0.9712
  914MPD2    N113443   2.075   3.886  12.371  0.2507 -0.1764 -0.4427
  914MPD2    H713444   1.993   3.892  12.311 -0.7594 -2.1658  0.7431
  915MPD2     C13445   4.689   4.185  15.477 -0.4177 -0.2662  0.2192
  915MPD2    C113446   4.551   4.207  15.502  0.2163 -0.5008  0.5449
  915MPD2    C213447   4.512   4.297  15.596 -0.0746  0.4817 -0.4613
  915MPD2    C313448   4.603   4.356  15.674  0.6001  0.1780 -0.1760
  915MPD2    C413449   4.735   4.323  15.658 -0.1911 -0.2587 -0.4421
  915MPD2    C513450   0.042   4.240  15.552 -0.5552  0.3798  1.1059
  915MPD2     H13451   4.407   4.322  15.608 -0.2010 -1.3409  2.2777
  915MPD2    H113452   0.078   4.372  15.713 -1.8579  1.4255  0.4417
  915MPD2    H213453   4.718   4.115  15.399  1.0568  0.6168 -0.0328
  915MPD2    H313454   0.146   4.210  15.542  0.0149  3.2043 -1.1472
  915MPD2     N13455   4.549   4.459  15.766 -0.7709  0.9522  1.1279
  915MPD2    H513456   4.448   4.464  15.768 -0.9162 -1.0689 -0.6383
  915MPD2    N113457   4.457   4.142  15.414 -1.0711  0.0879  0.0154
  915MPD2    H713458   4.493   4.066  15.356  0.6031  0.5648  0.4513
  916MPD2     C13459   2.742   2.352  15.630 -0.6972 -0.1306 -0.2665
  916MPD2    C113460   2.818   2.264  15.700  0.9806 -0.0455 -0.3556
  916MPD2    C213461   2.844   2.144  15.641  0.0489 -0.2036  0.2030
  916MPD2    C313462   2.789   2.108  15.520  0.4522  1.4195 -0.0764
  916MPD2    C413463   2.724   2.200  15.451  0.4404 -0.1482  0.2044
  916MPD2    C513464   2.690   2.323  15.510 -0.5030 -0.6810 -0.6031
  916MPD2     H13465   2.900   2.068  15.695 -1.3113  0.1345  2.0806
  916MPD2    H113466   2.694   2.181  15.349  1.4634  1.2198 -0.3492
  916MPD2    H213467   2.717   2.451  15.666  0.9562  0.6521 -1.2695
  916MPD2    H313468   2.620   2.390  15.461  0.6946  1.0027 -0.0139
  916MPD2     N13469   2.813   1.973  15.471 -0.3060 -0.1496 -0.9063
  916MPD2    H513470   2.867   1.915  15.534  1.1631  0.5782 -1.4760
  916MPD2    N113471   2.858   2.304  15.830 -0.0411  0.0155 -0.1802
  916MPD2    H713472   2.816   2.386  15.872  2.1180  0.6829  0.7056
  917MPD2     C13473   3.062   4.347  11.226  0.4073 -0.2540 -0.1919
  917MPD2    C113474   3.074   4.447  11.318  0.6149  0.1899 -0.0524
  917MPD2    C213475   3.146   4.562  11.281  0.3429  0.3211 -0.1682
  917MPD2    C313476   3.210   4.569  11.161 -0.4031  0.7762  0.4567
  917MPD2    C413477   3.203   4.466  11.070 -0.4850  0.0071  0.5378
  917MPD2    C513478   3.121   4.362  11.097 -0.1949  0.6903 -1.3763
  917MPD2     H13479   3.138   4.647  11.347  0.5083 -0.6025  1.0288
  917MPD2    H113480   3.253   4.469  10.974  1.2992 -1.1408  1.4161
  917MPD2    H213481   3.000   4.264  11.258  0.4112  0.1064  0.7768
  917MPD2    H313482   3.099   4.284  11.024 -0.3644  1.3867 -2.0709
  917MPD2     N13483   3.288   4.682  11.121 -0.1594  0.5315 -0.3569
  917MPD2    H513484   3.306   4.700  11.022  0.1263  1.2789 -0.1667
  917MPD2    N113485   3.017   4.429  11.443 -0.4579 -0.5164 -0.2034
  917MPD2    H713486   2.962   4.345  11.461  0.2769 -1.5004 -2.5259
  918MPD2     C13487   3.126   0.260  12.274 -1.2227  0.0015  0.8488
  918MPD2    C113488   3.237   0.200  12.219 -0.2232 -0.7459  0.5665
  918MPD2    C213489   3.210   0.087  12.137 -0.2444  0.2262  0.5612
  918MPD2    C313490   3.081   0.046  12.108 -0.1065  0.1107  0.0563
  918MPD2    C413491   2.978   0.106  12.181 -0.2530  0.5990 -0.0573
  918MPD2    C513492   3.003   0.213  12.265 -0.7052 -0.3280 -0.2055
  918MPD2     H13493   3.294   0.041  12.087  0.2935 -0.1018  1.7613
  918MPD2    H113494   2.881   0.057  12.187 -0.0129  0.5397  3.4074
  918MPD2    H213495   3.129   0.352  12.331  0.0715  0.4790 -0.0018
  918MPD2    H313496   2.918   0.261  12.312  0.7058  0.7708  1.1967
  918MPD2     N13497   3.062   4.677  12.011 -0.6162  0.6967 -0.4909
  918MPD2    H513498   3.143   4.650  11.956 -0.9296 -2.2886  0.5155
  918MPD2    N113499   3.370   0.246  12.220  0.8040 -0.2281  0.4128
  918MPD2    H713500   3.432   0.198  12.155 -0.8740  0.0419 -1.3861
  919MPD2     C13501   4.077   2.885  11.615 -0.3741  0.0908  0.3398
  919MPD2    C113502   4.023   2.770  11.556  0.4052  0.1142 -0.2001
  919MPD2    C213503   3.988   2.779  11.426  0.5839 -0.5482 -0.1856
  919MPD2    C313504   4.020   2.890  11.347  0.2340 -0.3346 -0.1889
  919MPD2    C413505   4.079   2.997  11.406 -0.4101 -0.2612  0.1943
  919MPD2    C513506   4.090   3.002  11.545 -0.2330 -0.6666 -0.2047
  919MPD2     H13507   3.929   2.697  11.387 -1.1204 -0.8134  2.9004
  919MPD2    H113508   4.108   3.088  11.355  0.6948 -0.2614  0.8259
  919MPD2    H213509   4.113   2.888  11.718 -1.4707  0.7269  0.7015
  919MPD2    H313510   4.141   3.085  11.593 -1.7038  0.8196 -1.2306
  919MPD2     N13511   4.006   2.901  11.205  0.0409 -0.0832 -0.4938
  919MPD2    H513512   4.007   2.994  11.165  1.4099 -0.1200 -0.5345
  919MPD2    N113513   3.995   2.646  11.626 -0.7942  0.6584 -0.1662
  919MPD2    H713514   3.963   2.562  11.579 -1.2141  0.3250  0.6986
  920MPD2     C13515   3.759   3.555  10.522 -0.1160 -0.0308 -0.4456
  920MPD2    C113516   3.663   3.459  10.515  0.3113  0.2193  0.3320
  920MPD2    C213517   3.664   3.340  10.585 -0.4295  0.6696 -0.6139
  920MPD2    C313518   3.769   3.326  10.666 -0.9474 -0.5651 -0.3868
  920MPD2    C413519   3.866   3.422  10.686 -0.1327  0.0381 -1.3001
  920MPD2    C513520   3.862   3.534  10.607  0.5291  0.4006  0.3917
  920MPD2     H13521   3.584   3.267  10.571 -1.2484  1.4845 -0.1830
  920MPD2    H113522   3.958   3.398  10.739 -0.1006 -0.8607 -1.7611
  920MPD2    H213523   3.771   3.629  10.444 -2.4548 -0.4055 -1.1546
  920MPD2    H313524   3.943   3.604  10.623  1.1288 -0.0507 -0.6540
  920MPD2     N13525   3.770   3.195  10.718  0.1587  0.3111  0.2435
  920MPD2    H513526   3.689   3.135  10.702  1.1475 -1.2109  0.9266
  920MPD2    N113527   3.546   3.480  10.441 -0.0448 -0.2129 -0.0314
  920MPD2    H713528   3.465   3.420  10.450 -0.5150  0.1030 -2.1992
  921MPD2     C13529   4.630   2.548  16.781  0.1183 -0.5283  0.4543
  921MPD2    C113530   4.609   2.449  16.686  0.2431  0.2510  0.1124
  921MPD2    C213531   4.480   2.430  16.637 -0.7482  0.4724  0.3526
  921MPD2    C313532   4.366   2.487  16.694  0.0222 -0.2101  0.1175
  921MPD2    C413533   4.391   2.588  16.789  0.9569  0.1548  0.0793
  921MPD2    C513534   4.520   2.628  16.817  0.5411 -0.2462  0.2690
  921MPD2     H13535   4.469   2.338  16.580 -0.9300  0.5120  0.3224
  921MPD2    H113536   4.312   2.652  16.825 -0.5911 -0.3138 -2.4545
  921MPD2    H213537   4.731   2.570  16.812  0.4957  0.4295 -1.4148
  921MPD2    H313538   4.530   2.710  16.887  0.8131 -2.0490  2.3653
  921MPD2     N13539   4.234   2.461  16.651 -0.2101 -0.4883 -0.6504
  921MPD2    H513540   4.152   2.509  16.687 -0.0053 -2.3385  2.2538
  921MPD2    N113541   4.719   2.363  16.648 -0.6917  0.0257  0.2845
  921MPD2    H713542   0.069   2.399  16.687 -0.7482  0.8353 -0.3342
  922MPD2     C13543   0.667   0.952  17.321 -0.3326  0.0261 -0.0319
  922MPD2    C113544   0.673   0.979  17.451  0.5448  1.0563  0.0539
  922MPD2    C213545   0.658   0.872  17.541  0.3915 -0.3100  0.2768
  922MPD2    C313546   0.633   0.740  17.501 -0.1425 -0.5478  0.1204
  922MPD2    C413547   0.628   0.718  17.369 -0.3797 -0.3104  0.1432
  922MPD2    C513548   0.639   0.826  17.283 -0.3185 -0.3096 -1.0727
  922MPD2     H13549   0.659   0.903  17.645  1.8270  1.7271 -0.3569
  922MPD2    H113550   0.619   0.621  17.324  0.0574 -0.1525 -0.2848
  922MPD2    H213551   0.665   1.033  17.249 -1.8629 -1.1251 -1.2731
  922MPD2    H313552   0.629   0.815  17.175 -1.1090 -0.0496 -1.0250
  922MPD2     N13553   0.581   0.648  17.600  0.1126 -0.1424 -0.5498
  922MPD2    H513554   0.577   0.681  17.696 -1.6947 -1.1921 -0.2735
  922MPD2    N113555   0.710   1.108  17.508 -0.4409 -0.4613 -0.1200
  922MPD2    H713556   0.717   1.125  17.608 -1.8736 -1.8564  0.2143
  923MPD2     C13557   1.719   1.893   9.240  0.1192 -0.3759 -0.8176
  923MPD2    C113558   1.630   1.987   9.289 -0.0595  0.1445  0.1639
  923MPD2    C213559   1.689   2.103   9.340 -0.1796  0.1793 -0.2034
  923MPD2    C313560   1.824   2.120   9.359 -0.0889  0.9720  0.0296
  923MPD2    C413561   1.900   2.019   9.309  0.1129 -0.3846 -0.6418
  923MPD2    C513562   1.854   1.905   9.246 -0.4821 -0.6235 -0.2176
  923MPD2     H13563   1.625   2.189   9.358  0.3154  0.7516 -1.1747
  923MPD2    H113564   2.008   2.026   9.315 -0.0645  0.0664  2.0362
  923MPD2    H213565   1.679   1.804   9.192 -1.3041 -0.7942  1.1828
  923MPD2    H313566   1.912   1.826   9.201 -1.9500  0.4190 -3.9361
  923MPD2     N13567   1.878   2.233   9.415 -0.1824 -0.9343  0.1378
  923MPD2    H513568   1.976   2.233   9.439 -0.3493 -1.5022  0.8237
  923MPD2    N113569   1.488   1.970   9.278 -0.3346  0.0162  0.8558
  923MPD2    H713570   1.455   1.876   9.258  0.1183  0.3886 -1.7371
  924MPD2     C13571   1.978   0.759  16.021 -0.9254  0.3698 -0.5003
  924MPD2    C113572   1.973   0.764  16.157  0.5058 -0.3375 -0.3335
  924MPD2    C213573   2.035   0.868  16.222  0.2740 -0.5296  0.2878
  924MPD2    C313574   2.106   0.964  16.149  0.0863  0.2150 -0.0617
  924MPD2    C413575   2.111   0.960  16.014  0.5579  0.6872  0.5509
  924MPD2    C513576   2.045   0.860  15.950 -0.2642 -0.2159  0.2185
  924MPD2     H13577   2.029   0.868  16.330 -1.4031 -0.5400  0.1822
  924MPD2    H113578   2.170   1.034  15.960  1.2847 -0.1092  0.2516
  924MPD2    H213579   1.937   0.679  15.960 -0.3896 -0.2435 -0.0564
  924MPD2    H313580   2.044   0.871  15.842 -1.6283  1.6498  0.4198
  924MPD2     N13581   2.154   1.086  16.212  0.3861  0.9827  0.8386
  924MPD2    H513582   2.199   1.154  16.151 -0.5801  0.4226 -0.4937
  924MPD2    N113583   1.913   0.668  16.242 -0.0465  0.3557  0.1501
  924MPD2    H713584   1.915   0.685  16.342  2.7457 -0.2129  0.1951
  925MPD2     C13585   0.557   3.495  15.023 -0.5534  0.6367  0.1007
  925MPD2    C113586   0.439   3.481  14.967 -0.2428  0.4876  0.0625
  925MPD2    C213587   0.326   3.463  15.043 -0.9490 -0.5852  0.1086
  925MPD2    C313588   0.326   3.468  15.179  0.1387 -0.4558 -0.3245
  925MPD2    C413589   0.448   3.497  15.239 -0.2673  0.5227 -0.6742
  925MPD2    C513590   0.561   3.500  15.154  0.6573  0.0986 -0.1995
  925MPD2     H13591   0.231   3.457  14.991 -1.4491  3.1275  0.6300
  925MPD2    H113592   0.456   3.495  15.347  1.7431  1.4865 -0.8151
  925MPD2    H213593   0.652   3.507  14.973 -0.1198 -0.4202  0.6883
  925MPD2    H313594   0.661   3.514  15.193  1.3462 -1.7891 -1.3037
  925MPD2     N13595   0.215   3.449  15.261 -0.2498 -0.1663 -0.1368
  925MPD2    H513596   0.228   3.448  15.361  2.3553 -1.8302 -0.4977
  925MPD2    N113597   0.428   3.458  14.826  0.0473  0.0826  0.1249
  925MPD2    H713598   0.336   3.419  14.805 -0.9442  1.8654  1.1463
  926MPD2     C13599   0.281   1.404  13.051 -0.7222 -0.2074  0.1433
  926MPD2    C113600   0.168   1.486  13.068  0.2796  0.8072  0.2923
  926MPD2    C213601   0.138   1.588  12.982  0.1854  0.5430  1.0867
  926MPD2    C313602   0.219   1.618  12.882 -0.4042  0.6064 -0.2158
  926MPD2    C413603   0.335   1.543  12.868 -0.5161 -0.3491 -0.1512
  926MPD2    C513604   0.366   1.438  12.947  0.4906  1.1007 -0.4110
  926MPD2     H13605   0.051   1.650  12.996 -0.0790 -0.1428  2.3925
  926MPD2    H113606   0.408   1.574  12.794 -0.5557  2.4576  0.9579
  926MPD2    H213607   0.295   1.310  13.103  0.7130  0.6190  1.2326
  926MPD2    H313608   0.451   1.371  12.937 -0.0037  0.6026 -1.2564
  926MPD2     N13609   0.189   1.711  12.781 -0.4002 -0.0231  0.0743
  926MPD2    H513610   0.264   1.742  12.720  1.3091 -0.3680  1.9722
  926MPD2    N113611   0.077   1.462  13.171 -0.3284  0.2172  0.1584
  926MPD2    H713612   0.003   1.531  13.180  0.9004  1.2475  2.5114
  927MPD2     C13613   3.867   4.193   0.109  0.5168 -0.5035 -0.2192
  927MPD2    C113614   3.942   4.077   0.141  0.3403 -0.5120 -0.4776
  927MPD2    C213615   4.045   4.045   0.053 -0.3319 -0.1668 -0.4836
  927MPD2    C313616   4.079   4.122  17.689  0.5962  0.3761  0.3160
  927MPD2    C413617   3.999   4.235  17.665  0.2061  0.1082  0.2683
  927MPD2    C513618   3.896   4.272   0.005 -0.7508 -0.3269  0.6517
  927MPD2     H13619   4.117   3.969   0.082  2.0309  1.6959 -1.4109
  927MPD2    H113620   4.010   4.308  17.585  1.6567 -1.9849 -1.4509
  927MPD2    H213621   3.779   4.222   0.166  1.1817  0.3681  0.3524
  927MPD2    H313622   3.841   4.364  17.728  0.3290  0.2999  0.5216
  927MPD2     N13623   4.192   4.096  17.613  0.2026 -0.7814  0.0113
  927MPD2    H513624   4.244   4.015  17.646 -0.8909 -1.0830  0.9843
  927MPD2    N113625   3.901   4.000   0.250 -0.3255  0.3052  0.6518
  927MPD2    H713626   3.810   4.022   0.289  0.9611  1.2112  3.1502
  928MPD2     C13627   1.657   1.910   1.030 -0.2156  0.6885 -0.0113
  928MPD2    C113628   1.717   2.036   1.033 -0.9028 -0.0744  0.3227
  928MPD2    C213629   1.753   2.095   0.917  0.1162  0.3229  0.0862
  928MPD2    C313630   1.752   2.019   0.797  0.3112  0.5325 -0.3251
  928MPD2    C413631   1.712   1.890   0.794  0.1480 -0.1705  0.1568
  928MPD2    C513632   1.655   1.840   0.913 -0.7568  0.7441 -0.2001
  928MPD2     H13633   1.801   2.192   0.920 -0.5987  0.6791 -0.0483
  928MPD2    H113634   1.733   1.822   0.712 -1.3338  0.4043 -0.7030
  928MPD2    H213635   1.614   1.865   1.119  1.6712  1.3505  1.2318
  928MPD2    H313636   1.625   1.736   0.913  0.5401  0.3665 -0.5529
  928MPD2     N13637   1.796   2.079   0.675 -0.0111 -0.3994 -0.3439
  928MPD2    H513638   1.798   2.023   0.591 -0.2159  0.2819 -0.8001
  928MPD2    N113639   1.714   2.104   1.158 -0.4239  0.1521 -0.6485
  928MPD2    H713640   1.655   2.069   1.232 -1.6302 -1.8013 -2.5272
  929MPD2     C13641   1.935   2.508  10.628 -0.6328 -0.2889  0.0983
  929MPD2    C113642   1.850   2.432  10.552  0.0785 -0.2933 -0.8223
  929MPD2    C213643   1.786   2.494  10.446  0.8080 -0.1721 -0.1211
  929MPD2    C313644   1.799   2.632  10.426 -0.0924  0.2945  0.7484
  929MPD2    C413645   1.889   2.699  10.503 -0.0367  0.3183 -0.7209
  929MPD2    C513646   1.952   2.642  10.611 -0.3650  0.5541  0.0558
  929MPD2     H13647   1.699   2.451  10.398  1.7004 -1.6794 -0.4124
  929MPD2    H113648   1.910   2.806  10.507 -2.6989  0.9046 -2.6118
  929MPD2    H213649   1.994   2.471  10.711 -1.3610  1.5868  1.4495
  929MPD2    H313650   2.031   2.692  10.665  1.6549  0.6082 -2.9346
  929MPD2     N13651   1.704   2.693  10.336 -0.0696  0.4939 -0.0560
  929MPD2    H513652   1.691   2.793  10.350  0.1740  0.4215  0.6484
  929MPD2    N113653   1.839   2.296  10.589 -0.3714 -0.3707 -0.4277
  929MPD2    H713654   1.901   2.267  10.664  0.4865  0.8359 -0.6821
  930MPD2     C13655   3.612   4.458  13.771  0.2288  0.4165  0.2983
  930MPD2    C113656   3.681   4.445  13.652  0.1269 -0.8484 -0.4572
  930MPD2    C213657   3.666   4.327  13.578  0.7675 -0.0302 -0.1239
  930MPD2    C313658   3.565   4.238  13.624  0.1308 -0.0281 -0.2148
  930MPD2    C413659   3.484   4.262  13.729  0.0759 -0.2864  0.1711
  930MPD2    C513660   3.515   4.373  13.804 -0.9534  1.0950 -0.1946
  930MPD2     H13661   3.729   4.309  13.492  0.9009 -2.1183  0.4371
  930MPD2    H113662   3.412   4.189  13.761 -0.2115  0.1760  0.5658
  930MPD2    H213663   3.632   4.541  13.838  0.7581 -0.8008  1.6784
  930MPD2    H313664   3.449   4.391  13.888  0.6945  3.0396  0.6791
  930MPD2     N13665   3.546   4.117  13.549 -0.1072 -0.0991  0.1804
  930MPD2    H513666   3.454   4.074  13.556 -0.3258  0.3489  0.0981
  930MPD2    N113667   3.769   4.546  13.612  0.0062  0.0504 -0.0020
  930MPD2    H713668   3.784   4.621  13.678  0.3380  0.8801 -1.0123
  931MPD2     C13669   4.124   3.259   0.479  0.2642  0.2008  0.4558
  931MPD2    C113670   4.021   3.304   0.550 -0.6109  0.1797 -0.3224
  931MPD2    C213671   3.958   3.226   0.654  0.4171  0.4034  0.2854
  931MPD2    C313672   4.019   3.110   0.688 -0.1283 -0.6307  0.5220
  931MPD2    C413673   4.128   3.071   0.622  0.2436  0.2879  0.9883
  931MPD2    C513674   4.178   3.141   0.523 -0.0112 -0.3988 -0.4386
  931MPD2     H13675   3.881   3.265   0.719  1.3438  0.7814  1.1676
  931MPD2    H113676   4.179   2.979   0.648 -0.7141 -0.4257  0.3586
  931MPD2    H213677   4.177   3.315   0.403 -0.3547 -1.0742 -0.9314
  931MPD2    H313678   4.272   3.113   0.475 -0.6572  0.3539 -2.1411
  931MPD2     N13679   3.981   3.036   0.806 -1.1038 -0.1897  0.4531
  931MPD2    H513680   4.023   2.944   0.819 -0.4794 -0.1823 -1.4610
  931MPD2    N113681   3.970   3.427   0.502  0.6610  0.2740  0.2164
  931MPD2    H713682   4.028   3.479   0.437 -2.4816  0.4960 -2.4467
  932MPD2     C13683   0.756   2.601  12.183  0.1959 -0.4645  0.5257
  932MPD2    C113684   0.733   2.602  12.048  0.9268 -0.0338 -0.1789
  932MPD2    C213685   0.787   2.506  11.962  0.3867  0.6470  0.4580
  932MPD2    C313686   0.860   2.404  12.025  0.3612 -0.0259 -0.1854
  932MPD2    C413687   0.866   2.393  12.165  0.6425  0.5396 -0.2963
  932MPD2    C513688   0.817   2.494  12.240  0.1744  0.1389  0.6661
  932MPD2     H13689   0.769   2.512  11.855 -2.1343  0.9478  0.8921
  932MPD2    H113690   0.924   2.314  12.210 -1.3542 -0.7344  0.0461
  932MPD2    H213691   0.725   2.682  12.248  0.4012  0.1751 -0.1806
  932MPD2    H313692   0.828   2.492  12.348  3.1642  2.6297  0.4206
  932MPD2     N13693   0.936   2.314  11.956  0.5650 -0.3293  0.1426
  932MPD2    H513694   0.991   2.261  12.022  1.4458 -0.5999 -0.8252
  932MPD2    N113695   0.661   2.714  12.001 -0.1236  0.3972 -0.0802
  932MPD2    H713696   0.636   2.785  12.069  1.1865  0.9942 -0.2209
  933MPD2     C13697   1.277   2.656   1.653  0.4488  0.2527 -0.2766
  933MPD2    C113698   1.344   2.635   1.538  0.0840 -0.8147  0.1910
  933MPD2    C213699   1.294   2.694   1.422  0.4633  0.4403  0.2946
  933MPD2    C313700   1.170   2.750   1.419  0.3473 -0.3210  0.8278
  933MPD2    C413701   1.097   2.747   1.537  0.8979  0.5089 -0.1999
  933MPD2    C513702   1.152   2.700   1.651  0.2935 -0.3401 -0.1422
  933MPD2     H13703   1.355   2.701   1.333  1.8079  0.8603  1.2434
  933MPD2    H113704   0.998   2.791   1.539  1.7182  2.3548  0.5187
  933MPD2    H213705   1.316   2.616   1.746  0.0049 -0.5698 -0.4439
  933MPD2    H313706   1.096   2.697   1.745 -1.7540  0.7299 -1.3371
  933MPD2     N13707   1.127   2.809   1.298  0.2776  0.3101 -0.1089
  933MPD2    H513708   1.202   2.827   1.232 -0.4224  4.1500  0.1643
  933MPD2    N113709   1.460   2.560   1.535 -0.4668  0.1989  0.2224
  933MPD2    H713710   1.507   2.541   1.623 -0.4284 -2.3197 -0.3634
  934MPD2     C13711   3.619   4.173   1.517 -0.3222  0.1070  0.0732
  934MPD2    C113712   3.634   4.310   1.486  0.2822  0.7461  0.0394
  934MPD2    C213713   3.547   4.362   1.390 -0.1457  0.4927  1.0508
  934MPD2    C313714   3.440   4.282   1.343  0.5239 -0.2057 -0.0096
  934MPD2    C413715   3.430   4.146   1.378  0.5998 -0.3492 -0.8000
  934MPD2    C513716   3.528   4.092   1.454  0.0115 -0.2754 -0.1432
  934MPD2     H13717   3.568   4.465   1.363 -1.9787 -0.1868 -2.9531
  934MPD2    H113718   3.346   4.087   1.343 -0.0573 -0.3327  0.7657
  934MPD2    H213719   3.686   4.121   1.585  0.0634 -0.3842 -0.6864
  934MPD2    H313720   3.521   3.988   1.484 -0.4788 -0.2572 -0.1901
  934MPD2     N13721   3.332   4.330   1.268 -0.2437  0.1414  0.0086
  934MPD2    H513722   3.261   4.262   1.245 -0.3317 -0.0691  0.9298
  934MPD2    N113723   3.729   4.403   1.537  0.3011 -0.0835 -0.1382
  934MPD2    H713724   3.740   4.493   1.492 -1.2927 -1.0985 -2.5878
  935MPD2     C13725   3.298   4.010   0.501  0.7619  0.3622  0.7383
  935MPD2    C113726   3.180   3.983   0.567  0.4284  0.3427  0.1015
  935MPD2    C213727   3.132   4.068   0.668 -0.6844 -0.1407  0.1759
  935MPD2    C313728   3.204   4.185   0.692  0.1479  0.4487 -0.6345
  935MPD2    C413729   3.319   4.215   0.616  0.5938  0.3814 -0.1947
  935MPD2    C513730   3.363   4.125   0.527 -0.0315 -0.2174 -0.5412
  935MPD2     H13731   3.042   4.042   0.723 -1.1197 -2.4350 -1.6233
  935MPD2    H113732   3.378   4.303   0.638 -0.7717  1.0425  0.8346
  935MPD2    H213733   3.348   3.948   0.428  1.5102  0.9931  0.7141
  935MPD2    H313734   3.461   4.130   0.480  0.4199 -0.6955  0.3298
  935MPD2     N13735   3.174   4.275   0.794 -0.8687 -0.0446  0.1494
  935MPD2    H513736   3.243   4.348   0.810 -0.0779 -1.0753  1.3939
  935MPD2    N113737   3.116   3.859   0.550  0.4744  0.5855 -0.2402
  935MPD2    H713738   3.026   3.845   0.596  1.9097 -0.7350  2.2287
  936MPD2     C13739   1.233   0.510  12.395  0.1479 -0.7508 -1.0252
  936MPD2    C113740   1.355   0.577  12.374  0.3075 -0.3962 -0.4588
  936MPD2    C213741   1.398   0.591  12.242 -0.1855 -0.5119  0.1533
  936MPD2    C313742   1.317   0.565  12.129 -0.2520 -0.5829 -0.1258
  936MPD2    C413743   1.200   0.500  12.157 -0.1401  0.1778  0.4829
  936MPD2    C513744   1.157   0.477  12.286 -0.3690 -0.1879  0.0269
  936MPD2     H13745   1.494   0.638  12.220 -0.1759 -0.6839 -0.1734
  936MPD2    H113746   1.127   0.467  12.085 -1.4791  1.9179  1.0629
  936MPD2    H213747   1.194   0.480  12.492  1.8811  0.1535 -0.0322
  936MPD2    H313748   1.058   0.435  12.297  0.1722 -1.0799  1.4061
  936MPD2     N13749   1.352   0.596  11.996 -0.1386 -0.1680 -0.1732
  936MPD2    H513750   1.285   0.582  11.921  0.0542  1.0917 -0.5727
  936MPD2    N113751   1.442   0.622  12.473 -0.3794 -0.3161 -0.5666
  936MPD2    H713752   1.530   0.651  12.433 -1.1322  2.1048 -0.4193
  937MPD2     C13753   3.910   1.996  11.379 -0.1991  0.9120 -0.1032
  937MPD2    C113754   3.980   2.112  11.410  0.5869 -0.4018  0.0022
  937MPD2    C213755   4.051   2.167  11.306  0.8285  0.3184 -0.1060
  937MPD2    C313756   4.067   2.102  11.183 -0.2666  0.0903  0.7350
  937MPD2    C413757   4.008   1.983  11.159 -0.1527 -0.5409 -0.5003
  937MPD2    C513758   3.925   1.934  11.262  0.4272 -0.1319 -0.3561
  937MPD2     H13759   4.080   2.271  11.303  0.0976  0.5538  1.5417
  937MPD2    H113760   4.023   1.918  11.073  1.3032 -0.4317 -0.3253
  937MPD2    H213761   3.854   1.951  11.460 -4.0897  2.2377 -2.0632
  937MPD2    H313762   3.900   1.829  11.254  0.9811 -0.2971  0.1357
  937MPD2     N13763   4.135   2.179  11.086  0.2128  0.2801  0.1455
  937MPD2    H513764   4.171   2.267  11.121  0.7292  1.3376 -2.9898
  937MPD2    N113765   3.957   2.198  11.514 -0.2065 -0.8573  0.0557
  937MPD2    H713766   3.989   2.294  11.504  0.6082 -1.2076 -0.6919
  938MPD2     C13767   2.017   4.337   0.329 -0.0335  0.6555  0.5782
  938MPD2    C113768   2.106   4.383   0.424 -0.0338 -0.2434 -0.0342
  938MPD2    C213769   2.118   4.294   0.536 -0.2540  0.5153  0.6161
  938MPD2    C313770   2.057   4.170   0.546  0.3634 -0.2696  0.2294
  938MPD2    C413771   1.980   4.124   0.441 -0.0960 -0.5082 -0.0397
  938MPD2    C513772   1.967   4.205   0.335  0.1049 -0.0127 -0.5047
  938MPD2     H13773   2.192   4.331   0.607 -0.6791  2.2597  0.1492
  938MPD2    H113774   1.917   4.037   0.455 -0.0716 -0.7672 -1.6023
  938MPD2    H213775   1.985   4.401   0.248 -3.5773 -3.1261 -1.0054
  938MPD2    H313776   1.903   4.186   0.249  0.7607 -0.8681 -0.8084
  938MPD2     N13777   2.068   4.092   0.656 -0.3113 -0.1153  0.5900
  938MPD2    H513778   2.021   4.003   0.642  1.0068 -0.8224  0.6531
  938MPD2    N113779   2.186   4.499   0.414 -0.0402  0.2300  0.4382
  938MPD2    H713780   2.259   4.511   0.483 -1.3121 -0.5953  1.9281
  939MPD2     C13781   2.857   0.532   0.835 -0.6183 -0.3651 -0.3286
  939MPD2    C113782   2.969   0.475   0.874 -0.3858  0.3241  0.1109
  939MPD2    C213783   3.035   0.389   0.786  1.1345 -0.3426  0.4959
  939MPD2    C313784   2.982   0.355   0.666  0.5471 -0.3072  0.2916
  939MPD2    C413785   2.850   0.393   0.635 -0.4217  0.7839 -0.3111
  939MPD2    C513786   2.789   0.477   0.726 -0.1861 -0.8922  0.1079
  939MPD2     H13787   3.137   0.353   0.799  0.7385 -0.7388  2.5872
  939MPD2    H113788   2.797   0.375   0.542 -0.0364 -0.6308 -0.2635
  939MPD2    H213789   2.802   0.598   0.901  1.1251  0.0839  0.6691
  939MPD2    H313790   2.692   0.518   0.702  0.2478 -0.3864 -0.7974
  939MPD2     N13791   3.057   0.275   0.573 -0.0729  0.1445 -0.3633
  939MPD2    H513792   3.150   0.251   0.608  1.2913  1.9412 -2.7742
  939MPD2    N113793   3.027   0.526   0.992 -0.4642  0.0167 -0.9347
  939MPD2    H713794   2.985   0.607   1.036  2.1078  0.0622  1.3557
  940MPD2     C13795   2.930   1.647  13.265 -0.3788  0.0349 -0.5372
  940MPD2    C113796   2.824   1.563  13.254 -0.3589  0.7115 -0.0296
  940MPD2    C213797   2.792   1.529  13.123  0.3626  0.2063 -0.0036
  940MPD2    C313798   2.861   1.569  13.016 -0.5456  0.2257  0.4962
  940MPD2    C413799   2.962   1.657  13.031 -0.3841 -0.3097 -0.3693
  940MPD2    C513800   2.998   1.689  13.156  0.0709 -0.2155  0.5090
  940MPD2     H13801   2.710   1.459  13.108 -1.7373  3.3750 -3.2168
  940MPD2    H113802   3.018   1.691  12.945  0.8059  1.5904  1.1554
  940MPD2    H213803   2.967   1.691  13.356 -1.4179  0.5026 -0.3455
  940MPD2    H313804   3.086   1.752  13.164  0.2213 -0.4683  0.8528
  940MPD2     N13805   2.829   1.530  12.886  0.6888  0.2519 -0.0110
  940MPD2    H513806   2.881   1.578  12.814 -0.9901  3.0057  0.6024
  940MPD2    N113807   2.741   1.522  13.358  0.0884 -0.5062  0.0335
  940MPD2    H713808   2.655   1.485  13.320  0.2753 -0.8959 -0.0093
  941MPD2     C13809   0.908   0.258  10.236 -0.2852  0.5025 -0.1243
  941MPD2    C113810   0.923   0.216  10.368 -0.0756  0.3526 -0.7536
  941MPD2    C213811   0.879   0.093  10.404 -0.2182 -0.5785 -0.3940
  941MPD2    C313812   0.838   0.001  10.308  0.7471  0.7804  0.5477
  941MPD2    C413813   0.820   0.050  10.177  0.5064 -0.5342 -0.3011
  941MPD2    C513814   0.860   0.173  10.140 -0.1464 -0.5510 -0.1283
  941MPD2     H13815   0.892   0.076  10.510  1.6771  0.1857 -0.5097
  941MPD2    H113816   0.776   4.731  10.094  0.0544 -1.0189  0.2612
  941MPD2    H213817   0.944   0.354  10.204  3.1519 -0.5395  0.6559
  941MPD2    H313818   0.840   0.221  10.045 -0.5024  0.7594  0.6056
  941MPD2     N13819   0.812   4.597  10.341 -0.6691  0.4959 -0.5340
  941MPD2    H513820   0.786   4.531  10.269 -1.3518 -0.1271  0.2802
  941MPD2    N113821   0.994   0.290  10.461  0.0493 -0.0494 -0.6317
  941MPD2    H713822   1.026   0.237  10.542 -2.8159 -3.5637 -1.8071
  942MPD2     C13823   0.994   0.858   9.155  0.0534  0.1773 -0.2264
  942MPD2    C113824   0.911   0.915   9.252  0.4581 -0.2331 -0.1843
  942MPD2    C213825   0.940   1.032   9.320  0.2534 -0.1725 -0.2766
  942MPD2    C313826   1.067   1.093   9.308 -0.9225 -0.6296 -0.4467
  942MPD2    C413827   1.150   1.037   9.213  0.1925 -0.0352  0.4896
  942MPD2    C513828   1.114   0.923   9.141 -0.1613  0.1034  0.2036
  942MPD2     H13829   0.858   1.080   9.372 -0.4462 -2.0247  0.3383
  942MPD2    H113830   1.243   1.090   9.195 -1.0003  2.1284  0.6754
  942MPD2    H213831   0.959   0.775   9.094 -1.3727 -0.1730  1.0816
  942MPD2    H313832   1.172   0.886   9.057 -1.4113  1.0753 -1.1038
  942MPD2     N13833   1.100   1.209   9.386  0.2349 -0.0889  0.1746
  942MPD2    H513834   1.177   1.262   9.347  0.1252 -2.3453 -3.0895
  942MPD2    N113835   0.778   0.878   9.276  0.8293 -0.7664  0.2136
  942MPD2    H713836   0.724   0.938   9.338  0.3025 -0.0679 -0.9144
  943MPD2     C13837   0.029   4.571   9.846  0.2834  0.3680  0.0559
  943MPD2    C113838   4.684   4.522   9.947  0.9058 -0.2773  0.7297
  943MPD2    C213839   4.712   4.568  10.079  0.1403 -0.7075 -0.3526
  943MPD2    C313840   0.080   4.662  10.097  0.6575  0.0656 -0.1280
  943MPD2    C413841   0.156   4.709   9.990  0.7851 -0.6344  0.2865
  943MPD2    C513842   0.120   4.674   9.863  0.7360 -0.1786  0.0118
  943MPD2     H13843   4.644   4.538  10.158 -0.0070  0.1811 -0.1469
  943MPD2    H113844   0.224   0.056  10.010 -0.7126  0.4260  1.0013
  943MPD2    H213845   0.010   4.552   9.741  1.9969  1.2654 -0.4218
  943MPD2    H313846   0.177   4.709   9.778 -0.3753  0.1399 -0.5986
  943MPD2     N13847   0.103   4.724  10.225 -0.4845 -0.4704 -0.2523
  943MPD2    H513848   0.131   0.086  10.224 -0.8777 -0.3640 -0.8627
  943MPD2    N113849   4.577   4.442   9.903 -0.1837 -0.7492  0.4026
  943MPD2    H713850   4.574   4.422   9.803 -0.5482 -0.0549  0.2759
  944MPD2     C13851   0.133   4.384  11.290 -0.0472  0.0663 -0.1208
  944MPD2    C113852   0.140   4.493  11.207 -0.1281  0.8290  0.5009
  944MPD2    C213853   0.064   4.608  11.243 -0.2439  0.3322  0.5737
  944MPD2    C313854   4.729   4.612  11.359 -0.0023  0.4370 -0.4483
  944MPD2    C413855   4.728   4.500  11.444  0.0298  0.1969 -0.2739
  944MPD2    C513856   0.061   4.386  11.409 -0.5257  0.5140  0.5623
  944MPD2     H13857   0.058   4.691  11.175  1.8812 -0.4505 -0.5591
  944MPD2    H113858   4.691   4.504  11.546  0.8853  3.0230 -0.0680
  944MPD2    H213859   0.185   4.289  11.278 -2.1266 -1.0996  0.2159
  944MPD2    H313860   0.057   4.298  11.472  0.9596 -0.8053 -1.1686
  944MPD2     N13861   4.654   4.731  11.387 -0.3551 -0.3266 -0.0830
  944MPD2    H513862   4.654   0.074  11.324 -1.0302  0.0725  0.4157
  944MPD2    N113863   0.216   4.477  11.086 -0.3536 -0.0928  0.9421
  944MPD2    H713864   0.249   4.382  11.069  0.1873  0.3249 -0.3331
    1TMC1    C113865   3.196   0.554  14.545  0.2261 -0.4275  0.0539
    1TMC1    C213866   3.298   0.493  14.478  0.2308 -0.0207 -0.3054
    1TMC1    C313867   3.259   0.407  14.379 -0.5234  0.2200  0.0303
    1TMC1    C413868   3.064   0.529  14.522  0.1921 -0.6566  0.3395
    1TMC1    C513869   3.029   0.432  14.434  0.0127  0.2045 -1.1288
    1TMC1    C613870   3.127   0.375  14.355 -0.4475  0.0940  0.6921
    1TMC1     C13871   3.225   0.661  14.639 -0.2318  0.3539 -0.2269
    1TMC1     O13872   3.343   0.684  14.667  0.4222  0.2043  0.4221
    1TMC1     H13873   3.402   0.513  14.500 -0.2352  0.4315  1.4893
    1TMC1    H113874   2.985   0.576  14.580 -0.2851 -1.5166  0.3979
    1TMC1    H213875   3.093   0.295  14.290 -1.4586 -0.1122  1.4929
    1TMC1    C713876   2.900   0.439  14.376  0.3908 -0.2450 -0.3993
    1TMC1    C813877   3.352   0.304  14.328 -0.8552 -0.0321 -0.1611
    1TMC1    O113878   2.817   0.527  14.399  0.0469  0.0647  0.0876
    1TMC1    O213879   3.303   0.194  14.316 -0.7968  0.1010  0.3701
    1TMC1    O313880   2.872   0.306  14.408 -0.1316  0.6381 -0.1553
    1TMC1    H313881   2.945   0.248  14.439 -0.9902 -0.1527  0.4027
    1TMC1    O513882   3.489   0.337  14.334 -0.1410 -0.2622  0.0613
    1TMC1    H513883   3.510   0.430  14.311 -2.8466  0.2548 -0.3116
    2MPD2     C13884   3.144   1.098  14.880 -0.1894 -0.0783  0.1699
    2MPD2    C113885   3.050   1.092  14.785 -0.2247 -0.0309 -0.4523
    2MPD2    C213886   3.058   0.983  14.693 -0.4822 -0.1651 -0.1873
    2MPD2    C313887   3.142   0.878  14.717 -0.2912  0.2019 -0.1308
    2MPD2    C413888   3.225   0.882  14.825  0.5798  0.1606  0.3901
    2MPD2    C513889   3.222   0.988  14.906  0.9404  0.3437 -0.2758
    2MPD2     H13890   2.989   0.983  14.609  0.5723 -1.4349 -1.0496
    2MPD2    H113891   3.284   0.798  14.859 -1.4864 -1.8089 -0.8645
    2MPD2    H213892   3.143   1.184  14.946  0.4047 -0.1346  0.2536
    2MPD2    H313893   3.294   0.987  14.987 -1.1877  1.4044  1.6119
    2MPD2     N13894   3.131   0.763  14.632  0.1304 -0.0994 -0.1653
    2MPD2    H513895   3.058   0.754  14.563  1.3554 -2.8424 -1.1177
    2MPD2    N113896   2.969   1.206  14.771  0.0775 -0.6371  0.5731
    2MPD2    H713897   2.996   1.276  14.840  1.7571 -0.3830 -0.3451
    3TMC2    C113898   2.811   1.366  14.689 -0.2586 -0.5486 -0.1701
    3TMC2    C213899   2.904   1.469  14.680 -0.2940  0.3526  0.7399
    3TMC2    C313900   2.883   1.570  14.591  0.1355 -0.3743 -0.1825
    3TMC2    C413901   2.690   1.388  14.618 -0.3330 -0.2706  0.2411
    3TMC2    C513902   2.674   1.503  14.541 -0.2624  0.4172 -0.5328
    3TMC2    C613903   2.768   1.598  14.530  0.3924  0.3506 -0.9279
    3TMC2     C13904   2.856   1.229  14.691  0.3546 -0.4556 -0.2339
    3TMC2     O13905   2.802   1.140  14.624  0.3854 -0.0620  0.3437
    3TMC2     H13906   2.998   1.449  14.730  0.4616  0.3433 -0.6550
    3TMC2    H113907   2.609   1.318  14.635 -0.1379 -0.7580 -0.8640
    3TMC2    H213908   2.763   1.682  14.461 -1.9377  2.7749  2.2238
    3TMC2    C713909   2.541   1.540  14.504 -0.1425 -0.2934 -0.1327
    3TMC2    C813910   2.990   1.671  14.580  0.0031  0.8416  0.0417
    3TMC2    O113911   2.451   1.514  14.585  0.0189 -0.0915 -0.0602
    3TMC2    O213912   2.962   1.790  14.588 -0.4416  0.2799 -0.3026
    3TMC2    O513913   3.109   1.621  14.615  1.0170  0.5220 -0.0951
    3TMC2    H513914   3.124   1.530  14.583 -0.0027  1.0925 -2.1977
    4TMC2    C113915   2.131   1.842  13.608  0.0621  0.5843 -0.6760
    4TMC2    C213916   2.223   1.860  13.509  0.9351  0.0311  0.0751
    4TMC2    C313917   2.360   1.861  13.536  0.3343  0.0130 -0.2751
    4TMC2    C413918   2.177   1.828  13.733  0.6719  0.4533  0.3305
    4TMC2    C513919   2.312   1.819  13.765 -0.3095  0.0452 -0.3482
    4TMC2    C613920   2.408   1.831  13.661  0.0935 -0.7795 -0.2713
    4TMC2     C13921   1.994   1.901  13.599  0.0201 -0.1040  0.1143
    4TMC2     O13922   1.960   1.981  13.680 -0.0765 -0.6063 -0.4820
    4TMC2     H13923   2.195   1.879  13.406 -0.3597 -0.8311  0.2701
    4TMC2    H113924   2.093   1.818  13.800  0.4061 -0.6945 -0.1829
    4TMC2    H213925   2.510   1.840  13.696  0.0233  1.6299 -0.7040
    4TMC2    C713926   2.363   1.763  13.893 -0.1414 -0.2570 -0.0772
    4TMC2    C813927   2.452   1.857  13.425  0.2877 -0.1208 -0.4362
    4TMC2    O113928   2.471   1.715  13.892 -0.1636  0.3530 -0.4505
    4TMC2    O213929   2.418   1.781  13.334  0.1388  0.0970 -0.3801
    4TMC2    O513930   2.578   1.862  13.460  1.0702  0.5307  0.0621
    4TMC2    H513931   2.584   1.934  13.527  0.7766  1.2461 -0.6774
    5MPD2     C13932   1.610   2.040  13.298  1.1590  0.5250 -0.5907
    5MPD2    C113933   1.639   1.910  13.259 -0.5878  0.5093  0.4058
    5MPD2    C213934   1.751   1.847  13.317 -0.4897 -0.4099  0.1762
    5MPD2    C313935   1.812   1.906  13.423  0.2440 -0.7404  0.1733
    5MPD2    C413936   1.770   2.030  13.461  0.0866 -0.4450  0.6637
    5MPD2    C513937   1.676   2.097  13.403 -0.5380 -0.3305  1.0123
    5MPD2     H13938   1.781   1.747  13.288 -1.6890 -0.4931 -0.7689
    5MPD2    H113939   1.804   2.086  13.548 -1.6395  0.5296  0.6966
    5MPD2    H213940   1.519   2.093  13.271  0.3841 -0.0252  0.9714
    5MPD2    H313941   1.655   2.195  13.445  0.2426 -0.5885  2.0022
    5MPD2     N13942   1.923   1.845  13.489  0.0727 -0.6082  0.7795
    5MPD2    H513943   1.963   1.760  13.451  0.5782 -1.1526  2.4856
    5MPD2    N113944   1.561   1.849  13.164 -0.3853  0.0699 -0.2550
    5MPD2    H713945   1.477   1.893  13.128  0.1091 -0.3193 -1.9182
    6MPD1     C13946   1.144   3.417  13.176 -0.1565  0.4940 -0.5319
    6MPD1    C113947   1.266   3.387  13.239  0.0507  0.3702 -1.0310
    6MPD1    C213948   1.301   3.254  13.251 -0.6979  0.4176  0.4618
    6MPD1    C313949   1.234   3.155  13.189 -0.2817  0.3535 -0.1630
    6MPD1    C413950   1.118   3.183  13.119  0.3479 -0.5206  0.2886
    6MPD1    C513951   1.077   3.314  13.116 -0.0365 -0.7332  0.3224
    6MPD1     H13952   1.385   3.221  13.312 -0.0609  0.5688 -0.3404
    6MPD1    H113953   1.056   3.112  13.065  1.3542  0.0162 -1.5823
    6MPD1    H213954   1.104   3.518  13.170 -0.9461  0.2535  0.7053
    6MPD1    H313955   0.988   3.345  13.063  0.9503 -0.6865 -1.3113
    6MPD1     N13956   1.264   3.015  13.202 -0.1953  0.0947  0.3828
    6MPD1    H513957   1.207   2.958  13.140 -0.2359 -2.8128  3.0729
    6MPD1    N113958   1.328   3.482  13.320  0.1763  0.1662  0.2114
    6MPD1    H613959   1.323   3.577  13.284 -1.4561  0.8270  2.1331
    6MPD1    H713960   1.426   3.459  13.329  0.7850  1.4085 -3.3400
    7MPD2     C13961   0.938   2.348  13.055 -0.5403  0.0748 -0.0158
    7MPD2    C113962   1.067   2.321  13.112 -0.3550 -0.3685  0.1556
    7MPD2    C213963   1.112   2.193  13.107  0.0163 -0.4499  0.3074
    7MPD2    C313964   1.040   2.090  13.051  0.6368  0.1741 -0.3185
    7MPD2    C413965   0.915   2.111  13.004 -0.4807  0.1987 -0.3149
    7MPD2    C513966   0.862   2.242  13.015 -0.5712 -0.0767  0.0221
    7MPD2     H13967   1.207   2.170  13.154  1.1482 -0.4760 -2.0053
    7MPD2    H113968   0.845   2.035  12.973 -1.3394  1.1690 -0.7524
    7MPD2    H213969   0.893   2.447  13.043  0.4575  0.3182 -1.7773
    7MPD2    H313970   0.761   2.267  12.983 -0.1833  0.4979 -0.7514
    7MPD2     N13971   1.094   1.962  13.021 -0.7238  0.2635  0.2539
    7MPD2    H513972   1.040   1.901  12.961  0.1436 -0.8760  0.6224
    7MPD2    N113973   1.149   2.423  13.154  0.5077 -0.1793  0.8173
    7MPD2    H713974   1.236   2.385  13.189  0.0688  0.1190  2.2155
    8TMC3    C113975   1.273   1.809  12.981 -0.5287 -0.1385 -1.4384
    8TMC3    C213976   1.362   1.746  13.064  0.0172  0.9205 -0.7655
    8TMC3    C313977   1.482   1.715  13.013 -0.0248 -0.1211  0.2239
    8TMC3    C413978   1.307   1.853  12.861 -0.1866 -0.8084  0.0019
    8TMC3    C513979   1.442   1.861  12.831  0.0905 -1.1387  0.2854
    8TMC3    C613980   1.524   1.779  12.901 -0.6898  0.1030  0.4481
    8TMC3     C13981   1.216   1.914  13.067  0.1050  0.5008  0.1237
    8TMC3     O13982   1.292   1.954  13.150  0.8903  0.4048 -0.2506
    8TMC3     H13983   1.345   1.740  13.170 -0.3737  0.7106 -0.8441
    8TMC3    H113984   1.235   1.921  12.816 -0.0007 -0.4556  0.2317
    8TMC3    H213985   1.629   1.781  12.875 -0.7285  1.3268  0.3957
    8TMC3    C713986   1.472   1.999  12.849 -0.3274  0.0466  0.5057
    8TMC3    C813987   1.584   1.728  13.106 -0.4581 -0.4231  0.8870
    8TMC3    O113988   1.380   2.075  12.866 -0.0583 -0.2522  0.6355
    8TMC3    O213989   1.678   1.651  13.103 -0.2977  0.1420 -0.0614
    9TMC3    C113990   1.359   2.818  13.257  0.8151 -0.4000  0.7259
    9TMC3    C213991   1.480   2.765  13.227 -0.2430 -0.2354  0.6031
    9TMC3    C313992   1.483   2.638  13.179 -0.1239 -0.5882  0.2592
    9TMC3    C413993   1.239   2.765  13.220 -0.1218  0.1577  0.0903
    9TMC3    C513994   1.239   2.641  13.176 -0.0991 -0.3266  0.5737
    9TMC3    C613995   1.362   2.582  13.146  0.9122 -0.4438  0.9569
    9TMC3     C13996   1.364   2.956  13.278  0.3090 -0.0847 -0.2748
    9TMC3     O13997   1.458   2.998  13.343 -0.4775  0.1054  0.5542
    9TMC3     H13998   1.568   2.817  13.263  0.2182 -0.2552 -0.5072
    9TMC3    H113999   1.141   2.805  13.244  0.4686  0.9474  1.1973
    9TMC3    H214000   1.351   2.493  13.084 -0.8746 -1.2901  2.4943
    9TMC3    C714001   1.121   2.561  13.159  0.1885  0.8563  0.0173
    9TMC3    C814002   1.606   2.570  13.130 -0.0388 -0.2438  0.0476
    9TMC3    O114003   1.023   2.631  13.138  0.2353 -0.2196 -0.1084
    9TMC3    O214004   1.691   2.646  13.084 -0.1193 -0.2334  0.0417
   10MPD2     C14005   1.798   2.163  12.890 -0.2180  0.1469  0.5585
   10MPD2    C114006   1.665   2.142  12.905 -0.2204 -0.4897  0.5838
   10MPD2    C214007   1.599   2.240  12.982 -0.1096 -0.7834 -0.8089
   10MPD2    C314008   1.666   2.353  13.023 -0.2322 -0.0448  0.0535
   10MPD2    C414009   1.802   2.371  12.998  0.1124  0.3768 -0.4938
   10MPD2    C514010   1.866   2.272  12.927 -0.5807 -0.2086  0.1163
   10MPD2     H14011   1.494   2.224  13.005  0.0780 -0.7486  0.0679
   10MPD2    H114012   1.865   2.453  13.030  0.2837 -0.6232  1.7065
   10MPD2    H214013   1.863   2.092  12.840  0.2505  2.2304 -1.8031
   10MPD2    H314014   1.969   2.287  12.898  0.4262 -3.3002  2.1949
   10MPD2     N14015   1.582   2.443  13.101 -0.6184  1.1573 -0.5864
   10MPD2    H514016   1.492   2.406  13.131 -1.9800  2.7267 -2.8458
   10MPD2    N114017   1.607   2.022  12.861  0.6004 -0.2559  0.2819
   10MPD2    H714018   1.672   1.955  12.820 -0.3748 -0.0437 -1.6115
   11MPD2     C14019   2.302   1.670  14.404  0.0957  0.3178 -0.3655
   11MPD2    C114020   2.408   1.648  14.323  0.3995 -0.0943 -0.2012
   11MPD2    C214021   2.403   1.684  14.186  0.1203  0.4277  0.3744
   11MPD2    C314022   2.283   1.723  14.127  0.7341  0.1446 -0.4255
   11MPD2    C414023   2.170   1.733  14.203  0.2279  0.3555 -0.0303
   11MPD2    C514024   2.182   1.707  14.342  0.2440  0.3922 -0.2238
   11MPD2     H14025   2.500   1.675  14.137 -1.0046 -1.2674 -1.5428
   11MPD2    H114026   2.071   1.745  14.161  1.2501  2.3483 -1.8964
   11MPD2    H214027   2.295   1.643  14.509 -0.9648  0.7124 -0.3324
   11MPD2    H314028   2.097   1.708  14.409 -0.3890 -0.7672 -0.9951
   11MPD2     N14029   2.268   1.770  13.992 -0.1887 -0.3563 -0.1930
   11MPD2    H514030   2.178   1.815  13.975  0.2654  0.9864  0.9214
   11MPD2    N114031   2.529   1.596  14.378 -0.1192  0.1821 -0.1012
   11MPD2    H714032   2.612   1.608  14.320 -0.1602  1.2516  0.0721
    1MPD1     C14033   0.847   2.392  17.023  0.1274  0.2406 -0.1763
    1MPD1    C114034   0.772   2.498  17.074  1.0380 -0.2261  0.3925
    1MPD1    C214035   0.843   2.611  17.107 -0.0508  0.3651  0.1550
    1MPD1    C314036   0.980   2.622  17.100 -0.3494  0.8296  0.1149
    1MPD1    C414037   1.049   2.509  17.066  0.1773  0.2035 -0.0232
    1MPD1    C514038   0.984   2.401  17.026 -0.4593 -0.8026 -0.2854
    1MPD1     H14039   0.780   2.696  17.130 -0.8743  0.0349 -0.8885
    1MPD1    H114040   1.157   2.506  17.054  0.2091  0.5576  0.1493
    1MPD1    H214041   0.800   2.300  16.991 -1.1424  0.3636  1.3309
    1MPD1    H314042   1.034   2.310  16.994 -1.8000 -2.4243  2.2012
    1MPD1     N14043   1.060   2.736  17.140 -0.2931 -0.6593  0.6962
    1MPD1    H514044   1.158   2.711  17.146 -0.4493 -1.8007 -1.8203
    1MPD1    N114045   0.626   2.496  17.058 -0.4442  0.4054  0.1953
    1MPD1    H614046   0.590   2.401  17.065 -0.7287  0.3076 -2.7395
    1MPD1    H714047   0.574   2.560  17.119  0.5915  2.7009 -1.3346
    2MPD1     C14048   1.736   3.250  16.663  0.1517 -0.2852 -0.0047
    2MPD1    C114049   1.660   3.354  16.711 -0.1933  0.1418 -0.1318
    2MPD1    C214050   1.566   3.322  16.808  1.1223  0.5853  0.0505
    2MPD1    C314051   1.556   3.193  16.861 -0.4429 -0.5144 -0.2710
    2MPD1    C414052   1.627   3.091  16.804 -0.2423 -0.2864 -0.2606
    2MPD1    C514053   1.712   3.115  16.697 -0.2567 -1.0898 -0.0850
    2MPD1     H14054   1.504   3.399  16.854  0.4984 -0.9021  1.7310
    2MPD1    H114055   1.619   2.993  16.850 -1.7297 -0.4543 -0.8827
    2MPD1    H214056   1.811   3.267  16.586  0.3593  4.6435  1.3043
    2MPD1    H314057   1.767   3.036  16.647 -0.1248 -0.9662 -0.1361
    2MPD1     N14058   1.451   3.176  16.956  0.0427  0.1504 -0.0304
    2MPD1    H514059   1.406   3.264  16.978  1.2456  0.9043 -0.5552
    2MPD1    N114060   1.694   3.487  16.681 -0.8528  0.7223 -0.1634
    2MPD1    H614061   1.615   3.552  16.677 -1.0897  0.3643 -1.3176
    2MPD1    H714062   1.752   3.498  16.599  0.3019 -0.7658  0.4485
    3TMC3    C114063   1.295   3.068  17.093 -0.9410 -0.1555  0.1265
    3TMC3    C214064   1.257   3.190  17.130 -0.5632  0.0278  0.1414
    3TMC3    C314065   1.141   3.201  17.210 -0.0006  0.1123 -0.2080
    3TMC3    C414066   1.225   2.954  17.124  0.0847 -0.0755 -0.0704
    3TMC3    C514067   1.104   2.971  17.182  0.0506 -0.1310 -0.4590
    3TMC3    C614068   1.059   3.089  17.242  0.3108  0.1902  0.5470
    3TMC3     C14069   1.403   3.055  16.999 -0.4922 -0.3121 -0.5420
    3TMC3     O14070   1.434   2.948  16.948  0.2907 -0.4880 -0.0658
    3TMC3     H14071   1.312   3.281  17.108 -0.3557  0.2479  1.5611
    3TMC3    H114072   1.259   2.858  17.089 -0.0493  0.7230 -2.3795
    3TMC3    H214073   0.966   3.095  17.298 -0.3894  0.4873 -0.6457
    3TMC3    C714074   1.010   2.862  17.182  0.0427 -0.1605  0.1921
    3TMC3    C814075   1.081   3.335  17.206 -0.1888 -0.1251 -0.4365
    3TMC3    O114076   0.899   2.881  17.236 -0.1393 -0.0966  0.0556
    3TMC3    O214077   1.153   3.430  17.173 -0.2438  0.2773 -0.3495
    4MPD1     C14078   0.660   3.633  17.238 -0.0178  0.5683  0.1846
    4MPD1    C114079   0.790   3.678  17.236 -0.2059 -0.4538  0.2290
    4MPD1    C214080   0.888   3.580  17.222  1.3568 -0.2738  0.6016
    4MPD1    C314081   0.857   3.439  17.212  0.8268 -0.3960 -0.0363
    4MPD1    C414082   0.722   3.404  17.216  1.2595  0.1059 -0.5263
    4MPD1    C514083   0.633   3.502  17.237  0.2223  0.4399  0.0338
    4MPD1     H14084   0.993   3.608  17.221  0.9330  1.2333 -1.0293
    4MPD1    H114085   0.687   3.303  17.204 -1.2356  1.1503 -2.0991
    4MPD1    H214086   0.569   3.692  17.242 -0.4199  0.0400 -1.4663
    4MPD1    H314087   0.529   3.475  17.221  1.1363 -3.0922  0.0500
    4MPD1     N14088   0.945   3.331  17.213  0.1715 -0.2155 -0.7355
    4MPD1    H514089   0.897   3.242  17.221  0.2196 -0.2478 -0.8127
    4MPD1    N114090   0.823   3.814  17.226 -0.8373 -0.5610  0.3518
    4MPD1    H614091   0.893   3.833  17.154 -0.5211 -1.8839  0.3098
    4MPD1    H714092   0.742   3.871  17.208  0.2645  1.6569  2.4736
    1TCq1    O114093   2.066   2.392  11.542 -0.3182 -0.5163  0.7350
    1TCq1    C114094   2.048   2.339  11.662  0.0525 -1.0250  0.3307
    1TCq1    O214095   2.115   2.348  11.763 -0.1189  0.1106  0.4064
    1TCq1    C214096   1.903   2.333  11.675 -0.5556  0.2549  0.0006
    1TCq1    C314097   1.840   2.241  11.598 -0.5964  0.2964 -0.3517
    1TCq1    C414098   1.708   2.245  11.584 -0.1269 -0.6177  0.2926
    1TCq1    C514099   1.642   2.309  11.682  0.1502  0.2879 -0.5290
    1TCq1    C614100   1.705   2.397  11.770  0.2421  0.3978  0.0813
    1TCq1    C714101   1.844   2.406  11.775  0.3931 -0.6945 -0.3871
    1TCq1    C814102   1.628   2.453  11.883  0.3503  0.3231  0.1398
    1TCq1    O414103   1.693   2.496  11.974 -0.3087  0.4553  0.6394
    1TCq1    C914104   1.641   2.134  11.528  0.0532  0.7120 -0.2095
    1TCq1    O514105   1.686   2.089  11.425 -0.0472  0.5292 -0.6622
    1TCq1    O614106   1.548   2.086  11.597 -0.3731  0.2355 -0.6231
    1TCq1    H114107   1.985   2.400  11.487  1.5762 -2.3135 -2.3183
    1TCq1    H214108   1.896   2.183  11.525  0.3569 -1.8562  2.0799
    1TCq1    H314109   1.534   2.297  11.678  0.2392 -0.9296  0.7498
    1TCq1    H414110   1.908   2.465  11.840  1.0319 -0.9435 -0.7950
    2MPD1     C14111   1.188   2.621  12.065 -0.3586 -0.7866 -0.0616
    2MPD1    C114112   1.167   2.597  11.933  0.7286 -0.2305  0.1320
    2MPD1    C214113   1.276   2.555  11.860 -0.9462  0.0401  0.6354
    2MPD1    C314114   1.399   2.532  11.915  0.2997 -0.2711  0.1410
    2MPD1    C414115   1.414   2.557  12.048 -0.3518 -0.0058 -0.1314
    2MPD1    C514116   1.308   2.602  12.124 -0.0547 -0.4827  0.0588
    2MPD1     H14117   1.255   2.525  11.758 -0.0261  2.2254 -0.2110
    2MPD1    H114118   1.512   2.558  12.096 -0.7340  1.5529  0.6227
    2MPD1    H214119   1.118   2.669  12.132 -1.1308 -0.5466 -1.0386
    2MPD1    H314120   1.330   2.645  12.221  3.4485 -1.5461 -0.2809
    2MPD1     N14121   1.499   2.473  11.838 -0.1513 -0.1113  0.6595
    2MPD1    H514122   1.471   2.451  11.743  0.0658 -0.7914  0.7581
    2MPD1    N114123   1.057   2.643  11.866  0.2111 -0.9761  0.4755
    2MPD1    H614124   0.968   2.637  11.915 -1.2262  0.8538 -1.9316
    2MPD1    H714125   1.047   2.599  11.775 -0.7285 -1.1379  0.6504
    1TMC1    C114126   0.646   2.958   0.537  0.2453 -0.7547 -0.1301
    1TMC1    C214127   0.783   2.980   0.549  0.3547  0.0842  0.0426
    1TMC1    C314128   0.870   2.874   0.523 -0.4187  0.4180 -0.0691
    1TMC1    C414129   0.599   2.842   0.492 -0.1771 -0.1992 -0.5502
    1TMC1    C514130   0.691   2.742   0.457 -0.2672 -0.1825 -0.3220
    1TMC1    C614131   0.825   2.748   0.481 -0.0518  0.2995 -0.1477
    1TMC1     C14132   0.561   3.069   0.504 -0.1276  0.4622  0.0428
    1TMC1     O14133   0.459   3.052   0.440  0.3089 -0.1750  0.1773
    1TMC1     H14134   0.827   3.076   0.570 -1.3385  0.8574  0.0056
    1TMC1    H114135   0.491   2.838   0.501 -0.4846  3.7467 -2.4821
    1TMC1    H214136   0.882   2.657   0.491 -1.5859 -0.5896  0.4578
    1TMC1    C714137   0.639   2.612   0.432 -0.0580  0.1355  0.3816
    1TMC1    C814138   1.002   2.883   0.577  0.2621 -0.2992 -0.7425
    1TMC1    O114139   0.702   2.508   0.456 -0.6040  0.4085 -0.2630
    1TMC1    O214140   1.055   2.791   0.638 -0.6828 -0.3557  0.2839
    1TMC1    O314141   0.519   2.625   0.376 -0.4011  0.1388 -0.0447
    1TMC1    H314142   0.486   2.715   0.353 -0.1724 -1.1471 -5.4756
    1TMC1    O514143   1.056   3.007   0.580 -0.2842  0.2312  0.5061
    1TMC1    H514144   1.014   3.071   0.519  0.0497  1.4442  1.5579
    2MPD1     C14145   0.523   3.571   0.460 -0.5767 -0.4111  0.3481
    2MPD1    C114146   0.553   3.550   0.590  0.0505 -0.3523 -1.0840
    2MPD1    C214147   0.591   3.419   0.623  0.5815 -0.2845 -0.7518
    2MPD1    C314148   0.565   3.317   0.539  0.0764 -1.1295 -0.0878
    2MPD1    C414149   0.524   3.340   0.414 -0.4866  0.1042 -0.2319
    2MPD1    C514150   0.505   3.467   0.374 -0.1625 -0.1716 -0.0169
    2MPD1     H14151   0.641   3.390   0.715  0.6080  0.4236 -0.5386
    2MPD1    H114152   0.507   3.254   0.350  0.4525  1.2715 -2.0224
    2MPD1    H214153   0.507   3.673   0.426 -0.6355 -1.0539 -1.5285
    2MPD1    H314154   0.468   3.496   0.277 -1.6260 -1.2459  0.2176
    2MPD1     N14155   0.603   3.182   0.573  0.0966  0.4074 -0.0413
    2MPD1    H514156   0.660   3.164   0.655 -0.7176  0.1850  0.4752
    2MPD1    N114157   0.571   3.655   0.680 -0.7932 -0.1156 -0.3507
    2MPD1    H614158   0.515   3.738   0.662  2.1003  0.9592 -4.4081
    2MPD1    H714159   0.561   3.627   0.777 -0.3702  0.1732 -0.2286
    1MPD1     C14160   2.851   2.947  11.822 -0.3111  1.2027  0.7073
    1MPD1    C114161   2.980   2.949  11.866 -0.5914 -0.6751  0.1850
    1MPD1    C214162   3.055   2.837  11.865 -0.0098 -0.3003 -0.3111
    1MPD1    C314163   3.000   2.718  11.824  0.5191  0.3248  0.0584
    1MPD1    C414164   2.865   2.714  11.804 -0.0354  0.3144 -0.1499
    1MPD1    C514165   2.792   2.826  11.798 -0.2674  0.1655 -0.3459
    1MPD1     H14166   3.156   2.844  11.904  1.2313 -2.5887 -3.1320
    1MPD1    H114167   2.822   2.624  11.763  1.0835  0.5200 -1.7726
    1MPD1    H214168   2.800   3.034  11.782 -0.9239  0.8722  0.7685
    1MPD1    H314169   2.689   2.823  11.764 -0.8606 -1.0905  1.5782
    1MPD1     N14170   3.085   2.605  11.793  0.5534 -0.2119  0.3139
    1MPD1    H514171   3.182   2.623  11.819  0.8951  2.8008 -3.0647
    1MPD1    N114172   3.034   3.073  11.885 -0.0235  0.2052 -0.3207
    1MPD1    H614173   3.122   3.072  11.937  0.8542  1.7970 -1.7650
    1MPD1    H714174   2.981   3.142  11.937 -0.0764 -0.8327  1.0067
    2MPD1     C14175   2.499   3.121  11.574  0.0631 -0.5597  0.0197
    2MPD1    C114176   2.626   3.132  11.528  0.3292  0.5813  1.3038
    2MPD1    C214177   2.688   3.016  11.471 -0.6324 -0.0791  0.4423
    2MPD1    C314178   2.622   2.893  11.486 -0.2193  0.3966 -0.5438
    2MPD1    C414179   2.494   2.885  11.546 -0.4404  1.1649  0.3685
    2MPD1    C514180   2.432   3.002  11.575 -0.9433  0.0972 -0.7116
    2MPD1     H14181   2.792   3.029  11.444 -0.9338  0.0278 -0.6878
    2MPD1    H114182   2.446   2.788  11.552  1.2382  0.2911 -0.3981
    2MPD1    H214183   2.447   3.211  11.606  0.3190  0.1327 -1.4790
    2MPD1    H314184   2.327   2.992  11.603 -0.9263 -0.1458 -0.7359
    2MPD1     N14185   2.677   2.775  11.435 -0.4794  0.1401 -0.4159
    2MPD1    H514186   2.620   2.690  11.433  1.8907 -1.4598 -0.3768
    2MPD1    N114187   2.688   3.259  11.517 -0.5588 -0.8166 -0.1177
    2MPD1    H614188   2.643   3.334  11.570  0.3335 -1.5967  1.7444
    2MPD1    H714189   2.779   3.260  11.562 -0.0379  1.5562 -1.2137
    3MPD1     C14190   2.308   2.464  10.612  0.6470 -0.4417 -0.5641
    3MPD1    C114191   2.411   2.552  10.582 -0.1977 -0.7587 -0.1034
    3MPD1    C214192   2.509   2.559  10.681 -0.5501  0.1427 -0.3606
    3MPD1    C314193   2.495   2.512  10.809  0.2318 -1.2890 -0.0615
    3MPD1    C414194   2.389   2.431  10.837  0.1430 -0.3479 -0.4260
    3MPD1    C514195   2.298   2.412  10.737 -0.2589  0.4241  0.1856
    3MPD1     H14196   2.592   2.626  10.661 -0.8235 -0.0948 -2.2850
    3MPD1    H114197   2.375   2.374  10.928  1.5860  0.1228  0.0967
    3MPD1    H214198   2.229   2.435  10.543  0.2909 -1.6219  0.3318
    3MPD1    H314199   2.232   2.329  10.757  2.1413 -1.7967 -1.0857
    3MPD1     N14200   2.590   2.551  10.904  0.7322  0.5796  0.9245
    3MPD1    H514201   2.667   2.609  10.872  0.7434  0.2568  0.3562
    3MPD1    N114202   2.421   2.592  10.448  0.4925 -0.2350  0.3022
    3MPD1    H614203   2.330   2.615  10.407 -0.0904  1.8605  2.7108
    3MPD1    H714204   2.490   2.666  10.433 -1.9659  2.0027 -0.0300
    4MPD2     C14205   3.674   2.444  11.413  0.5378  0.9952 -1.3674
    4MPD2    C114206   3.599   2.324  11.433 -0.3498  0.3336  0.2281
    4MPD2    C214207   3.610   2.218  11.345 -0.1102 -0.0536  0.0714
    4MPD2    C314208   3.690   2.225  11.230 -0.5684  0.4984  0.0359
    4MPD2    C414209   3.767   2.339  11.218 -0.3149  0.4941 -0.5662
    4MPD2    C514210   3.762   2.438  11.308 -1.0338  0.0618 -0.0663
    4MPD2     H14211   3.561   2.123  11.361  0.1175 -0.5319 -2.1146
    4MPD2    H114212   3.827   2.346  11.129 -1.8458  1.7318 -1.5064
    4MPD2    H214213   3.661   2.533  11.474  3.8195  0.0008  0.7592
    4MPD2    H314214   3.824   2.523  11.284 -0.7699 -0.5909 -1.7029
    4MPD2     N14215   3.680   2.125  11.133  0.0085  0.0687 -0.0428
    4MPD2    H514216   3.622   2.043  11.154  0.3160  0.4283  2.1644
    4MPD2    N114217   3.525   2.298  11.553 -0.2337 -0.0112 -0.3160
    4MPD2    H714218   3.490   2.204  11.566  1.9134 -0.7907 -0.0893
    5TMC3    C114219   3.393   2.341  11.741  0.0824  0.0234 -0.2017
    5TMC3    C214220   3.294   2.434  11.734 -1.2033 -0.2573  0.5129
    5TMC3    C314221   3.168   2.389  11.712  0.4965 -0.0856  0.0114
    5TMC3    C414222   3.375   2.204  11.740 -0.1970  0.1602 -0.1849
    5TMC3    C514223   3.246   2.163  11.699 -0.1576  0.3287  0.4248
    5TMC3    C614224   3.145   2.251  11.700 -0.7235 -0.5833 -0.4509
    5TMC3     C14225   3.501   2.386  11.654  0.5021 -0.6653  0.5181
    5TMC3     O14226   3.536   2.504  11.670  0.2937  0.0372 -0.3961
    5TMC3     H14227   3.314   2.540  11.741 -0.2494 -0.4666  0.9652
    5TMC3    H114228   3.454   2.130  11.747 -1.5744 -1.4255 -1.1362
    5TMC3    H214229   3.041   2.226  11.680  0.2407 -3.1734 -2.2076
    5TMC3    C714230   3.252   2.073  11.583  0.1396 -0.3911  0.2743
    5TMC3    C814231   3.054   2.479  11.738 -0.2511  0.2764 -0.3160
    5TMC3    O114232   3.367   2.062  11.539 -0.1988  0.2394  0.1797
    5TMC3    O214233   2.946   2.424  11.721  0.4065 -0.4222  0.2476
    6TMC3    C114234   2.815   2.646  11.289 -0.7026  0.0853  0.1971
    6TMC3    C214235   2.697   2.596  11.238 -0.7537 -0.4097 -0.1513
    6TMC3    C314236   2.704   2.547  11.109 -0.4222  0.4801  0.1286
    6TMC3    C414237   2.932   2.634  11.225 -0.0254 -0.3447  0.4513
    6TMC3    C514238   2.928   2.597  11.098 -0.3973  0.4750 -0.1644
    6TMC3    C614239   2.815   2.558  11.033 -0.3529  0.5269  0.7856
    6TMC3     C14240   2.806   2.761  11.378  0.1204  0.1245  0.6228
    6TMC3     O14241   2.901   2.841  11.372  0.0118 -0.2152 -0.4117
    6TMC3     H14242   2.598   2.621  11.275 -0.7380  0.9018 -1.0143
    6TMC3    H114243   3.025   2.655  11.277 -0.0662 -1.3616  0.9346
    6TMC3    H214244   2.812   2.508  10.937  1.9400 -1.2184  1.6050
    6TMC3    C714245   3.050   2.560  11.027 -0.3344 -0.9461 -0.7569
    6TMC3    C814246   2.584   2.520  11.037  0.0286 -0.5478 -0.0555
    6TMC3    O114247   3.040   2.514  10.916 -0.0775 -0.8774  0.4795
    6TMC3    O214248   2.485   2.509  11.099 -1.1077 -0.1163 -0.1576
    7MPD2     C14249   3.054   1.829  11.180 -0.6881 -0.2952  0.5123
    7MPD2    C114250   3.181   1.874  11.204 -0.5821  0.1169 -0.0020
    7MPD2    C214251   3.210   1.939  11.324 -0.0900 -0.7348 -0.2948
    7MPD2    C314252   3.112   1.971  11.419  0.1485 -1.5055 -0.5615
    7MPD2    C414253   2.985   1.937  11.379 -0.4045  0.8601  0.3409
    7MPD2    C514254   2.959   1.871  11.267 -0.1238 -0.0532 -0.6048
    7MPD2     H14255   3.308   1.985  11.331 -0.5026  0.2320 -0.9249
    7MPD2    H114256   2.907   1.989  11.435 -1.6133 -0.2356 -0.3376
    7MPD2    H214257   3.023   1.793  11.082  2.3155  0.3050 -0.6473
    7MPD2    H314258   2.855   1.865  11.236  0.1594 -1.7152 -1.2494
    7MPD2     N14259   3.133   2.037  11.538  0.4460 -0.2983 -0.1013
    7MPD2    H514260   3.051   2.044  11.599  0.1052 -0.6139 -0.5268
    7MPD2    N114261   3.278   1.866  11.100 -0.1084  0.3090 -0.2389
    7MPD2    H714262   3.243   1.849  11.006  0.7049 -1.1509 -0.2818
    8TMC3    C114263   3.469   1.916  10.981  0.2085  0.6770 -0.3520
    8TMC3    C214264   3.397   1.986  10.885  0.2869  0.3359 -0.1854
    8TMC3    C314265   3.471   2.082  10.827 -0.5630  0.2063 -0.0455
    8TMC3    C414266   3.608   1.929  10.996  0.6020  0.0255 -0.7074
    8TMC3    C514267   3.681   2.023  10.929 -0.9893 -0.1741 -0.5295
    8TMC3    C614268   3.606   2.094  10.833 -0.6151 -0.2236 -0.2442
    8TMC3     C14269   3.406   1.912  11.108 -0.3215  0.3304  0.3913
    8TMC3     O14270   3.483   1.934  11.206  0.2537  0.2096  0.3509
    8TMC3     H14271   3.289   1.995  10.884  0.3991  1.4187 -3.3870
    8TMC3    H114272   3.660   1.879  11.077  0.2389 -2.8812 -2.2500
    8TMC3    H214273   3.661   2.165  10.773  0.7293  0.5309  1.8932
    8TMC3    C714274   3.751   2.114  11.014 -0.7542 -0.7237 -0.0294
    8TMC3    C814275   3.409   2.210  10.839 -0.3906 -0.1718  0.4627
    8TMC3    O114276   3.823   2.201  10.966 -0.5506 -0.2494 -0.5873
    8TMC3    O214277   3.296   2.225  10.797  0.8158 -0.7619 -0.3538
    9MPD2     C14278   3.550   2.498  11.017  0.0327  0.5167 -0.4851
    9MPD2    C114279   3.455   2.426  10.957 -0.2189  1.1791 -0.5525
    9MPD2    C214280   3.324   2.466  10.972  0.5211 -0.4682  0.1583
    9MPD2    C314281   3.290   2.580  11.041  0.4398 -0.0692  0.0881
    9MPD2    C414282   3.394   2.649  11.111  0.3684 -0.7127  0.7811
    9MPD2    C514283   3.523   2.621  11.077  0.1485  0.1639 -0.3027
    9MPD2     H14284   3.244   2.411  10.924  2.2060 -3.1032  0.3380
    9MPD2    H114285   3.380   2.727  11.185  1.0486 -0.8580  1.0534
    9MPD2    H214286   3.652   2.464  11.001  0.2108  0.9474 -0.2701
    9MPD2    H314287   3.605   2.673  11.124  0.9853 -0.7353 -0.7574
    9MPD2     N14288   3.161   2.610  11.079 -0.1193 -0.0172 -0.1514
    9MPD2    H514289   3.145   2.668  11.160  0.3409 -0.2738  0.1201
    9MPD2    N114290   3.497   2.303  10.897  0.4030 -1.0164  0.2110
    9MPD2    H714291   3.588   2.266  10.921  1.3120  1.0293 -0.1539
    1MPD1     C14292   2.713   1.751  15.985 -0.3389 -0.0304  0.3688
    1MPD1    C114293   2.694   1.697  15.865 -0.2694 -0.6197  0.1557
    1MPD1    C214294   2.649   1.769  15.760 -0.4172  0.8256 -0.1814
    1MPD1    C314295   2.606   1.901  15.780 -0.5316 -0.6977 -1.0551
    1MPD1    C414296   2.638   1.959  15.903  0.6168 -0.3310 -0.7216
    1MPD1    C514297   2.689   1.884  16.007  0.3708 -0.0951 -0.5763
    1MPD1     H14298   2.649   1.722  15.662  0.7495 -1.6190  1.0202
    1MPD1    H114299   2.636   2.067  15.916 -0.7752 -0.7013  2.1037
    1MPD1    H214300   2.749   1.681  16.059  0.1514  0.4603  0.5967
    1MPD1    H314301   2.694   1.930  16.105 -2.3138 -3.4089  1.1049
    1MPD1     N14302   2.530   1.974  15.685  0.0983 -0.0729 -0.0444
    1MPD1    H514303   2.503   2.063  15.726 -2.1947 -0.6233 -0.3437
    1MPD1    N114304   2.702   1.558  15.846 -0.0703  0.4956  0.8063
    1MPD1    H614305   2.773   1.513  15.904 -1.3533 -0.1524  1.8771
    1MPD1    H714306   2.723   1.537  15.749 -1.3934 -0.4763  0.7391
    2TMC2    C114307   2.312   2.239  15.442  0.1338  0.4733  0.5521
    2TMC2    C214308   2.227   2.188  15.338 -0.3991 -0.0236 -0.1320
    2TMC2    C314309   2.237   2.053  15.307  0.2870 -0.0240 -0.1853
    2TMC2    C414310   2.397   2.156  15.513 -0.3047  0.0454 -0.5042
    2TMC2    C514311   2.399   2.023  15.483  0.2153 -0.6618  0.6411
    2TMC2    C614312   2.322   1.970  15.383  0.5635 -0.6527  0.3226
    2TMC2     C14313   2.296   2.384  15.469  0.0205 -0.1457  0.0692
    2TMC2     O14314   2.238   2.456  15.391  0.0437 -0.5054  0.2893
    2TMC2     H14315   2.158   2.250  15.281  0.0235  0.1949 -0.4017
    2TMC2    H114316   2.466   2.196  15.586 -0.5460  0.8609 -0.7245
    2TMC2    H214317   2.328   1.864  15.360 -0.1783 -0.6050 -0.0745
    2TMC2    C714318   2.483   1.933  15.561  0.0134  0.5062 -0.1915
    2TMC2    C814319   2.182   2.008  15.176  0.5852  0.1374 -0.3393
    2TMC2    O114320   2.511   1.830  15.506 -0.1975  0.7280 -0.1410
    2TMC2    O214321   2.137   2.089  15.101 -0.4299 -0.1661  0.0325
    2TMC2    O514322   2.177   1.873  15.162  0.5210 -0.0551 -0.2289
    2TMC2    H514323   2.187   1.828  15.248  1.1518  0.2131 -0.1693
    3MPD1     C14324   2.362   2.773  15.803  0.1152  0.4627  0.0523
    3MPD1    C114325   2.388   2.659  15.872  0.6573 -0.1606 -0.0112
    3MPD1    C214326   2.387   2.538  15.800 -0.3247 -0.4161  0.0822
    3MPD1    C314327   2.335   2.534  15.671  0.2806  0.3196  0.6906
    3MPD1    C414328   2.309   2.654  15.605  0.6074 -0.2266 -0.2521
    3MPD1    C514329   2.319   2.768  15.670  0.1323 -0.2063  0.6096
    3MPD1     H14330   2.425   2.452  15.854 -0.5286 -1.9443 -2.2056
    3MPD1    H114331   2.269   2.662  15.505 -0.6163 -0.2286  0.2368
    3MPD1    H214332   2.378   2.873  15.844  1.4453  0.0256  0.6059
    3MPD1    H314333   2.292   2.856  15.613 -2.2930 -0.3598  1.5284
    3MPD1     N14334   2.331   2.409  15.603  0.5765  0.6852  0.1958
    3MPD1    H514335   2.368   2.327  15.650  3.8974  2.0333 -0.0583
    3MPD1    N114336   2.445   2.665  16.000 -0.6284 -0.3770 -0.1945
    3MPD1    H614337   2.418   2.581  16.051  1.0370  0.2312  1.6823
    3MPD1    H714338   2.407   2.739  16.057 -0.7694  0.0376 -0.8196
    1TMC1    C114339   1.277   0.329  12.994 -0.3497  0.1480 -0.3240
    1TMC1    C214340   1.191   0.272  13.085 -0.8400  0.8096 -0.3979
    1TMC1    C314341   1.058   0.287  13.061  0.2085  0.1753 -0.5158
    1TMC1    C414342   1.225   0.386  12.876 -0.0742  0.1199 -0.4257
    1TMC1    C514343   1.091   0.393  12.859 -0.1294  0.3562 -0.8695
    1TMC1    C614344   1.005   0.348  12.956  0.2075 -1.0913 -1.0903
    1TMC1     C14345   1.419   0.367  13.019  0.8667 -0.4788 -0.0902
    1TMC1     O14346   1.478   0.401  12.920 -0.3520 -0.0575  0.9625
    1TMC1     H14347   1.219   0.220  13.177  0.8884  0.4593 -1.1073
    1TMC1    H114348   1.288   0.428  12.798  0.5603 -1.6218 -0.8477
    1TMC1    H214349   0.899   0.363  12.935  0.0680  0.3411  0.6376
    1TMC1    C714350   1.012   0.434  12.744  0.3892 -0.3504 -0.1036
    1TMC1    C814351   0.960   0.247  13.161  0.9664  0.2296 -0.7072
    1TMC1    O114352   0.903   0.391  12.722  0.5632 -0.3054 -0.7492
    1TMC1    O214353   0.847   0.228  13.133 -0.2050 -0.1553  0.3418
    1TMC1    O314354   1.057   0.558  12.702  0.0433  0.1636  0.0686
    1TMC1    H314355   1.154   0.571  12.706  0.2253 -1.1056 -0.1997
    1TMC1    O514356   0.996   0.314  13.271  0.0945 -0.4798  0.2999
    1TMC1    H514357   1.089   0.342  13.285  0.7376 -2.9457  0.8558
    2MPD2     C14358   1.701   0.361  13.106 -0.9603  0.4279 -0.3819
    2MPD2    C114359   1.594   0.351  13.196 -0.4984 -0.0829 -0.7390
    2MPD2    C214360   1.630   0.345  13.328  0.1207  0.4661 -0.5363
    2MPD2    C314361   1.761   0.366  13.367 -0.0323 -0.4913  0.1941
    2MPD2    C414362   1.854   0.397  13.272  0.4364  0.3553 -0.1094
    2MPD2    C514363   1.828   0.385  13.143 -0.1895  0.1367  0.4865
    2MPD2     H14364   1.558   0.336  13.409  0.2590  0.7339 -0.3859
    2MPD2    H114365   1.951   0.434  13.306  0.5429  1.9903 -2.2221
    2MPD2    H214366   1.687   0.358  12.998  1.8502  1.6366 -0.7858
    2MPD2    H314367   1.903   0.395  13.065  0.9991 -0.6007  1.5325
    2MPD2     N14368   1.790   0.357  13.507  0.2827 -1.2733  0.0402
    2MPD2    H514369   1.709   0.345  13.565  1.1152 -1.9184  1.0598
    2MPD2    N114370   1.457   0.333  13.149 -0.6094 -0.4918 -0.0028
    2MPD2    H714371   1.381   0.320  13.215  0.3751 -0.0931  1.2161
    3TCq1    O114372   2.156   0.271  14.041 -0.2360  0.1988  0.0204
    3TCq1    C114373   2.156   0.391  13.981 -0.1530  0.0627 -0.6351
    3TCq1    O214374   2.248   0.462  13.945  0.4445  0.6851  0.7553
    3TCq1    C214375   2.031   0.392  13.919 -0.0153  0.3929 -0.1952
    3TCq1    C314376   1.923   0.368  14.000 -0.2621 -0.8148  0.2188
    3TCq1    C414377   1.802   0.362  13.932 -0.1828  0.0863 -1.1781
    3TCq1    C514378   1.800   0.351  13.799  0.3504  0.3956  0.1242
    3TCq1    C614379   1.914   0.379  13.720 -0.2109  0.0540  0.4295
    3TCq1    C714380   2.032   0.402  13.781  0.5672 -0.3372 -0.4676
    3TCq1    C814381   1.914   0.377  13.570 -0.1695  0.7274 -0.2878
    3TCq1    O414382   2.020   0.396  13.512  0.2398  0.0831 -0.0197
    3TCq1    C914383   1.681   0.372  14.008  0.5930 -0.8673  0.5523
    3TCq1    O514384   1.692   0.417  14.125 -0.6445 -0.6735 -0.2283
    3TCq1    O614385   1.590   0.294  13.965 -0.2634 -0.2574  0.0367
    3TCq1    H114386   2.068   0.228  14.039 -1.1865  2.2651 -3.2996
    3TCq1    H214387   1.931   0.382  14.107 -1.6604 -0.8060  0.3226
    3TCq1    H314388   1.699   0.345  13.759  0.6518 -4.5783  0.1248
    3TCq1    H414389   2.129   0.416  13.734  1.0154 -2.8163 -0.2964
    1MPD2     C14390   0.258   1.952  14.602 -0.3525 -0.5307 -0.0461
    1MPD2    C114391   0.122   1.968  14.620 -0.2832 -0.2829  0.0976
    1MPD2    C214392   0.035   1.890  14.543  0.4415 -0.0044 -0.2223
    1MPD2    C314393   0.081   1.792  14.455 -0.6227  0.0746  0.1951
    1MPD2    C414394   0.218   1.772  14.447  0.1812 -0.1076 -0.2556
    1MPD2    C514395   0.303   1.859  14.517  0.6325  0.4858 -0.4168
    1MPD2     H14396   4.665   1.911  14.556  0.5281  0.1266  0.2959
    1MPD2    H114397   0.259   1.692  14.387  2.2770  0.9836 -0.2685
    1MPD2    H214398   0.329   2.022  14.644  0.0176 -0.7793 -0.2559
    1MPD2    H314399   0.408   1.845  14.493  0.9958  1.2546  0.7366
    1MPD2     N14400   4.729   1.731  14.361  0.5577 -0.1400 -0.2543
    1MPD2    H514401   0.024   1.643  14.320  1.7206 -0.2304  0.7934
    1MPD2    N114402   0.069   2.080  14.701 -0.1575 -0.3169  0.4780
    1MPD2    H714403   0.130   2.115  14.774 -1.2149  0.1831  1.1379
    2TMC3    C114404   4.661   2.231  14.807  0.2634 -0.1332  0.0744
    2TMC3    C214405   4.531   2.228  14.853  0.5043 -0.0992  0.6337
    2TMC3    C314406   4.450   2.341  14.843 -0.7193  0.2998  0.1792
    2TMC3    C414407   4.710   2.346  14.756 -0.0530  0.1793 -0.2259
    2TMC3    C514408   4.635   2.463  14.759  0.2305 -0.2122  0.4046
    2TMC3    C614409   4.507   2.455  14.799  0.5791  0.0977 -0.1914
    2TMC3     C14410   4.680   2.121  14.714 -0.1723 -1.2445 -0.0470
    2TMC3     O14411   4.573   2.082  14.666  1.0339 -0.6615  0.0813
    2TMC3     H14412   4.486   2.135  14.886  0.8235 -0.5185 -0.1181
    2TMC3    H114413   0.079   2.339  14.728  0.1731  0.2687  0.5955
    2TMC3    H214414   4.437   2.533  14.772 -0.7793 -1.4651 -1.1616
    2TMC3    C714415   4.673   2.581  14.676 -0.3551 -0.2535 -0.2532
    2TMC3    C814416   4.323   2.307  14.771  0.4870  0.4669 -0.2886
    2TMC3    O114417   4.582   2.644  14.634 -0.1403  0.1650  0.5581
    2TMC3    O214418   4.232   2.385  14.764  0.5350 -0.1464 -0.1494
    3TCq1    O114419   0.897   3.294  14.525  0.6571  0.0463  0.5710
    3TCq1    C114420   0.907   3.232  14.643  0.1958 -0.4701 -0.0933
    3TCq1    O214421   1.013   3.204  14.699 -0.4358 -0.3698 -0.8465
    3TCq1    C214422   0.780   3.171  14.679 -0.6154 -0.3621 -0.5432
    3TCq1    C314423   0.768   3.119  14.810 -0.2779 -0.4575 -0.8438
    3TCq1    C414424   0.647   3.077  14.860  0.0360  0.4471  0.4797
    3TCq1    C514425   0.541   3.075  14.778 -0.6016 -0.2178 -0.2134
    3TCq1    C614426   0.556   3.110  14.647  0.0988  0.5167  0.0228
    3TCq1    C714427   0.672   3.157  14.598  0.1362  0.5413 -0.6421
    3TCq1    C814428   0.476   3.045  14.550 -0.4120  0.2371  0.1200
    3TCq1    O414429   0.485   3.078  14.436 -0.5180  0.0488 -0.2282
    3TCq1    C914430   0.624   3.045  15.005  0.0991 -0.2725 -0.0457
    3TCq1    O514431   0.729   3.024  15.070  0.2097  0.2403 -0.2580
    3TCq1    O614432   0.508   3.016  15.035  0.3239  0.0538 -0.1626
    3TCq1    H114433   0.810   3.304  14.482 -0.0053 -0.0688  1.9064
    3TCq1    H214434   0.851   3.122  14.880  1.1738 -0.6517 -2.5712
    3TCq1    H314435   0.442   3.053  14.815 -0.2999  0.4431  0.9916
    3TCq1    H414436   0.689   3.171  14.492  1.0369  2.4301 -0.2331
    4MPD2     C14437   0.229   2.920  14.455 -0.1250  0.7241 -0.0364
    4MPD2    C114438   0.299   2.876  14.569  0.5122  0.0263 -0.1501
    4MPD2    C214439   0.255   2.759  14.628  0.5732  0.2699 -0.6118
    4MPD2    C314440   0.135   2.704  14.591  0.0401 -0.2846  0.5150
    4MPD2    C414441   0.063   2.754  14.479  0.2468 -0.2244 -0.7237
    4MPD2    C514442   0.112   2.861  14.419 -1.0726  0.2155 -0.0995
    4MPD2     H14443   0.308   2.723  14.716 -2.1012 -0.9884  0.4979
    4MPD2    H114444   4.703   2.711  14.449  0.2317 -0.3372 -0.5160
    4MPD2    H214445   0.252   3.015  14.409 -1.4753  1.7328  1.3667
    4MPD2    H314446   0.064   2.912  14.336 -2.1826  1.2505  1.1805
    4MPD2     N14447   0.077   2.602  14.666  0.1457  0.0964  0.3659
    4MPD2    H514448   0.145   2.544  14.714  0.9205 -0.3600 -1.2828
    4MPD2    N114449   0.419   2.935  14.611  0.0551  0.7425 -0.4604
    4MPD2    H714450   0.449   2.913  14.706 -2.7302 -2.2413 -0.2650
    5TMC2    C114451   4.299   1.722  14.202 -0.1536  0.3788  0.4759
    5TMC2    C214452   4.273   1.590  14.225  0.8655  0.2007 -1.2271
    5TMC2    C314453   4.387   1.514  14.253 -0.8203 -0.0995  0.0796
    5TMC2    C414454   4.424   1.777  14.204  0.7671  0.2837 -0.0381
    5TMC2    C514455   4.528   1.694  14.240  0.3237 -0.1750 -0.0456
    5TMC2    C614456   4.509   1.563  14.269  0.6094 -0.6303 -0.7497
    5TMC2     C14457   4.210   1.813  14.259  0.1913 -0.3395 -0.1976
    5TMC2     O14458   4.090   1.801  14.236  0.6018  0.0878 -0.2173
    5TMC2     H14459   4.172   1.558  14.245  1.7151 -2.0454 -0.4902
    5TMC2    H114460   4.450   1.879  14.180 -0.4699  0.6873  0.3025
    5TMC2    H214461   4.589   1.506  14.314  1.0762 -1.0884 -2.1345
    5TMC2    C714462   4.600   1.774  14.336 -0.7387  0.1566 -0.1086
    5TMC2    C814463   4.378   1.373  14.263 -0.4060  0.4038  0.1526
    5TMC2    O114464   4.542   1.872  14.377 -0.0856  0.0782 -0.2282
    5TMC2    O214465   4.484   1.317  14.288  0.0917 -0.0414 -0.5850
    5TMC2    O514466   4.269   1.320  14.194  0.3538  0.2207 -0.1071
    5TMC2    H514467   4.212   1.383  14.145 -0.5164  0.5755  1.3676
    6MPD2     C14468   4.108   2.193  14.586 -0.2133 -0.2020 -0.8878
    6MPD2    C114469   4.238   2.150  14.600 -0.2480 -0.4757 -0.0728
    6MPD2    C214470   4.280   2.055  14.521 -0.3681  0.0254 -0.4874
    6MPD2    C314471   4.206   1.999  14.423  0.1538  1.0016 -0.2087
    6MPD2    C414472   4.069   2.040  14.406 -0.8281  0.2459  0.3678
    6MPD2    C514473   4.022   2.139  14.492 -0.2049  0.4421 -0.4591
    6MPD2     H14474   4.387   2.038  14.509 -0.7561 -0.7668 -2.6656
    6MPD2    H114475   3.998   2.001  14.334 -0.0008 -0.4712 -0.0532
    6MPD2    H214476   4.068   2.261  14.661 -0.7728 -0.9921 -0.4747
    6MPD2    H314477   3.919   2.171  14.498 -0.7373 -0.6000 -3.9000
    6MPD2     N14478   4.269   1.899  14.348  0.1899 -0.4503 -0.4073
    6MPD2    H514479   4.365   1.870  14.367  0.6801  1.2048 -0.3622
    6MPD2    N114480   4.333   2.191  14.694 -0.1408  0.5076  0.0959
    6MPD2    H714481   4.426   2.152  14.688 -0.8727 -0.5065 -4.2290
  945NH4     N114482   1.830   0.576   9.722  0.3432 -0.2441  0.0997
  945NH4     H214483   1.916   0.599   9.777  1.8577  1.5204 -3.0527
  945NH4     H314484   1.756   0.648   9.731 -0.7170 -1.4145  0.7678
  945NH4     H414485   1.790   0.486   9.757 -0.7709 -0.1478 -0.9247
  945NH4     H514486   1.847   0.557   9.621  0.2329  0.3826 -0.0329
  946SOD     NA14487   0.232   2.209  15.125  0.1521  0.2592 -0.3535
  947SOD     NA14488   2.785   1.671  16.430  0.4822 -0.0112  0.8811
  948SOD     NA14489   0.712   0.315  13.283  0.0324 -0.2614 -0.1398
  949SOD     NA14490   1.192   1.025  14.542 -0.3418  0.0315 -0.4072
  950SOD     NA14491   1.127   2.731   8.271 -0.1175 -0.0337 -0.0075
  951SOD     NA14492   1.649   1.648   2.611  0.1812  0.6343  0.2147
  952SOD     NA14493   1.767   2.801  12.945 -0.0806 -0.0723  0.0202
  953SOL     OW14494   2.596   1.726   9.043  0.1714 -0.3822 -0.2061
  953SOL    HW114495   2.554   1.661   9.100 -0.0044  0.6000  0.7773
  953SOL    HW214496   2.688   1.707   9.062  0.1118 -0.7807 -0.3040
  954SOL     OW14497   0.939   4.439   4.949  0.6263 -0.9876  0.0085
  954SOL    HW114498   0.862   4.438   4.892  0.8984 -2.2698 -0.3286
  954SOL    HW214499   0.914   4.489   5.027 -0.5833 -1.3114 -0.1825
  955SOL     OW14500   2.459   0.565   8.779  0.2636 -0.2516  0.2876
  955SOL    HW114501   2.517   0.532   8.847 -0.5099 -4.7709 -1.2090
  955SOL    HW214502   2.524   0.588   8.714 -0.8034 -2.0808 -1.4432
  956SOL     OW14503   4.574   0.935   2.970 -0.6944 -0.2838  0.6444
  956SOL    HW114504   4.668   0.953   2.972 -0.1551 -2.9832 -0.7368
  956SOL    HW214505   4.562   0.975   2.884  1.0151 -0.9305  0.1134
  957SOL     OW14506   3.674   2.069   7.065 -0.1583  0.0154  0.0293
  957SOL    HW114507   3.756   2.064   7.017  0.1346 -0.6052  0.5982
  957SOL    HW214508   3.604   2.052   7.002 -1.1032 -1.6094  1.5369
  958SOL     OW14509   0.045   3.312   2.752 -0.4531 -0.1694  0.2721
  958SOL    HW114510   4.705   3.297   2.696  0.7046  1.6276 -1.7887
  958SOL    HW214511   0.030   3.403   2.776 -0.7677 -0.7142  2.1058
  959SOL     OW14512   2.213   4.481   4.288 -0.3790 -0.1874 -0.3107
  959SOL    HW114513   2.171   4.562   4.261  0.9247  0.1155 -1.4196
  959SOL    HW214514   2.250   4.456   4.204 -0.4911 -0.2602 -0.3381
  960SOL     OW14515   0.242   2.141   5.243  0.1064  0.5583  0.3420
  960SOL    HW114516   0.252   2.226   5.286 -3.0042  0.4748  1.2550
  960SOL    HW214517   0.152   2.136   5.210  0.0632  0.8325  0.4156
  961SOL     OW14518   1.389   3.543   4.839  0.4879  0.2878 -0.0017
  961SOL    HW114519   1.399   3.454   4.875 -1.3245 -0.2226 -0.7506
  961SOL    HW214520   1.477   3.580   4.834  0.5736  0.2213  1.2092
  962SOL     OW14521   4.330   3.857   7.726  0.4788  0.2705 -0.1335
  962SOL    HW114522   4.309   3.950   7.730  1.4767  0.5471 -1.2306
  962SOL    HW214523   4.416   3.862   7.682  0.5240  2.0771  0.1699
  963SOL     OW14524   4.284   0.536   3.236  0.1246  0.5492  1.0659
  963SOL    HW114525   4.266   0.599   3.306  0.5372  2.6414 -0.7352
  963SOL    HW214526   4.354   0.575   3.184 -0.5872 -0.2303 -0.4527
  964SOL     OW14527   3.196   1.438   7.609 -0.1342  0.2510  0.0093
  964SOL    HW114528   3.203   1.449   7.704  0.8449 -1.4093  0.1207
  964SOL    HW214529   3.169   1.522   7.571  3.1782  1.0973 -0.4634
  965SOL     OW14530   1.620   3.342   3.118 -0.1991  0.0063  0.3443
  965SOL    HW114531   1.663   3.303   3.042  0.7918  0.5577  0.6158
  965SOL    HW214532   1.697   3.381   3.159 -1.0508  1.8477  0.1990
  966SOL     OW14533   4.127   1.085  11.634 -0.0491  0.1403 -0.3142
  966SOL    HW114534   4.212   1.059  11.599 -0.1830  0.0022 -0.5305
  966SOL    HW214535   4.113   1.179  11.617 -1.1769  0.0801  0.2969
  967SOL     OW14536   1.223   4.332   2.652 -0.2297  0.0401  0.9819
  967SOL    HW114537   1.193   4.395   2.588 -2.2238  0.1819  2.0692
  967SOL    HW214538   1.206   4.245   2.615 -1.2289  0.2498  0.9450
  968SOL     OW14539   3.153   4.366   3.546 -0.5968  0.8745 -0.1307
  968SOL    HW114540   3.209   4.419   3.490 -0.1170 -0.3830 -0.8422
  968SOL    HW214541   3.159   4.278   3.508 -1.8331  1.0008 -0.6341
  969SOL     OW14542   3.139   3.064  11.031  0.2635  0.1020  0.2368
  969SOL    HW114543   3.144   2.970  11.047  0.1307 -0.0874 -0.7699
  969SOL    HW214544   3.180   3.092  11.112  0.9441 -1.5817  0.4814
  970SOL     OW14545   3.714   4.087   6.411 -0.2454  0.4158 -0.5057
  970SOL    HW114546   3.792   4.043   6.445  0.1050  0.8284 -0.7613
  970SOL    HW214547   3.649   4.020   6.429  0.5201 -0.4393 -0.9455
  971SOL     OW14548   3.561   2.510   0.501 -0.5201 -0.0394  0.0541
  971SOL    HW114549   3.480   2.486   0.455  0.0693 -0.3246 -0.8227
  971SOL    HW214550   3.513   2.544   0.577  2.0423  2.2544  0.6260
  972SOL     OW14551   3.445   4.183   2.586  0.0500 -0.5640 -0.0922
  972SOL    HW114552   3.501   4.210   2.513 -0.0911 -0.4603 -0.1630
  972SOL    HW214553   3.455   4.088   2.591 -2.2805 -0.9582 -2.3727
  973SOL     OW14554   0.547   3.974   9.405 -0.1770 -0.2809 -0.1165
  973SOL    HW114555   0.501   3.954   9.487  0.7779  0.8891  0.7021
  973SOL    HW214556   0.637   3.947   9.425  0.0646 -0.3306 -1.2666
  974SOL     OW14557   1.516   3.692   3.672 -0.5345  0.9472 -0.0842
  974SOL    HW114558   1.483   3.712   3.584  1.3677 -1.3566 -1.3202
  974SOL    HW214559   1.533   3.775   3.716 -3.0778  0.6658  1.4295
  975SOL     OW14560   2.042   0.565   7.891  0.2793  0.0650  0.2467
  975SOL    HW114561   2.130   0.600   7.888  0.9423 -1.3603  3.2312
  975SOL    HW214562   1.989   0.644   7.895  0.3536  0.2222 -1.6959
  976SOL     OW14563   1.471   1.036   6.979  0.4018 -0.1558 -0.0386
  976SOL    HW114564   1.510   0.993   7.055  0.0353  0.5956  0.5750
  976SOL    HW214565   1.437   0.961   6.930  0.3533  0.0388 -0.3009
  977SOL     OW14566   0.002   2.589   1.327 -0.0605 -0.5090 -0.1062
  977SOL    HW114567   0.026   2.511   1.378  0.9523  0.9758  1.6589
  977SOL    HW214568   4.696   2.635   1.400  1.8543  3.5063 -1.5348
  978SOL     OW14569   4.571   2.616   8.897  0.0894  0.3094 -0.9175
  978SOL    HW114570   4.542   2.696   8.940  1.8447 -0.5305  1.8269
  978SOL    HW214571   4.567   2.557   8.972 -0.0678 -0.4078 -1.4849
  979SOL     OW14572   2.022   4.497   1.477  0.0036 -0.5743 -0.2338
  979SOL    HW114573   1.943   4.447   1.498  0.5605 -0.7492  1.4826
  979SOL    HW214574   2.081   4.424   1.459 -0.3538 -0.6302 -1.1824
  980SOL     OW14575   2.411   1.309   2.692 -0.7644  0.5180 -0.2093
  980SOL    HW114576   2.346   1.335   2.627 -1.1036  1.7405  0.6148
  980SOL    HW214577   2.420   1.387   2.748 -1.4360  1.5254 -1.4978
  981SOL     OW14578   3.530   2.095   7.506 -0.1832 -0.2544 -0.0812
  981SOL    HW114579   3.461   2.085   7.440 -1.4382  2.8718  0.8111
  981SOL    HW214580   3.572   2.176   7.477  2.1096 -1.5076 -0.3008
  982SOL     OW14581   0.990   2.089   3.217  0.1523  0.5856  0.4762
  982SOL    HW114582   0.947   2.004   3.216  1.1116  0.1225 -1.1408
  982SOL    HW214583   0.916   2.143   3.246 -1.3781 -1.7411  0.8885
  983SOL     OW14584   2.863   0.915   0.550 -0.2920 -0.0624 -0.0491
  983SOL    HW114585   2.881   0.904   0.456 -0.1096 -1.1266  0.1044
  983SOL    HW214586   2.777   0.954   0.535 -1.3047 -1.6561  1.5818
  984SOL     OW14587   0.824   3.910   6.335 -0.1332  0.6757 -0.1999
  984SOL    HW114588   0.875   3.935   6.412 -0.1156 -2.7704  0.8617
  984SOL    HW214589   0.894   3.891   6.273  0.0580 -0.7397  0.4661
  985SOL     OW14590   3.990   2.545   2.165  0.6433  0.5103 -0.2845
  985SOL    HW114591   3.914   2.496   2.197  1.0917  0.1884  0.2956
  985SOL    HW214592   4.068   2.492   2.183 -0.4974 -2.4863 -4.1151
  986SOL     OW14593   4.705   1.754   8.351 -0.4033  0.3800 -0.5459
  986SOL    HW114594   4.728   1.831   8.301 -1.7823  1.3432  0.2919
  986SOL    HW214595   0.039   1.748   8.417 -0.3946  0.2796 -0.5633
  987SOL     OW14596   3.356   2.898  14.505  0.2737 -0.1708  0.1458
  987SOL    HW114597   3.434   2.942  14.537 -2.6654  3.9910  1.5718
  987SOL    HW214598   3.389   2.809  14.495 -1.6241 -0.7639 -0.9034
  988SOL     OW14599   0.677   2.745  11.431  0.0753 -0.1646  0.3536
  988SOL    HW114600   0.749   2.780  11.378  0.9658 -1.8971  0.4279
  988SOL    HW214601   0.615   2.818  11.436 -0.3074 -0.3469 -1.7049
  989SOL     OW14602   1.599   2.309   2.526 -0.2478 -0.3344  1.0197
  989SOL    HW114603   1.550   2.338   2.603 -0.5533  1.1089  0.2812
  989SOL    HW214604   1.560   2.361   2.457  0.4386 -0.6874  0.3609
  990SOL     OW14605   2.753   2.040  11.953  0.3874 -0.2124 -0.1499
  990SOL    HW114606   2.666   2.044  11.913 -0.7281 -2.1183  2.0850
  990SOL    HW214607   2.782   2.131  11.951 -3.2150  0.8984 -0.4458
  991SOL     OW14608   0.680   3.931   8.823 -0.1344  0.1483  0.0477
  991SOL    HW114609   0.608   3.868   8.827 -0.5618  0.5294 -1.4973
  991SOL    HW214610   0.735   3.880   8.883  1.7266  1.8425 -0.2012
  992SOL     OW14611   0.818   1.233   8.017  0.7885 -0.1293  0.0842
  992SOL    HW114612   0.865   1.251   7.935  0.4825  1.0033  0.1671
  992SOL    HW214613   0.896   1.217   8.069  1.2136 -1.7744 -1.0443
  993SOL     OW14614   4.589   1.329  15.472 -0.5635 -0.7545 -0.4358
  993SOL    HW114615   4.564   1.337  15.380  1.2480  2.4307 -0.6417
  993SOL    HW214616   4.663   1.272  15.455 -1.6701 -1.8527 -1.5769
  994SOL     OW14617   1.836   0.077   1.673  0.1536  0.1086  0.4442
  994SOL    HW114618   1.863   0.075   1.582 -3.9715 -0.0365 -0.7992
  994SOL    HW214619   1.847   0.169   1.699 -0.4733  0.0761  0.8436
  995SOL     OW14620   1.219   1.173  12.668  0.4054 -0.2804 -0.4637
  995SOL    HW114621   1.227   1.109  12.739 -0.7726 -0.4479 -0.4805
  995SOL    HW214622   1.176   1.250  12.706  0.2384 -0.5789 -0.0572
  996SOL     OW14623   2.193   4.309  14.544  0.1023 -0.4125 -0.4339
  996SOL    HW114624   2.252   4.236  14.526 -0.3532 -0.6980 -0.7826
  996SOL    HW214625   2.111   4.272  14.575 -0.1665  0.7104  0.1958
  997SOL     OW14626   0.070   1.855   0.705 -0.1984 -0.3524 -0.1350
  997SOL    HW114627   0.074   1.876   0.612  1.9522  1.9367  0.4791
  997SOL    HW214628   0.133   1.923   0.729 -1.8008  1.1547 -0.2651
  998SOL     OW14629   2.253   1.606   3.999  0.0589  0.4451 -0.8897
  998SOL    HW114630   2.194   1.679   4.013  1.8377  1.2264  2.5912
  998SOL    HW214631   2.300   1.635   3.920  0.5948  0.0744 -0.7098
  999SOL     OW14632   3.412   3.122   7.261  0.0140  0.0329  0.3206
  999SOL    HW114633   3.480   3.177   7.300  1.1498 -0.1326 -1.4402
  999SOL    HW214634   3.380   3.068   7.333 -1.1434 -1.0955 -1.0516
 1000SOL     OW14635   2.420   3.508  11.371 -0.1741 -0.2543  0.3579
 1000SOL    HW114636   2.477   3.446  11.324 -0.2339  0.4716 -0.6761
 1000SOL    HW214637   2.458   3.503  11.458 -1.5930  0.2359  0.9906
 1001SOL     OW14638   1.569   3.486  16.215  0.4870  0.3653  0.1352
 1001SOL    HW114639   1.595   3.518  16.129  0.5004  2.8230  1.0480
 1001SOL    HW214640   1.636   3.419  16.223 -1.0742 -1.5942 -3.1197
 1002SOL     OW14641   1.122   1.697   7.140 -0.0428  0.5141 -0.3937
 1002SOL    HW114642   1.157   1.769   7.193 -1.6540  2.4669 -1.9667
 1002SOL    HW214643   1.134   1.628   7.206 -1.1866  0.6254 -0.0714
 1003SOL     OW14644   4.184   3.517   7.332  0.7286 -0.1401  0.5829
 1003SOL    HW114645   4.173   3.455   7.259 -0.5620  0.7040  0.0658
 1003SOL    HW214646   4.215   3.462   7.404 -0.5372 -1.9257 -0.2073
 1004SOL     OW14647   1.232   4.414  16.760  0.2828 -0.4262  0.7262
 1004SOL    HW114648   1.252   4.321  16.750 -2.8291 -0.9855 -0.2414
 1004SOL    HW214649   1.278   4.427  16.843  1.2494 -1.5651  0.3705
 1005SOL     OW14650   2.752   3.030   5.060  0.7252  0.1755 -0.8105
 1005SOL    HW114651   2.714   3.115   5.081 -0.0663 -0.0741 -1.2692
 1005SOL    HW214652   2.824   3.016   5.122 -0.6454  0.4603  0.8497
 1006SOL     OW14653   2.561   4.519  13.280 -0.1677 -0.5203  0.3882
 1006SOL    HW114654   2.536   4.581  13.212  1.5006 -0.5726 -0.2696
 1006SOL    HW214655   2.557   4.581  13.353  3.8268  1.7243 -1.3463
 1007SOL     OW14656   2.995   1.359  16.262  0.1533  0.1613  0.0941
 1007SOL    HW114657   2.906   1.369  16.298  0.6916  1.4835  1.0457
 1007SOL    HW214658   3.029   1.294  16.324  3.3769  1.1037 -0.7190
 1008SOL     OW14659   2.814   0.304   8.491 -0.2889  0.0716  0.5490
 1008SOL    HW114660   2.841   0.363   8.562 -0.3169  1.1753 -0.3617
 1008SOL    HW214661   2.720   0.312   8.509 -0.3204 -0.0379  0.4367
 1009SOL     OW14662   1.105   2.419  14.322 -0.3323 -0.5754 -0.6966
 1009SOL    HW114663   1.150   2.495  14.285  3.2587 -1.4319  1.9209
 1009SOL    HW214664   1.152   2.347  14.281  0.3629 -0.7021  0.3179
 1010SOL     OW14665   2.107   1.908   8.000 -0.0542 -0.0365  0.0830
 1010SOL    HW114666   2.147   1.908   7.913 -2.1672  0.7819 -0.8820
 1010SOL    HW214667   2.017   1.919   7.971 -0.0649 -0.0473  0.1130
 1011SOL     OW14668   0.797   0.272  17.211 -0.1091  0.0579 -0.4936
 1011SOL    HW114669   0.818   0.181  17.189 -0.5642 -0.3461  0.7587
 1011SOL    HW214670   0.719   0.285  17.158  0.2028  1.8415 -0.4907
 1012SOL     OW14671   1.407   0.039   8.185 -0.0056 -0.3493  0.2624
 1012SOL    HW114672   1.400   0.073   8.275 -0.3230 -0.2479  0.1974
 1012SOL    HW214673   1.498   0.058   8.164 -0.1461 -1.4133 -1.2301
 1013SOL     OW14674   0.818   3.401   7.368  0.4015  0.6414  0.1712
 1013SOL    HW114675   0.780   3.340   7.431 -2.2764 -1.7090 -3.7438
 1013SOL    HW214676   0.763   3.379   7.293  2.1866  1.9555 -1.5232
 1014SOL     OW14677   2.615   0.051  15.305 -0.0746 -0.8256 -0.1636
 1014SOL    HW114678   2.630   4.733  15.383  3.2619  0.6743  0.2244
 1014SOL    HW214679   2.652   0.008  15.228  2.7409 -1.1018  1.3296
 1015SOL     OW14680   4.439   4.549  10.380 -0.0143  0.0186  0.0201
 1015SOL    HW114681   4.494   4.480  10.345 -2.1396 -1.9336  0.5131
 1015SOL    HW214682   4.420   4.607  10.307 -0.5403  1.7134  1.5091
 1016SOL     OW14683   2.094   2.955   5.543 -0.2204 -0.6148 -0.3040
 1016SOL    HW114684   2.144   2.886   5.586  0.0493 -1.2370 -1.6340
 1016SOL    HW214685   2.133   3.026   5.595 -1.1651 -1.6769  1.8354
 1017SOL     OW14686   2.436   4.329   3.755 -0.6754  0.7334 -0.8909
 1017SOL    HW114687   2.392   4.406   3.719 -1.0963  1.0610  0.3154
 1017SOL    HW214688   2.479   4.365   3.832 -1.3227  0.9413 -0.6290
 1018SOL     OW14689   1.886   0.788   4.891 -0.4289 -0.5271 -0.0983
 1018SOL    HW114690   1.873   0.877   4.857 -0.9198 -0.5351  0.0700
 1018SOL    HW214691   1.918   0.746   4.811 -0.3110  0.6749 -0.6893
 1019SOL     OW14692   2.780   3.564   2.115 -0.0985  0.2970  0.2926
 1019SOL    HW114693   2.851   3.501   2.102  0.1797  0.3433  1.6929
 1019SOL    HW214694   2.737   3.573   2.029 -3.1015  0.6804  1.8245
 1020SOL     OW14695   2.300   0.684   2.679 -0.3049 -0.1901 -0.6046
 1020SOL    HW114696   2.293   0.606   2.626  1.1460  0.3413 -1.5871
 1020SOL    HW214697   2.389   0.680   2.715 -1.0233 -1.4622  1.0252
 1021SOL     OW14698   2.642   1.964  17.346  0.2480  0.6341  0.3421
 1021SOL    HW114699   2.577   1.916  17.295 -1.6608  1.4713  1.9717
 1021SOL    HW214700   2.694   1.892  17.382 -1.6297 -1.0829 -0.4019
 1022SOL     OW14701   0.919   0.593   5.178 -0.0756  0.2017  0.2515
 1022SOL    HW114702   0.953   0.650   5.110  1.0947 -0.4163  0.3191
 1022SOL    HW214703   0.948   0.640   5.256 -0.9460 -0.0993  0.7643
 1023SOL     OW14704   2.447   2.367   3.902 -0.3839  0.3927 -0.2513
 1023SOL    HW114705   2.535   2.330   3.897 -1.2285 -1.7283  0.5307
 1023SOL    HW214706   2.419   2.335   3.816 -2.0747 -1.5819  1.0307
 1024SOL     OW14707   2.925   0.816   3.309 -0.0185  0.5444 -0.0541
 1024SOL    HW114708   2.993   0.785   3.369 -2.0868  0.6755  2.3087
 1024SOL    HW214709   2.894   0.900   3.341 -4.8970 -0.8221 -1.3037
 1025SOL     OW14710   4.273   2.246   4.670 -0.2497 -0.0324  0.2575
 1025SOL    HW114711   4.264   2.336   4.638  1.8342 -0.9212 -2.8491
 1025SOL    HW214712   4.190   2.216   4.631 -1.4617 -0.1814  2.9399
 1026SOL     OW14713   4.261   1.194   4.999 -0.9886 -0.2628 -0.1660
 1026SOL    HW114714   4.208   1.268   4.969  0.8736  1.7452  1.5771
 1026SOL    HW214715   4.231   1.182   5.089  0.0798 -0.1595  0.1942
 1027SOL     OW14716   0.471   2.396   8.998 -0.2106  0.0529 -0.0889
 1027SOL    HW114717   0.406   2.440   8.943 -0.0255 -0.4029 -0.6851
 1027SOL    HW214718   0.540   2.462   9.004 -1.6121  1.5233 -0.2777
 1028SOL     OW14719   1.009   1.821  11.374 -0.1859 -0.6957  0.0292
 1028SOL    HW114720   1.098   1.792  11.392  0.0884  0.0320 -0.1969
 1028SOL    HW214721   1.014   1.916  11.378  0.0535 -0.8007  2.2521
 1029SOL     OW14722   2.690   1.103   5.896  1.0050  0.4135  0.0215
 1029SOL    HW114723   2.659   1.106   5.805 -0.2353  1.7186  0.4884
 1029SOL    HW214724   2.762   1.041   5.893  0.8968  0.2990 -0.1948
 1030SOL     OW14725   1.251   4.498   0.773 -0.3478 -0.2585 -0.2028
 1030SOL    HW114726   1.273   4.503   0.680  0.8879 -1.6762  0.0116
 1030SOL    HW214727   1.171   4.549   0.761 -0.6799 -0.7523 -0.1143
 1031SOL     OW14728   0.351   0.258   1.075  0.2461  0.2253  1.0888
 1031SOL    HW114729   0.363   0.166   1.098 -0.6132 -0.3513 -0.7820
 1031SOL    HW214730   0.430   0.301   1.110 -0.0595  2.0664 -0.4891
 1032SOL     OW14731   4.285   0.660   4.414  0.2558  0.2244 -0.0339
 1032SOL    HW114732   4.314   0.595   4.351  1.0259  0.4705  0.0704
 1032SOL    HW214733   4.211   0.620   4.460 -0.1126  1.3104  0.3186
 1033SOL     OW14734   0.797   3.167   1.712  0.2703  0.3425  0.1908
 1033SOL    HW114735   0.803   3.083   1.665 -2.6348  0.3675 -0.1906
 1033SOL    HW214736   0.725   3.148   1.772  1.0405 -1.4205  0.5682
 1034SOL     OW14737   2.745   4.355   5.879  0.0949 -0.1466 -0.1225
 1034SOL    HW114738   2.797   4.275   5.869  1.0465  0.6107 -1.2096
 1034SOL    HW214739   2.783   4.407   5.950 -0.9617  1.7587 -0.9465
 1035SOL     OW14740   1.725   0.357   0.986  0.2035 -0.3302  0.3125
 1035SOL    HW114741   1.663   0.430   0.987  1.4060  0.7186 -1.1457
 1035SOL    HW214742   1.690   0.323   0.904 -1.9884  0.7772  0.7939
 1036SOL     OW14743   0.821   0.612  16.262  0.1510  0.5417 -0.1490
 1036SOL    HW114744   0.829   0.528  16.307 -1.5585  0.0111 -0.8057
 1036SOL    HW214745   0.910   0.624  16.230  0.8669  2.0982  2.4062
 1037SOL     OW14746   0.045   1.835   4.466 -0.3885  0.2169 -0.3305
 1037SOL    HW114747   0.119   1.796   4.513 -0.1083  0.2801 -0.7173
 1037SOL    HW214748   4.717   1.795   4.525 -1.3675  0.8616 -0.9469
 1038SOL     OW14749   3.543   3.322   9.684 -0.6090 -0.1677 -0.2602
 1038SOL    HW114750   3.626   3.277   9.700 -0.8182 -0.0299  1.2540
 1038SOL    HW214751   3.556   3.415   9.704  0.0701 -0.5216  0.9314
 1039SOL     OW14752   4.391   4.509   2.166 -0.2855  0.4372  0.2190
 1039SOL    HW114753   4.475   4.537   2.130  0.2002 -0.9112  0.2938
 1039SOL    HW214754   4.337   4.520   2.087 -0.1127 -2.6693 -0.3239
 1040SOL     OW14755   2.702   2.712  10.379 -0.2743 -0.2864 -0.7312
 1040SOL    HW114756   2.742   2.630  10.407 -1.3249 -0.6123 -0.1757
 1040SOL    HW214757   2.667   2.699  10.290 -3.3608  0.7206  0.3102
 1041SOL     OW14758   1.435   3.541   8.877  0.3422  0.0446 -0.0227
 1041SOL    HW114759   1.453   3.478   8.808  0.2148  2.4305 -2.2574
 1041SOL    HW214760   1.460   3.625   8.838  0.1231 -0.4398 -1.1864
 1042SOL     OW14761   0.805   0.543   4.641  0.2792 -0.3493 -0.3763
 1042SOL    HW114762   0.787   0.552   4.547  0.4290 -0.3227 -0.4032
 1042SOL    HW214763   0.841   0.455   4.652  0.5448 -0.1208  0.5756
 1043SOL     OW14764   2.548   3.827   7.364  0.2951 -0.2122 -0.2360
 1043SOL    HW114765   2.613   3.759   7.383  2.0117  1.1163 -1.3915
 1043SOL    HW214766   2.501   3.788   7.291  0.2401 -0.7510  0.0828
 1044SOL     OW14767   0.711   4.646   9.179  0.8878  0.4640  0.0114
 1044SOL    HW114768   0.619   4.635   9.202  0.8961  1.4844  0.5568
 1044SOL    HW214769   0.739   4.714   9.240  0.2674 -0.6199  1.4913
 1045SOL     OW14770   1.235   2.899   7.341  0.4587 -0.0986  0.1212
 1045SOL    HW114771   1.162   2.950   7.306  0.5676 -1.8509 -2.7413
 1045SOL    HW214772   1.213   2.810   7.312  0.5755 -1.0384  2.9456
 1046SOL     OW14773   1.918   1.262  13.195  0.3931 -0.6825  0.4370
 1046SOL    HW114774   1.886   1.332  13.137  2.8297 -0.1440 -0.3026
 1046SOL    HW214775   2.006   1.301  13.199 -0.6854  1.7620  0.7797
 1047SOL     OW14776   2.587   3.729  14.361 -0.0881  0.3609  0.5014
 1047SOL    HW114777   2.553   3.744  14.449 -1.5764  1.9103 -0.3255
 1047SOL    HW214778   2.670   3.774  14.375  0.5808 -0.7812  0.2188
 1048SOL     OW14779   4.254   3.725   1.467 -0.0895 -0.6437 -0.3242
 1048SOL    HW114780   4.203   3.731   1.548  2.4234 -0.1722  1.2275
 1048SOL    HW214781   4.192   3.739   1.395  0.8597  4.1491 -0.2101
 1049SOL     OW14782   4.071   4.292   0.739  0.0881 -0.0150 -0.1008
 1049SOL    HW114783   4.020   4.246   0.673  0.7793 -0.1194 -0.5676
 1049SOL    HW214784   4.146   4.316   0.685 -2.4128  0.8576 -3.1233
 1050SOL     OW14785   3.780   0.913   3.762 -0.1665  0.2593 -0.1045
 1050SOL    HW114786   3.830   0.833   3.743 -0.1223  0.5936 -1.3856
 1050SOL    HW214787   3.793   0.956   3.678  1.3793  1.6794  0.8453
 1051SOL     OW14788   3.602   2.510  13.642 -0.8390  0.6272 -0.1526
 1051SOL    HW114789   3.636   2.490  13.555  0.4748  2.7871 -0.1278
 1051SOL    HW214790   3.534   2.572  13.615 -1.0615 -0.1975 -1.5060
 1052SOL     OW14791   1.112   3.016   4.888  0.3550  0.2818  0.3714
 1052SOL    HW114792   1.094   3.078   4.958  0.9058 -0.1233  0.8689
 1052SOL    HW214793   1.024   2.995   4.854  0.2543 -0.2160  0.9475
 1053SOL     OW14794   1.412   3.662   9.343  0.3336  0.3109 -0.4461
 1053SOL    HW114795   1.451   3.677   9.257  1.9773 -2.9749 -0.2675
 1053SOL    HW214796   1.452   3.577   9.361  0.3917 -0.0577 -2.2999
 1054SOL     OW14797   1.423   1.886   4.244  0.8253 -0.5396  0.0662
 1054SOL    HW114798   1.389   1.821   4.183  1.5050 -0.0564 -0.8217
 1054SOL    HW214799   1.425   1.959   4.182 -0.1014 -2.1710 -1.9111
 1055SOL     OW14800   2.197   1.630  10.106  0.4237  0.8615  0.1232
 1055SOL    HW114801   2.159   1.689  10.171  1.4036  1.8817 -0.2171
 1055SOL    HW214802   2.188   1.547  10.151 -1.3253  0.6980 -0.5338
 1056SOL     OW14803   0.098   4.329  13.428  0.0784 -0.4026 -0.0936
 1056SOL    HW114804   0.065   4.311  13.516 -0.8741  0.0699 -0.3632
 1056SOL    HW214805   0.013   4.352  13.391  1.3536  2.1541 -1.4306
 1057SOL     OW14806   1.475   2.900   7.779  0.0493  0.1623 -0.1419
 1057SOL    HW114807   1.413   2.903   7.705 -2.4309 -0.9035  1.8907
 1057SOL    HW214808   1.480   2.994   7.794  0.8474  0.2967 -1.2191
 1058SOL     OW14809   1.161   0.155   5.498  0.0855  0.2530 -0.2234
 1058SOL    HW114810   1.203   0.227   5.451  0.7402 -0.8006 -1.2474
 1058SOL    HW214811   1.065   0.160   5.497  0.0979  0.5486 -0.1138
 1059SOL     OW14812   0.892   3.608   2.123  0.9657 -0.1692 -0.3863
 1059SOL    HW114813   0.896   3.539   2.057 -0.5276  0.2155 -0.8798
 1059SOL    HW214814   0.827   3.567   2.180 -0.5463 -0.5808 -2.4036
 1060SOL     OW14815   0.558   4.497   1.388 -0.2161  0.5790  0.0935
 1060SOL    HW114816   0.485   4.510   1.449  0.3065  0.5034  0.7290
 1060SOL    HW214817   0.528   4.427   1.330  2.1948  0.4373 -0.9655
 1061SOL     OW14818   2.318   1.085   5.964 -0.6606  0.1778  0.1799
 1061SOL    HW114819   2.299   1.155   5.902 -1.8890  0.4171  0.8132
 1061SOL    HW214820   2.235   1.078   6.011 -2.4397  0.9300 -2.8622
 1062SOL     OW14821   2.036   2.078   5.541 -0.3171  0.0727  0.1220
 1062SOL    HW114822   1.950   2.111   5.565  0.3097  0.9833  1.1428
 1062SOL    HW214823   2.092   2.083   5.619 -1.0803 -0.2285  0.6835
 1063SOL     OW14824   2.402   3.956   9.899 -0.5877  0.4719 -0.4011
 1063SOL    HW114825   2.376   3.870   9.934 -1.0636 -0.1284 -2.2741
 1063SOL    HW214826   2.409   3.948   9.804  0.8846 -1.3900 -0.1383
 1064SOL     OW14827   2.461   0.053   0.923  0.1249  0.0722  0.2256
 1064SOL    HW114828   2.489   4.702   0.893 -0.5562 -0.3641  0.8565
 1064SOL    HW214829   2.426   0.098   0.846  2.8154 -0.1571 -1.1527
 1065SOL     OW14830   1.743   1.615   7.809  0.1521 -0.3251  0.1969
 1065SOL    HW114831   1.819   1.559   7.791 -0.2435 -0.8231  0.0728
 1065SOL    HW214832   1.751   1.607   7.905  0.5884  0.8377  0.2566
 1066SOL     OW14833   4.193   1.947   1.811  0.0762  0.5504  0.2121
 1066SOL    HW114834   4.282   1.967   1.840 -0.3305 -0.6115  2.2971
 1066SOL    HW214835   4.150   2.032   1.801  0.8794  0.9381  0.0919
 1067SOL     OW14836   4.469   1.415   1.000  0.2075  0.5096 -0.0493
 1067SOL    HW114837   4.492   1.466   0.922 -0.3472 -0.5708 -0.9194
 1067SOL    HW214838   4.432   1.333   0.967 -2.1950  1.4552  0.3102
 1068SOL     OW14839   0.098   2.079   8.893 -0.4260  0.2032 -0.2164
 1068SOL    HW114840   0.175   2.095   8.839  0.9277  1.1117  1.9799
 1068SOL    HW214841   0.133   2.108   8.977  0.5592 -0.0041 -0.5521
 1069SOL     OW14842   3.256   1.961   3.994  0.0516 -0.0912 -0.2364
 1069SOL    HW114843   3.253   2.000   3.907  1.4191  1.8446  0.5934
 1069SOL    HW214844   3.292   1.872   3.983  1.1340  0.3202 -0.0523
 1070SOL     OW14845   3.254   0.076   6.023  0.2910 -0.4556  0.0084
 1070SOL    HW114846   3.332   0.077   6.079 -0.4435  1.5705  0.9837
 1070SOL    HW214847   3.288   0.069   5.934  0.2162 -4.4485  0.2968
 1071SOL     OW14848   4.010   1.777   8.179 -0.2737  0.0439 -0.0423
 1071SOL    HW114849   3.967   1.714   8.120  0.9178 -0.3468 -0.5042
 1071SOL    HW214850   4.075   1.821   8.123 -2.3658  2.0145 -0.9096
 1072SOL     OW14851   1.175   4.020   5.492  0.2606 -0.3336  0.1286
 1072SOL    HW114852   1.102   3.981   5.444  0.1943 -1.0865  0.8253
 1072SOL    HW214853   1.164   4.114   5.501  2.3011 -0.1214  0.3560
 1073SOL     OW14854   2.662   0.798   7.110  0.2802 -0.1686 -0.5988
 1073SOL    HW114855   2.661   0.703   7.107  0.0235 -0.1304 -1.8336
 1073SOL    HW214856   2.750   0.812   7.074 -0.0275  1.3889 -0.7834
 1074SOL     OW14857   4.717   4.063   1.103 -0.0023  0.0465 -0.3306
 1074SOL    HW114858   0.063   4.114   1.107 -1.0202  1.7212 -1.1169
 1074SOL    HW214859   4.669   4.120   1.162 -1.3946 -0.2826 -1.1641
 1075SOL     OW14860   2.874   3.813   3.156 -0.0746  0.0952  0.0886
 1075SOL    HW114861   2.805   3.781   3.214 -0.1825 -1.8402 -1.0916
 1075SOL    HW214862   2.944   3.765   3.201 -0.4585  0.3516  0.9547
 1076SOL     OW14863   2.169   1.630   3.328 -0.0651  0.0929  0.1373
 1076SOL    HW114864   2.132   1.586   3.252  3.2561  0.6707 -1.8492
 1076SOL    HW214865   2.189   1.712   3.282  1.1295  0.1498  0.7510
 1077SOL     OW14866   3.623   2.023   6.401 -0.0167  0.4017  0.1313
 1077SOL    HW114867   3.683   2.097   6.389  0.3757  0.3359  1.7161
 1077SOL    HW214868   3.586   2.058   6.483 -0.7829  1.8149 -0.8223
 1078SOL     OW14869   1.911   3.349   4.826  0.1816  0.3852  0.5514
 1078SOL    HW114870   1.926   3.426   4.880  0.6557  2.1861 -2.1417
 1078SOL    HW214871   1.972   3.287   4.865  1.0856 -0.2818 -1.9019
 1079SOL     OW14872   1.879   1.609   7.335  0.0237 -0.2828  0.0700
 1079SOL    HW114873   1.815   1.597   7.265  0.0794 -1.1706  0.1683
 1079SOL    HW214874   1.961   1.581   7.296  0.3476 -0.5798  0.9755
 1080SOL     OW14875   0.443   1.628   6.366  0.4009 -0.2957  0.1892
 1080SOL    HW114876   0.379   1.657   6.430  0.0088  0.5838 -0.5958
 1080SOL    HW214877   0.465   1.707   6.316  0.1760 -1.2488 -1.4284
 1081SOL     OW14878   3.149   2.153   8.998  0.0327 -0.0015  0.0205
 1081SOL    HW114879   3.075   2.094   9.014  0.9520 -1.1789  0.0151
 1081SOL    HW214880   3.115   2.219   8.938 -1.3889  1.7608  2.7929
 1082SOL     OW14881   1.300   3.951   9.304 -0.2836 -0.3420  0.3406
 1082SOL    HW114882   1.372   3.980   9.247 -0.8296 -1.3096 -0.8505
 1082SOL    HW214883   1.324   3.859   9.314  0.7539 -0.1550 -0.4132
 1083SOL     OW14884   2.218   3.089   4.219  0.0684 -0.4584  0.4088
 1083SOL    HW114885   2.165   3.046   4.286 -1.8833 -1.2406 -1.6079
 1083SOL    HW214886   2.215   3.022   4.150 -0.0285  0.3100 -0.3310
 1084SOL     OW14887   2.265   1.670  10.808  0.1316  0.2996 -0.0275
 1084SOL    HW114888   2.347   1.716  10.787 -1.6039  2.7140 -1.5124
 1084SOL    HW214889   2.230   1.721  10.881 -1.3590 -3.8994  2.1243
 1085SOL     OW14890   3.364   2.081   4.811 -0.0383 -0.4194 -0.0477
 1085SOL    HW114891   3.325   2.063   4.725  0.0267 -1.2882  0.1016
 1085SOL    HW214892   3.456   2.062   4.794  0.2456  0.2350  0.7347
 1086SOL     OW14893   0.522   2.125   5.273  0.8819  0.4352  0.2391
 1086SOL    HW114894   0.545   2.128   5.181 -2.1133 -1.8436 -0.5505
 1086SOL    HW214895   0.426   2.131   5.281  0.7501 -0.9435 -0.4976
 1087SOL     OW14896   2.457   0.694   6.840  0.0791  0.1917  0.3294
 1087SOL    HW114897   2.525   0.761   6.840  0.0653  0.2045  0.4648
 1087SOL    HW214898   2.497   0.635   6.776  1.2054 -0.4615  1.6399
 1088SOL     OW14899   0.625   3.759   5.608  0.3957 -0.3798 -0.4726
 1088SOL    HW114900   0.546   3.764   5.662  0.7528  0.1378 -0.0010
 1088SOL    HW214901   0.675   3.694   5.658  0.9318  2.0831  2.2125
 1089SOL     OW14902   2.251   2.425  17.439  0.1956  0.4726  0.3269
 1089SOL    HW114903   2.212   2.418  17.526 -0.8200  2.3914  0.0147
 1089SOL    HW214904   2.301   2.506  17.444  1.0530  0.1361 -2.6876
 1090SOL     OW14905   4.113   3.390  12.113 -0.2004  0.1887  0.1688
 1090SOL    HW114906   4.173   3.338  12.060  0.7880  0.9065  0.6004
 1090SOL    HW214907   4.046   3.412  12.048  0.3601  0.5424 -0.2763
 1091SOL     OW14908   1.044   2.049   5.295 -0.0242 -0.2389  0.5248
 1091SOL    HW114909   1.119   1.994   5.314  0.6009  1.1798  2.1229
 1091SOL    HW214910   0.979   2.006   5.350 -0.4898  1.3835  1.2292
 1092SOL     OW14911   4.156   2.695   2.926  0.0944 -0.0052  0.8453
 1092SOL    HW114912   4.136   2.737   2.843  0.2992 -0.4959  0.5511
 1092SOL    HW214913   4.165   2.765   2.991  2.1961  1.3368 -0.9127
 1093SOL     OW14914   3.731   2.289   6.435  0.7094  0.0308  0.9056
 1093SOL    HW114915   3.772   2.373   6.418  0.9067 -0.1059  0.7025
 1093SOL    HW214916   3.639   2.315   6.441  1.0771  1.1796  1.6228
 1094SOL     OW14917   3.406   2.351   3.529 -0.0232  0.1979  0.2344
 1094SOL    HW114918   3.396   2.368   3.435  2.4035  1.5084  0.2261
 1094SOL    HW214919   3.323   2.310   3.552  0.0035  0.7698  1.3211
 1095SOL     OW14920   0.002   2.287   3.586 -0.2404  0.2181  0.3974
 1095SOL    HW114921   0.097   2.294   3.576 -0.2246 -1.1232 -0.2729
 1095SOL    HW214922   4.713   2.361   3.531  1.0782  0.8236  0.6091
 1096SOL     OW14923   3.287   2.471  10.027  0.0224 -0.8085  0.2256
 1096SOL    HW114924   3.272   2.457  10.121  2.2765 -0.2346  0.6725
 1096SOL    HW214925   3.376   2.436  10.020  0.9895  1.7741 -0.2644
 1097SOL     OW14926   0.186   3.830   4.029  0.0475  0.7661 -0.3517
 1097SOL    HW114927   0.182   3.921   3.998 -0.6223 -0.1075 -2.8550
 1097SOL    HW214928   0.260   3.849   4.087 -1.0742 -2.6318  2.2187
 1098SOL     OW14929   0.521   2.112  10.527 -0.0334  0.1842 -0.2833
 1098SOL    HW114930   0.466   2.054  10.580 -1.8796  1.0648 -1.2577
 1098SOL    HW214931   0.607   2.081  10.556 -0.2054 -0.6908 -0.7072
 1099SOL     OW14932   3.558   4.026   5.401 -0.3744  0.4004 -0.2134
 1099SOL    HW114933   3.586   4.086   5.470  0.1734  0.9796 -0.9339
 1099SOL    HW214934   3.535   3.951   5.456  0.4037 -0.7092 -1.3861
 1100SOL     OW14935   4.166   0.100   4.238 -0.4287  0.0800  0.1957
 1100SOL    HW114936   4.257   0.113   4.265  0.0095 -1.0479 -0.7355
 1100SOL    HW214937   4.131   0.186   4.262  0.8911  0.9231 -0.9474
 1101SOL     OW14938   0.228   2.552   9.047 -0.1246 -0.3135 -0.6835
 1101SOL    HW114939   0.177   2.505   8.981  0.9223  0.0645 -1.7595
 1101SOL    HW214940   0.158   2.597   9.094 -2.4100 -1.8453 -2.5985
 1102SOL     OW14941   2.620   0.742   8.287 -0.4279  0.1121  0.7841
 1102SOL    HW114942   2.556   0.796   8.240  0.4103 -0.1234 -0.6216
 1102SOL    HW214943   2.566   0.673   8.325 -0.9477  0.6308  0.9900
 1103SOL     OW14944   1.946   3.991  16.403  0.1970  0.0172 -0.0462
 1103SOL    HW114945   1.884   4.000  16.331  0.1236 -1.0020 -0.1133
 1103SOL    HW214946   1.942   4.078  16.442  0.8882 -1.4539  3.3413
 1104SOL     OW14947   1.129   3.921   5.766 -0.6515 -0.3596 -0.7995
 1104SOL    HW114948   1.159   3.918   5.675 -0.5055  2.2659 -0.8437
 1104SOL    HW214949   1.187   3.993   5.789 -0.3232 -1.0026  0.3821
 1105SOL     OW14950   0.474   4.367   4.972  0.5255  0.3102 -0.1325
 1105SOL    HW114951   0.385   4.397   4.990  0.8909  1.4443 -0.2043
 1105SOL    HW214952   0.484   4.390   4.880 -0.1345  1.9740  0.2084
 1106SOL     OW14953   3.815   1.995   5.750 -0.2473  0.9183 -0.9534
 1106SOL    HW114954   3.800   1.922   5.690 -1.0566  1.0330 -0.8820
 1106SOL    HW214955   3.856   2.056   5.688  0.1970  0.6524 -0.9229
 1107SOL     OW14956   4.325   2.476  17.114 -0.3452 -0.5400  0.0988
 1107SOL    HW114957   4.346   2.544  17.050  1.2801 -1.4796 -0.3534
 1107SOL    HW214958   4.359   2.522  17.190  0.9610 -0.0657 -0.7833
 1108SOL     OW14959   2.678   3.234   5.246 -0.4363 -0.0989  0.3380
 1108SOL    HW114960   2.654   3.313   5.294 -0.1034  1.4754 -2.0836
 1108SOL    HW214961   2.703   3.197   5.330  1.0462  2.1508  0.8894
 1109SOL     OW14962   0.472   3.976   0.591  0.5620 -0.1219 -0.9210
 1109SOL    HW114963   0.393   3.921   0.590  0.5993 -0.1796 -0.6891
 1109SOL    HW214964   0.437   4.062   0.616  2.0557  0.7544 -1.8732
 1110SOL     OW14965   2.235   2.964   6.380  0.1069 -0.9889  0.4442
 1110SOL    HW114966   2.155   2.982   6.430  1.4983  1.6518  1.7299
 1110SOL    HW214967   2.198   2.949   6.293 -0.3364 -2.1910  0.8367
 1111SOL     OW14968   4.620   1.978   4.283 -0.4020  0.7895 -0.0112
 1111SOL    HW114969   4.697   2.007   4.234  0.1277 -0.9184 -0.1815
 1111SOL    HW214970   4.661   1.979   4.369 -0.5414  1.1342  0.0512
 1112SOL     OW14971   4.256   4.288   3.942  0.4373  0.0410 -0.5708
 1112SOL    HW114972   4.264   4.213   4.000 -0.7464  0.6069  0.3230
 1112SOL    HW214973   4.177   4.259   3.896 -0.5987  1.9025  0.0318
 1113SOL     OW14974   0.925   4.211   8.522  0.8284  0.4895 -0.0601
 1113SOL    HW114975   0.846   4.173   8.561  1.6360 -0.6293  0.4954
 1113SOL    HW214976   0.903   4.303   8.510  0.2596  0.1608 -1.6489
 1114SOL     OW14977   4.657   3.286   7.940  0.3775  0.1948  0.7789
 1114SOL    HW114978   4.684   3.373   7.913 -1.2276  1.1263  2.1617
 1114SOL    HW214979   4.601   3.311   8.013  0.8690  1.5836  0.6814
 1115SOL     OW14980   4.537   1.265   9.110  0.3076 -0.1502  0.2422
 1115SOL    HW114981   4.508   1.346   9.152  1.3833  0.9775 -1.2004
 1115SOL    HW214982   4.508   1.266   9.019 -1.1570 -1.1444  0.6840
 1116SOL     OW14983   1.695   2.261  10.178  0.0782  0.3327  0.0320
 1116SOL    HW114984   1.682   2.276  10.272 -0.6434 -0.6968  0.1099
 1116SOL    HW214985   1.666   2.344  10.141 -1.0214  0.0429  0.2318
 1117SOL     OW14986   1.503   3.615   6.571  0.0321 -0.0465  0.0866
 1117SOL    HW114987   1.448   3.616   6.649 -0.1360  0.1335 -0.0352
 1117SOL    HW214988   1.585   3.633   6.617 -0.3317 -0.8396  1.0571
 1118SOL     OW14989   2.513   1.165  16.094 -0.3370  0.1384 -0.2206
 1118SOL    HW114990   2.509   1.094  16.030 -2.7142  1.7598 -1.8477
 1118SOL    HW214991   2.607   1.179  16.096 -0.6668  1.8102  3.4455
 1119SOL     OW14992   3.973   1.782   2.722  0.4350  0.4794  0.3126
 1119SOL    HW114993   4.027   1.705   2.706  3.7042  3.2584 -2.0512
 1119SOL    HW214994   3.977   1.830   2.639 -1.1038  0.4803  0.2319
 1120SOL     OW14995   0.887   0.996  16.013 -0.2733 -0.3759  0.1079
 1120SOL    HW114996   0.895   1.070  15.953 -0.4068  0.3075  0.9254
 1120SOL    HW214997   0.854   1.038  16.093  0.9233  1.9447 -0.6046
 1121SOL     OW14998   3.423   2.823   8.533 -0.0648 -0.2660 -0.7350
 1121SOL    HW114999   3.410   2.813   8.628 -0.5510 -2.6797 -1.0504
 1121SOL    HW215000   3.517   2.832   8.520  0.2902  0.1205  2.0327
 1122SOL     OW15001   3.354   0.522  11.425 -0.7399 -0.4805 -0.2772
 1122SOL    HW115002   3.356   0.563  11.512 -0.9753 -1.5319  0.2243
 1122SOL    HW215003   3.401   0.441  11.444 -1.9531 -0.8269  1.3014
 1123SOL     OW15004   4.646   3.684   8.305  0.2676 -0.0149  0.0733
 1123SOL    HW115005   0.003   3.708   8.318 -0.2090  0.2610  2.8906
 1123SOL    HW215006   4.612   3.729   8.382  0.7889 -0.0868  0.3470
 1124SOL     OW15007   0.437   2.747   9.798 -0.3845 -0.8173 -0.0035
 1124SOL    HW115008   0.532   2.754   9.812 -0.6357  0.9264  0.7717
 1124SOL    HW215009   0.435   2.673   9.737  1.3960  0.1044 -1.1565
 1125SOL     OW15010   1.512   1.384   8.274 -0.2038 -0.4908 -0.2326
 1125SOL    HW115011   1.596   1.415   8.308 -0.8108 -0.3502  1.1210
 1125SOL    HW215012   1.546   1.300   8.242 -2.2098 -0.7715 -1.6292
 1126SOL     OW15013   2.892   4.243   2.320  0.0073 -0.5930  0.2795
 1126SOL    HW115014   2.910   4.210   2.231 -1.8430  1.1532 -0.7253
 1126SOL    HW215015   2.799   4.219   2.319  0.1498 -1.1694  0.5591
 1127SOL     OW15016   3.012   4.666   6.527 -0.7030 -0.5705 -0.1528
 1127SOL    HW115017   3.035   4.584   6.571 -3.6939  0.0336  2.5104
 1127SOL    HW215018   3.019   4.643   6.434  0.5247  0.2528 -0.2622
 1128SOL     OW15019   4.164   1.887  12.563 -0.0008 -0.5465  0.2559
 1128SOL    HW115020   4.260   1.892  12.563 -0.0043 -0.5315  0.5397
 1128SOL    HW215021   4.144   1.826  12.634  1.1887 -2.3956 -0.9827
 1129SOL     OW15022   3.659   2.387   1.696 -0.2671  0.1624  0.7384
 1129SOL    HW115023   3.579   2.377   1.644 -1.0551 -1.2069  2.2206
 1129SOL    HW215024   3.707   2.413   1.617  0.1768 -1.4902  0.4720
 1130SOL     OW15025   4.155   2.125   4.941  0.0999  0.3893  0.5727
 1130SOL    HW115026   4.231   2.172   4.905 -1.0576  0.0260 -2.3075
 1130SOL    HW215027   4.121   2.190   5.002 -1.0775  1.2058 -0.9481
 1131SOL     OW15028   0.728   0.212   4.675 -0.2971  0.1926 -0.7076
 1131SOL    HW115029   0.670   0.220   4.599  1.2235  1.1248 -1.7659
 1131SOL    HW215030   0.671   0.260   4.736  0.5371  1.5908 -1.0294
 1132SOL     OW15031   4.734   1.644   6.035 -0.1258 -0.3174  0.0904
 1132SOL    HW115032   4.701   1.714   5.979  1.4790 -0.7134 -1.3389
 1132SOL    HW215033   0.050   1.699   6.094 -1.1813  1.0627 -0.2751
 1133SOL     OW15034   3.056   0.587   7.841  0.2183 -0.3698  0.2942
 1133SOL    HW115035   3.125   0.616   7.782 -0.0594  1.3583  0.8183
 1133SOL    HW215036   2.992   0.577   7.770 -0.0761  1.2551  0.3212
 1134SOL     OW15037   3.517   1.616   5.442  0.7319 -0.1632  1.0755
 1134SOL    HW115038   3.446   1.615   5.377  1.5001 -2.5077  0.2698
 1134SOL    HW215039   3.490   1.547   5.502  0.1799 -0.1225  0.8761
 1135SOL     OW15040   3.390   4.729   2.529  0.7621 -0.3362  0.6386
 1135SOL    HW115041   3.307   4.688   2.507 -0.0764  1.0718  1.1984
 1135SOL    HW215042   3.374   0.022   2.619 -0.7421 -2.7999  1.1535
 1136SOL     OW15043   2.745   4.083   3.204  0.5077  0.4595 -0.7185
 1136SOL    HW115044   2.790   4.146   3.259  1.2152  0.3571 -1.1780
 1136SOL    HW215045   2.811   4.049   3.143  1.6561 -0.7192  1.1652
 1137SOL     OW15046   3.985   1.730   0.505  0.1967  0.0183 -0.1289
 1137SOL    HW115047   3.985   1.781   0.586  0.1853  1.5239 -1.0714
 1137SOL    HW215048   4.041   1.660   0.537  0.5686  0.7285  0.7909
 1138SOL     OW15049   0.007   1.176   7.708  0.2486 -0.1974 -0.0757
 1138SOL    HW115050   4.665   1.126   7.733  0.4275 -0.4448 -0.0158
 1138SOL    HW215051   4.700   1.247   7.659 -0.5734  0.1255  1.1060
 1139SOL     OW15052   0.320   3.005   4.542  0.6434  0.1438 -0.5644
 1139SOL    HW115053   0.315   3.090   4.587 -0.0148  0.2114 -0.7539
 1139SOL    HW215054   0.228   2.997   4.516  0.8452 -1.9597 -0.5778
 1140SOL     OW15055   0.551   2.506  12.619 -0.3192  0.3821  0.0835
 1140SOL    HW115056   0.535   2.570  12.688 -2.8116 -0.4051  0.2613
 1140SOL    HW215057   0.624   2.459  12.658 -1.0660 -2.0507 -1.4118
 1141SOL     OW15058   0.986   2.931  15.043  0.2108 -0.3511 -0.1375
 1141SOL    HW115059   0.896   2.963  15.046 -0.3179 -1.8793  0.5854
 1141SOL    HW215060   1.016   2.952  14.954 -1.2377 -4.9391 -1.7296
 1142SOL     OW15061   1.556   3.963   3.627  0.1517 -0.3471  0.5705
 1142SOL    HW115062   1.578   3.932   3.539  1.6092 -0.8042  1.1014
 1142SOL    HW215063   1.628   4.023   3.649  2.0008 -2.3366 -0.0855
 1143SOL     OW15064   0.561   4.322   5.779 -0.2164 -0.6083 -0.1979
 1143SOL    HW115065   0.578   4.303   5.686 -1.8307 -0.9444 -0.4214
 1143SOL    HW215066   0.642   4.369   5.801 -0.8014  0.9093 -1.2281
 1144SOL     OW15067   4.283   1.940   6.953  0.1186 -0.0523  0.5827
 1144SOL    HW115068   4.255   1.876   7.020  2.1707 -2.7910 -1.1721
 1144SOL    HW215069   4.316   2.016   7.000  1.2995  1.0940 -2.1592
 1145SOL     OW15070   0.858   1.508   2.216 -0.4414 -0.1548  0.3344
 1145SOL    HW115071   0.838   1.418   2.241  0.0255 -0.0428  1.1083
 1145SOL    HW215072   0.765   1.531   2.216  0.3183  2.8080 -2.5974
 1146SOL     OW15073   0.707   2.438   3.491  0.1100  0.0056  0.0600
 1146SOL    HW115074   0.697   2.518   3.440 -0.5584  2.4609  4.1070
 1146SOL    HW215075   0.713   2.477   3.578 -2.6761 -1.1422  0.7643
 1147SOL     OW15076   0.338   0.974  14.629 -0.1746 -0.5029  0.9080
 1147SOL    HW115077   0.270   1.034  14.598  1.9097  1.0583 -0.6715
 1147SOL    HW215078   0.359   0.938  14.543  2.0267  2.4907  0.1600
 1148SOL     OW15079   2.172   3.846   8.984 -0.2662  0.0216  0.2512
 1148SOL    HW115080   2.120   3.767   8.967  0.5518 -0.3188 -0.6811
 1148SOL    HW215081   2.135   3.870   9.069 -0.7825  0.0004  0.0353
 1149SOL     OW15082   0.940   1.842  15.907 -0.2267  0.1824  0.0730
 1149SOL    HW115083   1.002   1.782  15.865 -1.0634 -1.3816  1.0797
 1149SOL    HW215084   0.955   1.928  15.867  0.5913  0.2702  0.5487
 1150SOL     OW15085   2.796   4.349   5.079  0.1023  0.3231 -0.1378
 1150SOL    HW115086   2.853   4.281   5.117 -0.1178  0.9847  1.3662
 1150SOL    HW215087   2.747   4.373   5.157  1.5865  0.3250  0.7998
 1151SOL     OW15088   1.478   1.670   3.111 -0.0523  0.5486  0.0084
 1151SOL    HW115089   1.515   1.610   3.046  1.2131  2.3446 -0.9557
 1151SOL    HW215090   1.522   1.754   3.098 -0.0744  0.3501 -1.3894
 1152SOL     OW15091   1.928   0.346  10.841 -0.2954 -0.0082  0.5264
 1152SOL    HW115092   1.877   0.380  10.914  0.1253  1.6268  0.0430
 1152SOL    HW215093   1.995   0.299  10.892 -0.0030 -0.4072 -0.2096
 1153SOL     OW15094   1.275   4.265   6.875 -0.6199  0.2762  0.2940
 1153SOL    HW115095   1.342   4.284   6.941 -0.0203  0.6419 -0.4159
 1153SOL    HW215096   1.208   4.316   6.919 -0.0174  0.5422  0.9089
 1154SOL     OW15097   0.719   1.311   6.890 -0.4344  0.2073 -0.1713
 1154SOL    HW115098   0.785   1.320   6.959 -3.6291 -5.0374  3.6439
 1154SOL    HW215099   0.712   1.216   6.887 -2.1152  0.3308  0.0647
 1155SOL     OW15100   3.951   1.525   8.320  0.4455 -0.0023  0.0590
 1155SOL    HW115101   3.927   1.606   8.275  0.9923  1.8057  3.0410
 1155SOL    HW215102   4.042   1.505   8.296  0.3795 -2.1066  1.5837
 1156SOL     OW15103   4.717   0.614   3.994 -0.2284 -0.2636  0.0648
 1156SOL    HW115104   4.683   0.653   3.914  3.2267 -1.0510 -1.7917
 1156SOL    HW215105   4.708   0.520   3.979  2.1690 -0.3239 -1.1465
 1157SOL     OW15106   1.807   2.626   1.223 -0.1396  0.0077  0.3324
 1157SOL    HW115107   1.787   2.579   1.141 -0.4270 -1.3740  1.1948
 1157SOL    HW215108   1.902   2.633   1.221 -0.0240 -1.6209  0.0412
 1158SOL     OW15109   3.011   3.033   2.668 -0.4385  0.2015 -0.5955
 1158SOL    HW115110   3.093   3.023   2.716  0.2262  2.0887 -1.3439
 1158SOL    HW215111   3.016   2.962   2.603  0.3200  0.1380 -0.4612
 1159SOL     OW15112   1.522   4.415   3.204 -0.5671 -0.5517 -0.2840
 1159SOL    HW115113   1.453   4.352   3.222  0.6499 -1.8572 -0.1907
 1159SOL    HW215114   1.599   4.360   3.217 -0.1973  0.0297 -0.0096
 1160SOL     OW15115   3.592   2.358   7.428 -0.4140  0.3752  0.4659
 1160SOL    HW115116   3.639   2.441   7.431 -2.0685  1.2148  2.9026
 1160SOL    HW215117   3.616   2.332   7.339 -2.2097  0.5630 -0.0772
 1161SOL     OW15118   4.579   2.772   5.236  0.2307  0.3746  0.0641
 1161SOL    HW115119   4.498   2.722   5.229 -0.3257  0.8655  2.9510
 1161SOL    HW215120   4.544   2.861   5.237  0.5372  0.4946  0.1603
 1162SOL     OW15121   4.449   1.871   7.773  0.2383 -0.5348  0.3550
 1162SOL    HW115122   4.441   1.966   7.783 -2.4879 -0.7119 -0.1645
 1162SOL    HW215123   4.501   1.855   7.852 -1.4997 -0.1490  1.5774
 1163SOL     OW15124   1.380   1.083   6.397  0.0604  0.1466 -0.2539
 1163SOL    HW115125   1.297   1.124   6.422 -0.2905  0.0894 -1.3246
 1163SOL    HW215126   1.355   0.994   6.372 -1.0467 -0.4798  3.0354
 1164SOL     OW15127   2.766   0.628  10.969  0.0615  0.2202  0.1954
 1164SOL    HW115128   2.843   0.580  10.941 -0.1661 -0.9925  1.6503
 1164SOL    HW215129   2.750   0.672  10.886  1.5263 -0.7824 -0.6130
 1165SOL     OW15130   0.187   4.516   3.705  0.2905 -0.1387 -0.2359
 1165SOL    HW115131   0.164   4.434   3.748 -1.5298  1.5217  1.9808
 1165SOL    HW215132   0.116   4.514   3.641  1.8358  1.0372 -1.9763
 1166SOL     OW15133   3.357   4.730  11.599 -0.0507 -0.2425 -0.1425
 1166SOL    HW115134   3.378   4.714  11.507 -2.2920 -1.0008 -0.5457
 1166SOL    HW215135   3.269   4.691  11.600 -0.0360 -0.2593  0.3755
 1167SOL     OW15136   0.186   1.048   6.626 -0.5504  0.0973 -0.6419
 1167SOL    HW115137   0.230   1.110   6.568  0.6852  0.2831  0.4858
 1167SOL    HW215138   0.093   1.065   6.611 -1.0606 -3.7678 -1.9812
 1168SOL     OW15139   2.534   4.674   7.542 -0.1469  0.4090  0.1221
 1168SOL    HW115140   2.517   0.032   7.536 -0.6549  0.3378  0.4508
 1168SOL    HW215141   2.602   4.653   7.606 -1.6010  0.3148  1.6370
 1169SOL     OW15142   3.993   0.508   9.683 -0.3218 -0.1022  0.3211
 1169SOL    HW115143   3.986   0.603   9.677 -0.0086 -0.1264 -0.4198
 1169SOL    HW215144   4.075   0.492   9.635 -1.0348 -1.4848 -0.4612
 1170SOL     OW15145   4.197   4.518  16.960 -0.2792  0.2059 -0.6964
 1170SOL    HW115146   4.153   4.556  17.036  4.0720 -0.0015  1.9340
 1170SOL    HW215147   4.259   4.457  17.000 -0.0112  1.1796  0.4015
 1171SOL     OW15148   4.620   4.734   9.052  0.1917 -0.3425  0.4855
 1171SOL    HW115149   4.693   4.673   9.064 -1.4809 -2.4205  0.0015
 1171SOL    HW215150   4.665   0.082   9.043 -0.7392  0.1374  0.3305
 1172SOL     OW15151   0.027   0.714   7.979 -0.0895 -0.2849 -0.3495
 1172SOL    HW115152   4.721   0.796   7.955 -0.1569 -0.9690 -2.5370
 1172SOL    HW215153   0.084   0.688   7.907  1.1213  0.0500  0.4780
 1173SOL     OW15154   0.296   0.458   0.892  0.0586  0.2670  0.0945
 1173SOL    HW115155   0.345   0.398   0.949 -0.1794 -0.5906 -0.6088
 1173SOL    HW215156   0.214   0.459   0.941 -0.0937  0.6375 -0.1687
 1174SOL     OW15157   4.579   4.250   0.713 -0.3094 -0.1864  0.0154
 1174SOL    HW115158   4.568   4.182   0.647 -0.1844  0.6074 -0.8200
 1174SOL    HW215159   4.611   4.316   0.651 -0.8698 -0.9610 -1.1045
 1175SOL     OW15160   3.251   3.232   6.445 -0.2127  0.2685 -0.5416
 1175SOL    HW115161   3.309   3.301   6.412  0.0841  0.6958  0.8663
 1175SOL    HW215162   3.301   3.200   6.520 -1.8402  0.3179  0.5616
 1176SOL     OW15163   1.837   4.261   2.861  0.3452 -0.8435 -0.7525
 1176SOL    HW115164   1.810   4.201   2.931 -0.1099  0.9692  0.6388
 1176SOL    HW215165   1.770   4.326   2.885  0.6922 -1.3677  1.7264
 1177SOL     OW15166   2.404   2.481   2.935 -0.2659 -0.4892  0.1524
 1177SOL    HW115167   2.350   2.417   2.890 -2.5411  1.3184  0.3021
 1177SOL    HW215168   2.396   2.547   2.866 -0.6498 -2.2172 -1.4576
 1178SOL     OW15169   1.794   0.882   1.555 -0.0578  0.2042  0.1219
 1178SOL    HW115170   1.787   0.787   1.566  2.5230  0.0197  0.0879
 1178SOL    HW215171   1.852   0.882   1.479  0.1605 -0.4571  0.2854
 1179SOL     OW15172   0.410   0.191   2.849 -0.6623 -0.1241  0.6264
 1179SOL    HW115173   0.355   0.229   2.917 -1.0231  0.2319  0.1355
 1179SOL    HW215174   0.377   0.242   2.775 -0.6073 -1.9343 -0.6624
 1180SOL     OW15175   0.616   0.628   6.283  0.2279  0.1133  0.5004
 1180SOL    HW115176   0.684   0.623   6.216  1.1456 -3.4710  1.6669
 1180SOL    HW215177   0.657   0.586   6.358 -3.0262  1.6134  3.1199
 1181SOL     OW15178   1.886   2.492   7.595 -0.2038  0.0342 -0.4190
 1181SOL    HW115179   1.903   2.567   7.538  0.9618 -0.4322 -0.6961
 1181SOL    HW215180   1.941   2.429   7.547  0.1752  1.8550 -2.3780
 1182SOL     OW15181   2.924   4.392   7.923  0.0913 -0.1541 -0.1085
 1182SOL    HW115182   2.868   4.440   7.984 -0.0684  0.3829 -0.6777
 1182SOL    HW215183   2.888   4.307   7.948 -0.2967  0.0292 -0.0449
 1183SOL     OW15184   3.508   2.819   6.844  0.3920  0.1998  0.1599
 1183SOL    HW115185   3.573   2.889   6.846 -0.1871  0.6283  3.7794
 1183SOL    HW215186   3.551   2.737   6.821  1.6276  0.7578  0.4727
 1184SOL     OW15187   3.648   3.026   8.662  0.5400 -0.3540  0.4294
 1184SOL    HW115188   3.627   3.058   8.750 -0.6727  0.2900 -0.0884
 1184SOL    HW215189   3.741   3.010   8.681  0.9289  2.6622  0.9954
 1185SOL     OW15190   0.599   2.884  11.129 -0.9325  0.5632  0.5455
 1185SOL    HW115191   0.648   2.907  11.208  1.2454 -2.4951  0.0876
 1185SOL    HW215192   0.523   2.839  11.166 -1.8046 -0.3867 -2.3935
 1186SOL     OW15193   0.891   3.437   1.897 -0.4689  0.4310 -0.1508
 1186SOL    HW115194   0.892   3.350   1.858  0.1803  0.7938 -0.9488
 1186SOL    HW215195   0.870   3.497   1.826 -2.3019  1.5637  1.3210
 1187SOL     OW15196   1.687   4.334   7.394  0.0115 -0.1043 -1.0699
 1187SOL    HW115197   1.707   4.378   7.477 -3.1554  1.1866 -1.0026
 1187SOL    HW215198   1.774   4.334   7.353  0.2064 -0.4210 -0.6483
 1188SOL     OW15199   3.188   3.988   1.577 -0.1569 -0.6071 -0.3264
 1188SOL    HW115200   3.181   3.949   1.489  2.6520 -1.9082  0.0254
 1188SOL    HW215201   3.096   3.992   1.603  0.5088 -1.1978  2.1052
 1189SOL     OW15202   2.291   0.075   2.152  0.5726 -0.2380  0.5598
 1189SOL    HW115203   2.208   0.105   2.189  0.8615 -0.0127  1.0268
 1189SOL    HW215204   2.256   4.732   2.109  1.0558 -0.2215  0.1446
 1190SOL     OW15205   3.382   2.409   5.994  0.2780  0.4508 -0.3405
 1190SOL    HW115206   3.336   2.476   5.943  0.4673 -0.6571 -1.9828
 1190SOL    HW215207   3.378   2.342   5.926  0.0271 -0.6452  0.7716
 1191SOL     OW15208   3.074   3.066   0.821  0.7554  0.1565 -0.5774
 1191SOL    HW115209   3.041   3.088   0.734 -0.4779  2.7381  0.5363
 1191SOL    HW215210   3.124   3.145   0.842  0.7798  0.8968 -3.4649
 1192SOL     OW15211   0.801   2.838   5.552  0.1381  0.8655 -0.8168
 1192SOL    HW115212   0.884   2.880   5.572 -0.4805  0.9105  1.7153
 1192SOL    HW215213   0.818   2.745   5.562 -2.5673  0.5507  1.1075
 1193SOL     OW15214   4.133   2.837   8.519 -0.5545  0.6902 -0.7702
 1193SOL    HW115215   4.110   2.921   8.478 -1.3272  0.1809 -1.3731
 1193SOL    HW215216   4.204   2.851   8.581 -0.0199  1.0372 -1.4627
 1194SOL     OW15217   3.814   4.619   8.708 -0.1523  0.8732  0.4085
 1194SOL    HW115218   3.727   4.603   8.744 -0.0489 -0.7886 -0.0896
 1194SOL    HW215219   3.868   4.543   8.730 -1.7497 -0.3497  0.0993
 1195SOL     OW15220   3.491   2.733  11.817 -0.3910 -0.4991  0.2332
 1195SOL    HW115221   3.549   2.668  11.778 -0.8413 -0.6163 -0.2470
 1195SOL    HW215222   3.482   2.713  11.910  1.5125  0.6899  0.6878
 1196SOL     OW15223   2.633   3.566   4.546  0.0319  0.3022 -0.3012
 1196SOL    HW115224   2.546   3.601   4.565 -0.0731 -0.6589  1.0048
 1196SOL    HW215225   2.689   3.629   4.592 -0.7214  1.7698 -1.4025
 1197SOL     OW15226   4.557   1.832   5.531  0.9275  0.2030 -0.0146
 1197SOL    HW115227   4.474   1.848   5.575 -0.3966 -0.2152 -2.3924
 1197SOL    HW215228   4.621   1.869   5.592  0.9687 -3.3287  2.0856
 1198SOL     OW15229   4.284   0.090   2.887 -0.4079  0.4805  0.3440
 1198SOL    HW115230   4.354   0.039   2.927  0.0309 -0.2612 -1.3704
 1198SOL    HW215231   4.345   0.138   2.832  0.1571 -1.4250 -0.6826
 1199SOL     OW15232   0.636   3.123   1.440  0.3307 -0.5340 -0.6160
 1199SOL    HW115233   0.629   3.076   1.357 -0.3226 -0.3231 -0.6814
 1199SOL    HW215234   0.680   3.059   1.496  0.7678  0.4226  0.1350
 1200SOL     OW15235   1.634   4.727   8.395 -0.2919  0.1151 -0.0417
 1200SOL    HW115236   1.639   4.656   8.459  1.2415 -0.2201 -0.5471
 1200SOL    HW215237   1.690   4.692   8.326 -0.7283  4.1411 -2.4313
 1201SOL     OW15238   0.126   1.404  13.791  0.6302 -0.1928 -0.6034
 1201SOL    HW115239   0.217   1.435  13.791  0.4559  0.3047  0.1076
 1201SOL    HW215240   0.129   1.313  13.760  0.5711 -0.9487  1.5869
 1202SOL     OW15241   3.055   0.786   6.503  0.6115  0.4486 -0.2871
 1202SOL    HW115242   2.969   0.745   6.500  0.2605  1.1744 -0.0726
 1202SOL    HW215243   3.056   0.862   6.446 -1.6914  0.6921 -0.0092
 1203SOL     OW15244   3.247   3.889   7.969  1.1509 -0.3933 -0.2510
 1203SOL    HW115245   3.244   3.805   8.014  1.7387  0.8660  2.1592
 1203SOL    HW215246   3.273   3.936   8.048 -1.4795 -0.1918  0.4939
 1204SOL     OW15247   4.188   0.874  11.365 -0.3154  0.2133 -0.2791
 1204SOL    HW115248   4.215   0.962  11.337 -0.0714  0.6750  1.4190
 1204SOL    HW215249   4.102   0.863  11.324  0.3983 -2.9847 -0.9013
 1205SOL     OW15250   3.089   1.882   4.899 -0.2068  0.6490  0.1501
 1205SOL    HW115251   3.024   1.812   4.890  0.8955 -0.4873  0.9754
 1205SOL    HW215252   3.160   1.821   4.880  0.3983  1.2229  0.5365
 1206SOL     OW15253   2.279   0.815   0.035  0.1259 -0.4324 -0.1088
 1206SOL    HW115254   2.209   0.880   0.036  0.6589  0.1721 -1.4691
 1206SOL    HW215255   2.244   0.757   0.104  0.9701  0.1454  0.8119
 1207SOL     OW15256   3.249   1.002   1.601  0.6432 -0.0081  0.1147
 1207SOL    HW115257   3.333   0.961   1.619  0.9347 -0.0060 -1.2829
 1207SOL    HW215258   3.217   0.949   1.528  1.0413 -0.9071  0.5994
 1208SOL     OW15259   0.101   4.631   4.687  0.0617 -0.2708  0.4177
 1208SOL    HW115260   0.181   4.585   4.662 -1.1482 -2.0237 -0.2773
 1208SOL    HW215261   0.132   4.669   4.769  0.9039  3.5029 -1.6996
 1209SOL     OW15262   0.265   4.370   5.838  0.1460  0.1506  0.1356
 1209SOL    HW115263   0.341   4.311   5.832 -0.5417 -0.9753  2.3971
 1209SOL    HW215264   0.301   4.425   5.908 -2.0844 -1.3642  2.4832
 1210SOL     OW15265   0.955   0.692  15.653  0.1045 -0.2242 -0.6014
 1210SOL    HW115266   1.046   0.700  15.681 -0.9540  0.2163  2.6472
 1210SOL    HW215267   0.909   0.691  15.736  0.5425  0.5138 -0.3457
 1211SOL     OW15268   0.328   0.639   7.525 -0.0140 -0.0047  0.3482
 1211SOL    HW115269   0.323   0.694   7.447 -1.0257 -1.1406 -0.4043
 1211SOL    HW215270   0.336   0.700   7.598  0.2832  0.5395 -0.1347
 1212SOL     OW15271   3.613   0.978  16.440 -0.0286  0.0018 -0.0258
 1212SOL    HW115272   3.656   0.966  16.356  0.3111 -0.5755  0.2291
 1212SOL    HW215273   3.643   0.898  16.483  2.0658  1.1309  0.5832
 1213SOL     OW15274   1.832   1.146  15.175  0.2178  0.4725 -0.1101
 1213SOL    HW115275   1.854   1.097  15.095 -1.0897 -1.2205  0.5500
 1213SOL    HW215276   1.743   1.168  15.147  0.4027 -0.3023 -1.3480
 1214SOL     OW15277   1.392   2.196  15.243  0.8340 -0.3164  0.2544
 1214SOL    HW115278   1.424   2.171  15.157 -2.1015  1.4900 -1.3582
 1214SOL    HW215279   1.335   2.120  15.251 -0.6403  0.5512 -1.9476
 1215SOL     OW15280   1.480   0.175   9.932  0.1277 -0.1301  0.2278
 1215SOL    HW115281   1.471   0.096   9.878  0.0519 -0.4447  0.7060
 1215SOL    HW215282   1.541   0.148  10.000 -0.5085 -1.5667  0.2450
 1216SOL     OW15283   2.751   4.622   4.086  0.1995  0.2419  0.4522
 1216SOL    HW115284   2.766   4.561   4.159  2.7218 -2.3135 -2.1849
 1216SOL    HW215285   2.791   4.699   4.127 -0.6445  1.6465 -1.3794
 1217SOL     OW15286   1.376   2.760   1.934  0.6231 -0.0439  0.1956
 1217SOL    HW115287   1.450   2.805   1.974  1.3645  1.2458 -2.6072
 1217SOL    HW215288   1.305   2.818   1.960 -1.7252 -2.7266 -0.2919
 1218SOL     OW15289   3.410   3.992   4.524  0.4082 -0.5418 -0.3359
 1218SOL    HW115290   3.362   3.969   4.603 -0.2861 -0.1965 -0.6634
 1218SOL    HW215291   3.387   3.919   4.467  0.6528 -0.5172 -0.4696
 1219SOL     OW15292   0.176   0.416   8.331  0.0574 -0.3279 -0.5606
 1219SOL    HW115293   0.132   0.426   8.247  0.9044  0.6466 -0.8867
 1219SOL    HW215294   0.199   0.323   8.332  1.3319 -0.0066 -0.6755
 1220SOL     OW15295   2.210   2.391  13.623 -0.1202  0.2649  0.1820
 1220SOL    HW115296   2.144   2.341  13.671  0.9122 -0.8335  0.4767
 1220SOL    HW215297   2.225   2.328  13.553 -3.6244  2.3278 -2.3927
 1221SOL     OW15298   1.587   3.518   7.503 -0.4142 -0.0538 -0.0298
 1221SOL    HW115299   1.546   3.434   7.526  0.6460 -0.3087  0.9488
 1221SOL    HW215300   1.506   3.563   7.482  0.2955  0.7258 -1.0851
 1222SOL     OW15301   1.453   1.324   3.161 -0.2576  0.5546 -0.0269
 1222SOL    HW115302   1.453   1.320   3.065 -1.3285 -1.1918  0.0388
 1222SOL    HW215303   1.538   1.289   3.188  0.0231  0.6514 -0.7871
 1223SOL     OW15304   1.260   3.873  10.523  0.6383 -1.1100  0.0853
 1223SOL    HW115305   1.230   3.932  10.454  0.1171 -1.9785 -0.4261
 1223SOL    HW215306   1.183   3.829  10.559 -0.9575  1.3820 -0.2774
 1224SOL     OW15307   3.318   4.580   6.538  0.3997 -0.0237  0.0784
 1224SOL    HW115308   3.279   4.495   6.557 -1.3434  0.8006  0.1783
 1224SOL    HW215309   3.348   4.577   6.447  3.5826 -1.5793  1.1946
 1225SOL     OW15310   2.099   2.953  10.439  0.4551 -0.0500  0.0388
 1225SOL    HW115311   2.053   3.018  10.386  0.6428  0.1181  0.0838
 1225SOL    HW215312   2.155   2.907  10.375 -2.0470 -1.7420 -0.9219
 1226SOL     OW15313   0.785   1.062   8.734 -0.0712 -0.3530 -0.0211
 1226SOL    HW115314   0.784   1.132   8.669 -0.3678  0.2860  0.6705
 1226SOL    HW215315   0.878   1.042   8.745 -0.9858 -3.2319  2.4046
 1227SOL     OW15316   1.640   1.579   6.051  0.9781  0.5272  0.4291
 1227SOL    HW115317   1.704   1.644   6.022  1.0559  0.2646  0.0186
 1227SOL    HW215318   1.693   1.528   6.112  0.2336 -1.9843 -1.0418
 1228SOL     OW15319   1.740   3.010   8.980  0.1757  0.6045 -0.5495
 1228SOL    HW115320   1.830   2.981   8.997 -1.3199 -1.5640  3.7566
 1228SOL    HW215321   1.732   3.076   9.049 -0.5330 -0.6946  0.6039
 1229SOL     OW15322   3.369   2.506   8.201  0.7240 -0.0781 -0.1950
 1229SOL    HW115323   3.455   2.507   8.243  1.4200 -1.8557 -1.6169
 1229SOL    HW215324   3.340   2.415   8.209  0.3776  0.0853  0.4299
 1230SOL     OW15325   1.378   1.428   0.758  0.0374 -0.4226  0.2538
 1230SOL    HW115326   1.449   1.376   0.795 -0.7293 -1.0600  0.8132
 1230SOL    HW215327   1.405   1.434   0.666  0.7285 -4.3754  0.1687
 1231SOL     OW15328   1.845   0.886  10.324  0.5582  0.6703 -0.4065
 1231SOL    HW115329   1.830   0.794  10.346  1.3788  0.5005 -0.5569
 1231SOL    HW215330   1.940   0.892  10.314  0.6547 -2.2045 -1.2412
 1232SOL     OW15331   1.118   1.466   5.315  0.0619  0.7602 -0.6145
 1232SOL    HW115332   1.153   1.405   5.379 -0.8028  1.1710  0.2422
 1232SOL    HW215333   1.113   1.552   5.356 -0.0586  0.9334 -0.9867
 1233SOL     OW15334   3.657   2.104  13.678 -0.1106 -0.3509  0.3830
 1233SOL    HW115335   3.721   2.081  13.610  1.6979  0.3972  1.8190
 1233SOL    HW215336   3.570   2.097  13.638  0.1443  0.0883 -0.2483
 1234SOL     OW15337   1.199   1.570   5.045  0.1350 -0.2196  0.3598
 1234SOL    HW115338   1.292   1.548   5.053 -0.1977 -1.5190  0.5997
 1234SOL    HW215339   1.163   1.531   5.124  0.9329  0.2966  0.9758
 1235SOL     OW15340   3.294   0.778   7.379 -0.2891 -0.0546 -0.0226
 1235SOL    HW115341   3.366   0.840   7.367  0.8330 -0.6135  3.9877
 1235SOL    HW215342   3.336   0.701   7.341  0.2276  0.7498 -1.0831
 1236SOL     OW15343   1.972   2.011  11.192  0.0294  0.8812 -0.0143
 1236SOL    HW115344   2.022   2.087  11.163 -0.5426  1.8454  1.5748
 1236SOL    HW215345   1.963   1.967  11.107 -1.4009  2.6471 -0.7815
 1237SOL     OW15346   0.972   4.202   5.843  0.4964 -0.0945 -0.0357
 1237SOL    HW115347   0.900   4.140   5.855 -0.9169  1.9025  1.6165
 1237SOL    HW215348   0.944   4.260   5.772  1.1320 -0.3887 -0.5305
 1238SOL     OW15349   2.209   0.604   7.590  0.1571 -0.1530  0.3213
 1238SOL    HW115350   2.135   0.558   7.631  0.3431  0.8936  1.8315
 1238SOL    HW215351   2.170   0.641   7.511 -3.4370 -0.0296  2.1489
 1239SOL     OW15352   0.568   0.073   8.258 -0.6411  0.0087 -0.2151
 1239SOL    HW115353   0.585   0.051   8.350  1.6065 -1.8578 -1.0697
 1239SOL    HW215354   0.639   0.030   8.210 -0.0685  0.7835 -0.0581
 1240SOL     OW15355   2.359   4.598   7.293  0.0036 -0.5715 -0.2628
 1240SOL    HW115356   2.366   4.589   7.388  0.9467 -0.3720 -0.3164
 1240SOL    HW215357   2.416   4.675   7.287 -0.6115 -0.3406 -3.3640
 1241SOL     OW15358   2.866   0.234   7.887 -0.2963 -0.5245  0.4049
 1241SOL    HW115359   2.956   0.201   7.881 -0.2475  0.2510 -3.4051
 1241SOL    HW215360   2.869   0.251   7.981  2.3903 -2.3975  0.6750
 1242SOL     OW15361   1.084   0.603  16.242 -0.1910  0.0638 -0.0437
 1242SOL    HW115362   1.101   0.589  16.149 -1.2965 -1.9490  0.0466
 1242SOL    HW215363   1.114   0.521  16.280 -0.2490 -0.0633 -0.2715
 1243SOL     OW15364   1.048   3.789   9.736 -0.3826  0.3949 -0.0450
 1243SOL    HW115365   1.097   3.744   9.667 -0.0616  0.3561  0.2062
 1243SOL    HW215366   1.024   3.708   9.780 -0.3515  2.8023  4.4456
 1244SOL     OW15367   2.201   0.134   1.540  0.0625  0.4895  0.4722
 1244SOL    HW115368   2.119   0.102   1.502 -1.1932  1.6530  2.1804
 1244SOL    HW215369   2.238   0.186   1.469 -3.0423 -0.3252 -1.7273
 1245SOL     OW15370   4.358   2.049  16.894 -0.2998  0.2169  0.0065
 1245SOL    HW115371   4.316   2.132  16.916 -0.7890  0.4960 -2.0140
 1245SOL    HW215372   4.386   2.057  16.803  0.9874 -2.3648  0.1704
 1246SOL     OW15373   4.167   0.293  16.418  0.0316  0.1953  0.1361
 1246SOL    HW115374   4.236   0.250  16.368 -0.0162  1.6466 -1.1854
 1246SOL    HW215375   4.152   0.238  16.495  0.3139 -1.4985 -1.0158
 1247SOL     OW15376   0.307   1.992   5.883  0.0954 -0.4094 -0.4287
 1247SOL    HW115377   0.276   2.011   5.971  0.2446 -0.3201 -0.3944
 1247SOL    HW215378   0.348   1.906   5.885  2.1708  0.5815 -0.1430
 1248SOL     OW15379   1.805   3.478  17.097  0.5747 -0.1373  0.6430
 1248SOL    HW115380   1.710   3.475  17.083  0.7217  0.4542 -0.4637
 1248SOL    HW215381   1.810   3.401  17.152  0.7406 -1.2484 -0.9182
 1249SOL     OW15382   4.229   2.668   3.425 -0.1343 -0.2110  1.1080
 1249SOL    HW115383   4.155   2.713   3.384 -0.2308 -0.8311  0.6018
 1249SOL    HW215384   4.206   2.578   3.405 -2.8099  0.9099 -0.7668
 1250SOL     OW15385   2.945   4.319   7.044 -0.3523 -0.1908 -0.1133
 1250SOL    HW115386   2.918   4.410   7.033  0.2455 -0.1906 -1.5237
 1250SOL    HW215387   2.887   4.286   7.113 -0.3243  2.1057  1.0052
 1251SOL     OW15388   4.415   2.102   0.801  0.1157  0.2541 -0.2518
 1251SOL    HW115389   4.395   2.011   0.781  0.4427  0.0752  0.2206
 1251SOL    HW215390   4.344   2.146   0.754 -1.7293 -1.9749  0.4547
 1252SOL     OW15391   1.276   3.830   9.969  0.0431 -0.1912  0.2780
 1252SOL    HW115392   1.334   3.874  10.032  0.8465 -1.7692  0.6447
 1252SOL    HW215393   1.198   3.818  10.023  0.8663 -1.9819  1.0918
 1253SOL     OW15394   1.154   0.422   4.611 -0.4669 -0.3773  0.3731
 1253SOL    HW115395   1.188   0.501   4.571  1.7738 -1.5332  0.0099
 1253SOL    HW215396   1.141   0.363   4.536 -1.6455  0.0419  0.2401
 1254SOL     OW15397   0.905   0.872  11.327  0.4128 -0.4278 -0.2571
 1254SOL    HW115398   0.947   0.808  11.268  0.3412 -1.0457  0.3660
 1254SOL    HW215399   0.828   0.819  11.345 -0.6422  0.3927 -2.3911
 1255SOL     OW15400   2.754   1.188   1.172  0.0474 -0.4514  0.2278
 1255SOL    HW115401   2.672   1.147   1.200  0.3424  0.3101  2.2254
 1255SOL    HW215402   2.735   1.205   1.080 -2.6634  2.4760  1.3438
 1256SOL     OW15403   3.285   3.252  17.419  0.4184  0.3049 -0.4100
 1256SOL    HW115404   3.369   3.286  17.388  0.4561  1.8260  1.3581
 1256SOL    HW215405   3.225   3.320  17.387 -0.1960  0.3466  0.8445
 1257SOL     OW15406   2.180   2.587  15.171  0.3214  0.0744 -0.0322
 1257SOL    HW115407   2.181   2.536  15.252  0.2978 -0.7615 -0.5581
 1257SOL    HW215408   2.151   2.524  15.105 -0.9145 -0.8585  1.3708
 1258SOL     OW15409   1.666   2.554   6.262 -0.3137  0.0851 -0.3362
 1258SOL    HW115410   1.616   2.577   6.340  0.5781  0.4713  0.1246
 1258SOL    HW215411   1.607   2.588   6.195  1.4413  2.2813 -0.7553
 1259SOL     OW15412   0.597   0.670  12.422 -0.2661 -0.2279  0.7572
 1259SOL    HW115413   0.666   0.610  12.451  0.2737 -0.7653 -1.6224
 1259SOL    HW215414   0.608   0.660  12.328  0.2398  0.0962  0.7824
 1260SOL     OW15415   0.802   2.305   4.487 -0.4062  0.1693 -0.0577
 1260SOL    HW115416   0.784   2.301   4.394 -0.2533  0.2196 -0.0891
 1260SOL    HW215417   0.751   2.228   4.514  1.0548 -0.5435  0.6632
 1261SOL     OW15418   2.258   1.509  14.859  0.4758 -0.3488 -0.4511
 1261SOL    HW115419   2.289   1.426  14.896 -0.4192 -0.8134 -0.7367
 1261SOL    HW215420   2.186   1.527  14.920  1.5919  1.3926  0.3663
 1262SOL     OW15421   3.332   2.491   0.050  0.1733  0.0043 -0.6205
 1262SOL    HW115422   3.358   2.400   0.032 -1.3084 -0.4428 -0.5349
 1262SOL    HW215423   3.312   2.482   0.143  0.5771  2.0137 -0.3495
 1263SOL     OW15424   3.133   4.111   3.190 -0.7991  0.6743  0.2054
 1263SOL    HW115425   3.069   4.123   3.119 -1.7602  1.4301  1.1877
 1263SOL    HW215426   3.220   4.102   3.152  0.0200  0.5031  2.1436
 1264SOL     OW15427   2.872   2.349   2.584 -0.5671 -0.1476  0.2752
 1264SOL    HW115428   2.961   2.318   2.570 -0.1679  1.6196 -0.9908
 1264SOL    HW215429   2.880   2.443   2.595 -0.7417  0.2585 -3.2169
 1265SOL     OW15430   2.016   4.156   9.288  0.5719  0.8504 -0.1488
 1265SOL    HW115431   2.106   4.129   9.268  0.0435 -0.8383 -0.2835
 1265SOL    HW215432   1.991   4.072   9.326 -0.4470  0.9457 -0.5994
 1266SOL     OW15433   0.949   4.072   6.109 -0.3652 -0.0173  0.5125
 1266SOL    HW115434   0.961   4.110   6.196 -0.2951  0.7072  0.1872
 1266SOL    HW215435   1.027   4.101   6.061  0.8403  0.0068  2.5003
 1267SOL     OW15436   2.577   2.303   2.378 -0.0539 -0.6836  0.0652
 1267SOL    HW115437   2.547   2.292   2.288  0.2519  2.1180 -0.3982
 1267SOL    HW215438   2.549   2.219   2.413 -0.5700  0.6162  2.8167
 1268SOL     OW15439   1.371   1.358   5.861  0.3372 -0.4647  0.0151
 1268SOL    HW115440   1.441   1.329   5.920 -0.6464 -0.0466  1.4024
 1268SOL    HW215441   1.367   1.448   5.893  0.9419 -1.0292  1.6765
 1269SOL     OW15442   3.922   3.843   9.475 -0.5546 -0.1038 -0.7744
 1269SOL    HW115443   3.846   3.900   9.482 -0.5791 -0.0015 -1.9159
 1269SOL    HW215444   3.979   3.890   9.414  0.2326  1.1298  0.8906
 1270SOL     OW15445   0.965   0.346   9.553  0.0756  0.2498  0.6591
 1270SOL    HW115446   0.891   0.286   9.553 -0.4863  0.9604  2.5841
 1270SOL    HW215447   0.990   0.332   9.644 -0.6631 -1.0855  0.6633
 1271SOL     OW15448   3.304   1.804   8.870  0.0853 -0.3291 -0.0926
 1271SOL    HW115449   3.317   1.852   8.952 -1.1436  0.6426 -0.4626
 1271SOL    HW215450   3.385   1.825   8.822 -0.0290 -0.0110 -0.1510
 1272SOL     OW15451   3.605   3.375  16.688 -0.1442 -0.0708 -0.4702
 1272SOL    HW115452   3.678   3.437  16.678 -0.0126 -0.0154  0.8323
 1272SOL    HW215453   3.632   3.313  16.756  0.4332 -1.5332 -2.0262
 1273SOL     OW15454   1.659   4.411  13.470  0.9688  0.0033 -0.8498
 1273SOL    HW115455   1.682   4.326  13.507 -0.2191 -0.4707 -1.1932
 1273SOL    HW215456   1.579   4.424  13.520  2.4480 -1.5697  1.8972
 1274SOL     OW15457   3.939   1.928   8.633 -0.0342  0.0471 -0.7348
 1274SOL    HW115458   3.860   1.973   8.603  1.8160  2.4528 -1.9645
 1274SOL    HW215459   3.985   1.910   8.552  0.0477 -1.6316 -0.3171
 1275SOL     OW15460   3.750   0.797   8.337  0.3622 -0.1281  0.0864
 1275SOL    HW115461   3.756   0.762   8.248 -0.0774 -0.1471  0.0659
 1275SOL    HW215462   3.842   0.796   8.365  0.0234  0.6494  1.2427
 1276SOL     OW15463   0.458   3.186  13.418 -0.1247  0.1178  0.2165
 1276SOL    HW115464   0.431   3.174  13.327  0.9744 -1.0635  0.0484
 1276SOL    HW215465   0.402   3.123  13.463  2.1045 -1.6930  0.4380
 1277SOL     OW15466   1.858   3.951   9.392 -0.0245  0.0095 -0.3233
 1277SOL    HW115467   1.778   3.999   9.414  0.5203  0.5254  0.5469
 1277SOL    HW215468   1.847   3.893   9.467  0.8427  0.5691  0.2344
 1278SOL     OW15469   2.970   4.438   1.467 -0.4649 -0.2250  0.4874
 1278SOL    HW115470   2.992   4.360   1.517 -0.4315  0.5016  1.5954
 1278SOL    HW215471   3.000   4.506   1.528  1.0907 -0.4603 -0.0046
 1279SOL     OW15472   2.726   0.819   6.207  0.3645 -0.0321 -0.3369
 1279SOL    HW115473   2.663   0.885   6.178  0.5024  0.2328 -0.0358
 1279SOL    HW215474   2.685   0.735   6.187 -0.1181 -0.3372  1.9074
 1280SOL     OW15475   3.396   0.482  11.893  0.0560 -0.0574 -0.0840
 1280SOL    HW115476   3.411   0.395  11.856 -0.1703  0.5462 -1.5829
 1280SOL    HW215477   3.307   0.463  11.922 -0.1125  1.7203  0.5493
 1281SOL     OW15478   0.322   4.352   9.035  0.3321 -0.1621  0.1630
 1281SOL    HW115479   0.369   4.278   8.997  0.5433 -0.5272  1.1217
 1281SOL    HW215480   0.286   4.391   8.956  0.5667  2.0943  1.1739
 1282SOL     OW15481   1.033   4.298   2.947  0.2244  0.6059  0.0535
 1282SOL    HW115482   0.978   4.334   2.878 -1.0099 -0.8765  0.2610
 1282SOL    HW215483   0.971   4.309   3.019  0.1008 -2.8587  0.4651
 1283SOL     OW15484   3.961   3.029   8.401  0.2737 -0.4528  0.0354
 1283SOL    HW115485   3.898   3.088   8.442  2.2511  2.1350 -0.6621
 1283SOL    HW215486   3.953   3.046   8.308  0.1408  1.2967  0.3725
 1284SOL     OW15487   0.820   4.157   4.192  0.3060 -0.1392  0.0013
 1284SOL    HW115488   0.887   4.193   4.250 -0.3751  0.0040  0.7068
 1284SOL    HW215489   0.763   4.232   4.173  0.6259  0.2020  0.3989
 1285SOL     OW15490   2.202   2.707   8.315  0.5882 -0.0543  0.1761
 1285SOL    HW115491   2.143   2.771   8.355  1.3691  0.2925  0.7573
 1285SOL    HW215492   2.141   2.633   8.319  0.2840  0.1263 -1.1409
 1286SOL     OW15493   2.131   0.233   9.229  0.4915 -0.1829  0.5006
 1286SOL    HW115494   2.212   0.183   9.238 -0.1027 -1.0434  1.0546
 1286SOL    HW215495   2.076   0.155   9.242 -0.7290  0.2149 -2.3095
 1287SOL     OW15496   4.205   4.246   6.733  0.6244 -0.0437 -0.7560
 1287SOL    HW115497   4.201   4.212   6.822 -1.9441  0.4333 -0.6952
 1287SOL    HW215498   4.300   4.244   6.723  0.4407 -0.5923 -2.4650
 1288SOL     OW15499   0.488   0.176   6.033 -0.1509 -0.1335  0.2870
 1288SOL    HW115500   0.528   0.261   6.013 -0.9019  0.7365  2.4991
 1288SOL    HW215501   0.495   0.136   5.947  0.6564  0.7897 -0.0754
 1289SOL     OW15502   4.283   1.414  10.002  0.0198 -0.5004  0.1136
 1289SOL    HW115503   4.375   1.411   9.974 -0.1774  2.1903 -0.7768
 1289SOL    HW215504   4.266   1.323  10.026 -0.1660 -0.2316  0.9787
 1290SOL     OW15505   4.706   2.243   7.162 -0.6897  0.0266  0.5773
 1290SOL    HW115506   4.682   2.163   7.115 -0.3864  0.2844 -0.0027
 1290SOL    HW215507   4.640   2.305   7.129 -1.3728 -0.7851  0.4189
 1291SOL     OW15508   0.137   1.791   6.442 -0.0650  0.7747  0.1031
 1291SOL    HW115509   0.068   1.856   6.457  0.2173  1.7730 -3.0975
 1291SOL    HW215510   0.192   1.804   6.519  0.4910 -0.6392 -0.0555
 1292SOL     OW15511   4.377   3.030   8.690  0.3916 -0.0040 -0.2807
 1292SOL    HW115512   4.314   3.095   8.723 -0.1894 -0.9446  0.4689
 1292SOL    HW215513   4.381   2.955   8.748 -0.9143 -0.3208 -0.5964
 1293SOL     OW15514   1.695   4.047  14.005 -0.3676  0.5965  0.1308
 1293SOL    HW115515   1.693   4.120  13.943 -1.9399 -1.0068 -1.6879
 1293SOL    HW215516   1.785   4.050  14.038 -1.0726  0.2855  2.0247
 1294SOL     OW15517   0.225   1.646   2.627 -0.0966  0.8665  0.6675
 1294SOL    HW115518   0.307   1.656   2.675  0.3211 -1.5776  0.4925
 1294SOL    HW215519   0.254   1.583   2.561 -2.7532 -0.3366  0.6425
 1295SOL     OW15520   3.162   3.071  17.602 -0.2518 -0.0622  0.6008
 1295SOL    HW115521   3.224   2.998  17.600  1.4363  1.4139 -0.1533
 1295SOL    HW215522   3.198   3.128  17.535  0.5034  0.0573  1.1105
 1296SOL     OW15523   1.048   4.336   7.026 -0.2092  0.9201  0.2957
 1296SOL    HW115524   0.997   4.318   6.947 -0.5464  1.5559  0.3631
 1296SOL    HW215525   1.033   4.430   7.041  1.7701  1.2367  0.3068
 1297SOL     OW15526   3.004   4.298   7.411  0.2340  0.8555  0.0238
 1297SOL    HW115527   2.927   4.343   7.377 -1.2133 -1.5289  0.1028
 1297SOL    HW215528   2.963   4.263   7.490  2.4973 -0.9088  0.4485
 1298SOL     OW15529   2.599   0.466   5.710  0.3774  0.0914  0.2146
 1298SOL    HW115530   2.608   0.547   5.761  2.5919  0.1839 -0.3281
 1298SOL    HW215531   2.689   0.440   5.690  0.0064 -0.2937 -0.9280
 1299SOL     OW15532   3.865   1.251   1.982 -0.1356 -0.2296  0.2396
 1299SOL    HW115533   3.835   1.184   1.921  0.3904  0.1113 -0.3891
 1299SOL    HW215534   3.817   1.223   2.060 -1.8256 -2.3232 -1.5367
 1300SOL     OW15535   0.362   2.493   7.767 -0.0798  0.3578 -0.2813
 1300SOL    HW115536   0.347   2.561   7.832 -3.1483  0.2332 -0.8786
 1300SOL    HW215537   0.456   2.481   7.782  0.0519  0.7844 -0.7560
 1301SOL     OW15538   1.340   2.589   8.406 -0.4251 -0.2553 -0.6053
 1301SOL    HW115539   1.357   2.659   8.344  0.1987 -0.9105 -1.1803
 1301SOL    HW215540   1.409   2.524   8.388  0.4336  0.1454  1.2529
 1302SOL     OW15541   0.374   0.398   7.300 -0.0923  0.4620  0.3611
 1302SOL    HW115542   0.318   0.375   7.375 -0.0624 -0.3644  0.1317
 1302SOL    HW215543   0.418   0.475   7.336 -0.1363  1.0015 -0.7535
 1303SOL     OW15544   2.205   4.180   3.559 -0.8434  0.2120  0.2148
 1303SOL    HW115545   2.179   4.185   3.651 -1.7735  0.5959 -0.0739
 1303SOL    HW215546   2.251   4.098   3.543  0.4325  1.2381 -1.3713
 1304SOL     OW15547   3.313   0.839   6.149  0.1103  0.0888 -0.1125
 1304SOL    HW115548   3.277   0.847   6.061  1.8837 -0.8819 -0.9458
 1304SOL    HW215549   3.297   0.925   6.187 -1.6631  0.0949 -0.8863
 1305SOL     OW15550   0.659   3.507   2.218  0.1203  0.0317 -0.2583
 1305SOL    HW115551   0.614   3.571   2.163 -0.5815  1.8043  2.4122
 1305SOL    HW215552   0.585   3.454   2.248  0.9781 -1.2968 -0.4623
 1306SOL     OW15553   2.597   0.097  16.785 -0.5031 -0.2090 -0.2883
 1306SOL    HW115554   2.532   0.112  16.853  0.4049  0.7934  0.3379
 1306SOL    HW215555   2.634   0.185  16.778 -0.1910 -0.4114 -1.2769
 1307SOL     OW15556   1.312   3.116  10.497  0.8478  0.1675  0.1916
 1307SOL    HW115557   1.345   3.076  10.577 -0.1463  1.0986  1.0528
 1307SOL    HW215558   1.292   3.036  10.448  1.9419  2.1210 -3.4617
 1308SOL     OW15559   0.750   2.536   4.262  0.2849 -1.0968 -0.1558
 1308SOL    HW115560   0.696   2.532   4.183  2.4945  0.2263 -1.7126
 1308SOL    HW215561   0.700   2.482   4.324  1.5871 -0.7373  1.1820
 1309SOL     OW15562   3.994   3.547   6.770  0.0608 -0.4838  0.3129
 1309SOL    HW115563   3.994   3.621   6.709 -1.9532  0.5286  1.5653
 1309SOL    HW215564   4.089   3.538   6.783  0.1203  0.4546  0.5096
 1310SOL     OW15565   1.470   4.013  14.193  0.1698 -0.2213  0.0841
 1310SOL    HW115566   1.401   4.033  14.130 -1.8858 -1.5222  1.9468
 1310SOL    HW215567   1.543   4.052  14.144 -0.3673  0.7666  0.0594
 1311SOL     OW15568   0.731   4.179   1.733  0.3797 -0.7325  0.5019
 1311SOL    HW115569   0.752   4.254   1.677 -3.0227 -1.1855 -1.3989
 1311SOL    HW215570   0.717   4.226   1.815  1.4992  0.7067 -0.1156
 1312SOL     OW15571   1.483   0.507   2.398 -0.1340  0.2983  0.2512
 1312SOL    HW115572   1.568   0.463   2.389 -0.8936 -1.0280 -0.5620
 1312SOL    HW215573   1.505   0.597   2.378  2.3252  0.0827  2.0085
 1313SOL     OW15574   4.053   1.765   1.424  0.1350 -0.1292 -0.3331
 1313SOL    HW115575   4.003   1.760   1.505  2.0880  0.2230  0.8920
 1313SOL    HW215576   4.089   1.676   1.420 -0.3252 -0.3307  0.0068
 1314SOL     OW15577   1.652   1.452   2.065  0.0031  0.1474  0.1564
 1314SOL    HW115578   1.731   1.491   2.102  0.3699  0.6745 -1.1923
 1314SOL    HW215579   1.608   1.532   2.037  0.0184  0.6816  1.6665
 1315SOL     OW15580   2.068   1.975  14.017  0.6993 -0.1739 -0.4292
 1315SOL    HW115581   1.978   1.951  14.039  1.1838 -1.7163 -0.1022
 1315SOL    HW215582   2.059   2.070  14.018 -0.5269 -0.3068  1.2025
 1316SOL     OW15583   0.963   4.208  11.653  0.2529 -0.1949  0.4674
 1316SOL    HW115584   1.029   4.248  11.595  1.0685 -2.6049 -0.2621
 1316SOL    HW215585   0.983   4.115  11.639  2.5645  0.2294  0.9710
 1317SOL     OW15586   4.071   3.143  15.201 -0.0767 -0.2769 -0.4238
 1317SOL    HW115587   4.095   3.150  15.293  0.6669  2.4941 -0.8350
 1317SOL    HW215588   4.021   3.224  15.189 -1.7892 -1.6186 -2.6164
 1318SOL     OW15589   2.284   4.550   0.722  0.4773 -0.3911 -0.0259
 1318SOL    HW115590   2.286   4.496   0.801  0.0171  1.3070  1.1566
 1318SOL    HW215591   2.226   4.618   0.756 -0.1941 -1.5492  1.1606
 1319SOL     OW15592   1.005   2.786  10.512 -0.3359 -0.1578  0.6493
 1319SOL    HW115593   0.962   2.743  10.438  4.0976  0.3852 -2.2651
 1319SOL    HW215594   0.951   2.747  10.581 -0.0663  0.2150  1.0684
 1320SOL     OW15595   2.424   4.264   5.975 -0.4812  0.0744  0.4118
 1320SOL    HW115596   2.384   4.208   6.042 -1.1716  0.0349 -0.0473
 1320SOL    HW215597   2.466   4.320   6.041 -0.4541  0.9066 -0.3121
 1321SOL     OW15598   1.274   2.800   9.101 -0.1993 -0.6880 -0.1374
 1321SOL    HW115599   1.278   2.780   9.194 -1.1549  0.4060  0.1344
 1321SOL    HW215600   1.311   2.888   9.092 -0.6920 -0.6816 -2.0859
 1322SOL     OW15601   2.758   0.934  17.115 -0.1310 -0.5317  0.2141
 1322SOL    HW115602   2.664   0.935  17.101 -0.2114  0.3266  0.8291
 1322SOL    HW215603   2.789   0.852  17.076  1.2919  0.0129  0.2075
 1323SOL     OW15604   4.297   0.277   2.411  0.1006 -0.6237 -0.1142
 1323SOL    HW115605   4.261   0.219   2.344 -1.1456  3.1116 -2.6962
 1323SOL    HW215606   4.266   0.361   2.378  1.7782  0.2986  0.6919
 1324SOL     OW15607   0.327   2.177  16.913  0.0633 -0.0676  0.7656
 1324SOL    HW115608   0.294   2.126  16.839 -0.5074  0.0924  0.9074
 1324SOL    HW215609   0.301   2.267  16.892  1.3586  0.1626  0.1953
 1325SOL     OW15610   1.221   2.352   8.401 -0.1512  0.0684 -0.5145
 1325SOL    HW115611   1.264   2.433   8.376 -0.2586  0.6781  1.2529
 1325SOL    HW215612   1.214   2.366   8.495  0.7678  2.0996 -0.7527
 1326SOL     OW15613   2.267   2.372   0.701 -0.1208 -0.7402  0.5361
 1326SOL    HW115614   2.348   2.406   0.662 -0.5384 -0.7153 -0.3043
 1326SOL    HW215615   2.258   2.283   0.668  1.1181 -0.8933  0.5930
 1327SOL     OW15616   3.513   2.816  16.075  0.1241 -0.4642 -0.0165
 1327SOL    HW115617   3.491   2.723  16.069 -1.9159  0.0063  0.1802
 1327SOL    HW215618   3.467   2.845  15.996  0.5311  0.2197  0.0028
 1328SOL     OW15619   0.787   2.279   5.017  0.1930 -0.1316 -0.0494
 1328SOL    HW115620   0.691   2.280   5.006  0.1083 -1.1672  0.5819
 1328SOL    HW215621   0.818   2.193   4.989  0.0746 -1.2357  3.2089
 1329SOL     OW15622   1.724   2.990  15.215 -0.3018 -0.0679  0.3871
 1329SOL    HW115623   1.775   3.043  15.276 -1.5469  0.9585  0.5459
 1329SOL    HW215624   1.652   3.047  15.187 -0.1237 -0.1556 -0.2492
 1330SOL     OW15625   4.696   1.555   1.896  0.1081 -0.1493  0.5526
 1330SOL    HW115626   0.035   1.575   1.953  0.6087  1.0742 -0.5150
 1330SOL    HW215627   4.689   1.464   1.925 -0.4722 -0.6719 -1.2087
 1331SOL     OW15628   1.858   0.933  14.183  0.2639 -0.7568 -0.1012
 1331SOL    HW115629   1.953   0.930  14.186  0.3295  3.8970  1.4223
 1331SOL    HW215630   1.849   0.839  14.169  1.1712 -0.8062 -0.3640
 1332SOL     OW15631   3.920   3.482  17.330  0.2167  0.3297  0.5751
 1332SOL    HW115632   3.986   3.504  17.264 -0.2080  1.6180  0.5716
 1332SOL    HW215633   3.860   3.556  17.319 -1.3197 -1.0889 -0.4392
 1333SOL     OW15634   1.362   1.276   5.417  0.1135  0.1870 -0.0486
 1333SOL    HW115635   1.365   1.323   5.500  0.1156  0.9766 -0.4947
 1333SOL    HW215636   1.363   1.182   5.434 -0.7258  0.1672 -0.1024
 1334SOL     OW15637   4.130   0.194  16.671 -0.0065 -0.0300 -0.1414
 1334SOL    HW115638   4.044   0.217  16.705 -0.4508 -1.2111 -0.4541
 1334SOL    HW215639   4.148   0.132  16.741  0.3773  1.6948  1.2797
 1335SOL     OW15640   1.486   3.143   5.118  0.0500 -0.2634 -0.0468
 1335SOL    HW115641   1.534   3.153   5.200  0.1435 -0.4641 -0.0769
 1335SOL    HW215642   1.476   3.048   5.111 -4.6283  0.5724 -4.7205
 1336SOL     OW15643   4.708   0.337   1.588  0.4461  0.2493  0.1335
 1336SOL    HW115644   0.062   0.342   1.621  0.4775  0.5338  0.0113
 1336SOL    HW215645   4.726   0.390   1.511 -0.6761  0.1416 -0.2020
 1337SOL     OW15646   1.733   3.426   5.573 -0.1924 -0.2380  0.1588
 1337SOL    HW115647   1.812   3.387   5.535 -0.5827 -0.1642 -0.7386
 1337SOL    HW215648   1.753   3.517   5.552  0.0867 -0.9860 -2.9406
 1338SOL     OW15649   3.302   2.356   7.500  0.3815  0.2475 -0.4524
 1338SOL    HW115650   3.310   2.441   7.458  1.1887 -0.1309 -1.0657
 1338SOL    HW215651   3.396   2.337   7.505 -0.1667 -2.5021 -0.2498
 1339SOL     OW15652   1.223   0.357   8.001 -0.1471 -0.3465  0.3179
 1339SOL    HW115653   1.169   0.430   7.973  1.1120  0.5065  0.1152
 1339SOL    HW215654   1.164   0.285   7.979 -0.8592  0.1629  0.5822
 1340SOL     OW15655   1.698   2.595   8.135  0.2236  0.0186  0.0144
 1340SOL    HW115656   1.778   2.557   8.171  0.6655  0.9252  0.0002
 1340SOL    HW215657   1.693   2.673   8.191 -0.7408  0.2019 -0.3337
 1341SOL     OW15658   1.877   2.739   4.830  0.8288  0.0935 -0.8023
 1341SOL    HW115659   1.924   2.791   4.895 -2.0560  1.3074  0.2701
 1341SOL    HW215660   1.791   2.741   4.870  0.9248 -0.9793 -0.5314
 1342SOL     OW15661   3.568   2.721   4.454  0.0678  0.6412 -0.0164
 1342SOL    HW115662   3.628   2.749   4.523 -0.0960 -1.2200  0.8983
 1342SOL    HW215663   3.517   2.648   4.490 -1.7418  1.7997 -0.1812
 1343SOL     OW15664   3.096   1.190   4.058  0.7433 -0.2294  0.5473
 1343SOL    HW115665   3.047   1.269   4.037  0.5849  0.2539  2.7879
 1343SOL    HW215666   3.094   1.175   4.153  0.9517  1.6432  0.8440
 1344SOL     OW15667   1.502   3.758   3.394  0.3217 -0.4063 -0.2250
 1344SOL    HW115668   1.435   3.816   3.358 -1.1126 -1.9030  0.0410
 1344SOL    HW215669   1.509   3.702   3.317 -0.3542  0.8509 -1.1895
 1345SOL     OW15670   3.196   3.703  14.742 -0.0100  0.2111  0.0237
 1345SOL    HW115671   3.209   3.767  14.812  0.7093 -1.7752  1.7007
 1345SOL    HW215672   3.175   3.758  14.667  0.1632  1.2157  0.7128
 1346SOL     OW15673   1.728   0.306  10.547  0.4206  0.3004  0.0941
 1346SOL    HW115674   1.679   0.362  10.608 -1.0307  1.3518 -2.0379
 1346SOL    HW215675   1.792   0.267  10.606  0.7399  2.5913  1.2680
 1347SOL     OW15676   2.617   0.482   3.343  0.3681  0.1882  0.5813
 1347SOL    HW115677   2.528   0.458   3.317  1.7596 -1.8307 -2.2857
 1347SOL    HW215678   2.666   0.400   3.329 -1.9703 -0.8840 -1.2120
 1348SOL     OW15679   4.240   1.124   0.656  0.2579 -0.3559  0.1168
 1348SOL    HW115680   4.287   1.206   0.642 -0.7806  0.4260  1.1705
 1348SOL    HW215681   4.149   1.153   0.652  0.3263 -0.0021  1.0191
 1349SOL     OW15682   3.872   2.003  12.234  0.1081  0.1280  0.1862
 1349SOL    HW115683   3.928   1.931  12.262 -1.5778 -0.6949  1.3675
 1349SOL    HW215684   3.941   2.050  12.186  1.0786 -1.4895  0.0154
 1350SOL     OW15685   1.408   0.607   9.382 -0.2811 -0.5289 -0.0432
 1350SOL    HW115686   1.322   0.583   9.416 -0.8651  3.1107  1.0910
 1350SOL    HW215687   1.429   0.517   9.357 -1.7249 -0.3143 -2.0917
 1351SOL     OW15688   3.822   3.510   5.692 -0.1527  0.2635  0.5045
 1351SOL    HW115689   3.827   3.463   5.776  0.2711 -0.1335  0.2561
 1351SOL    HW215690   3.912   3.495   5.663  0.7018  1.2275  2.6156
 1352SOL     OW15691   2.782   2.845   5.312 -0.1452  0.3243  0.3442
 1352SOL    HW115692   2.716   2.785   5.278 -0.3858 -0.0124  1.4039
 1352SOL    HW215693   2.727   2.900   5.369  0.7080  1.8134 -0.2587
 1353SOL     OW15694   3.008   4.555   8.778 -0.3753 -0.1379 -0.0464
 1353SOL    HW115695   2.933   4.552   8.839  1.0559 -0.4795  1.7098
 1353SOL    HW215696   3.049   4.471   8.799  0.8001  0.7543  1.2072
 1354SOL     OW15697   1.899   2.479   5.464  0.5159  0.2200 -0.0168
 1354SOL    HW115698   1.904   2.397   5.514  0.5863 -0.5727 -1.3091
 1354SOL    HW215699   1.992   2.480   5.440  0.4678  1.3727 -0.1426
 1355SOL     OW15700   2.780   0.042   7.626  0.5770  0.4801  0.3788
 1355SOL    HW115701   2.839   0.117   7.628 -0.4019  1.2171  2.1741
 1355SOL    HW215702   2.842   4.706   7.618 -1.9354 -1.5847 -0.5143
 1356SOL     OW15703   1.035   4.515   6.597  0.1322 -0.0483 -0.0934
 1356SOL    HW115704   1.126   4.528   6.572 -0.1818 -0.5472 -1.4886
 1356SOL    HW215705   0.987   4.507   6.515  2.1050 -1.4822 -1.0721
 1357SOL     OW15706   0.095   2.112   2.366  0.5252  0.4814  0.3444
 1357SOL    HW115707   0.079   2.020   2.387  2.2114 -0.2710 -1.6316
 1357SOL    HW215708   0.188   2.105   2.344  0.6541 -0.2920  1.1585
 1358SOL     OW15709   0.385   2.159   3.737  0.0219  0.2473 -0.5212
 1358SOL    HW115710   0.435   2.080   3.714  0.9578  0.4226  0.8913
 1358SOL    HW215711   0.330   2.126   3.808 -1.8073 -0.2187 -2.1751
 1359SOL     OW15712   3.084   4.366  14.889 -0.2362  0.7419  0.4571
 1359SOL    HW115713   3.143   4.437  14.865  0.1721 -0.0125 -0.7872
 1359SOL    HW215714   3.001   4.409  14.867  1.1432  3.2896  0.2825
 1360SOL     OW15715   0.152   1.789   7.707 -0.6729 -0.2263 -0.2143
 1360SOL    HW115716   0.107   1.769   7.789  0.5779 -0.6115  0.3899
 1360SOL    HW215717   0.153   1.700   7.672 -1.1534 -0.7403  1.0830
 1361SOL     OW15718   1.603   3.177   6.985  0.5173 -0.0487  0.4481
 1361SOL    HW115719   1.607   3.272   6.990  0.2259 -0.0566  0.8644
 1361SOL    HW215720   1.696   3.170   6.965 -0.3781 -2.5838 -2.9176
 1362SOL     OW15721   1.601   0.670   2.835  0.4587 -0.8386 -0.1795
 1362SOL    HW115722   1.687   0.628   2.847  0.6720 -0.4121 -0.2348
 1362SOL    HW215723   1.555   0.602   2.785  1.7098 -2.0303  0.2816
 1363SOL     OW15724   2.694   4.434  15.412 -0.6128  0.0267 -0.2441
 1363SOL    HW115725   2.758   4.404  15.348  0.5538  0.5116  0.7138
 1363SOL    HW215726   2.617   4.447  15.356 -1.1304  2.0384  0.9316
 1364SOL     OW15727   3.621   0.541   6.693 -0.0358 -0.2350 -0.4137
 1364SOL    HW115728   3.668   0.574   6.770 -0.6173 -1.2068  0.3648
 1364SOL    HW215729   3.669   0.591   6.627  0.5561  0.5145  0.5745
 1365SOL     OW15730   4.331   3.473  15.735  0.1545 -0.0946 -0.3933
 1365SOL    HW115731   4.279   3.552  15.746  0.6902  0.5863 -2.7269
 1365SOL    HW215732   4.328   3.457  15.640 -0.0775 -1.7449 -0.1164
 1366SOL     OW15733   2.020   3.371   6.269  0.0753 -0.5605 -0.0606
 1366SOL    HW115734   2.088   3.304   6.258  0.5489 -0.3670  1.6466
 1366SOL    HW215735   1.944   3.318   6.294 -0.7051  0.7867  0.4333
 1367SOL     OW15736   1.441   3.023   9.004 -0.5561  0.3001 -0.3836
 1367SOL    HW115737   1.471   3.114   9.010 -1.4317  0.7050 -2.1671
 1367SOL    HW215738   1.529   2.986   9.011 -0.2152  1.1975  0.0740
 1368SOL     OW15739   0.456   4.421   2.660  0.2508  0.4318  0.5325
 1368SOL    HW115740   0.433   4.432   2.567 -0.1048 -1.1131  0.4495
 1368SOL    HW215741   0.440   4.508   2.697  2.2326 -0.4158  3.3693
 1369SOL     OW15742   4.326   3.080   9.033  0.4997  0.2893 -0.7093
 1369SOL    HW115743   4.245   3.032   9.014  0.3025  0.0261  0.7826
 1369SOL    HW215744   4.312   3.157   8.977  2.7742  1.8867  0.9325
 1370SOL     OW15745   3.972   4.218   5.244 -0.4999 -0.3965 -0.4507
 1370SOL    HW115746   3.953   4.229   5.337 -0.2520 -3.2058 -0.0655
 1370SOL    HW215747   3.884   4.190   5.219 -0.3265 -2.0040  0.7649
 1371SOL     OW15748   4.109   1.522   5.937  0.5236  0.2008 -0.4848
 1371SOL    HW115749   4.113   1.485   6.025  1.3341  0.1226 -0.5501
 1371SOL    HW215750   4.189   1.574   5.940  1.0824 -0.6132 -1.3634
 1372SOL     OW15751   1.789   1.317   4.780  0.3976 -0.4082 -0.3195
 1372SOL    HW115752   1.773   1.411   4.782 -1.1825 -0.6560 -0.9151
 1372SOL    HW215753   1.880   1.308   4.809  0.6879 -2.8213 -1.9565
 1373SOL     OW15754   0.690   4.155   7.967  0.0827 -0.9693 -0.0568
 1373SOL    HW115755   0.684   4.184   8.058  0.6217  0.9026 -0.6140
 1373SOL    HW215756   0.751   4.082   7.977 -0.2385 -1.2415 -0.1020
 1374SOL     OW15757   2.452   1.746   2.941  0.1564  0.3662 -0.2957
 1374SOL    HW115758   2.393   1.787   2.878  1.5902 -1.1967 -2.6687
 1374SOL    HW215759   2.522   1.809   2.958  2.2574 -1.3855 -2.3508
 1375SOL     OW15760   1.759   4.371   3.352  0.7107 -0.1148 -0.4378
 1375SOL    HW115761   1.805   4.287   3.354 -0.6842 -0.9107 -1.6226
 1375SOL    HW215762   1.703   4.373   3.429 -2.0724  0.1619 -2.4700
 1376SOL     OW15763   2.032   2.494   2.402  0.3218 -0.3259  0.2220
 1376SOL    HW115764   1.952   2.542   2.380  1.0019  1.5461  1.8749
 1376SOL    HW215765   2.094   2.496   2.329 -0.3578  0.3794 -0.3393
 1377SOL     OW15766   2.852   3.609   2.545 -0.5720 -0.7304  0.0270
 1377SOL    HW115767   2.788   3.630   2.477 -0.0195 -0.7164 -0.4870
 1377SOL    HW215768   2.887   3.528   2.508  1.1776  0.1235 -0.1421
 1378SOL     OW15769   3.856   0.397  17.572  0.3064  0.3910 -0.2185
 1378SOL    HW115770   3.793   0.414  17.502 -0.2830 -0.7052  0.0602
 1378SOL    HW215771   3.902   0.481  17.564 -0.1332  0.3733 -2.8928
 1379SOL     OW15772   2.969   2.949   2.237  0.8967 -0.2394  0.4708
 1379SOL    HW115773   2.979   2.972   2.145 -1.0296 -1.7586 -0.1429
 1379SOL    HW215774   2.921   3.025   2.270  1.2717  0.4057 -0.4831
 1380SOL     OW15775   3.929   3.785   7.041 -0.1310 -0.0232 -0.0517
 1380SOL    HW115776   3.904   3.694   7.055 -0.5522  0.1556  0.3760
 1380SOL    HW215777   3.855   3.801   6.982  0.0017 -0.5773 -0.3596
 1381SOL     OW15778   2.739   3.927   5.740 -0.0840 -0.1274 -0.3223
 1381SOL    HW115779   2.666   3.945   5.680  0.4727  0.4694 -0.8261
 1381SOL    HW215780   2.694   3.899   5.819  0.4391 -0.8462 -0.2758
 1382SOL     OW15781   0.769   3.204   7.588 -0.1463  0.2263  0.3050
 1382SOL    HW115782   0.812   3.140   7.645  4.9806 -0.3174 -4.1268
 1382SOL    HW215783   0.703   3.147   7.548 -1.2267  0.9555  1.0562
 1383SOL     OW15784   3.927   0.005   8.939  0.0232 -0.0376 -0.2764
 1383SOL    HW115785   3.891   4.652   8.938 -2.2003  0.8684  2.9160
 1383SOL    HW215786   3.878   0.039   8.864 -2.8547 -2.9957  0.2676
 1384SOL     OW15787   4.270   2.521  12.000 -0.7039 -0.5206  0.1734
 1384SOL    HW115788   4.200   2.560  12.053 -0.9362 -0.9076  0.1536
 1384SOL    HW215789   4.349   2.563  12.035  0.6891  0.4037 -4.0061
 1385SOL     OW15790   3.716   1.089   2.483  0.0351 -0.2066  0.3190
 1385SOL    HW115791   3.753   1.053   2.564  1.2324  0.9295  0.2690
 1385SOL    HW215792   3.676   1.169   2.517  1.6843  1.3811 -1.5081
 1386SOL     OW15793   4.598   2.883   7.052  0.1125 -0.2578 -0.1706
 1386SOL    HW115794   4.652   2.905   6.975 -0.1045 -2.2062 -0.8731
 1386SOL    HW215795   4.662   2.873   7.123 -0.0536  2.2262  0.3410
 1387SOL     OW15796   3.736   2.037  11.993  0.1051  0.2697  0.2346
 1387SOL    HW115797   3.762   2.011  12.081  1.6766  1.2504  0.0666
 1387SOL    HW215798   3.788   1.972  11.946 -1.6890  0.0928 -1.4881
 1388SOL     OW15799   0.958   1.127   6.255 -0.1117  0.0370  0.0586
 1388SOL    HW115800   0.990   1.167   6.336 -1.3050  1.4567 -0.1587
 1388SOL    HW215801   0.956   1.204   6.197  1.9902  0.0183 -0.0311
 1389SOL     OW15802   1.480   2.968   2.621 -0.3738  0.1528 -0.6882
 1389SOL    HW115803   1.510   3.048   2.577  0.1053 -0.1160 -0.8610
 1389SOL    HW215804   1.502   2.982   2.713 -1.1320 -0.5260 -0.4054
 1390SOL     OW15805   1.683   1.243   3.612 -0.2746  0.0935 -0.9608
 1390SOL    HW115806   1.759   1.209   3.565  0.6036 -0.0203  0.5427
 1390SOL    HW215807   1.722   1.289   3.686 -0.3667  2.0274 -2.1196
 1391SOL     OW15808   1.857   3.618   7.402 -1.0009  0.2005  0.5561
 1391SOL    HW115809   1.778   3.580   7.441 -1.5054  2.0616  1.3503
 1391SOL    HW215810   1.880   3.691   7.460  0.4094  2.3355 -2.6760
 1392SOL     OW15811   4.125   1.131   8.252 -0.0845 -0.9386  0.2158
 1392SOL    HW115812   4.105   1.222   8.273 -2.2101 -1.3030 -0.2569
 1392SOL    HW215813   4.217   1.151   8.235 -0.6935  1.4993 -0.1863
 1393SOL     OW15814   4.028   1.827   3.876  0.2314 -0.6849  0.3743
 1393SOL    HW115815   4.049   1.821   3.783 -2.7824  0.0204 -0.3363
 1393SOL    HW215816   4.109   1.828   3.928 -0.6918  1.4219  1.8145
 1394SOL     OW15817   3.183   3.631  12.906  0.6890  0.3288 -0.0825
 1394SOL    HW115818   3.234   3.690  12.961 -0.3377  0.8773  0.2751
 1394SOL    HW215819   3.143   3.584  12.980  1.8425 -0.6414 -0.0858
 1395SOL     OW15820   1.188   3.352   7.170 -0.2986 -0.0587  0.4022
 1395SOL    HW115821   1.273   3.394   7.170 -0.6907  0.7263  0.0650
 1395SOL    HW215822   1.141   3.433   7.191 -0.1494  0.2183 -0.3551
 1396SOL     OW15823   2.981   1.563   3.890  0.0965  0.1640  0.5125
 1396SOL    HW115824   3.010   1.537   3.803 -0.7972  0.7851  0.0273
 1396SOL    HW215825   2.962   1.654   3.866  0.0410 -0.2940 -1.1885
 1397SOL     OW15826   2.278   1.986   7.807  0.0595  0.5068  0.0675
 1397SOL    HW115827   2.244   2.062   7.760  0.4560  0.6103 -0.0533
 1397SOL    HW215828   2.369   2.016   7.807  0.2705 -0.1412  0.4908
 1398SOL     OW15829   2.806   2.101   2.408  0.3631  0.9220  0.4276
 1398SOL    HW115830   2.862   2.111   2.486 -1.9481  0.3936  2.1485
 1398SOL    HW215831   2.757   2.183   2.407  2.9090  2.4326 -0.1269
 1399SOL     OW15832   1.400   1.443   4.485 -0.0275  0.0097 -0.1998
 1399SOL    HW115833   1.451   1.370   4.521 -0.8457 -0.4292  0.0590
 1399SOL    HW215834   1.468   1.510   4.487 -2.5521  2.5598 -1.0778
 1400SOL     OW15835   0.074   0.463   8.079  0.1811 -0.2912  0.2338
 1400SOL    HW115836   0.050   0.555   8.066  0.5734 -0.4598 -1.7543
 1400SOL    HW215837   0.113   0.452   7.992 -0.5050 -0.8786  0.0065
 1401SOL     OW15838   3.197   3.871   1.327 -0.5658  0.2525  0.2313
 1401SOL    HW115839   3.180   3.958   1.291 -3.2932 -1.5320 -2.6784
 1401SOL    HW215840   3.267   3.839   1.271  0.9036  1.5114  1.3274
 1402SOL     OW15841   3.888   1.325  16.890 -0.5521 -0.7043 -0.4239
 1402SOL    HW115842   3.820   1.260  16.911  0.5334 -1.3098  1.2186
 1402SOL    HW215843   3.881   1.333  16.795  0.0926  0.4532 -0.3635
 1403SOL     OW15844   2.187   3.500   9.103  0.1760  0.7121  0.1286
 1403SOL    HW115845   2.162   3.411   9.128  0.0523  0.5440 -0.6262
 1403SOL    HW215846   2.250   3.491   9.032  2.0177 -0.4931  1.8910
 1404SOL     OW15847   0.893   2.326   6.680 -0.1625 -0.2244  0.1038
 1404SOL    HW115848   0.803   2.341   6.710  1.2823  0.2492  4.2445
 1404SOL    HW215849   0.899   2.230   6.683 -0.2698 -0.2105  0.7335
 1405SOL     OW15850   1.695   0.935   5.093 -0.0924  0.6879  0.0292
 1405SOL    HW115851   1.773   0.881   5.100 -1.4125 -1.1062  1.2153
 1405SOL    HW215852   1.728   1.025   5.086  0.1409  0.7762  2.1179
 1406SOL     OW15853   0.848   1.817   8.036  0.3704 -0.0340  0.6350
 1406SOL    HW115854   0.812   1.729   8.030  0.5560 -0.0702 -0.0271
 1406SOL    HW215855   0.943   1.812   8.021  0.1475 -1.6781 -0.1787
 1407SOL     OW15856   3.179   1.550  17.400  0.3549 -0.2783 -0.2560
 1407SOL    HW115857   3.174   1.479  17.336 -2.4132  0.6727 -1.0971
 1407SOL    HW215858   3.217   1.504  17.475  0.0299 -0.3569 -0.1403
 1408SOL     OW15859   1.696   2.978   3.629 -0.4373  0.7662 -0.1824
 1408SOL    HW115860   1.721   3.054   3.577  0.7003  0.0963 -0.6111
 1408SOL    HW215861   1.662   3.031   3.701  2.3235  2.0656  0.1583
 1409SOL     OW15862   4.040   4.322   8.302  0.4104  0.0787 -0.1512
 1409SOL    HW115863   4.043   4.384   8.230  0.0630  0.0687 -0.1775
 1409SOL    HW215864   4.130   4.290   8.303 -0.0408 -1.2076 -0.5435
 1410SOL     OW15865   1.570   0.692   6.473  0.1417 -0.1010 -0.1402
 1410SOL    HW115866   1.585   0.750   6.547 -0.4858 -1.7516  1.2541
 1410SOL    HW215867   1.495   0.728   6.426  0.7314  0.7107 -0.4665
 1411SOL     OW15868   1.451   2.488   3.000 -0.2774 -0.3669 -0.0563
 1411SOL    HW115869   1.375   2.540   3.026  0.1400  0.9635 -1.5117
 1411SOL    HW215870   1.445   2.416   3.063  0.7659 -1.2384 -0.9574
 1412SOL     OW15871   1.325   3.962   2.359 -0.1137 -0.1117  0.0558
 1412SOL    HW115872   1.365   3.993   2.278  2.1611  0.1352  1.2635
 1412SOL    HW215873   1.302   4.049   2.391 -0.4106  0.6317 -2.2524
 1413SOL     OW15874   4.524   4.397  13.628  0.6202 -0.1366  0.0762
 1413SOL    HW115875   4.454   4.462  13.637  0.5480 -0.2462  0.2953
 1413SOL    HW215876   4.479   4.325  13.672  0.0014  0.0764 -0.2101
 1414SOL     OW15877   2.445   1.326   8.012 -0.2938 -0.1184 -0.1069
 1414SOL    HW115878   2.484   1.405   8.048 -3.2001  1.2513  0.0681
 1414SOL    HW215879   2.398   1.356   7.934  0.2593  0.0887 -0.3617
 1415SOL     OW15880   2.509   0.056  13.110  0.2003  0.3906 -0.3851
 1415SOL    HW115881   2.494   0.075  13.202 -1.6206  1.5155 -0.9181
 1415SOL    HW215882   2.605   0.052  13.106  0.1981 -0.1836  0.1582
 1416SOL     OW15883   2.593   3.479   5.351 -0.3563 -0.5466 -0.4158
 1416SOL    HW115884   2.513   3.481   5.298  0.4492  0.8394 -1.5823
 1416SOL    HW215885   2.589   3.544   5.421  0.5680 -0.8607 -0.0763
 1417SOL     OW15886   2.612   2.993   9.290  0.2654  0.3791  0.1274
 1417SOL    HW115887   2.530   2.978   9.338  1.4296  0.1166  2.0667
 1417SOL    HW215888   2.682   2.985   9.355  2.7742 -1.4125 -2.8051
 1418SOL     OW15889   3.069   2.438   6.369 -0.3253  0.1889 -1.0576
 1418SOL    HW115890   3.149   2.450   6.421 -1.8172 -2.9491  1.9710
 1418SOL    HW215891   3.006   2.500   6.407  0.1362  0.9862 -1.5836
 1419SOL     OW15892   1.835   2.559  14.281  0.1095  0.0201  0.8469
 1419SOL    HW115893   1.843   2.508  14.201 -0.8093  1.1369  0.0418
 1419SOL    HW215894   1.852   2.492  14.348  2.3294  1.8551  2.1290
 1420SOL     OW15895   2.385   0.161   8.726 -0.1241 -0.5423  0.5938
 1420SOL    HW115896   2.377   0.143   8.632 -0.1122  1.5087  0.1823
 1420SOL    HW215897   2.294   0.169   8.753 -0.0735 -0.3324  0.7007
 1421SOL     OW15898   4.586   1.451   2.903 -0.9771 -0.2888 -0.5779
 1421SOL    HW115899   4.664   1.506   2.909 -0.5085 -1.0404  0.3765
 1421SOL    HW215900   4.551   1.478   2.818 -2.0661 -0.5531 -0.2008
 1422SOL     OW15901   2.297   4.064  14.468 -0.4496  0.0653  0.8323
 1422SOL    HW115902   2.264   4.090  14.382  0.6720  0.1070  0.4097
 1422SOL    HW215903   2.218   4.018  14.495 -2.4354  1.5733 -2.4654
 1423SOL     OW15904   4.600   3.194   1.984  0.3504 -0.2118 -0.0794
 1423SOL    HW115905   4.664   3.199   1.912 -0.3220 -1.0350 -0.7307
 1423SOL    HW215906   4.587   3.288   1.997 -0.4283 -0.1071 -1.5970
 1424SOL     OW15907   0.234   2.511   4.946  0.2644 -0.1246  0.4956
 1424SOL    HW115908   0.222   2.579   4.880 -1.1448  0.9701  1.8672
 1424SOL    HW215909   0.325   2.524   4.973  0.6197  1.4073 -1.4789
 1425SOL     OW15910   1.218   0.099   9.469 -0.5001 -0.7351  0.0948
 1425SOL    HW115911   1.159   0.167   9.437 -0.6338 -0.8673  0.0577
 1425SOL    HW215912   1.236   0.146   9.550 -1.4719  1.2990 -0.8807
 1426SOL     OW15913   3.936   3.027   6.305 -0.0129  0.7870 -0.0679
 1426SOL    HW115914   3.936   3.082   6.383  0.1665  1.2460 -0.3946
 1426SOL    HW215915   4.007   2.966   6.324  0.7075  1.5683 -0.2363
 1427SOL     OW15916   0.756   2.168   2.654  1.4129  0.2247  0.2282
 1427SOL    HW115917   0.737   2.111   2.729 -0.4882 -0.3757 -0.7030
 1427SOL    HW215918   0.705   2.245   2.680  1.2029 -0.5226  2.0277
 1428SOL     OW15919   2.774   1.498   4.382  0.3262  0.1930  0.4777
 1428SOL    HW115920   2.793   1.470   4.292  0.1307  0.4918  0.3434
 1428SOL    HW215921   2.823   1.579   4.391  0.3145  0.1778  0.6730
 1429SOL     OW15922   0.935   1.704   7.440  0.2299  0.4817  0.2318
 1429SOL    HW115923   0.981   1.620   7.437 -2.4761 -1.0676  1.9148
 1429SOL    HW215924   0.992   1.747   7.503  1.0427 -1.8041  1.0551
 1430SOL     OW15925   2.754   2.352   3.869  0.1569 -0.8838  0.1290
 1430SOL    HW115926   2.786   2.271   3.831  0.9106 -0.4449 -0.1756
 1430SOL    HW215927   2.817   2.363   3.941  0.2395  0.4954 -0.1359
 1431SOL     OW15928   2.730   4.087   2.831 -0.2904  0.3305  0.4762
 1431SOL    HW115929   2.810   4.060   2.875 -0.6960 -1.2415  0.2298
 1431SOL    HW215930   2.755   4.077   2.739  1.2476  1.1845  0.7996
 1432SOL     OW15931   2.603   3.512   7.644 -0.1257  0.7645  0.3906
 1432SOL    HW115932   2.524   3.562   7.626 -1.2545 -1.2458 -0.3075
 1432SOL    HW215933   2.666   3.536   7.577 -1.3195  2.6922 -0.0304
 1433SOL     OW15934   0.173   0.804   2.826 -0.0315 -0.5353  0.0848
 1433SOL    HW115935   0.126   0.866   2.770 -0.8628 -0.1313  1.2449
 1433SOL    HW215936   0.143   0.839   2.909  1.5676  0.9355  0.0469
 1434SOL     OW15937   3.315   3.466  17.046 -0.3824  0.0627  0.1171
 1434SOL    HW115938   3.281   3.428  16.965  0.7307 -0.2867 -0.1856
 1434SOL    HW215939   3.233   3.498  17.082  0.5690  1.3061  1.1710
 1435SOL     OW15940   1.256   2.747   3.102  0.3389 -0.4011 -0.2847
 1435SOL    HW115941   1.241   2.780   3.191  0.1280 -1.2450 -0.0041
 1435SOL    HW215942   1.174   2.701   3.086 -0.0716  0.2917 -0.2087
 1436SOL     OW15943   2.046   1.300   7.971  0.2218 -0.0847 -0.4119
 1436SOL    HW115944   2.004   1.334   7.892 -0.4563  1.3459  0.5663
 1436SOL    HW215945   1.965   1.280   8.018  1.1250 -2.7290  0.0270
 1437SOL     OW15946   1.645   0.386   9.848 -0.2765 -0.7409 -0.6003
 1437SOL    HW115947   1.705   0.332   9.796  3.5480  3.0467 -0.1574
 1437SOL    HW215948   1.570   0.327   9.854 -2.7696  2.8907  3.9129
 1438SOL     OW15949   2.808   0.478   7.710 -0.3470 -0.1112  0.3509
 1438SOL    HW115950   2.750   0.537   7.758 -0.9182 -1.4976  1.3866
 1438SOL    HW215951   2.830   0.401   7.763  0.6183 -0.6165 -0.7868
 1439SOL     OW15952   1.107   2.071   1.988  0.0788 -0.0808  0.2540
 1439SOL    HW115953   1.092   2.142   2.050  0.0596 -0.7570  1.0326
 1439SOL    HW215954   1.131   1.994   2.040  1.9765  1.2802  1.4058
 1440SOL     OW15955   2.521   2.038   3.598  0.5556 -0.2520 -0.2944
 1440SOL    HW115956   2.473   1.957   3.581  0.7810 -0.2945 -0.7405
 1440SOL    HW215957   2.520   2.047   3.693 -1.7395  0.6108 -0.4049
 1441SOL     OW15958   0.220   0.110   5.897 -0.2527 -0.4985 -0.7300
 1441SOL    HW115959   0.167   0.046   5.850 -0.0725 -2.6617  2.0283
 1441SOL    HW215960   0.303   0.104   5.849  1.4431  0.8903  2.0134
 1442SOL     OW15961   0.959   2.197   1.797 -0.1935  0.1918 -0.5451
 1442SOL    HW115962   0.997   2.117   1.833 -1.4286 -0.1910 -0.0849
 1442SOL    HW215963   1.037   2.252   1.788 -0.1157 -0.3540 -3.1115
 1443SOL     OW15964   3.019   3.075   8.079 -0.2004 -0.0368 -0.2309
 1443SOL    HW115965   3.048   3.143   8.140 -1.2382  0.5053 -0.3488
 1443SOL    HW215966   2.932   3.110   8.066  0.1409  1.1343  0.6425
 1444SOL     OW15967   1.819   3.496   3.239 -0.6618  0.0225  0.2094
 1444SOL    HW115968   1.892   3.438   3.260 -0.5128 -0.6451 -2.1146
 1444SOL    HW215969   1.802   3.543   3.321 -1.1915 -0.3707  0.3224
 1445SOL     OW15970   1.919   3.225   5.455 -0.0752 -0.2477  0.4173
 1445SOL    HW115971   1.993   3.165   5.465  0.0521  0.1380  1.9238
 1445SOL    HW215972   1.843   3.166   5.454  0.2716 -0.6967  0.3716
 1446SOL     OW15973   3.114   1.458   8.156 -0.3804 -0.3119  0.4802
 1446SOL    HW115974   3.033   1.407   8.160 -0.4247 -0.0339  3.3441
 1446SOL    HW215975   3.087   1.542   8.194 -1.1203 -0.1297 -0.4282
 1447SOL     OW15976   2.374   2.490   7.609 -0.2383 -0.4782 -0.2622
 1447SOL    HW115977   2.439   2.437   7.656  0.0310  1.0074  1.0296
 1447SOL    HW215978   2.380   2.568   7.664 -0.4174 -1.4043  1.0666
 1448SOL     OW15979   3.382   0.488  13.955  0.2749 -0.0681 -0.0882
 1448SOL    HW115980   3.316   0.519  13.893  0.0645  1.0673  0.6870
 1448SOL    HW215981   3.401   0.567  14.005  0.9042 -0.3160  0.0578
 1449SOL     OW15982   0.050   1.994   3.624  0.4248 -0.2469 -0.4817
 1449SOL    HW115983   0.027   2.081   3.591  0.1921 -0.5303 -1.0631
 1449SOL    HW215984   0.052   2.004   3.719 -0.0596 -0.9319 -0.4032
 1450SOL     OW15985   1.206   0.349   0.436 -0.1901 -0.0390  0.4086
 1450SOL    HW115986   1.286   0.300   0.457  0.5066  0.4393 -1.1122
 1450SOL    HW215987   1.157   0.273   0.404  1.0365 -1.0835  0.9894
 1451SOL     OW15988   1.074   2.672   6.476 -0.2533  0.4005 -0.2153
 1451SOL    HW115989   1.127   2.733   6.527 -1.2081  1.1355 -0.0824
 1451SOL    HW215990   0.997   2.666   6.533  0.1300 -1.1150  0.1376
 1452SOL     OW15991   2.175   4.211  12.103 -0.1337 -0.4507  0.0565
 1452SOL    HW115992   2.099   4.243  12.054 -0.4254 -0.8335  0.2596
 1452SOL    HW215993   2.185   4.129  12.055 -1.4024  0.2722 -1.4394
 1453SOL     OW15994   1.069   0.137   7.880  0.3342  0.1832  0.5156
 1453SOL    HW115995   1.066   0.106   7.971 -2.8329 -1.0296  0.0191
 1453SOL    HW215996   1.005   0.072   7.848 -0.4030  0.3455  1.6670
 1454SOL     OW15997   1.036   1.477   3.469  0.3190 -0.0617 -0.0580
 1454SOL    HW115998   1.125   1.455   3.442 -0.2999 -0.8455 -1.3899
 1454SOL    HW215999   0.984   1.398   3.484  1.1753 -0.8861 -1.4813
 1455SOL     OW16000   3.958   4.127   3.450  0.1909 -0.1319 -0.5549
 1455SOL    HW116001   4.020   4.068   3.493 -0.0642 -0.8232 -1.1414
 1455SOL    HW216002   4.003   4.171   3.378  2.4277  0.8888  1.4799
 1456SOL     OW16003   3.008   4.014  16.328  0.0465 -0.2618 -0.1472
 1456SOL    HW116004   2.963   3.930  16.327 -0.3452 -0.0294 -1.5091
 1456SOL    HW216005   2.975   4.058  16.250  1.3377  0.3961 -0.3176
 1457SOL     OW16006   1.487   1.277   4.912 -0.2423  0.1123 -0.1366
 1457SOL    HW116007   1.511   1.186   4.891  3.3018  1.5039 -2.1821
 1457SOL    HW216008   1.413   1.260   4.970  0.0560 -1.4187 -0.1895
 1458SOL     OW16009   1.041   2.290   0.410 -0.3162 -0.1335  0.0049
 1458SOL    HW116010   1.039   2.266   0.317  1.7348 -2.1311  0.4495
 1458SOL    HW216011   0.950   2.297   0.437 -0.7852  0.5922 -1.7959
 1459SOL     OW16012   2.028   0.834  15.450 -0.2202  0.4749 -0.2924
 1459SOL    HW116013   1.998   0.794  15.532  1.3520  0.6696  0.3869
 1459SOL    HW216014   1.962   0.892  15.415 -3.0812 -2.3624  0.3969
 1460SOL     OW16015   2.050   0.053  15.725  0.1014 -0.1262  0.0127
 1460SOL    HW116016   2.102   0.059  15.645 -1.8160  1.0718 -1.1689
 1460SOL    HW216017   2.031   0.146  15.737  3.0084  0.4792 -0.0324
 1461SOL     OW16018   2.145   0.976   9.792 -0.2411  0.1428  0.4058
 1461SOL    HW116019   2.170   0.982   9.699 -0.2745 -2.5042  0.2258
 1461SOL    HW216020   2.055   1.008   9.783  0.2019 -0.1631 -5.4231
 1462SOL     OW16021   2.931   2.955   8.528 -0.6304 -0.0040  0.1168
 1462SOL    HW116022   2.908   3.042   8.560  0.3801  0.2279  0.2063
 1462SOL    HW216023   3.020   2.973   8.500 -0.5329  0.1722  0.5367
 1463SOL     OW16024   0.992   1.031   7.260  0.2653  0.1087  0.4665
 1463SOL    HW116025   0.981   0.936   7.252 -1.0018  0.3089 -0.0724
 1463SOL    HW216026   0.908   1.057   7.297 -0.9518  2.1104 -3.7022
 1464SOL     OW16027   4.704   3.527   7.853 -0.1088 -0.2533  0.4189
 1464SOL    HW116028   4.675   3.597   7.912  0.1978 -0.2863  0.6060
 1464SOL    HW216029   4.649   3.554   7.779  0.9716 -1.2376 -0.7354
 1465SOL     OW16030   2.857   0.525   3.591  0.4140 -0.1569  1.1357
 1465SOL    HW116031   2.809   0.596   3.548  0.6645  0.0531  1.1965
 1465SOL    HW216032   2.879   0.460   3.524  0.0745  1.0449 -0.1583
 1466SOL     OW16033   3.322   0.663   4.955 -0.0784  0.2636  0.4932
 1466SOL    HW116034   3.370   0.605   5.014 -3.3997 -2.2339  0.7231
 1466SOL    HW216035   3.312   0.621   4.870 -0.4745 -0.4804  0.9074
 1467SOL     OW16036   1.137   3.291  16.553 -0.0109 -0.2079  0.1816
 1467SOL    HW116037   1.224   3.329  16.564  0.0563  0.1495 -1.6199
 1467SOL    HW216038   1.160   3.215  16.499  0.1063  0.5990 -0.8930
 1468SOL     OW16039   0.032   3.898   5.303 -0.4273 -0.5286  0.0108
 1468SOL    HW116040   4.714   3.958   5.355 -0.3109 -0.3889 -0.0345
 1468SOL    HW216041   0.101   3.956   5.274 -1.4584  0.0058 -1.3756
 1469SOL     OW16042   3.037   2.974   4.390  0.8396  0.0490  0.5477
 1469SOL    HW116043   2.983   2.903   4.423  1.6699 -0.6454  0.4328
 1469SOL    HW216044   2.991   3.010   4.315 -0.0576  1.4941  1.7881
 1470SOL     OW16045   1.227   3.542   3.073  0.2643  0.4531 -0.3784
 1470SOL    HW116046   1.133   3.528   3.079  0.1744  0.6787 -1.2370
 1470SOL    HW216047   1.254   3.450   3.069 -1.3541 -0.0112 -0.6440
 1471SOL     OW16048   2.901   4.124   5.865 -0.9423 -0.3811  0.3111
 1471SOL    HW116049   2.932   4.107   5.954 -0.6958  1.8213  0.6544
 1471SOL    HW216050   2.868   4.039   5.838 -1.2041  0.5384 -2.2750
 1472SOL     OW16051   1.073   4.044   9.805 -0.0356 -0.1172 -0.1484
 1472SOL    HW116052   1.049   3.952   9.794  1.8448 -0.7818  1.2691
 1472SOL    HW216053   1.166   4.028   9.788  0.0991  0.9430 -0.4030
 1473SOL     OW16054   4.329   1.327   7.516 -0.7223  0.6277  0.7506
 1473SOL    HW116055   4.245   1.369   7.532 -0.4472  0.7616  1.8787
 1473SOL    HW216056   4.321   1.249   7.571 -0.1611  0.0393 -0.0150
 1474SOL     OW16057   4.079   3.315  11.259 -0.4995 -0.6787 -0.1822
 1474SOL    HW116058   4.005   3.370  11.285 -1.5184 -2.7693  1.3063
 1474SOL    HW216059   4.092   3.340  11.167  0.4435  0.6420  0.2914
 1475SOL     OW16060   0.429   3.188  13.803 -0.0388 -0.0464  0.8514
 1475SOL    HW116061   0.432   3.271  13.755 -1.1395 -0.8574 -0.6295
 1475SOL    HW216062   0.400   3.128  13.734 -0.0168 -0.3972  1.1494
 1476SOL     OW16063   0.732   2.934   8.120 -0.3364 -0.0366  0.4017
 1476SOL    HW116064   0.644   2.945   8.157  0.1258  2.3162  0.7956
 1476SOL    HW216065   0.724   2.867   8.052  1.0427 -1.2144  1.3950
 1477SOL     OW16066   0.641   3.876   6.600  0.0854 -0.2529 -0.1398
 1477SOL    HW116067   0.721   3.840   6.639  0.7560  0.0770 -1.2278
 1477SOL    HW216068   0.660   3.970   6.595 -0.4493 -0.0639  1.5516
 1478SOL     OW16069   1.196   0.979   2.280 -0.1956  0.3344  0.2523
 1478SOL    HW116070   1.204   0.884   2.285 -1.0027  0.2332 -0.6590
 1478SOL    HW216071   1.174   0.990   2.188  3.1190 -0.4502 -0.6663
 1479SOL     OW16072   0.015   2.658   3.596  0.2013 -0.5367  0.5383
 1479SOL    HW116073   4.731   2.570   3.629  1.0619 -0.3533  1.5587
 1479SOL    HW216074   0.098   2.681   3.639 -0.0613  0.7884  0.3379
 1480SOL     OW16075   2.525   3.525   3.673 -0.0349 -0.1201 -0.0973
 1480SOL    HW116076   2.488   3.603   3.713 -1.0512 -0.8865  0.4692
 1480SOL    HW216077   2.451   3.487   3.625  0.0870  0.8471 -1.0302
 1481SOL     OW16078   0.071   2.020   4.830  0.2284  0.3715  0.0413
 1481SOL    HW116079   0.134   2.087   4.858 -1.4430  1.9594  0.0078
 1481SOL    HW216080   0.131   1.957   4.790 -2.4099  0.0687 -3.4519
 1482SOL     OW16081   4.123   0.426   1.522  0.6662  0.0965  1.0691
 1482SOL    HW116082   4.207   0.382   1.532 -0.0964 -2.0479 -1.9832
 1482SOL    HW216083   4.069   0.364   1.570 -1.4771 -0.4867 -2.0874
 1483SOL     OW16084   0.414   1.400   8.221 -0.5309 -0.2418  0.3194
 1483SOL    HW116085   0.387   1.355   8.141  1.4417 -0.7315 -0.0755
 1483SOL    HW216086   0.380   1.339   8.287 -0.7567 -1.3383 -0.8101
 1484SOL     OW16087   1.815   1.218   8.684  0.5069 -0.4509  0.5196
 1484SOL    HW116088   1.848   1.154   8.747  0.5985  0.0300  0.9621
 1484SOL    HW216089   1.887   1.212   8.621 -1.7347  1.8130 -2.2725
 1485SOL     OW16090   1.819   1.774   8.580 -0.4064 -0.1924  0.2449
 1485SOL    HW116091   1.869   1.739   8.506 -1.4005  2.2220 -1.5884
 1485SOL    HW216092   1.813   1.867   8.557 -0.2122 -0.3989 -0.6149
 1486SOL     OW16093   0.542   0.573  15.017  0.7433 -0.6565 -0.3918
 1486SOL    HW116094   0.520   0.660  15.049  0.5189  0.0414 -2.4408
 1486SOL    HW216095   0.511   0.571  14.927  1.7911 -1.6843 -0.7334
 1487SOL     OW16096   4.004   0.460   4.027 -1.2132  0.1015  0.3262
 1487SOL    HW116097   3.956   0.388   3.987  3.1540 -2.0341 -1.0304
 1487SOL    HW216098   4.057   0.492   3.954  0.0107  1.1916  1.6946
 1488SOL     OW16099   2.970   3.034  13.918  0.6937  0.3016  0.0923
 1488SOL    HW116100   2.884   3.074  13.909  0.6639  0.2663  0.2262
 1488SOL    HW216101   2.982   3.004  13.828 -1.4783  2.0246 -0.7837
 1489SOL     OW16102   2.353   2.345   6.078 -0.2715  0.7334 -0.4185
 1489SOL    HW116103   2.262   2.339   6.108  0.0480  3.3035  1.0247
 1489SOL    HW216104   2.410   2.349   6.154  0.0458 -1.2694 -0.5628
 1490SOL     OW16105   4.046   0.835   8.386 -0.6970  0.0187  0.0956
 1490SOL    HW116106   4.079   0.836   8.476  1.5961  0.4976 -0.7615
 1490SOL    HW216107   4.055   0.925   8.357 -0.5744 -0.6178 -1.8526
 1491SOL     OW16108   3.576   3.514   1.432  0.5575 -0.2157  0.3432
 1491SOL    HW116109   3.493   3.486   1.472 -0.4592 -0.8279 -2.1810
 1491SOL    HW216110   3.539   3.526   1.345 -0.1961  1.1959  0.8537
 1492SOL     OW16111   0.518   2.340   8.400  0.4227 -0.5936 -0.0930
 1492SOL    HW116112   0.447   2.340   8.464  1.3699  0.7153  0.9515
 1492SOL    HW216113   0.536   2.247   8.384 -0.2035 -0.7217 -0.0236
 1493SOL     OW16114   0.902   1.419  13.149  0.0017 -0.1685  0.3926
 1493SOL    HW116115   0.855   1.354  13.097 -0.1267  1.4198 -1.4631
 1493SOL    HW216116   0.984   1.409  13.102  0.8579  0.7463  1.6847
 1494SOL     OW16117   2.978   3.657   4.040 -0.1693  0.1570 -0.1480
 1494SOL    HW116118   3.046   3.602   4.001  1.3835  1.4908  0.6613
 1494SOL    HW216119   2.992   3.731   3.980 -0.2087  1.3937  1.3534
 1495SOL     OW16120   1.187   3.223   3.427 -0.3061  0.6872 -0.1791
 1495SOL    HW116121   1.233   3.245   3.346 -1.9673  1.1523 -0.9984
 1495SOL    HW216122   1.158   3.309   3.457 -0.6293 -0.3990  2.6932
 1496SOL     OW16123   4.485   1.146   9.346  0.2854 -0.1929  0.2378
 1496SOL    HW116124   4.499   1.052   9.333 -0.3678 -0.3162  0.3962
 1496SOL    HW216125   4.516   1.175   9.260 -0.1821 -0.0847  0.1071
 1497SOL     OW16126   1.620   3.881   9.829  0.1939  0.4078 -0.0643
 1497SOL    HW116127   1.590   3.954   9.884  0.9363  1.2198 -0.7520
 1497SOL    HW216128   1.673   3.833   9.893  0.5878 -0.4057 -1.0115
 1498SOL     OW16129   2.523   4.359   6.219 -0.1030 -0.0069  0.0298
 1498SOL    HW116130   2.557   4.436   6.174  0.2353  0.2353  0.6992
 1498SOL    HW216131   2.434   4.393   6.235 -0.7348 -1.5217 -0.2765
 1499SOL     OW16132   1.081   0.708   8.618 -0.4100 -0.3656  0.4729
 1499SOL    HW116133   1.162   0.755   8.636 -0.1735  0.7441 -3.3867
 1499SOL    HW216134   1.100   0.665   8.535 -2.1690 -0.9895  0.3867
 1500SOL     OW16135   3.183   3.194   2.113  0.0322 -0.3346  0.4297
 1500SOL    HW116136   3.241   3.118   2.128  2.7170  0.9941 -3.0528
 1500SOL    HW216137   3.114   3.151   2.061  0.1945  0.5866 -0.5426
 1501SOL     OW16138   1.581   1.983   7.477 -0.2785 -0.6018  0.0474
 1501SOL    HW116139   1.521   2.042   7.522  0.2321 -1.6648  2.1277
 1501SOL    HW216140   1.552   1.896   7.505 -2.2854  0.3080  0.8427
 1502SOL     OW16141   4.225   0.693   1.567  0.1972  0.2714 -0.0294
 1502SOL    HW116142   4.277   0.655   1.638  0.9989  2.2615  0.4523
 1502SOL    HW216143   4.192   0.614   1.524 -0.4229  1.2568 -1.3966
 1503SOL     OW16144   2.506   0.993  11.944 -0.2346 -0.5297  0.1572
 1503SOL    HW116145   2.477   1.039  12.023  1.0816 -0.8369  0.8102
 1503SOL    HW216146   2.541   1.067  11.894  1.6247 -0.5481  1.4510
 1504SOL     OW16147   2.581   4.697  13.504 -0.9834 -0.3505  0.1726
 1504SOL    HW116148   2.500   4.731  13.467  0.2096  2.0491 -0.2058
 1504SOL    HW216149   2.572   4.720  13.596 -1.9553  0.2754 -0.0837
 1505SOL     OW16150   2.422   0.936   4.800 -0.1234 -0.2282 -1.3079
 1505SOL    HW116151   2.458   0.992   4.731 -1.9218  0.4894 -1.6929
 1505SOL    HW216152   2.424   0.849   4.761 -0.0104 -0.2629 -1.2237
 1506SOL     OW16153   2.148   1.656  15.324 -0.1792 -0.4440  0.6143
 1506SOL    HW116154   2.075   1.687  15.377 -0.2556  0.4423 -0.0024
 1506SOL    HW216155   2.095   1.606  15.261 -1.5993 -0.4615  1.8260
 1507SOL     OW16156   1.228   2.344  10.176  0.4653 -0.6553 -0.3668
 1507SOL    HW116157   1.289   2.302  10.117  1.4937 -1.4625  1.2732
 1507SOL    HW216158   1.277   2.343  10.258  0.9562  0.2559 -0.6471
 1508SOL     OW16159   1.507   1.712   8.109 -1.0293  0.8798  0.2791
 1508SOL    HW116160   1.469   1.717   8.197  2.2096 -0.8648  1.7576
 1508SOL    HW216161   1.565   1.787   8.125 -0.6507  0.4556  0.8752
 1509SOL     OW16162   0.349   2.898   1.945 -0.2348  0.2220 -0.3948
 1509SOL    HW116163   0.294   2.953   1.890  1.3203  0.2684 -1.9302
 1509SOL    HW216164   0.393   2.849   1.875  3.2774  1.1529  1.1753
 1510SOL     OW16165   4.183   1.422   5.226 -0.4283  0.5935 -0.0071
 1510SOL    HW116166   4.227   1.503   5.199 -1.9363  0.3522 -3.1516
 1510SOL    HW216167   4.093   1.440   5.199 -0.4605  0.5328  0.0597
 1511SOL     OW16168   0.989   0.144   0.397 -0.3911 -0.2071  0.2812
 1511SOL    HW116169   1.015   0.157   0.306  1.3058  1.4464  0.9714
 1511SOL    HW216170   0.998   0.051   0.415 -1.8344 -0.3487  0.2469
 1512SOL     OW16171   2.826   3.909   0.597 -0.6311  0.0297 -0.0131
 1512SOL    HW116172   2.815   4.004   0.595  0.1435  0.0097 -3.9082
 1512SOL    HW216173   2.758   3.905   0.664 -0.3940  1.5535  0.3173
 1513SOL     OW16174   4.503   2.487   6.768 -0.4447  0.0907 -0.1945
 1513SOL    HW116175   4.543   2.422   6.825  0.7240  1.2347  0.2993
 1513SOL    HW216176   4.472   2.557   6.826  1.4472  0.2170  0.6765
 1514SOL     OW16177   0.117   1.461  14.223 -0.0235 -0.4558 -0.1384
 1514SOL    HW116178   0.210   1.469  14.242 -0.3817 -2.3608  2.2962
 1514SOL    HW216179   0.126   1.419  14.137 -0.0657 -2.1691  0.7010
 1515SOL     OW16180   3.030   3.438  16.545 -0.0688  0.1907  0.2235
 1515SOL    HW116181   2.982   3.521  16.542 -0.2679 -0.0054 -1.8093
 1515SOL    HW216182   3.120   3.467  16.550  0.8331 -2.6913  1.0201
 1516SOL     OW16183   0.047   0.479   3.530  0.5951  0.0389 -0.2922
 1516SOL    HW116184   0.084   0.439   3.452  0.0380 -0.5251 -0.2638
 1516SOL    HW216185   0.106   0.553   3.544  0.9436  0.1706 -2.5975
 1517SOL     OW16186   3.910   0.793   1.053  0.3295  0.2508  0.4053
 1517SOL    HW116187   3.928   0.832   0.967  1.3441  0.9343  0.9277
 1517SOL    HW216188   3.874   0.861   1.109  0.0670 -1.9124  2.8654
 1518SOL     OW16189   2.765   1.075   3.119 -0.4007  0.5082  0.1614
 1518SOL    HW116190   2.775   1.076   3.214  1.1446 -0.3988  0.0265
 1518SOL    HW216191   2.690   1.134   3.114 -1.8426 -1.3538 -0.3105
 1519SOL     OW16192   1.566   2.298   4.302 -1.0498 -0.4774 -0.1320
 1519SOL    HW116193   1.477   2.273   4.278 -1.5424  1.7366 -0.5839
 1519SOL    HW216194   1.551   2.347   4.382 -1.2781  0.0944 -0.5295
 1520SOL     OW16195   0.490   3.703   6.032  0.2857  0.0081  0.7896
 1520SOL    HW116196   0.436   3.717   6.110  0.8062  0.3423  1.0981
 1520SOL    HW216197   0.533   3.788   6.031  0.2290  0.0293  0.1655
 1521SOL     OW16198   1.139   0.421   1.809 -0.2755  0.1558  0.2092
 1521SOL    HW116199   1.072   0.463   1.862 -0.4115 -0.3588  0.4482
 1521SOL    HW216200   1.115   0.329   1.817 -1.0601  0.5563  2.4615
 1522SOL     OW16201   4.543   0.994   7.769  0.2479 -0.5862  0.2980
 1522SOL    HW116202   4.633   0.976   7.797 -0.3175 -1.2234  1.7052
 1522SOL    HW216203   4.506   0.907   7.758 -0.9646  0.0248 -0.4800
 1523SOL     OW16204   1.447   3.759  13.426  0.0344  0.2833  0.3464
 1523SOL    HW116205   1.425   3.784  13.336  1.1577 -0.5799 -0.1715
 1523SOL    HW216206   1.529   3.808  13.431 -1.2312  2.1555  2.7332
 1524SOL     OW16207   2.469   0.710   5.178 -0.0812  0.2395 -0.1890
 1524SOL    HW116208   2.443   0.660   5.100 -1.1381  1.8676 -0.8790
 1524SOL    HW216209   2.419   0.792   5.171  1.4489  1.1666 -0.1662
 1525SOL     OW16210   3.318   3.905   4.127 -0.0422 -0.3241 -0.0492
 1525SOL    HW116211   3.244   3.957   4.098  1.0540  1.6259  0.6577
 1525SOL    HW216212   3.268   3.845   4.184 -0.4438  1.1028  1.0911
 1526SOL     OW16213   1.098   4.077   2.595 -0.0935  0.0520 -0.4082
 1526SOL    HW116214   1.135   4.003   2.643  0.2172  0.3703 -0.1530
 1526SOL    HW216215   1.046   4.026   2.532  2.1877 -1.1158 -1.3663
 1527SOL     OW16216   4.361   1.272   6.845 -0.2952 -0.0704  0.1285
 1527SOL    HW116217   4.417   1.345   6.872 -0.2603  0.4490 -1.3868
 1527SOL    HW216218   4.337   1.234   6.930  0.0655 -0.6820 -0.0480
 1528SOL     OW16219   4.036   1.886   3.603 -0.2364  0.2145  0.4817
 1528SOL    HW116220   4.129   1.892   3.580  0.0306  0.0470  1.5219
 1528SOL    HW216221   4.013   1.978   3.596  0.3590  0.2743 -0.7696
 1529SOL     OW16222   1.823   4.543   1.261  0.3694  0.2460 -0.2647
 1529SOL    HW116223   1.776   4.532   1.343  1.8991  1.2983  0.7625
 1529SOL    HW216224   1.787   4.617   1.212 -1.6698 -0.2391  0.5202
 1530SOL     OW16225   3.751   1.516  16.260 -0.2123  0.8131  0.5162
 1530SOL    HW116226   3.780   1.431  16.228 -1.9954  0.3666  0.0951
 1530SOL    HW216227   3.665   1.529  16.219  0.8487 -2.2309 -2.6965
 1531SOL     OW16228   1.842   2.474   0.983 -0.9234  0.1434 -0.1849
 1531SOL    HW116229   1.923   2.496   0.938  0.2276  1.2984  2.4887
 1531SOL    HW216230   1.868   2.384   1.005  0.6732  1.1018  1.8056
 1532SOL     OW16231   1.544   3.717  12.809 -0.4419  0.1792 -0.1037
 1532SOL    HW116232   1.532   3.632  12.852 -0.2480 -0.4622 -1.3316
 1532SOL    HW216233   1.532   3.782  12.878  2.2714  0.6687 -0.1217
 1533SOL     OW16234   0.008   1.424   7.158 -0.7942  0.0877 -0.1374
 1533SOL    HW116235   0.072   1.354   7.153 -0.0299  0.8519 -1.1076
 1533SOL    HW216236   4.731   1.440   7.252  1.9033 -1.7724  0.5158
 1534SOL     OW16237   2.904   2.717   4.479 -0.2230  0.2230  0.6183
 1534SOL    HW116238   2.895   2.699   4.386 -1.2568  0.1635  0.7374
 1534SOL    HW216239   2.836   2.661   4.517 -1.5888  1.1798 -0.4543
 1535SOL     OW16240   1.221   2.813   5.503 -0.4827 -0.0944  0.1887
 1535SOL    HW116241   1.290   2.798   5.568  0.0073  0.0230 -0.3093
 1535SOL    HW216242   1.174   2.730   5.500 -1.1652  0.4046 -2.9195
 1536SOL     OW16243   3.517   4.473   0.129 -0.2810 -0.6990 -0.1382
 1536SOL    HW116244   3.424   4.492   0.118 -0.0812  0.7250  0.6230
 1536SOL    HW216245   3.555   4.442   0.047  0.3094 -1.8295  0.5532
 1537SOL     OW16246   3.856   1.282  16.633  0.2567 -0.3014  0.0013
 1537SOL    HW116247   3.935   1.242  16.596 -1.0761 -2.3534 -0.6252
 1537SOL    HW216248   3.801   1.276  16.555 -0.8943 -2.0644  0.9652
 1538SOL     OW16249   0.264   1.800   8.891  0.0914 -0.1654  0.1350
 1538SOL    HW116250   0.188   1.753   8.925 -0.0396 -0.2972 -0.3331
 1538SOL    HW216251   0.245   1.807   8.797  0.3663 -1.7572 -0.0390
 1539SOL     OW16252   1.035   1.068  14.705  0.0603 -0.2859 -0.1354
 1539SOL    HW116253   0.956   1.044  14.657 -0.4792 -2.7134  2.0078
 1539SOL    HW216254   1.005   1.084  14.794 -2.3561  0.2949 -1.0561
 1540SOL     OW16255   2.846   3.034   9.574 -0.0956 -0.6768  0.1194
 1540SOL    HW116256   2.847   2.942   9.546 -0.5590 -0.1838 -1.4678
 1540SOL    HW216257   2.821   3.025   9.666 -1.1923  0.0961 -0.1056
 1541SOL     OW16258   4.068   3.479   5.564 -0.2566 -0.2055  0.3427
 1541SOL    HW116259   4.142   3.420   5.554  0.6130  0.7458  1.1346
 1541SOL    HW216260   4.056   3.499   5.471 -0.7555 -1.3594  0.1636
 1542SOL     OW16261   4.041   4.177   3.805 -0.0960 -0.3248  0.0504
 1542SOL    HW116262   4.066   4.125   3.730 -0.1171  1.0181 -0.8860
 1542SOL    HW216263   4.035   4.267   3.773  0.1172  0.0439  1.0340
 1543SOL     OW16264   4.627   2.357   4.838 -0.0400 -0.3481 -0.4440
 1543SOL    HW116265   4.568   2.379   4.910  1.1306  0.5256  0.2445
 1543SOL    HW216266   4.713   2.363   4.880 -0.0822  0.0548 -0.4112
 1544SOL     OW16267   2.178   3.964  11.659 -0.0904 -0.3221  0.2816
 1544SOL    HW116268   2.197   3.887  11.713 -2.1643 -1.7455 -1.0242
 1544SOL    HW216269   2.082   3.973  11.660 -0.0307  0.0755  3.2239
 1545SOL     OW16270   2.126   2.625  17.624 -0.4217  0.0057 -0.3384
 1545SOL    HW116271   2.100   2.538  17.655 -2.5716  0.0832 -1.8910
 1545SOL    HW216272   2.070   2.683  17.676  0.4434 -0.7239  1.3893
 1546SOL     OW16273   1.128   1.580   8.213  0.2292 -0.1536  0.6939
 1546SOL    HW116274   1.201   1.622   8.258  0.0645 -0.0154  0.8336
 1546SOL    HW216275   1.120   1.646   8.144  0.6840 -1.2847 -0.4504
 1547SOL     OW16276   1.096   3.114   1.599  0.1991 -0.0104 -0.9897
 1547SOL    HW116277   1.005   3.142   1.611  0.7704  1.1234  0.6944
 1547SOL    HW216278   1.109   3.151   1.512  1.1982 -0.2456 -0.9387
 1548SOL     OW16279   1.180   2.568  16.132 -0.0227  0.6600  0.4313
 1548SOL    HW116280   1.088   2.593  16.138 -0.7960 -1.9090 -0.8447
 1548SOL    HW216281   1.228   2.645  16.099 -1.3406  0.8512 -1.0602
 1549SOL     OW16282   1.937   3.633  17.460  0.0331  0.2981 -0.6644
 1549SOL    HW116283   2.019   3.671  17.492 -1.2101  0.7549  1.9742
 1549SOL    HW216284   1.925   3.675  17.375 -1.0841  0.0293 -0.6382
 1550SOL     OW16285   4.475   3.469   1.097 -0.1138 -0.1248 -0.3347
 1550SOL    HW116286   4.475   3.492   1.190 -0.9031  1.3630 -0.6942
 1550SOL    HW216287   4.452   3.377   1.105 -0.5120  0.0630  0.6270
 1551SOL     OW16288   0.804   3.295   5.154  0.0179 -0.4271 -0.1684
 1551SOL    HW116289   0.711   3.303   5.134 -0.0857  0.3664  0.6789
 1551SOL    HW216290   0.805   3.212   5.202 -0.8373  0.5347  1.4896
 1552SOL     OW16291   4.618   0.796   9.064 -0.1465  0.2424  0.4926
 1552SOL    HW116292   4.637   0.824   9.153 -0.1619  2.4099 -0.2034
 1552SOL    HW216293   4.695   0.740   9.048  0.9404  1.6240  0.9057
 1553SOL     OW16294   0.420   2.747   4.933  0.4754 -0.7238 -0.1459
 1553SOL    HW116295   0.431   2.842   4.932 -1.5805 -0.4794  1.8624
 1553SOL    HW216296   0.500   2.725   4.980  0.9892 -1.1392 -1.2046
 1554SOL     OW16297   4.311   1.853   0.883  0.2072  0.3130 -0.1041
 1554SOL    HW116298   4.323   1.921   0.949  0.8716  1.9128 -1.8586
 1554SOL    HW216299   4.353   1.780   0.929 -0.7497  0.6626  1.3377
 1555SOL     OW16300   1.712   2.856   1.324 -0.0578 -0.3565  0.1083
 1555SOL    HW116301   1.696   2.764   1.303 -0.2940 -1.1041  3.4505
 1555SOL    HW216302   1.807   2.858   1.329 -0.0228 -1.8802  0.0198
 1556SOL     OW16303   3.319   2.067  15.637  1.0952  0.0399  0.3348
 1556SOL    HW116304   3.241   2.027  15.599  0.5686  1.3287  0.0673
 1556SOL    HW216305   3.294   2.064  15.729  0.1827  1.9577  0.1416
 1557SOL     OW16306   0.629   3.658   3.701 -0.1846 -0.5320 -0.1539
 1557SOL    HW116307   0.705   3.707   3.671 -0.9353 -0.0936 -1.3491
 1557SOL    HW216308   0.660   3.607   3.776 -1.4849 -0.2721  0.5492
 1558SOL     OW16309   2.528   1.939  15.110  0.0401 -0.0579  0.1978
 1558SOL    HW116310   2.510   2.026  15.074 -2.2929  0.1085  1.7388
 1558SOL    HW216311   2.616   1.965  15.134 -0.2054  0.7247  0.2363
 1559SOL     OW16312   3.129   2.657  17.653  0.7784  0.2730  0.1390
 1559SOL    HW116313   3.188   2.621  17.719 -1.4011 -5.0548 -0.8027
 1559SOL    HW216314   3.106   2.742  17.689 -2.6948 -1.6385  2.4436
 1560SOL     OW16315   2.279   3.341  12.911 -0.7201 -0.0316  0.2136
 1560SOL    HW116316   2.258   3.248  12.904 -0.8587  0.0432 -0.3853
 1560SOL    HW216317   2.284   3.357  12.817 -2.6639  0.4598  0.2026
 1561SOL     OW16318   3.580   2.243  15.524  0.0954  0.1426 -0.2344
 1561SOL    HW116319   3.575   2.260  15.618  1.4075 -0.1567 -0.1129
 1561SOL    HW216320   3.505   2.298  15.504 -0.7380 -0.5036  1.1104
 1562SOL     OW16321   2.645   1.305   0.531 -0.0727 -0.4637  0.1113
 1562SOL    HW116322   2.687   1.365   0.593 -0.1424  0.7482 -1.0316
 1562SOL    HW216323   2.560   1.346   0.517  0.1469  0.4412  1.3493
 1563SOL     OW16324   2.632   1.739   3.759  0.0637  0.0902 -0.2187
 1563SOL    HW116325   2.540   1.716   3.750 -0.2484  1.6737 -1.0287
 1563SOL    HW216326   2.647   1.721   3.852  0.3606  2.4304  0.1814
 1564SOL     OW16327   3.522   1.735   9.515  0.5678 -0.3999 -0.6366
 1564SOL    HW116328   3.597   1.726   9.574  0.4232  2.9009  0.0063
 1564SOL    HW216329   3.451   1.735   9.578 -0.1788 -1.8307 -1.4569
 1565SOL     OW16330   2.112   2.796   2.975 -0.4202  0.9578  0.3075
 1565SOL    HW116331   2.069   2.769   3.056 -0.3718 -0.9526 -0.2868
 1565SOL    HW216332   2.193   2.746   2.968 -1.3993 -0.1145 -3.4766
 1566SOL     OW16333   1.120   4.593  11.866  0.4833  0.1131  0.0116
 1566SOL    HW116334   1.181   4.658  11.832  1.2234 -0.6503 -0.1324
 1566SOL    HW216335   1.093   4.634  11.948  0.9954 -3.0297  1.7861
 1567SOL     OW16336   2.614   3.448  13.318 -0.2358  0.2089  0.6865
 1567SOL    HW116337   2.555   3.393  13.369  1.6982 -2.8865 -0.4317
 1567SOL    HW216338   2.559   3.488  13.251  0.2328  0.5736  0.5217
 1568SOL     OW16339   0.559   2.012   2.552  0.2093 -0.5906 -0.2184
 1568SOL    HW116340   0.604   2.094   2.572  1.1038 -1.4635  1.2979
 1568SOL    HW216341   0.538   1.981   2.640 -2.1266  2.4055  0.3095
 1569SOL     OW16342   0.340   4.144  10.022  0.3352  0.3895  0.0351
 1569SOL    HW116343   0.329   4.066  10.075  1.6158  1.2358  1.5462
 1569SOL    HW216344   0.280   4.206  10.064  0.0456 -0.7827  1.3195
 1570SOL     OW16345   2.546   2.790   7.545  0.3241  0.4631  0.2553
 1570SOL    HW116346   2.459   2.828   7.559  0.4025  0.4941  0.6510
 1570SOL    HW216347   2.584   2.851   7.482  2.2312 -1.2856 -0.2972
 1571SOL     OW16348   0.040   3.074   3.518 -0.4589  0.0524 -0.0387
 1571SOL    HW116349   0.028   3.023   3.598 -0.9356 -1.7672 -1.2793
 1571SOL    HW216350   4.683   3.079   3.496 -0.1631 -1.7117 -1.6397
 1572SOL     OW16351   4.137   2.730   6.951 -0.2356  0.5520 -0.1190
 1572SOL    HW116352   4.112   2.774   7.033  1.7429  0.3432  0.6018
 1572SOL    HW216353   4.106   2.790   6.883 -0.0291  1.1967  0.3501
 1573SOL     OW16354   2.513   4.034   6.611 -0.3371  0.1559  0.7013
 1573SOL    HW116355   2.574   3.961   6.605 -1.6875 -0.7676 -2.0648
 1573SOL    HW216356   2.528   4.069   6.523  0.2965  0.8424  1.0910
 1574SOL     OW16357   1.155   0.028   4.095  0.6679 -0.1130  0.0967
 1574SOL    HW116358   1.093   0.066   4.157 -0.7723 -1.4264 -0.5307
 1574SOL    HW216359   1.168   4.675   4.129 -4.0985 -0.5998  0.6903
 1575SOL     OW16360   0.186   1.099  11.887  0.4881 -0.0425 -0.1044
 1575SOL    HW116361   0.186   1.195  11.886  2.5554 -0.0629 -1.1433
 1575SOL    HW216362   0.241   1.085  11.963 -0.8605  0.7217  1.0126
 1576SOL     OW16363   1.037   2.249   2.572 -0.2931 -0.1235 -0.5130
 1576SOL    HW116364   1.072   2.284   2.654  2.8343  1.1114 -2.3853
 1576SOL    HW216365   0.956   2.209   2.604 -1.1052  1.0281 -1.1468
 1577SOL     OW16366   1.554   2.625   3.599  0.0093  0.6105  0.1995
 1577SOL    HW116367   1.482   2.688   3.591 -1.2973 -0.7839  1.1292
 1577SOL    HW216368   1.516   2.554   3.650  1.2855 -0.1606  0.0788
 1578SOL     OW16369   1.957   1.127   4.399  0.1649  0.0442 -0.0782
 1578SOL    HW116370   1.898   1.059   4.433 -1.9388  1.6725 -0.4869
 1578SOL    HW216371   2.030   1.123   4.461  0.6763 -3.4155 -0.8886
 1579SOL     OW16372   2.149   3.195   3.564 -0.1904 -0.1089 -0.6968
 1579SOL    HW116373   2.129   3.155   3.648 -0.6381  1.1127 -0.2179
 1579SOL    HW216374   2.216   3.137   3.529  0.3595 -0.2427  0.6165
 1580SOL     OW16375   0.333   1.574   9.239  0.3157  0.7161  0.6452
 1580SOL    HW116376   0.271   1.647   9.247  0.4127  0.8001  0.6317
 1580SOL    HW216377   0.377   1.573   9.324 -0.1412 -4.0013  0.8365
 1581SOL     OW16378   2.126   4.259   1.404  0.0466  0.2282 -0.4095
 1581SOL    HW116379   2.104   4.167   1.417  3.1562 -0.7163 -1.6465
 1581SOL    HW216380   2.218   4.268   1.379 -0.0759 -2.9740 -2.0629
 1582SOL     OW16381   2.135   2.132   8.406  0.8510 -0.0268 -0.3232
 1582SOL    HW116382   2.107   2.042   8.388  0.5744 -0.2683  1.2664
 1582SOL    HW216383   2.182   2.153   8.326  0.4626  0.2205 -0.4866
 1583SOL     OW16384   4.418   4.087  16.084 -0.3577  0.0763  0.1720
 1583SOL    HW116385   4.362   4.164  16.094 -1.1250 -0.9724  4.2500
 1583SOL    HW216386   4.352   4.020  16.070  0.3507 -1.4741  4.2545
 1584SOL     OW16387   4.654   0.043   9.591  0.4655 -0.0865 -0.8167
 1584SOL    HW116388   4.696   0.126   9.615  0.0152  0.0767 -0.5858
 1584SOL    HW216389   4.730   4.721   9.587  1.3268  1.0341 -0.7842
 1585SOL     OW16390   0.049   2.939   7.754 -0.8763  0.3556 -0.3052
 1585SOL    HW116391   0.107   2.872   7.717 -1.2693 -0.9775  1.5015
 1585SOL    HW216392   4.716   2.936   7.688  1.4630  0.4173 -2.7447
 1586SOL     OW16393   2.599   4.646   9.486 -0.1757 -0.4261  0.0693
 1586SOL    HW116394   2.520   4.611   9.444 -0.6511  1.0585 -0.3017
 1586SOL    HW216395   2.630   4.701   9.414 -1.1709 -0.8464 -0.6903
 1587SOL     OW16396   3.115   3.150   5.425 -0.3716 -0.3427  0.6988
 1587SOL    HW116397   3.098   3.086   5.356  0.2962  1.1824 -0.8580
 1587SOL    HW216398   3.055   3.220   5.400 -0.7539 -1.6461 -2.0297
 1588SOL     OW16399   3.144   4.041   5.707  0.3076  0.5870  0.3237
 1588SOL    HW116400   3.093   4.091   5.770 -1.1251  0.9240 -1.1033
 1588SOL    HW216401   3.213   4.013   5.768  1.3221 -1.4645 -1.7645
 1589SOL     OW16402   3.941   2.621   6.173 -0.3386  0.5263  0.3024
 1589SOL    HW116403   3.905   2.710   6.177  2.0120  1.4841 -0.2222
 1589SOL    HW216404   3.888   2.579   6.105 -0.9156  0.6596  0.6709
 1590SOL     OW16405   0.717   3.545   1.659 -0.0964 -0.4035 -0.2810
 1590SOL    HW116406   0.622   3.545   1.650 -0.1361 -0.3463  0.1255
 1590SOL    HW216407   0.745   3.479   1.595  1.4883  0.4846 -0.5072
 1591SOL     OW16408   1.111   0.415   4.873 -0.6337  0.1593 -0.1024
 1591SOL    HW116409   1.163   0.494   4.881  1.5225 -1.3515  0.7261
 1591SOL    HW216410   1.107   0.410   4.777  0.0053 -2.1312 -0.0083
 1592SOL     OW16411   1.937   0.799   2.832 -0.5404 -0.2942  0.2516
 1592SOL    HW116412   2.026   0.820   2.804 -0.2746 -0.4433  0.9728
 1592SOL    HW216413   1.906   0.741   2.763  0.4339 -0.8307  0.2679
 1593SOL     OW16414   4.131   1.537   0.621 -0.1080  0.4206 -0.6910
 1593SOL    HW116415   4.196   1.468   0.614 -0.2660  0.4745 -2.7776
 1593SOL    HW216416   4.117   1.529   0.715 -0.3107 -0.5006 -0.8045
 1594SOL     OW16417   2.213   2.679   9.397  0.2660 -0.1670  0.2261
 1594SOL    HW116418   2.166   2.747   9.446 -3.3091 -1.6252 -1.2228
 1594SOL    HW216419   2.236   2.724   9.315  0.7980 -1.3917 -0.3001
 1595SOL     OW16420   3.471   3.420   9.316  0.1305 -0.1629  0.2247
 1595SOL    HW116421   3.499   3.510   9.331  0.7861 -0.3839  0.3484
 1595SOL    HW216422   3.507   3.370   9.390  3.0627 -0.0751 -1.1365
 1596SOL     OW16423   3.508   4.570   6.081 -0.6421 -0.2461 -0.4922
 1596SOL    HW116424   3.522   4.663   6.096  2.5411 -1.0096  1.3674
 1596SOL    HW216425   3.416   4.561   6.105 -0.1178 -2.2125  0.7597
 1597SOL     OW16426   0.991   0.542   2.246 -0.1343 -0.7148 -0.7935
 1597SOL    HW116427   1.070   0.596   2.247  0.2887 -1.3734  2.8952
 1597SOL    HW216428   0.951   0.564   2.330 -1.1745  3.8795 -2.5075
 1598SOL     OW16429   3.859   2.098   5.155  0.0488 -0.3058  0.6444
 1598SOL    HW116430   3.914   2.021   5.136 -0.9946 -1.1889  1.2506
 1598SOL    HW216431   3.925   2.166   5.140  0.1848 -0.6349 -0.2891
 1599SOL     OW16432   0.622   3.001   3.398 -0.6197 -0.2548 -0.4242
 1599SOL    HW116433   0.653   3.089   3.420  0.7925 -1.0823  0.9859
 1599SOL    HW216434   0.560   2.983   3.469  2.6567 -2.3822  1.9129
 1600SOL     OW16435   1.964   4.177   3.851  0.0163  0.3059 -0.0806
 1600SOL    HW116436   1.899   4.169   3.920  0.9408 -0.7603  0.6541
 1600SOL    HW216437   1.964   4.084   3.827 -0.2634  0.0862  0.7940
 1601SOL     OW16438   2.026   3.046   9.038 -0.0762  0.1687 -0.6490
 1601SOL    HW116439   2.051   2.954   9.039 -0.4393  0.1026  1.7241
 1601SOL    HW216440   2.073   3.071   8.959 -0.1656  1.1880 -0.3809
 1602SOL     OW16441   3.598   3.718   1.004 -0.4426  0.0544  0.1348
 1602SOL    HW116442   3.686   3.719   1.042 -1.4875  3.2763  2.4964
 1602SOL    HW216443   3.620   3.776   0.931 -1.3679  0.9810  0.5788
 1603SOL     OW16444   2.189   2.291   8.664 -0.3896 -0.0021  0.1533
 1603SOL    HW116445   2.171   2.231   8.591  0.6222  1.1836 -1.0652
 1603SOL    HW216446   2.102   2.328   8.676 -0.0962  0.5682  0.4839
 1604SOL     OW16447   0.064   3.191   3.112 -0.2068  0.3349 -0.0374
 1604SOL    HW116448   0.088   3.284   3.109 -0.8711  0.4276 -2.5915
 1604SOL    HW216449   0.111   3.170   3.193 -0.9613 -0.5136  0.1785
 1605SOL     OW16450   4.057   4.329   7.235  0.3203 -0.3499 -0.6180
 1605SOL    HW116451   3.981   4.271   7.239 -0.8150  1.1275 -0.6437
 1605SOL    HW216452   4.012   4.402   7.193 -1.4717  0.0825  2.0497
 1606SOL     OW16453   3.357   2.599   5.303  0.5954 -0.5018 -0.2280
 1606SOL    HW116454   3.431   2.654   5.276  0.4885 -0.5600 -0.6426
 1606SOL    HW216455   3.354   2.526   5.241  1.4520 -0.3221 -0.4818
 1607SOL     OW16456   3.423   4.493   8.110 -0.0276  0.0755  0.7035
 1607SOL    HW116457   3.405   4.462   8.022  0.2294  0.5922  0.4707
 1607SOL    HW216458   3.440   4.586   8.095 -3.4274  0.4362 -0.7614
 1608SOL     OW16459   2.416   1.197   6.662 -0.0717  0.0753  0.7256
 1608SOL    HW116460   2.436   1.154   6.579 -1.4963 -0.7359  0.8018
 1608SOL    HW216461   2.479   1.268   6.660 -0.3468  0.3875  2.5851
 1609SOL     OW16462   2.767   1.801   6.317 -0.1013  0.7276  0.3762
 1609SOL    HW116463   2.785   1.828   6.407 -0.3212 -0.1918  0.6958
 1609SOL    HW216464   2.671   1.792   6.320  0.1035 -1.5773 -0.2972
 1610SOL     OW16465   1.680   0.323   6.922 -0.0007 -0.0351  0.4178
 1610SOL    HW116466   1.733   0.339   6.844 -0.7422  1.1493  0.1543
 1610SOL    HW216467   1.616   0.392   6.908  0.3653  0.2351  0.0738
 1611SOL     OW16468   3.890   1.317   3.712  0.6046 -0.8645  0.2867
 1611SOL    HW116469   3.951   1.294   3.782  0.0749 -0.9403  0.7266
 1611SOL    HW216470   3.854   1.233   3.684  0.5163 -0.3501 -1.1353
 1612SOL     OW16471   0.816   3.370   0.988 -0.1317 -0.1918  0.4362
 1612SOL    HW116472   0.739   3.416   1.022 -0.8910 -1.2016  0.0885
 1612SOL    HW216473   0.812   3.305   1.058  1.2845 -0.5206  0.1997
 1613SOL     OW16474   1.722   1.270   4.303  0.3132  0.0124  0.1791
 1613SOL    HW116475   1.720   1.365   4.319  1.2972 -0.0376  0.6028
 1613SOL    HW216476   1.815   1.265   4.324  0.7692  0.5574 -1.6553
 1614SOL     OW16477   3.980   0.072  13.075 -0.1065  0.1913 -0.0468
 1614SOL    HW116478   3.907   0.106  13.126 -0.7397 -0.5124 -0.4761
 1614SOL    HW216479   4.047   0.131  13.111 -0.1542  0.1331  0.1327
 1615SOL     OW16480   1.758   4.291  10.273  0.1042 -0.3048 -0.4797
 1615SOL    HW116481   1.740   4.379  10.305 -1.0204 -0.4226 -0.7691
 1615SOL    HW216482   1.853   4.285  10.274  0.1922  1.8022  2.8544
 1616SOL     OW16483   0.317   3.365   5.196  0.4175  0.6961  0.2522
 1616SOL    HW116484   0.257   3.438   5.177 -2.2223 -1.5844 -0.1550
 1616SOL    HW216485   0.352   3.417   5.268 -1.5741  4.6409 -1.6040
 1617SOL     OW16486   1.931   4.236  11.947  0.0530 -0.5200 -0.6830
 1617SOL    HW116487   1.853   4.181  11.943  0.0531 -0.3772 -2.6025
 1617SOL    HW216488   1.967   4.233  11.859  0.9978 -0.5551 -0.2883
 1618SOL     OW16489   3.318   1.895   6.648  0.3849  0.7622  0.6947
 1618SOL    HW116490   3.292   1.816   6.696  0.8940 -0.3021 -0.7537
 1618SOL    HW216491   3.412   1.893   6.666  0.8360 -0.4133 -1.7311
 1619SOL     OW16492   3.961   0.794   2.004 -0.0155 -0.0736  0.7524
 1619SOL    HW116493   3.953   0.882   2.040 -0.0023  0.6445 -0.9934
 1619SOL    HW216494   3.996   0.813   1.917 -0.8205 -0.2046  0.4055
 1620SOL     OW16495   1.784   3.364  10.370  0.8854  0.2155  0.5999
 1620SOL    HW116496   1.694   3.396  10.370  0.5706 -0.6550  1.1355
 1620SOL    HW216497   1.809   3.363  10.278  1.6745  2.1482  0.7981
 1621SOL     OW16498   0.706   3.042  17.326 -0.6772  0.1212  0.0185
 1621SOL    HW116499   0.773   3.028  17.260 -2.1634 -2.2129 -0.9907
 1621SOL    HW216500   0.712   2.964  17.382  1.2131 -0.8348 -1.5131
 1622SOL     OW16501   1.542   1.445   7.640  0.4277  0.3302 -0.1584
 1622SOL    HW116502   1.595   1.518   7.672 -0.5705 -0.1849  2.6542
 1622SOL    HW216503   1.608   1.389   7.598  0.5887 -0.2210  0.8235
 1623SOL     OW16504   2.298   1.486  12.623  0.1498  0.4500  0.3976
 1623SOL    HW116505   2.254   1.451  12.545  1.6903  0.7642 -0.6138
 1623SOL    HW216506   2.231   1.543  12.660 -0.2870 -0.2139  0.6442
 1624SOL     OW16507   0.500   3.972   3.275  0.0996  0.1366  0.0837
 1624SOL    HW116508   0.457   4.021   3.345 -0.1134 -0.2735  0.2360
 1624SOL    HW216509   0.427   3.919   3.243  0.3511 -1.9195  2.8889
 1625SOL     OW16510   0.890   2.018  14.897 -0.4384  0.1114  0.2071
 1625SOL    HW116511   0.834   1.944  14.922  0.5453 -0.6759  0.0822
 1625SOL    HW216512   0.908   2.036  14.989 -3.5090  2.7461  0.2995
 1626SOL     OW16513   2.072   2.304   1.969 -0.1107  0.2159 -1.0646
 1626SOL    HW116514   2.115   2.301   1.884  2.0375 -1.5300  0.0932
 1626SOL    HW216515   1.983   2.282   1.942  0.0728 -2.3662  0.4735
 1627SOL     OW16516   2.657   1.899   1.357 -0.1912  0.3043 -0.4619
 1627SOL    HW116517   2.750   1.910   1.335 -0.1075  0.0614 -0.2362
 1627SOL    HW216518   2.625   1.988   1.374  1.0286  0.6357  0.1492
 1628SOL     OW16519   3.184   0.015   8.869 -0.6899 -0.0889  0.2617
 1628SOL    HW116520   3.253   4.722   8.809  0.2147  0.5139  1.0087
 1628SOL    HW216521   3.114   4.714   8.816  0.6284 -1.7982 -0.3303
 1629SOL     OW16522   0.742   4.152   3.572  0.6290 -0.0378  0.2044
 1629SOL    HW116523   0.807   4.222   3.575  0.2296  0.2350  3.0098
 1629SOL    HW216524   0.663   4.201   3.546  1.5200  0.5742 -1.3622
 1630SOL     OW16525   1.175   2.581  12.435  0.6055  0.2562  0.4520
 1630SOL    HW116526   1.118   2.508  12.410 -1.2008  1.7653  0.1562
 1630SOL    HW216527   1.228   2.535  12.499  1.2025  1.1584  0.6028
 1631SOL     OW16528   2.903   3.798  13.237  0.7872  0.2838  0.3848
 1631SOL    HW116529   2.871   3.803  13.147  1.6156 -2.8146 -0.0888
 1631SOL    HW216530   2.854   3.867  13.280 -0.9075 -0.5546 -0.2157
 1632SOL     OW16531   1.363   0.211  12.197  0.3630 -0.3830 -0.4060
 1632SOL    HW116532   1.443   0.256  12.222 -0.7018  1.2600  0.0394
 1632SOL    HW216533   1.311   0.281  12.235 -0.8123 -0.9167 -0.9888
 1633SOL     OW16534   4.399   0.895   0.674  0.0845  0.0820 -0.5063
 1633SOL    HW116535   4.324   0.845   0.706  0.3578 -0.1721 -0.2670
 1633SOL    HW216536   4.350   0.970   0.639 -0.9216 -0.8529 -1.0920
 1634SOL     OW16537   2.402   1.450   0.498 -0.4471 -0.2966  0.4172
 1634SOL    HW116538   2.332   1.512   0.518  1.8742  2.5900 -0.3950
 1634SOL    HW216539   2.401   1.479   0.407 -1.6087 -1.4288  0.0788
 1635SOL     OW16540   0.677   2.461  10.719 -0.4812 -0.1632  0.3033
 1635SOL    HW116541   0.641   2.439  10.805 -1.7552  2.3396  0.3864
 1635SOL    HW216542   0.731   2.539  10.731  1.7768 -1.3692 -2.0037
 1636SOL     OW16543   0.506   1.947   4.764  0.1589  0.7292 -0.0750
 1636SOL    HW116544   0.503   1.853   4.748  1.5437  0.1559  3.1188
 1636SOL    HW216545   0.425   1.975   4.721 -0.9866 -0.5257  1.2467
 1637SOL     OW16546   2.599   0.278   9.924  0.1748  0.2303  0.1575
 1637SOL    HW116547   2.694   0.287   9.925  0.1835  0.3447 -1.3238
 1637SOL    HW216548   2.574   0.348   9.863  1.5615  1.5515  1.0940
 1638SOL     OW16549   3.435   2.937  16.527  0.0442  0.8804 -0.4545
 1638SOL    HW116550   3.496   2.911  16.597  0.2603 -1.3695 -1.4766
 1638SOL    HW216551   3.447   2.868  16.463 -1.5211 -0.5759  0.8167
 1639SOL     OW16552   2.499   1.090   6.415  0.2357 -0.3174  0.2806
 1639SOL    HW116553   2.582   1.084   6.369  1.0909 -0.3446  1.8408
 1639SOL    HW216554   2.439   1.072   6.343 -1.9773  1.3297  1.7099
 1640SOL     OW16555   0.676   2.084  10.775 -0.3683  0.0775  0.4004
 1640SOL    HW116556   0.750   2.102  10.833  0.5795  0.1686 -0.8430
 1640SOL    HW216557   0.620   2.157  10.803  0.9514  1.5617 -0.8066
 1641SOL     OW16558   2.983   3.028  13.630 -0.3156  0.2133  0.3138
 1641SOL    HW116559   3.023   3.111  13.603  0.0820 -0.6503 -1.7997
 1641SOL    HW216560   2.897   3.049  13.593 -0.8971 -1.6956  0.5819
 1642SOL     OW16561   0.003   0.605   2.203 -0.2561 -0.1732  0.3099
 1642SOL    HW116562   4.667   0.599   2.266 -3.7778 -0.7925 -3.7384
 1642SOL    HW216563   4.698   0.666   2.142 -2.1518 -2.9065 -1.1852
 1643SOL     OW16564   2.764   4.537   4.884 -0.0646  0.1047  0.1285
 1643SOL    HW116565   2.671   4.516   4.870 -0.1908  1.8381 -1.6266
 1643SOL    HW216566   2.784   4.487   4.963  0.4879 -0.1177 -0.1508
 1644SOL     OW16567   0.392   3.980  12.988 -0.2121 -0.2866  0.0142
 1644SOL    HW116568   0.466   3.928  12.956  0.3525 -0.4339  1.5695
 1644SOL    HW216569   0.361   4.014  12.904  1.6540  0.5151 -0.3413
 1645SOL     OW16570   0.727   0.167   6.874  0.1672 -0.3619 -0.0630
 1645SOL    HW116571   0.789   0.180   6.802  2.0577  1.9950  2.0085
 1645SOL    HW216572   0.708   0.249   6.918  3.0621  0.8405 -1.0886
 1646SOL     OW16573   4.061   1.902  13.368 -0.4972  0.2170 -0.0656
 1646SOL    HW116574   4.005   1.950  13.428 -0.8705  1.4497 -1.4094
 1646SOL    HW216575   4.121   1.866  13.433  1.0004 -0.9175 -2.0659
 1647SOL     OW16576   1.948   4.467   8.398  0.0520  0.4509  0.1685
 1647SOL    HW116577   1.940   4.375   8.373  1.9649  0.2671  0.2104
 1647SOL    HW216578   1.857   4.496   8.398 -0.1677 -0.2493 -1.6245
 1648SOL     OW16579   2.504   1.587   8.102  0.1838  0.3011 -0.1604
 1648SOL    HW116580   2.412   1.602   8.082  0.5409 -0.3090 -2.2219
 1648SOL    HW216581   2.539   1.676   8.106  2.3709 -0.4252 -3.1370
 1649SOL     OW16582   4.291   1.251   6.074 -0.0354 -0.5442 -1.0987
 1649SOL    HW116583   4.285   1.273   6.167  1.7164 -1.1885 -0.8228
 1649SOL    HW216584   4.278   1.157   6.072 -0.0629 -0.5552 -0.5702
 1650SOL     OW16585   0.644   2.678   3.386 -0.0364 -0.9105  0.1685
 1650SOL    HW116586   0.662   2.731   3.463 -2.0094 -0.2660  0.1813
 1650SOL    HW216587   0.563   2.641   3.420 -1.2113 -0.1673 -1.8019
 1651SOL     OW16588   3.163   0.496   8.695  0.2516  0.0123 -0.3724
 1651SOL    HW116589   3.220   0.504   8.619 -0.7036  2.2807 -0.8533
 1651SOL    HW216590   3.229   0.493   8.764 -0.1200  0.8965  0.0349
 1652SOL     OW16591   3.685   3.613   3.704 -0.5982 -1.1187  0.0451
 1652SOL    HW116592   3.664   3.653   3.788 -1.2698  0.9991 -1.1189
 1652SOL    HW216593   3.779   3.599   3.707 -0.2394  1.1761 -0.4744
 1653SOL     OW16594   2.096   2.317   5.738  0.4424 -0.6774  0.1714
 1653SOL    HW116595   2.012   2.275   5.759  0.6911 -1.7350 -0.9790
 1653SOL    HW216596   2.147   2.236   5.733  2.1431  0.3182  1.3348
 1654SOL     OW16597   0.407   2.418  17.334  0.2466 -0.4707  0.6463
 1654SOL    HW116598   0.471   2.480  17.370 -0.8842  0.2475  1.4344
 1654SOL    HW216599   0.363   2.395  17.416  0.0001 -0.9022  0.3867
 1655SOL     OW16600   1.788   4.451   3.831  0.3440  0.0752 -0.0394
 1655SOL    HW116601   1.708   4.498   3.805  0.7005  0.3858 -0.5839
 1655SOL    HW216602   1.744   4.375   3.867  1.1388 -0.9901 -1.3260
 1656SOL     OW16603   4.173   0.701   2.545 -0.3485  0.2964 -0.2920
 1656SOL    HW116604   4.157   0.699   2.450 -1.7802 -0.4375 -0.0291
 1656SOL    HW216605   4.113   0.635   2.581  1.6895 -0.4934  1.6388
 1657SOL     OW16606   0.315   0.832   6.780  0.3986  0.7011 -0.1200
 1657SOL    HW116607   0.235   0.884   6.791 -0.1640 -0.2785  0.4349
 1657SOL    HW216608   0.363   0.885   6.716  0.7133 -1.5334 -1.7741
 1658SOL     OW16609   0.589   3.813   2.757 -0.1223 -0.1096  0.2813
 1658SOL    HW116610   0.643   3.737   2.733  1.6186  1.8858 -2.1867
 1658SOL    HW216611   0.510   3.794   2.707  0.0979 -1.4472  0.4399
 1659SOL     OW16612   2.753   0.619  13.794  0.8517 -0.1360 -0.3381
 1659SOL    HW116613   2.806   0.552  13.751 -0.3325  0.0453 -2.0792
 1659SOL    HW216614   2.754   0.690  13.729 -1.7716  0.6778  0.5357
 1660SOL     OW16615   1.674   1.226   9.665  0.3561  0.3382  0.4857
 1660SOL    HW116616   1.633   1.140   9.654  0.6826 -0.2458  3.7059
 1660SOL    HW216617   1.610   1.275   9.613  1.5706  2.4327  0.9709
 1661SOL     OW16618   1.358   2.679   8.674  0.0162 -0.1439  0.1375
 1661SOL    HW116619   1.370   2.772   8.657 -2.5949  0.2361  0.3285
 1661SOL    HW216620   1.367   2.648   8.584  0.6650  1.5095 -0.3592
 1662SOL     OW16621   4.698   0.527   2.494  0.4503  0.0955  0.4552
 1662SOL    HW116622   0.037   0.546   2.438 -0.3335  1.1085 -0.2306
 1662SOL    HW216623   4.628   0.570   2.445  0.6794  0.1325  0.1661
 1663SOL     OW16624   3.399   3.048  15.338  0.0094  0.3507  0.2068
 1663SOL    HW116625   3.379   2.964  15.380 -0.1888 -0.0033 -0.6090
 1663SOL    HW216626   3.435   3.102  15.409 -0.2575  0.8273 -0.0219
 1664SOL     OW16627   4.625   4.023  15.112 -0.1320 -0.7375 -0.1723
 1664SOL    HW116628   4.688   3.973  15.059  0.9255 -1.7441  2.0143
 1664SOL    HW216629   4.598   3.959  15.177 -2.5870  2.1680  1.6540
 1665SOL     OW16630   1.070   3.100   7.222 -0.0222 -0.3718 -0.3162
 1665SOL    HW116631   1.090   3.179   7.172 -0.0312 -1.0872 -1.4339
 1665SOL    HW216632   1.053   3.052   7.141  0.0894  0.4019 -0.7944
 1666SOL     OW16633   0.616   1.253  16.379 -0.1292 -0.3022  0.2728
 1666SOL    HW116634   0.587   1.318  16.315  2.2998  2.0357  1.5211
 1666SOL    HW216635   0.564   1.175  16.359 -1.3780  0.7722 -0.6234
 1667SOL     OW16636   3.591   2.743   6.435 -0.3309  0.4002  0.0657
 1667SOL    HW116637   3.650   2.740   6.360 -0.6121 -0.5716 -0.1151
 1667SOL    HW216638   3.566   2.652   6.444 -0.3256  0.2638 -1.3688
 1668SOL     OW16639   0.274   3.805   6.560 -0.0769 -0.4365 -0.2544
 1668SOL    HW116640   0.299   3.881   6.508  1.0665  0.1766  1.1854
 1668SOL    HW216641   0.184   3.818   6.589  1.0036  0.5389  2.6234
 1669SOL     OW16642   3.690   1.044   8.453  0.1278  0.1617 -0.9590
 1669SOL    HW116643   3.698   1.105   8.379 -1.2746  0.0395 -1.1961
 1669SOL    HW216644   3.670   0.961   8.410 -2.3714  2.2914 -3.9516
 1670SOL     OW16645   2.696   2.153  17.141  0.1872 -0.1088 -0.0539
 1670SOL    HW116646   2.615   2.203  17.146 -1.0823 -2.2507  0.9161
 1670SOL    HW216647   2.681   2.095  17.216  1.3697 -0.7528 -0.3279
 1671SOL     OW16648   2.581   0.872   7.915  0.3160 -0.0712  0.4973
 1671SOL    HW116649   2.514   0.896   7.850  1.0174 -0.6897 -0.4492
 1671SOL    HW216650   2.624   0.956   7.934 -1.3507  0.3397  2.3624
 1672SOL     OW16651   1.150   1.523   4.567  0.0373  0.2525 -0.1790
 1672SOL    HW116652   1.229   1.481   4.532 -0.5917  0.5853 -1.9961
 1672SOL    HW216653   1.083   1.461   4.537 -1.2533  0.3322  2.5717
 1673SOL     OW16654   0.952   0.718   6.226 -0.7478  0.2530 -0.0896
 1673SOL    HW116655   1.018   0.776   6.188  0.5853 -1.5439 -0.5151
 1673SOL    HW216656   0.992   0.698   6.311 -0.0779  1.5540 -0.1163
 1674SOL     OW16657   2.215   4.701  13.047  0.0461 -0.0177 -0.3454
 1674SOL    HW116658   2.299   4.701  13.092  0.1270 -2.8474 -0.5326
 1674SOL    HW216659   2.204   0.058  13.026  1.0683  0.3335  0.6651
 1675SOL     OW16660   1.923   0.463   1.383  0.4383 -0.7213  0.7817
 1675SOL    HW116661   2.017   0.465   1.401 -0.1382  0.2471  3.7029
 1675SOL    HW216662   1.924   0.520   1.306 -0.7185  1.1985  2.1825
 1676SOL     OW16663   1.700   4.466   9.189  0.2880  0.0032  0.4518
 1676SOL    HW116664   1.733   4.467   9.279  2.1007 -0.9096 -0.1947
 1676SOL    HW216665   1.769   4.520   9.149  0.3980 -1.5065 -1.3941
 1677SOL     OW16666   3.886   0.355   5.657 -0.3947 -0.0459  0.4120
 1677SOL    HW116667   3.795   0.376   5.635  0.1003  1.6522 -0.0418
 1677SOL    HW216668   3.930   0.399   5.584  0.3990 -1.3671  0.1014
 1678SOL     OW16669   2.702   2.387   6.523 -0.0029  0.3584 -0.1279
 1678SOL    HW116670   2.719   2.376   6.429  0.7455  0.4963 -0.0085
 1678SOL    HW216671   2.641   2.460   6.523  1.7411  1.8287 -0.7569
 1679SOL     OW16672   1.399   4.250   1.716 -0.3596  0.3274 -0.2161
 1679SOL    HW116673   1.375   4.342   1.722  0.4718  0.7672 -3.2872
 1679SOL    HW216674   1.314   4.206   1.709  0.1884 -0.8442  0.4996
 1680SOL     OW16675   0.774   1.476   8.155 -0.6922 -0.2460  0.0736
 1680SOL    HW116676   0.793   1.526   8.076 -1.6571 -2.0235 -1.2783
 1680SOL    HW216677   0.771   1.389   8.114 -0.9805 -1.2407  2.1948
 1681SOL     OW16678   1.277   0.817   7.318 -0.0319 -0.0303 -0.3122
 1681SOL    HW116679   1.200   0.787   7.366  0.5788 -0.8764  0.1203
 1681SOL    HW216680   1.332   0.849   7.389 -2.7208  0.6717  1.4859
 1682SOL     OW16681   2.182   1.139   4.569 -0.6279 -0.4737  0.1557
 1682SOL    HW116682   2.241   1.215   4.570  0.7274 -1.5482  2.4052
 1682SOL    HW216683   2.185   1.123   4.663  0.7481  2.0478  0.5396
 1683SOL     OW16684   1.710   3.480  17.413  0.0138 -0.3504  0.3677
 1683SOL    HW116685   1.801   3.509  17.417 -0.2350  0.5904 -0.7017
 1683SOL    HW216686   1.669   3.555  17.455 -0.4191 -0.8361  0.8239
 1684SOL     OW16687   0.725   1.687  14.402  0.2035 -0.6019 -0.2522
 1684SOL    HW116688   0.720   1.739  14.322 -0.4624  1.2379  0.9615
 1684SOL    HW216689   0.799   1.629  14.385  1.8916  0.6052  2.8535
 1685SOL     OW16690   2.487   1.348  17.718  0.0281  0.0261 -0.5940
 1685SOL    HW116691   2.420   1.284   0.003  0.9592 -0.9406 -0.5744
 1685SOL    HW216692   2.565   1.316   0.022  0.4465  2.6498  0.5546
 1686SOL     OW16693   3.867   2.773  12.270 -0.0387 -0.3433  0.2898
 1686SOL    HW116694   3.846   2.862  12.298  0.5092  0.3543 -1.5513
 1686SOL    HW216695   3.795   2.747  12.213  1.8356  0.5272 -2.4851
 1687SOL     OW16696   3.943   1.151   8.480 -0.0476 -0.7834 -0.7403
 1687SOL    HW116697   3.858   1.153   8.524 -0.0111  1.0007 -0.7349
 1687SOL    HW216698   3.910   1.154   8.390  1.0569  0.4300 -1.1084
 1688SOL     OW16699   3.403   1.035  16.584 -0.3674  0.8553  0.2359
 1688SOL    HW116700   3.445   1.090  16.651  1.0317 -0.1537  0.1982
 1688SOL    HW216701   3.477   1.001  16.534 -0.8900 -0.4758  0.3841
 1689SOL     OW16702   0.978   0.162   7.072 -0.5488 -0.0692  0.3822
 1689SOL    HW116703   1.073   0.154   7.074 -0.6177 -1.6714 -2.2602
 1689SOL    HW216704   0.961   0.123   6.986 -3.1681  2.5846 -0.2887
 1690SOL     OW16705   0.876   1.560   5.169 -0.1533  0.1380  0.5111
 1690SOL    HW116706   0.959   1.523   5.201  1.9001  3.7861 -0.5722
 1690SOL    HW216707   0.906   1.619   5.100  2.2549  1.1172  2.3882
 1691SOL     OW16708   4.532   2.232   8.201 -0.4603 -0.3284  0.5754
 1691SOL    HW116709   4.622   2.239   8.169 -1.4061  0.7637 -1.9014
 1691SOL    HW216710   4.482   2.295   8.150  0.3451  1.1765  1.6383
 1692SOL     OW16711   4.467   3.241   6.813 -0.3249 -0.1176 -0.1079
 1692SOL    HW116712   4.436   3.181   6.880  1.1177 -0.4554  0.2529
 1692SOL    HW216713   4.402   3.236   6.743  0.1109  0.4988 -0.5639
 1693SOL     OW16714   4.101   1.128   5.231  0.1542  0.0581  0.3585
 1693SOL    HW116715   4.033   1.085   5.179  0.4424 -1.5375  1.2999
 1693SOL    HW216716   4.071   1.114   5.321 -2.4511  1.4934 -0.2974
 1694SOL     OW16717   2.390   2.236   6.721 -0.6546 -0.2375 -0.0094
 1694SOL    HW116718   2.317   2.198   6.771 -1.3860 -0.1588 -1.0147
 1694SOL    HW216719   2.428   2.160   6.678  1.7836 -0.2743  2.2367
 1695SOL     OW16720   2.383   3.686   9.823  0.6899  0.3073  0.4522
 1695SOL    HW116721   2.479   3.692   9.821  0.8610 -2.2837  1.2815
 1695SOL    HW216722   2.373   3.685   9.728  1.0431 -1.9302  0.4379
 1696SOL     OW16723   1.797   1.560  15.730  0.1995  0.5791 -1.2735
 1696SOL    HW116724   1.740   1.516  15.792  0.8922  2.8522  1.0129
 1696SOL    HW216725   1.881   1.556  15.776  0.8326 -2.1078 -2.6488
 1697SOL     OW16726   2.270   0.882   2.421  0.4934 -0.3350 -0.0562
 1697SOL    HW116727   2.365   0.883   2.433  0.3617  0.6201  0.9771
 1697SOL    HW216728   2.241   0.878   2.512 -0.0918  1.6263 -0.1428
 1698SOL     OW16729   2.439   3.084   6.087 -0.3174 -0.2020 -0.0953
 1698SOL    HW116730   2.482   3.005   6.120  1.7685  0.3029 -1.6354
 1698SOL    HW216731   2.507   3.151   6.091 -2.6313  2.2089 -1.0181
 1699SOL     OW16732   0.740   0.232   9.659  0.0444  0.0804 -0.3760
 1699SOL    HW116733   0.760   0.316   9.702 -1.1684 -0.4176  1.1494
 1699SOL    HW216734   0.654   0.214   9.697 -0.9454  1.7174 -1.8175
 1700SOL     OW16735   4.380   2.640   9.252  0.2365 -0.1449 -0.2528
 1700SOL    HW116736   4.409   2.556   9.217  3.7804  0.9793 -0.0515
 1700SOL    HW216737   4.337   2.619   9.335  1.7690 -0.9858  0.3354
 1701SOL     OW16738   4.629   1.752  11.960  0.1628  0.5551 -0.5090
 1701SOL    HW116739   4.594   1.739  12.047  0.6252  2.9428  0.0339
 1701SOL    HW216740   4.716   1.712  11.970 -0.6104 -1.0270 -0.0986
 1702SOL     OW16741   1.713   0.274   2.592 -0.4429 -0.7179  0.2901
 1702SOL    HW116742   1.635   0.328   2.606 -1.2014 -1.7535  0.1105
 1702SOL    HW216743   1.680   0.222   2.518 -0.5062  1.5692 -1.3060
 1703SOL     OW16744   4.659   4.447   1.367 -0.4064  0.0656 -0.2383
 1703SOL    HW116745   4.579   4.483   1.406 -0.0942  1.6320 -1.0723
 1703SOL    HW216746   4.713   4.459   1.445  0.5893  1.1219 -1.1120
 1704SOL     OW16747   1.384   3.999  13.247 -0.2221 -0.2620  0.5356
 1704SOL    HW116748   1.334   3.965  13.173  0.9871  1.8123 -1.1896
 1704SOL    HW216749   1.454   4.040  13.197  0.6357 -2.4371 -0.0222
 1705SOL     OW16750   4.507   0.942   6.372 -0.2738  0.1607  0.6602
 1705SOL    HW116751   4.540   0.970   6.287 -0.9442  0.3541  0.4700
 1705SOL    HW216752   4.539   0.852   6.373  0.1204  0.2936 -1.2022
 1706SOL     OW16753   4.306   1.490  17.144 -0.4193 -0.2012  0.0306
 1706SOL    HW116754   4.260   1.572  17.125 -1.2878 -0.9466 -1.0813
 1706SOL    HW216755   4.243   1.443  17.199 -1.4898  2.9654  1.5509
 1707SOL     OW16756   2.954   4.658  16.506 -0.7136  0.4393  0.1369
 1707SOL    HW116757   3.013   4.658  16.430  1.3903 -2.2961  1.7782
 1707SOL    HW216758   2.968   4.570  16.540  0.7167 -0.1340 -1.8946
 1708SOL     OW16759   2.828   0.024   6.214 -0.0471  0.0136 -0.2009
 1708SOL    HW116760   2.807   0.100   6.160  2.6533  1.1329  0.3099
 1708SOL    HW216761   2.771   0.027   6.291  0.9674 -2.5008  0.6482
 1709SOL     OW16762   2.786   1.999   3.971 -0.1671 -0.3658  0.2192
 1709SOL    HW116763   2.792   1.922   4.028  0.4165 -0.1847  0.3992
 1709SOL    HW216764   2.859   2.049   4.007 -0.5906  1.3541 -1.2892
 1710SOL     OW16765   2.739   3.711  11.288  0.2913  0.0243 -0.3766
 1710SOL    HW116766   2.778   3.799  11.284  2.7075 -1.0042  0.8907
 1710SOL    HW216767   2.750   3.682  11.378  0.3533  0.2505 -0.3101
 1711SOL     OW16768   2.316   0.024   9.250 -0.2941  0.0789  0.1913
 1711SOL    HW116769   2.407   0.001   9.230 -0.8699 -2.6740  0.8507
 1711SOL    HW216770   2.271   4.714   9.179 -0.5457 -3.5923  2.7009
 1712SOL     OW16771   3.804   3.293   3.773 -0.0192 -0.6713 -0.0882
 1712SOL    HW116772   3.710   3.298   3.787  0.0523 -0.3791  0.2900
 1712SOL    HW216773   3.816   3.350   3.696  1.9314 -1.2888 -0.2333
 1713SOL     OW16774   0.691   2.166  11.065 -0.4946 -0.1538 -0.1122
 1713SOL    HW116775   0.767   2.180  11.009 -0.9847  0.8569 -0.5193
 1713SOL    HW216776   0.737   2.133  11.143  2.0416  0.7621 -1.2309
 1714SOL     OW16777   2.094   4.631   1.734 -0.1900  0.4492 -0.5144
 1714SOL    HW116778   2.107   4.577   1.656  1.4292  0.7584 -0.4550
 1714SOL    HW216779   2.014   4.678   1.709 -0.0812 -0.4003 -2.4366
 1715SOL     OW16780   2.103   1.347  11.811 -0.0291 -0.2147  0.3645
 1715SOL    HW116781   2.142   1.268  11.774 -0.0696  0.2295 -0.6442
 1715SOL    HW216782   2.130   1.418  11.752 -1.8129  0.1405 -0.0291
 1716SOL     OW16783   3.723   0.258   9.504  0.1265 -0.3499  0.4210
 1716SOL    HW116784   3.627   0.257   9.507  0.1634 -0.4178  1.4077
 1716SOL    HW216785   3.750   0.186   9.560  1.7220 -1.2172 -1.4608
 1717SOL     OW16786   1.855   0.617   6.880  0.4610 -0.1347 -0.1162
 1717SOL    HW116787   1.842   0.670   6.802 -0.1948  0.1264  0.1784
 1717SOL    HW216788   1.764   0.621   6.908  0.5956 -0.8291  0.4115
 1718SOL     OW16789   0.631   3.681   6.398  0.3401  0.0568  0.0037
 1718SOL    HW116790   0.701   3.744   6.380  0.2252 -0.2987 -1.7197
 1718SOL    HW216791   0.605   3.704   6.487  2.3005 -1.5251  0.9942
 1719SOL     OW16792   4.557   0.466   7.954 -0.1104 -0.6875  0.6628
 1719SOL    HW116793   4.490   0.483   8.020  0.1560 -1.2644  1.0850
 1719SOL    HW216794   4.548   0.549   7.907 -0.4608 -1.2094 -0.1858
 1720SOL     OW16795   0.021   4.619  17.102  0.1965 -0.3102  0.0145
 1720SOL    HW116796   0.077   4.666  17.164  0.9887 -0.7364 -0.3690
 1720SOL    HW216797   4.711   4.559  17.161  0.4148 -0.1849  0.3122
 1721SOL     OW16798   4.173   0.346  10.798  0.6534  0.1831 -0.3579
 1721SOL    HW116799   4.093   0.367  10.847  1.0567 -0.6377  0.6499
 1721SOL    HW216800   4.134   0.272  10.751 -1.2576  0.7632  0.3150
 1722SOL     OW16801   4.248   0.517  16.972  0.6362  0.5573  0.1539
 1722SOL    HW116802   4.304   0.582  17.016  0.8364 -0.4419  1.3655
 1722SOL    HW216803   4.307   0.496  16.900  2.1612 -0.4711  1.7186
 1723SOL     OW16804   0.293   3.538  15.996 -0.4754 -0.1848 -0.2138
 1723SOL    HW116805   0.230   3.470  16.020  0.4128  0.3157  3.6137
 1723SOL    HW216806   0.332   3.557  16.082  0.4884 -1.2525 -0.4271
 1724SOL     OW16807   1.871   0.338   7.850 -0.9097  0.2926 -0.0299
 1724SOL    HW116808   1.937   0.272   7.830  0.4731  2.5595 -2.8758
 1724SOL    HW216809   1.922   0.418   7.839 -0.5043  0.0641  0.1380
 1725SOL     OW16810   4.540   4.446  16.706  0.6616 -0.6086  0.0843
 1725SOL    HW116811   4.600   4.387  16.752  1.4976 -0.0921 -0.3573
 1725SOL    HW216812   4.487   4.469  16.783  0.6755 -0.9284  0.1894
 1726SOL     OW16813   2.722   4.376   9.370 -0.0820 -0.2517  0.8311
 1726SOL    HW116814   2.768   4.389   9.452  0.2669  0.4730  0.5288
 1726SOL    HW216815   2.657   4.446   9.381 -0.3837 -0.7206  1.9973
 1727SOL     OW16816   3.693   3.459   8.404 -0.1808  0.2293  0.5013
 1727SOL    HW116817   3.680   3.493   8.492  1.0096 -0.8185  1.0756
 1727SOL    HW216818   3.602   3.437   8.381 -0.7804  3.2122  0.0653
 1728SOL     OW16819   0.196   0.775  12.235  0.6412  0.1815  0.0043
 1728SOL    HW116820   0.286   0.791  12.207  0.4771  2.0517  0.5374
 1728SOL    HW216821   0.151   0.859  12.243 -0.2772 -0.2502 -0.6814
 1729SOL     OW16822   1.802   4.589   9.713 -0.0575 -0.0124  0.0161
 1729SOL    HW116823   1.889   4.631   9.714 -1.5281  3.0630 -0.8234
 1729SOL    HW216824   1.826   4.503   9.748 -3.4921 -0.8573  0.2729
 1730SOL     OW16825   2.062   3.659   2.691 -0.1832  0.0020 -0.6418
 1730SOL    HW116826   2.024   3.744   2.667 -0.1716  0.0762 -0.3994
 1730SOL    HW216827   2.034   3.637   2.780 -2.1386  2.0828 -0.7385
 1731SOL     OW16828   2.680   4.611   7.317  0.5006 -0.8930 -0.0127
 1731SOL    HW116829   2.680   4.520   7.346 -0.7491 -1.0043 -0.3377
 1731SOL    HW216830   2.651   4.646   7.402  3.1306 -1.3789  1.0915
 1732SOL     OW16831   3.225   2.087  12.442  0.2328 -0.5167  0.6745
 1732SOL    HW116832   3.260   2.017  12.498 -2.0357 -0.2461  2.4239
 1732SOL    HW216833   3.263   2.067  12.357 -1.0597 -2.0131  0.4366
 1733SOL     OW16834   1.000   3.797   2.766  0.1188 -0.1480 -0.1777
 1733SOL    HW116835   1.090   3.803   2.797 -0.1796 -3.1204  1.2471
 1733SOL    HW216836   0.947   3.813   2.844  0.8697  1.7726 -0.0679
 1734SOL     OW16837   2.773   1.137   4.305  0.0391  0.4812  0.1552
 1734SOL    HW116838   2.741   1.218   4.344  0.6131  1.0219 -0.4828
 1734SOL    HW216839   2.866   1.135   4.329  0.5440  0.9984 -1.7235
 1735SOL     OW16840   3.485   3.483   1.168 -0.1752 -0.6408  0.1277
 1735SOL    HW116841   3.538   3.428   1.111 -0.0442  0.0784 -0.4453
 1735SOL    HW216842   3.493   3.567   1.121  0.6168 -0.7684  0.0422
 1736SOL     OW16843   0.318   3.163   6.129  0.0890 -0.2996  0.1378
 1736SOL    HW116844   0.267   3.244   6.135 -1.0879 -0.8275 -2.6181
 1736SOL    HW216845   0.281   3.105   6.196  0.8420  0.0096  0.8163
 1737SOL     OW16846   1.504   2.738   6.062 -0.1935 -0.2051  0.0027
 1737SOL    HW116847   1.446   2.809   6.087  0.0156 -0.6573  1.7866
 1737SOL    HW216848   1.439   2.674   6.034  1.9691 -2.0453 -0.8876
 1738SOL     OW16849   0.541   4.727   4.316 -0.1816 -0.7616 -0.5989
 1738SOL    HW116850   0.627   4.701   4.283  0.5733  2.4626 -1.2359
 1738SOL    HW216851   0.499   4.724   4.230 -0.4534  1.8236 -0.5585
 1739SOL     OW16852   0.998   0.038   4.810 -0.3958 -0.3984 -0.3302
 1739SOL    HW116853   0.981   4.685   4.779  0.0858 -0.8450  0.6647
 1739SOL    HW216854   0.919   0.066   4.857  0.7111 -0.5082  1.5813
 1740SOL     OW16855   2.621   3.372   4.999 -0.3506  0.1808  0.2262
 1740SOL    HW116856   2.660   3.314   5.064  0.8065  0.6788 -0.0188
 1740SOL    HW216857   2.678   3.448   5.010 -0.1794  0.0836 -0.0020
 1741SOL     OW16858   3.283   2.188   5.333  0.0546  0.3081  0.0694
 1741SOL    HW116859   3.288   2.105   5.286  0.8865 -0.2736  1.1881
 1741SOL    HW216860   3.270   2.255   5.266  1.2023  1.0075  0.5505
 1742SOL     OW16861   3.666   4.696   0.980 -0.0246  0.5884  0.3002
 1742SOL    HW116862   3.627   4.669   1.064 -0.9563  2.4290  0.4484
 1742SOL    HW216863   3.588   0.003   0.946  1.0164  0.8659 -1.7111
 1743SOL     OW16864   2.816   3.540   8.984  0.2371 -0.5607 -0.0059
 1743SOL    HW116865   2.744   3.533   9.047  0.3019 -0.0512  0.1209
 1743SOL    HW216866   2.767   3.590   8.918  2.9014  1.5320 -0.4005
 1744SOL     OW16867   0.729   2.801  13.924  0.2537 -0.0113 -0.5289
 1744SOL    HW116868   0.721   2.896  13.933  0.9064  0.0679 -0.7483
 1744SOL    HW216869   0.655   2.789  13.865 -1.0724 -1.4185  1.4027
 1745SOL     OW16870   0.342   3.048  13.600  0.1044 -0.1724  0.8133
 1745SOL    HW116871   0.252   3.025  13.577  0.0981  0.1826  0.4814
 1745SOL    HW216872   0.388   2.964  13.610  0.6973 -0.1348 -1.5688
 1746SOL     OW16873   4.524   0.062   5.500  0.2009 -0.5303  0.0575
 1746SOL    HW116874   4.524   0.150   5.538  0.1566 -0.3496 -0.3603
 1746SOL    HW216875   4.574   0.011   5.564  1.0082 -0.7079 -0.6990
 1747SOL     OW16876   3.125   2.021   6.118  0.1692  1.0111 -0.3131
 1747SOL    HW116877   3.145   2.114   6.120  2.3969  0.4583  2.5857
 1747SOL    HW216878   3.137   2.002   6.211  0.0737 -0.8000 -0.6553
 1748SOL     OW16879   3.962   3.761   6.597  0.4852  0.2837  0.2413
 1748SOL    HW116880   3.993   3.852   6.601 -0.7591  0.7601 -0.9660
 1748SOL    HW216881   3.975   3.739   6.505  3.1900 -0.7383  0.8776
 1749SOL     OW16882   0.964   0.662   5.762 -0.4542 -0.3430  0.3330
 1749SOL    HW116883   0.994   0.622   5.681  1.0065  0.7786  0.3238
 1749SOL    HW216884   0.870   0.643   5.758  0.3324 -3.9248 -0.5370
 1750SOL     OW16885   2.409   2.932   2.701  0.0165 -0.5525 -0.2821
 1750SOL    HW116886   2.348   3.005   2.689  1.4088  1.0191  1.9918
 1750SOL    HW216887   2.485   2.957   2.648 -0.9821  0.2027 -1.3530
 1751SOL     OW16888   0.824   1.642  13.023  0.0087 -0.4743  0.0699
 1751SOL    HW116889   0.841   1.663  13.115 -0.2179 -1.0103  0.2324
 1751SOL    HW216890   0.820   1.547  13.026  2.8983 -0.5832  0.7763
 1752SOL     OW16891   2.193   3.304   1.476 -0.1550  0.4143  0.3148
 1752SOL    HW116892   2.129   3.277   1.543  0.1591  0.8139  0.7727
 1752SOL    HW216893   2.237   3.221   1.458  0.6653  0.2329  3.1774
 1753SOL     OW16894   0.705   1.322   7.690  0.2935  0.0807  0.0963
 1753SOL    HW116895   0.691   1.244   7.637  0.9614  0.6428 -0.9130
 1753SOL    HW216896   0.776   1.293   7.748  0.6473  2.9537  1.1137
 1754SOL     OW16897   4.091   1.483   0.907 -0.4747 -0.5219 -0.2119
 1754SOL    HW116898   4.158   1.518   0.966 -1.9955  0.7030  0.7964
 1754SOL    HW216899   4.079   1.396   0.945 -1.5149 -0.6242 -0.7801
 1755SOL     OW16900   2.177   0.940   4.924  0.0963  0.0243  0.2005
 1755SOL    HW116901   2.262   0.960   4.885 -0.0308 -0.3946 -0.3002
 1755SOL    HW216902   2.175   0.845   4.907 -2.5058  0.2732 -0.9335
 1756SOL     OW16903   0.942   0.078   9.785 -1.0913 -0.3347  0.1612
 1756SOL    HW116904   0.860   0.102   9.743  0.1306  0.0975 -1.9413
 1756SOL    HW216905   0.970   0.159   9.827 -1.2019  0.3660 -1.1470
 1757SOL     OW16906   1.175   1.101   3.964  0.2653  0.6697 -0.2324
 1757SOL    HW116907   1.174   1.062   3.876 -0.7230 -1.7695  0.8663
 1757SOL    HW216908   1.225   1.032   4.006 -1.3470  1.0020  2.2069
 1758SOL     OW16909   0.492   3.817   8.000 -0.6824  0.0093 -0.3689
 1758SOL    HW116910   0.556   3.837   7.932  1.1444 -1.2724  0.9952
 1758SOL    HW216911   0.482   3.899   8.048  0.2927 -0.4368  0.5852
 1759SOL     OW16912   1.974   3.076  10.157 -0.3450 -0.0030 -0.7503
 1759SOL    HW116913   1.990   3.003  10.098  0.0709 -0.8509  0.4046
 1759SOL    HW216914   2.000   3.151  10.104  0.9618  0.4418  0.5236
 1760SOL     OW16915   0.406   1.420   6.193  0.1118  0.0546 -1.0567
 1760SOL    HW116916   0.426   1.495   6.248  0.5959 -1.2507  0.5631
 1760SOL    HW216917   0.478   1.362   6.218 -3.1270 -2.9152  1.4464
 1761SOL     OW16918   3.408   0.615   7.898  0.1097  0.1835  0.5265
 1761SOL    HW116919   3.357   0.667   7.961  0.0889 -0.5036  1.0785
 1761SOL    HW216920   3.405   0.532   7.945  2.8281 -0.1908  0.0475
 1762SOL     OW16921   2.810   3.117   9.878  0.0885 -0.0476 -0.3641
 1762SOL    HW116922   2.722   3.156   9.876 -0.3743 -0.9793  1.2200
 1762SOL    HW216923   2.796   3.022   9.870 -1.0241  0.2170 -1.6054
 1763SOL     OW16924   1.669   4.662   4.913  0.0450  0.0365  0.3141
 1763SOL    HW116925   1.729   4.730   4.884 -1.0036  0.9063  0.1872
 1763SOL    HW216926   1.727   4.600   4.957  1.5586  1.6942  0.6669
 1764SOL     OW16927   1.659   2.024   4.452 -0.2298  0.1567 -0.0639
 1764SOL    HW116928   1.611   2.009   4.370  0.3175  0.3379 -0.4154
 1764SOL    HW216929   1.665   2.119   4.456  0.3289  0.1197 -0.1194
 1765SOL     OW16930   0.281   2.704   7.915  0.1466 -0.7606 -0.0184
 1765SOL    HW116931   0.266   2.715   7.821 -0.0021 -2.1106 -0.1530
 1765SOL    HW216932   0.336   2.781   7.931  0.3748 -0.5417 -1.8222
 1766SOL     OW16933   4.327   0.946   1.511 -0.2515  0.6893 -0.3744
 1766SOL    HW116934   4.397   0.951   1.446  0.7877 -3.0212  0.4446
 1766SOL    HW216935   4.290   0.857   1.509  2.2081 -0.3364  0.4748
 1767SOL     OW16936   3.416   0.636   4.392 -0.5248  0.2751 -0.2173
 1767SOL    HW116937   3.399   0.713   4.337  0.2517  2.2822  2.3905
 1767SOL    HW216938   3.425   0.569   4.324 -1.5373 -0.1523  0.0700
 1768SOL     OW16939   0.395   4.123   4.133 -0.0677 -0.3802 -0.0621
 1768SOL    HW116940   0.433   4.197   4.179 -1.3175  0.8793 -1.0657
 1768SOL    HW216941   0.437   4.125   4.047 -1.6693 -0.2156 -0.8415
 1769SOL     OW16942   1.148   2.301   5.276  0.2949 -0.0092  0.1292
 1769SOL    HW116943   1.243   2.306   5.288  0.1260  0.1329  1.3180
 1769SOL    HW216944   1.126   2.209   5.289 -2.0636  0.4274 -0.7329
 1770SOL     OW16945   0.839   1.828  12.633  0.2710 -0.0697  0.0004
 1770SOL    HW116946   0.854   1.773  12.556 -0.6971 -0.4012  0.0505
 1770SOL    HW216947   0.884   1.904  12.597  0.0863 -0.0189 -0.1226
 1771SOL     OW16948   1.475   2.887   5.067  0.4256  0.3450  0.0855
 1771SOL    HW116949   1.392   2.896   5.115  0.4537  1.0002  0.0107
 1771SOL    HW216950   1.441   2.892   4.978 -0.9502 -1.3685  0.5077
 1772SOL     OW16951   0.118   0.524  10.135 -0.0956  0.0480  0.6233
 1772SOL    HW116952   0.165   0.585  10.192  0.1083  1.7053 -1.3238
 1772SOL    HW216953   0.071   0.587  10.080  0.6401  0.6503  0.6899
 1773SOL     OW16954   2.915   0.800   1.071 -0.0528  0.0308 -0.3793
 1773SOL    HW116955   2.886   0.838   0.989  0.1793 -1.4046 -1.1240
 1773SOL    HW216956   2.971   0.876   1.086 -1.7559  0.9370  1.4131
 1774SOL     OW16957   3.391   0.865   1.867 -0.0339 -0.4983 -0.0974
 1774SOL    HW116958   3.388   0.932   1.935 -3.0170 -0.2531 -0.4567
 1774SOL    HW216959   3.396   0.784   1.918  1.8141 -1.1264 -1.2972
 1775SOL     OW16960   0.243   2.430   2.540 -0.1253 -0.2024 -0.6715
 1775SOL    HW116961   0.295   2.461   2.466  2.1776  1.5879  1.7233
 1775SOL    HW216962   0.155   2.421   2.503  0.5014  0.3690 -2.3061
 1776SOL     OW16963   3.385   0.593   6.207  0.1330 -0.7181 -0.0855
 1776SOL    HW116964   3.369   0.687   6.198 -0.5438 -0.9131 -0.8829
 1776SOL    HW216965   3.353   0.571   6.295  0.7732 -3.0155 -0.4202
 1777SOL     OW16966   3.194   2.278   6.191 -0.1891  0.6671 -0.4378
 1777SOL    HW116967   3.254   2.332   6.140 -0.4456  1.6253  0.2743
 1777SOL    HW216968   3.144   2.341   6.242  0.7354 -0.4049  1.8031
 1778SOL     OW16969   3.932   0.132  15.529 -0.1418 -0.1042  0.0292
 1778SOL    HW116970   3.936   0.179  15.446  2.0097 -0.7320 -0.2239
 1778SOL    HW216971   4.004   0.172  15.577  1.0157 -3.3425  1.0122
 1779SOL     OW16972   4.274   0.312   6.380 -0.6672  0.3133  0.1694
 1779SOL    HW116973   4.248   0.367   6.307  1.6061 -0.9384 -1.5906
 1779SOL    HW216974   4.215   0.238   6.372 -0.6392  0.3827 -0.6570
 1780SOL     OW16975   3.426   3.989   5.779 -0.2267  0.1138  0.0204
 1780SOL    HW116976   3.438   3.939   5.699  0.3379  0.6735 -0.2429
 1780SOL    HW216977   3.517   4.015   5.789 -0.1166 -1.2466  2.5846
 1781SOL     OW16978   3.509   3.511   3.348 -0.1881  0.6358 -0.4163
 1781SOL    HW116979   3.478   3.477   3.432 -0.3173 -0.7280 -1.0201
 1781SOL    HW216980   3.524   3.600   3.380 -0.3811 -0.2669  2.1547
 1782SOL     OW16981   1.109   3.094   4.230 -0.0729 -0.7117  0.2941
 1782SOL    HW116982   1.024   3.108   4.271  0.3980  0.5671  0.8245
 1782SOL    HW216983   1.098   3.151   4.154  0.2317 -0.7586  0.2170
 1783SOL     OW16984   1.620   2.659   5.251 -0.7669 -0.6979  0.2370
 1783SOL    HW116985   1.610   2.596   5.322 -1.3721 -0.1796  0.6124
 1783SOL    HW216986   1.614   2.735   5.310  4.8144  0.8135 -1.1428
 1784SOL     OW16987   3.468   1.398   5.627  0.9221  0.0221  0.6073
 1784SOL    HW116988   3.492   1.338   5.556  0.2884 -0.1050  0.5051
 1784SOL    HW216989   3.544   1.389   5.685  1.2734 -1.8620 -0.1490
 1785SOL     OW16990   2.422   2.397   1.791 -0.2754  0.6702 -0.6295
 1785SOL    HW116991   2.343   2.344   1.777  0.1957 -0.7882  2.2307
 1785SOL    HW216992   2.496   2.336   1.786 -0.9338 -0.1720 -0.2288
 1786SOL     OW16993   2.320   0.918   1.390 -0.7292 -0.1836  0.7878
 1786SOL    HW116994   2.315   0.994   1.449  1.2214  0.1343  0.5429
 1786SOL    HW216995   2.246   0.874   1.432  0.3055  0.3840  3.2234
 1787SOL     OW16996   2.372   3.978  15.124  0.6574 -0.0958 -0.0225
 1787SOL    HW116997   2.325   3.898  15.100  1.5639 -0.3451 -0.9850
 1787SOL    HW216998   2.458   3.971  15.082 -0.0363  1.3604 -1.6848
 1788SOL     OW16999   3.249   1.571   9.031  0.2819 -0.5321 -0.6465
 1788SOL    HW117000   3.337   1.534   9.034  0.4686  0.1309  2.0184
 1788SOL    HW217001   3.235   1.621   8.951  0.6191  0.3952 -0.1234
 1789SOL     OW17002   3.392   3.077   8.311 -0.1845 -0.3129 -0.8565
 1789SOL    HW117003   3.415   3.116   8.227 -1.8280  2.9437  0.2033
 1789SOL    HW217004   3.484   3.062   8.335 -0.5806  0.7626  1.3654
 1790SOL     OW17005   4.107   1.962   4.712  0.0065 -0.1708 -0.4336
 1790SOL    HW117006   4.097   2.006   4.796 -2.9990 -0.0237 -0.8637
 1790SOL    HW217007   4.199   1.978   4.692  0.3837 -0.5041  1.0230
 1791SOL     OW17008   2.991   4.414  16.595  0.0122 -0.0997 -1.0501
 1791SOL    HW117009   2.936   4.418  16.673 -0.9463  2.3737 -1.8444
 1791SOL    HW217010   3.035   4.329  16.597  0.9867  0.3866 -1.5398
 1792SOL     OW17011   2.384   4.364   8.489  0.0562 -0.0401 -0.1348
 1792SOL    HW117012   2.356   4.295   8.429 -0.0256  0.5564 -0.7808
 1792SOL    HW217013   2.467   4.401   8.457  1.5924 -1.6402  1.9954
 1793SOL     OW17014   0.326   1.416   1.039  0.2253 -0.1703 -0.2032
 1793SOL    HW117015   0.379   1.427   1.118 -0.0828  0.5240 -0.0911
 1793SOL    HW217016   0.240   1.391   1.072  0.0760 -0.3289 -0.7139
 1794SOL     OW17017   2.909   2.418  12.298 -0.5712  0.0166 -0.1334
 1794SOL    HW117018   2.822   2.458  12.294 -0.1096  1.0090 -0.4652
 1794SOL    HW217019   2.889   2.346  12.357 -0.1518  0.0092 -0.0046
 1795SOL     OW17020   0.253   1.093   7.326 -0.4954  0.6828  0.5720
 1795SOL    HW117021   0.321   1.085   7.259 -1.2151  0.5653 -0.1396
 1795SOL    HW217022   0.177   1.059   7.279  0.7905  0.1137 -1.1190
 1796SOL     OW17023   3.292   2.179   9.439  0.5126 -0.5412 -0.3930
 1796SOL    HW117024   3.356   2.110   9.426  1.4081 -0.0032  1.2311
 1796SOL    HW217025   3.217   2.135   9.479  1.1224 -0.6426  0.6148
 1797SOL     OW17026   0.177   4.689   8.105 -0.0219  0.4540 -0.5335
 1797SOL    HW117027   0.163   0.038   8.147 -0.8994  0.6982 -1.3120
 1797SOL    HW217028   0.202   4.706   8.015 -2.5733 -0.3011 -1.3787
 1798SOL     OW17029   4.321   3.827   3.819  0.5398  0.8826  0.2476
 1798SOL    HW117030   4.410   3.829   3.783  0.2332  2.7959 -0.4166
 1798SOL    HW217031   4.320   3.916   3.855 -3.5731  1.8012 -2.0403
 1799SOL     OW17032   4.493   0.317   4.236  0.3318  0.2096  1.0968
 1799SOL    HW117033   4.535   0.333   4.321  0.9263  1.0297  0.6472
 1799SOL    HW217034   4.459   0.403   4.213 -0.6492 -0.3764  0.3246
 1800SOL     OW17035   2.415   1.682   0.722 -0.8314  0.2510  0.0739
 1800SOL    HW117036   2.429   1.616   0.790 -1.8902  0.2390  0.2754
 1800SOL    HW217037   2.456   1.643   0.645 -3.4249  1.4552 -1.9199
 1801SOL     OW17038   1.245   4.681   7.539  0.5147  0.3817  0.0745
 1801SOL    HW117039   1.154   4.696   7.513  0.0612  0.6391  1.7969
 1801SOL    HW217040   1.234   4.602   7.592  2.4856  1.3270  1.9157
 1802SOL     OW17041   2.884   2.851   3.496 -0.0687  0.3158 -0.8330
 1802SOL    HW117042   2.880   2.803   3.413  2.4179 -0.6540 -0.4149
 1802SOL    HW217043   2.827   2.795   3.549  1.8669 -1.7234 -0.8594
 1803SOL     OW17044   3.874   0.575   7.630 -0.1592 -0.3740 -0.1422
 1803SOL    HW117045   3.797   0.537   7.589  0.2792 -2.1591  0.6622
 1803SOL    HW217046   3.852   0.556   7.721  1.0526 -1.3234 -0.0352
 1804SOL     OW17047   0.384   2.481   6.921  0.3795  0.1609  0.1467
 1804SOL    HW117048   0.326   2.468   6.996  1.5380  1.5619  1.2879
 1804SOL    HW217049   0.340   2.550   6.872 -0.8237 -0.1407  0.8231
 1805SOL     OW17050   4.272   3.008   6.695  0.6600 -0.0177  0.0107
 1805SOL    HW117051   4.192   2.956   6.699  0.4019  0.3461 -0.5849
 1805SOL    HW217052   4.346   2.948   6.706  1.2818  1.2850  2.9246
 1806SOL     OW17053   1.244   1.358   6.164  0.5042  0.2487  0.3272
 1806SOL    HW117054   1.284   1.439   6.133 -2.5195  1.4867 -0.3877
 1806SOL    HW217055   1.260   1.363   6.259 -0.7876  1.6011  0.4685
 1807SOL     OW17056   4.370   1.177   0.896  0.0758  0.4071  0.4336
 1807SOL    HW117057   4.325   1.138   0.820 -0.2714  1.2638  0.1968
 1807SOL    HW217058   4.336   1.125   0.968 -0.3413  0.8313  0.5454
 1808SOL     OW17059   3.873   2.680   8.928 -0.2171  0.3959  0.6652
 1808SOL    HW117060   3.887   2.706   8.837  0.5310  0.8821  0.9226
 1808SOL    HW217061   3.949   2.624   8.947 -0.4634 -0.0619  0.3011
 1809SOL     OW17062   3.238   3.672   8.893 -0.3190 -0.4151  0.6433
 1809SOL    HW117063   3.241   3.630   8.979 -1.0162  1.0863  1.4041
 1809SOL    HW217064   3.328   3.656   8.865 -1.1394  0.2266 -2.3233
 1810SOL     OW17065   3.118   1.130   3.768 -0.0649 -0.3207 -0.1976
 1810SOL    HW117066   3.109   1.135   3.863 -0.0787  0.7346 -0.2507
 1810SOL    HW217067   3.069   1.053   3.740  1.3008 -1.2276 -0.0871
 1811SOL     OW17068   2.521   2.589   6.489 -0.3390 -0.0427 -0.0455
 1811SOL    HW117069   2.479   2.580   6.575  0.5141  0.0280  0.3803
 1811SOL    HW217070   2.454   2.635   6.438  0.7871 -0.0253 -1.5026
 1812SOL     OW17071   0.069   4.266   6.210  0.3231  0.7356  0.7701
 1812SOL    HW117072   0.155   4.296   6.238  0.6881  0.0239  0.4170
 1812SOL    HW217073   0.077   4.189   6.153 -0.0090 -0.2087  1.9937
 1813SOL     OW17074   2.306   2.562   4.145  0.2633 -0.4056  0.5855
 1813SOL    HW117075   2.255   2.482   4.158  0.6453 -1.2119 -3.1187
 1813SOL    HW217076   2.374   2.545   4.210 -0.5022  0.3537  1.6048
 1814SOL     OW17077   0.442   3.982   2.923 -0.3261 -0.4622  0.2517
 1814SOL    HW117078   0.499   3.911   2.894  2.6063  1.4445  1.3521
 1814SOL    HW217079   0.402   3.928   2.991  0.8870 -2.2488 -0.4388
 1815SOL     OW17080   1.988   2.688   3.908  0.5249  0.6572 -0.1283
 1815SOL    HW117081   1.936   2.657   3.833  1.0980  0.2125 -0.3418
 1815SOL    HW217082   2.059   2.625   3.898  0.0475 -0.2919  2.5452
 1816SOL     OW17083   1.531   4.464   9.866  0.0406  0.5225 -0.4417
 1816SOL    HW117084   1.537   4.400   9.795  1.6959 -0.7846  0.8815
 1816SOL    HW217085   1.445   4.447   9.904  1.3037  0.8898  2.5767
 1817SOL     OW17086   1.785   2.726   3.695 -0.2139 -0.8513  0.3922
 1817SOL    HW117087   1.755   2.815   3.678 -0.4827 -0.9226  0.4888
 1817SOL    HW217088   1.712   2.675   3.659  0.3335 -0.5608 -1.1483
 1818SOL     OW17089   2.947   1.198   8.374  0.4769 -0.2538 -0.0644
 1818SOL    HW117090   2.968   1.288   8.348 -2.8034  0.4781 -0.2244
 1818SOL    HW217091   2.998   1.188   8.454  1.6092 -1.4473 -0.9384
 1819SOL     OW17092   3.470   0.795   2.130 -0.3996 -0.2670  0.2650
 1819SOL    HW117093   3.384   0.791   2.172 -1.1771 -0.0893 -1.3269
 1819SOL    HW217094   3.482   0.890   2.132  0.5192 -0.4056  1.1988
 1820SOL     OW17095   0.188   0.498   6.781  0.2476 -0.4797 -0.1299
 1820SOL    HW117096   0.176   0.472   6.872  0.5199  2.5379  0.7680
 1820SOL    HW217097   0.106   0.540   6.756 -0.7402 -0.7338  2.6143
 1821SOL     OW17098   2.109   2.635  14.252 -0.4135 -0.0076  0.3125
 1821SOL    HW117099   2.019   2.617  14.224 -0.9005 -0.4440  2.1543
 1821SOL    HW217100   2.095   2.690  14.329 -1.5781 -0.1105  0.1702
 1822SOL     OW17101   4.672   4.365   5.954  0.0096  0.7386 -0.3467
 1822SOL    HW117102   4.725   4.355   6.033 -0.0242 -3.7402 -0.8934
 1822SOL    HW217103   4.588   4.388   5.994  1.1419  0.3447  2.2685
 1823SOL     OW17104   4.033   3.821  10.723 -0.6299  0.1528 -0.3520
 1823SOL    HW117105   4.115   3.851  10.686 -0.9645  2.9090  1.1324
 1823SOL    HW217106   4.041   3.861  10.809 -1.5682 -0.1818 -0.1011
 1824SOL     OW17107   2.166   3.905   9.579 -0.8228  0.0065  0.5294
 1824SOL    HW117108   2.262   3.902   9.570 -1.0552 -0.8416 -1.7711
 1824SOL    HW217109   2.144   3.816   9.552 -1.9782  0.5159 -0.1987
 1825SOL     OW17110   1.373   2.340   7.522 -0.2260 -0.1116  0.3126
 1825SOL    HW117111   1.458   2.346   7.477  0.4059  0.9096  1.6495
 1825SOL    HW217112   1.323   2.419   7.500 -2.2909 -1.6410 -0.4596
 1826SOL     OW17113   1.227   2.890   5.230 -0.0618  0.3858  0.1708
 1826SOL    HW117114   1.162   2.823   5.208  0.0513  0.4088 -0.2437
 1826SOL    HW217115   1.235   2.889   5.325  2.5990  0.1975 -0.0368
 1827SOL     OW17116   1.402   0.435  15.945  0.5005 -0.1707  0.1932
 1827SOL    HW117117   1.380   0.496  16.016  0.1505 -0.6291  0.4808
 1827SOL    HW217118   1.450   0.496  15.889 -1.4063  0.9627 -0.2242
 1828SOL     OW17119   3.822   0.979   1.253 -0.9571  0.6353 -0.4309
 1828SOL    HW117120   3.764   1.047   1.288  1.5280  1.6867  1.6433
 1828SOL    HW217121   3.786   0.899   1.293  1.4712 -0.9537 -1.4933
 1829SOL     OW17122   3.460   3.491   2.279 -0.2464 -0.0811  0.4152
 1829SOL    HW117123   3.449   3.429   2.351 -1.8845  0.4188  0.6009
 1829SOL    HW217124   3.491   3.432   2.210  0.1636  1.3280 -0.6101
 1830SOL     OW17125   3.150   0.107   2.277 -0.3132  0.0355 -0.3054
 1830SOL    HW117126   3.120   0.195   2.299  0.8760  0.6827 -1.2891
 1830SOL    HW217127   3.218   0.125   2.211 -0.4348 -1.8800 -0.9431
 1831SOL     OW17128   2.749   3.642   3.534  0.0412 -0.1053 -0.7188
 1831SOL    HW117129   2.671   3.597   3.567  0.3863  1.2274  1.8497
 1831SOL    HW217130   2.718   3.711   3.474  1.0351  0.8914 -0.0825
 1832SOL     OW17131   1.045   0.575   8.384  0.0911 -0.4903  0.2163
 1832SOL    HW117132   1.017   0.485   8.372 -1.3905  0.0729 -0.6560
 1832SOL    HW217133   1.006   0.627   8.313  1.0438 -1.3380 -0.9217
 1833SOL     OW17134   4.607   0.718   3.757 -0.6583  0.2430 -0.3730
 1833SOL    HW117135   4.547   0.775   3.806 -0.6128  2.1445 -2.5254
 1833SOL    HW217136   4.675   0.782   3.739 -1.4820  1.6227  1.4567
 1834SOL     OW17137   3.211   0.591  13.762 -0.3164 -0.4348 -0.5925
 1834SOL    HW117138   3.206   0.531  13.688  0.5588  0.9001 -1.7207
 1834SOL    HW217139   3.129   0.635  13.743  1.0379  2.7499  0.9432
 1835SOL     OW17140   0.945   3.970   8.373  0.2230  0.1771 -0.1497
 1835SOL    HW117141   1.026   3.984   8.325 -0.2807  2.3223 -0.4169
 1835SOL    HW217142   0.931   4.062   8.396 -3.2774 -0.2732 -0.4060
 1836SOL     OW17143   1.531   0.132   6.518 -0.4189 -0.1696 -0.0563
 1836SOL    HW117144   1.618   0.113   6.554  0.2113  1.4016 -0.7423
 1836SOL    HW217145   1.531   0.227   6.514  3.1521 -0.1504  0.4708
 1837SOL     OW17146   3.243   1.649  12.815  0.5763 -0.7350 -0.1021
 1837SOL    HW117147   3.240   1.554  12.819  2.9367 -0.7499  1.6934
 1837SOL    HW217148   3.270   1.676  12.903 -1.5524 -0.3188  0.4317
 1838SOL     OW17149   4.081   0.757  10.612  0.0566  0.9602 -0.1203
 1838SOL    HW117150   4.163   0.807  10.620 -0.1454  0.9781  1.8469
 1838SOL    HW217151   4.116   0.668  10.619 -1.0597  0.5674  0.4144
 1839SOL     OW17152   0.341   2.205   4.293 -0.2188  0.5301 -0.2168
 1839SOL    HW117153   0.375   2.285   4.334 -0.9432  1.4088 -1.3350
 1839SOL    HW217154   0.415   2.149   4.318 -1.6760 -1.1059  0.4384
 1840SOL     OW17155   4.594   2.384   7.452  0.2713 -0.1607 -0.0441
 1840SOL    HW117156   4.530   2.318   7.427  1.0860 -1.2851  0.8888
 1840SOL    HW217157   4.664   2.332   7.490 -0.2225 -0.0976  0.9457
 1841SOL     OW17158   1.552   1.263   6.033  0.1468 -0.1478  0.3769
 1841SOL    HW117159   1.646   1.267   6.016 -0.0176  0.3956 -0.3721
 1841SOL    HW217160   1.540   1.237   6.125 -1.4029  0.5686  0.3788
 1842SOL     OW17161   0.374   1.227   3.985  0.3295 -1.1771 -0.6500
 1842SOL    HW117162   0.458   1.271   3.984 -0.4393  0.3043  0.8538
 1842SOL    HW217163   0.304   1.291   3.971 -1.1938 -2.8463 -0.7926
 1843SOL     OW17164   1.956   0.696  17.568 -0.0098 -0.5925  1.0707
 1843SOL    HW117165   1.921   0.709  17.480  0.9041 -0.7183  0.6906
 1843SOL    HW217166   2.049   0.675  17.555 -0.2988 -0.2211 -1.4714
 1844SOL     OW17167   0.597   1.050   6.914 -0.1596  0.5611  0.2597
 1844SOL    HW117168   0.560   1.045   6.826 -1.9667 -0.6959  1.0986
 1844SOL    HW217169   0.662   0.980   6.903  0.5463  1.2623 -0.0053
 1845SOL     OW17170   3.544   4.277  10.167 -0.3217  0.3751 -0.0007
 1845SOL    HW117171   3.472   4.337  10.145 -0.6356 -0.5777 -1.5567
 1845SOL    HW217172   3.616   4.306  10.111  0.5007  3.0092  2.4046
 1846SOL     OW17173   1.056   0.770   4.985  0.0609  0.3670  0.3389
 1846SOL    HW117174   1.140   0.756   4.943 -0.3852 -0.9152 -0.1420
 1846SOL    HW217175   1.006   0.782   4.904  0.3013 -1.0676 -0.0283
 1847SOL     OW17176   1.641   3.272   3.416  0.0060 -0.1069  0.3538
 1847SOL    HW117177   1.565   3.314   3.375  0.4660  1.8959  1.5476
 1847SOL    HW217178   1.620   3.288   3.508 -1.0112 -0.8083  0.2349
 1848SOL     OW17179   3.174   0.516  17.492 -0.8099 -0.0483 -0.5513
 1848SOL    HW117180   3.167   0.567  17.573 -3.5939 -0.9832 -0.2060
 1848SOL    HW217181   3.221   0.580  17.438 -2.7750  1.5867 -0.3276
 1849SOL     OW17182   0.739   0.362   8.734  0.0510  0.0245  0.3617
 1849SOL    HW117183   0.692   0.439   8.704  1.4342  0.4974 -0.5959
 1849SOL    HW217184   0.780   0.385   8.818 -1.0015  0.3698  0.7802
 1850SOL     OW17185   0.121   3.492   1.550 -0.0014  0.1290 -0.9666
 1850SOL    HW117186   0.107   3.430   1.479 -0.5489 -0.0403 -0.7066
 1850SOL    HW217187   0.066   3.449   1.615  1.9251 -0.7028  0.1132
 1851SOL     OW17188   1.219   3.753   3.930  0.1783  0.1388 -0.8215
 1851SOL    HW117189   1.275   3.741   4.007  1.3583  1.5259 -1.4683
 1851SOL    HW217190   1.238   3.845   3.909  0.4246  0.4598  0.7446
 1852SOL     OW17191   1.090   2.248   2.271  0.5052  0.5538  0.3072
 1852SOL    HW117192   1.139   2.169   2.295  1.9828  1.6007  0.7219
 1852SOL    HW217193   1.057   2.280   2.355 -2.3340 -1.3751 -0.0602
 1853SOL     OW17194   0.053   4.001  15.895  0.4410 -0.3061 -0.5410
 1853SOL    HW117195   0.012   4.075  15.939 -1.1442 -2.4457  1.6146
 1853SOL    HW217196   4.724   3.935  15.921  2.5083 -1.8906  0.5791
 1854SOL     OW17197   0.988   4.258   5.220 -0.0025  0.4727 -0.0627
 1854SOL    HW117198   0.938   4.236   5.299 -1.3062 -2.2135 -1.6746
 1854SOL    HW217199   0.913   4.282   5.165 -1.0235 -1.4417  0.4982
 1855SOL     OW17200   3.402   0.397   0.377  0.3861 -0.4352  0.4708
 1855SOL    HW117201   3.421   0.304   0.372  1.4570 -0.2137  0.4533
 1855SOL    HW217202   3.473   0.435   0.325 -0.8788 -2.0816 -2.4558
 1856SOL     OW17203   4.425   1.706  16.307 -0.2322  0.2645 -0.1165
 1856SOL    HW117204   4.382   1.717  16.393  0.0331 -0.1299  0.0671
 1856SOL    HW217205   4.429   1.796  16.276 -0.8182  0.2591 -0.2215
 1857SOL     OW17206   0.299   2.291  10.860 -0.5792  0.4057 -0.2121
 1857SOL    HW117207   0.250   2.368  10.889  0.5201  1.0982 -0.1914
 1857SOL    HW217208   0.358   2.275  10.935  0.3121 -1.3529 -1.2898
 1858SOL     OW17209   2.573   0.767   3.590  0.4350  0.6289 -0.3823
 1858SOL    HW117210   2.481   0.792   3.602 -0.1853 -1.4756 -0.6159
 1858SOL    HW217211   2.617   0.790   3.672 -0.7560  1.6156 -0.0103
 1859SOL     OW17212   0.255   2.744   4.044  0.5077 -0.3333 -0.5039
 1859SOL    HW117213   0.172   2.748   4.091  0.4724 -1.6832 -0.4559
 1859SOL    HW217214   0.316   2.709   4.109  0.8197 -0.9190 -1.1124
 1860SOL     OW17215   2.971   1.890   7.470  0.0010  0.0185  0.4236
 1860SOL    HW117216   2.919   1.810   7.467 -2.0452  1.4295 -1.2277
 1860SOL    HW217217   2.944   1.926   7.555  0.7017  1.3075  0.1002
 1861SOL     OW17218   1.379   2.630   6.731 -0.3045  1.0394 -0.6051
 1861SOL    HW117219   1.423   2.672   6.805  0.9726 -1.9851  0.3578
 1861SOL    HW217220   1.325   2.569   6.781 -0.4443  1.4091 -0.3068
 1862SOL     OW17221   3.461   3.911   8.444  0.4233 -0.4832 -0.8220
 1862SOL    HW117222   3.469   3.949   8.531 -0.3475  0.9133 -1.3595
 1862SOL    HW217223   3.553   3.898   8.419  1.0453  1.9658  0.1470
 1863SOL     OW17224   1.344   0.878   4.657 -0.5374 -0.2769  0.5072
 1863SOL    HW117225   1.260   0.918   4.636 -0.6972 -1.8181 -1.7781
 1863SOL    HW217226   1.403   0.898   4.585 -1.1063  0.1332  0.1591
 1864SOL     OW17227   0.533   3.552   4.095 -0.6831 -0.0069 -0.2668
 1864SOL    HW117228   0.614   3.598   4.115 -1.3209  1.1131 -0.2449
 1864SOL    HW217229   0.570   3.467   4.071 -0.2196  0.5062 -1.3801
 1865SOL     OW17230   4.624   2.705   6.157 -0.2472  0.8570 -0.2787
 1865SOL    HW117231   4.638   2.645   6.084 -0.6750 -2.0591  2.0445
 1865SOL    HW217232   4.698   2.758   6.125 -1.0776  2.3427  0.2509
 1866SOL     OW17233   4.667   0.982   1.831  0.7019  0.1541 -0.1847
 1866SOL    HW117234   4.602   0.953   1.767  2.3297 -2.5685 -0.6125
 1866SOL    HW217235   4.631   1.063   1.868 -1.1083 -1.1236  0.8533
 1867SOL     OW17236   2.459   1.788  17.243  0.4607  0.4813  0.5487
 1867SOL    HW117237   2.419   1.715  17.290  1.8342 -0.0418  0.9106
 1867SOL    HW217238   2.461   1.754  17.153 -1.2032  0.2274  0.6057
 1868SOL     OW17239   1.111   4.080   3.079  0.0571 -0.1775  0.2966
 1868SOL    HW117240   1.078   4.168   3.060  0.5985 -0.0543 -0.0659
 1868SOL    HW217241   1.036   4.027   3.052  0.8366 -0.3925 -1.4569
 1869SOL     OW17242   0.514   1.638   6.755 -0.0580 -0.3683 -0.1030
 1869SOL    HW117243   0.545   1.640   6.846  1.9829 -1.6039 -0.7630
 1869SOL    HW217244   0.486   1.547   6.747  0.0548 -0.5330  1.4623
 1870SOL     OW17245   3.737   2.987  11.486  0.8646 -0.5194 -0.0535
 1870SOL    HW117246   3.812   2.933  11.508  1.2306  0.5609  1.3510
 1870SOL    HW217247   3.710   3.010  11.575  1.1930  0.6204 -0.2563
 1871SOL     OW17248   4.174   3.588   4.258  0.2554  0.0844 -0.0959
 1871SOL    HW117249   4.131   3.503   4.250  0.6182 -0.1181  0.1062
 1871SOL    HW217250   4.220   3.586   4.174  0.8323  1.3338  0.1945
 1872SOL     OW17251   4.278   2.742   5.973  0.1753 -0.0358  0.7267
 1872SOL    HW117252   4.330   2.807   6.020  0.2398  1.3328 -1.2120
 1872SOL    HW217253   4.255   2.677   6.040 -2.1720  0.1041  0.0815
 1873SOL     OW17254   3.693   0.088   3.200  0.1648  0.3808  0.4018
 1873SOL    HW117255   3.740   0.160   3.156 -1.0273  1.3083  0.6511
 1873SOL    HW217256   3.764   0.032   3.233 -0.4282 -0.9747 -0.6143
 1874SOL     OW17257   2.471   1.517   9.893  0.3424 -0.3221 -0.5763
 1874SOL    HW117258   2.395   1.564   9.860  0.8975  1.3281  0.5213
 1874SOL    HW217259   2.507   1.587   9.947 -0.7318  1.2260 -1.8811
 1875SOL     OW17260   1.415   3.927   4.236  0.0106 -0.6842 -0.0141
 1875SOL    HW117261   1.412   3.835   4.210 -1.3445 -0.9459  1.0194
 1875SOL    HW217262   1.481   3.931   4.305  1.6977  2.0771 -1.8108
 1876SOL     OW17263   1.601   1.416   6.563  0.0012  0.1141 -0.0098
 1876SOL    HW117264   1.574   1.368   6.641  0.9904 -0.2907  0.0747
 1876SOL    HW217265   1.586   1.508   6.589 -0.3538  0.5329 -1.7067
 1877SOL     OW17266   1.361   3.932  16.961 -0.2799  0.0373  0.0862
 1877SOL    HW117267   1.313   3.864  16.913 -2.1451 -0.0445  2.0800
 1877SOL    HW217268   1.445   3.927  16.915 -0.7688 -2.1946 -0.5785
 1878SOL     OW17269   0.806   1.744   6.811  0.4248 -0.1224 -0.4747
 1878SOL    HW117270   0.852   1.812   6.860  1.7325 -0.3297 -1.4297
 1878SOL    HW217271   0.756   1.695   6.877 -1.2197 -1.1900 -2.5189
 1879SOL     OW17272   1.936   3.875   2.614 -0.1053  0.2052 -0.0258
 1879SOL    HW117273   1.966   3.966   2.608  2.3449 -0.3346  3.9336
 1879SOL    HW217274   1.853   3.884   2.660 -0.4360  1.4968 -0.8878
 1880SOL     OW17275   4.066   1.279   1.743  0.1116  0.2103 -0.6099
 1880SOL    HW117276   3.982   1.234   1.735 -0.7370  1.6241  0.3134
 1880SOL    HW217277   4.109   1.256   1.661 -0.6883  1.0620 -1.2743
 1881SOL     OW17278   1.411   0.590   7.205 -0.9026  0.3128  0.1418
 1881SOL    HW117279   1.490   0.560   7.248  0.8455  0.3521 -3.0676
 1881SOL    HW217280   1.405   0.683   7.226  0.1672 -0.2621  2.8798
 1882SOL     OW17281   2.630   2.117   0.375  0.0183 -0.0194  0.0503
 1882SOL    HW117282   2.559   2.080   0.323  0.0048 -0.4087  0.3472
 1882SOL    HW217283   2.670   2.169   0.305 -0.2618  0.2123  0.0625
 1883SOL     OW17284   1.575   2.752   8.389  0.3934 -0.4920 -0.1122
 1883SOL    HW117285   1.665   2.784   8.395 -0.3817  1.2613  1.8054
 1883SOL    HW217286   1.536   2.791   8.467  0.8114  0.7662 -0.5415
 1884SOL     OW17287   2.313   4.535   6.200  0.5558  0.1709  0.6332
 1884SOL    HW117288   2.319   4.626   6.169 -0.2386  0.0554  0.1345
 1884SOL    HW217289   2.244   4.553   6.263  0.1942 -0.9957  0.5661
 1885SOL     OW17290   0.511   3.336   8.629  0.2205 -0.0025 -0.1035
 1885SOL    HW117291   0.510   3.431   8.640  0.8439 -0.1126  0.9017
 1885SOL    HW217292   0.511   3.309   8.721  1.2121 -0.8929 -0.3748
 1886SOL     OW17293   3.414   3.876   9.372  0.1469  0.1785  0.3925
 1886SOL    HW117294   3.402   3.805   9.435  1.4046 -0.2989  0.0983
 1886SOL    HW217295   3.425   3.820   9.295  0.8979  0.4898  0.2734
 1887SOL     OW17296   3.432   4.686  14.344  0.0735  0.6760  0.1430
 1887SOL    HW117297   3.435   4.652  14.255  3.4863  0.3280  0.3890
 1887SOL    HW217298   3.400   0.039  14.325  0.8459  0.8329 -0.4355
 1888SOL     OW17299   2.181   3.704   9.269 -0.3250  0.1619  0.4254
 1888SOL    HW117300   2.104   3.761   9.263  0.0347  0.5486 -0.5170
 1888SOL    HW217301   2.162   3.631   9.210 -2.9239 -0.4422  2.0216
 1889SOL     OW17302   2.620   4.526   2.910 -0.3030  0.1845 -0.3446
 1889SOL    HW117303   2.688   4.459   2.924 -1.7256 -1.0945  0.3852
 1889SOL    HW217304   2.540   4.474   2.905 -0.2979  0.0877  0.5970
 1890SOL     OW17305   4.399   4.221  10.723  0.1823  0.2506 -0.3401
 1890SOL    HW117306   4.339   4.224  10.648 -0.2277 -0.6941 -0.0492
 1890SOL    HW217307   4.344   4.179  10.789  1.3946  2.4048  2.0296
 1891SOL     OW17308   0.281   2.514  14.844  0.1128  0.2193 -0.0195
 1891SOL    HW117309   0.260   2.488  14.934  1.4344  1.7963  0.7522
 1891SOL    HW217310   0.320   2.601  14.859  2.0555 -0.5353 -0.6765
 1892SOL     OW17311   0.661   0.506   3.070  0.7385 -0.3398  0.2399
 1892SOL    HW117312   0.644   0.466   2.985 -2.1141 -0.9234  1.0956
 1892SOL    HW217313   0.575   0.501   3.111  0.3618 -2.2220 -0.7907
 1893SOL     OW17314   1.611   1.617   0.405  0.2217 -0.2065  0.4733
 1893SOL    HW117315   1.599   1.683   0.474 -0.5742  0.5322 -0.3617
 1893SOL    HW217316   1.592   1.673   0.330  0.8459 -0.7950 -0.1234
 1894SOL     OW17317   2.151   3.831  16.336  0.2675  0.3222  0.0247
 1894SOL    HW117318   2.207   3.894  16.291  0.9155  0.1866  0.6480
 1894SOL    HW217319   2.075   3.883  16.362  0.4325  0.1846  0.7896
 1895SOL     OW17320   3.166   1.922  17.191  0.3609  0.6742 -0.4607
 1895SOL    HW117321   3.247   1.973  17.179  0.1267  0.3702 -3.2300
 1895SOL    HW217322   3.190   1.853  17.129  0.8079 -0.2506  0.7351
 1896SOL     OW17323   0.071   0.281  13.329 -0.0867 -0.3475  0.4484
 1896SOL    HW117324   0.091   0.259  13.238  0.0411  1.3360  0.0794
 1896SOL    HW217325   0.116   0.364  13.338 -1.6607  0.6697 -1.1674
 1897SOL     OW17326   3.855   1.420   0.035  0.2730  0.3642  0.0015
 1897SOL    HW117327   3.862   1.350  17.711 -0.2281  0.9234 -0.6543
 1897SOL    HW217328   3.837   1.494  17.718 -0.7430 -0.0643 -0.2339
 1898SOL     OW17329   1.433   3.551   1.654 -0.2682  0.6143 -0.3111
 1898SOL    HW117330   1.470   3.500   1.582 -2.1684 -0.1183 -0.7737
 1898SOL    HW217331   1.353   3.577   1.608 -1.0315  0.3885  0.8993
 1899SOL     OW17332   2.320   3.929  15.602  0.7350  0.1992  0.3160
 1899SOL    HW117333   2.403   3.973  15.617  0.9994 -0.1308 -0.1858
 1899SOL    HW217334   2.272   4.000  15.644  0.6234  0.4311 -0.2033
 1900SOL     OW17335   1.170   2.977   7.746 -0.1437 -0.3165 -0.3182
 1900SOL    HW117336   1.224   3.016   7.678 -1.6468  1.9892 -0.1764
 1900SOL    HW217337   1.182   2.884   7.728 -0.9026 -0.3904 -0.4500
 1901SOL     OW17338   4.467   3.710   1.779 -0.6310  0.0434  0.1383
 1901SOL    HW117339   4.494   3.800   1.799  2.3346 -0.3138 -2.3169
 1901SOL    HW217340   4.405   3.688   1.849  0.8340  1.6070  1.9389
 1902SOL     OW17341   4.168   0.982   3.662 -0.1879  0.0059  0.2766
 1902SOL    HW117342   4.262   0.993   3.645 -0.5130  0.5059 -1.2150
 1902SOL    HW217343   4.156   0.893   3.628 -1.9324  0.2522  0.2578
 1903SOL     OW17344   3.980   4.026  14.543 -0.1753 -0.0778  0.3302
 1903SOL    HW117345   3.947   4.090  14.606  0.4130  0.2254  0.3335
 1903SOL    HW217346   3.898   4.011  14.497  0.5320  0.2465 -1.0140
 1904SOL     OW17347   2.288   4.164  10.036  0.1355 -0.0645  0.3228
 1904SOL    HW117348   2.295   4.245   9.986  1.8501 -0.6819 -0.4343
 1904SOL    HW217349   2.319   4.102   9.971  2.2664  1.2238  0.1172
 1905SOL     OW17350   3.824   0.246   6.837 -0.2450 -0.1996  1.0274
 1905SOL    HW117351   3.907   0.292   6.827 -0.3550 -0.3009 -0.2408
 1905SOL    HW217352   3.865   0.167   6.872  0.1876 -1.0348 -1.3681
 1906SOL     OW17353   0.388   4.601   6.313  0.3769  0.0280  0.0086
 1906SOL    HW117354   0.469   4.649   6.297  0.7416 -1.1324 -1.6010
 1906SOL    HW217355   0.396   4.584   6.407 -0.6185  1.7467  0.4087
 1907SOL     OW17356   3.992   1.732   6.687 -0.2840  0.0556  0.1271
 1907SOL    HW117357   4.007   1.676   6.763 -0.1957  1.8340  1.4331
 1907SOL    HW217358   4.046   1.808   6.708 -0.5300  0.6359 -1.2711
 1908SOL     OW17359   2.599   3.426   7.018 -0.5023 -0.8798 -0.7016
 1908SOL    HW117360   2.549   3.373   6.955  0.8590 -2.6098 -0.3444
 1908SOL    HW217361   2.667   3.469   6.967 -0.6812 -1.6207 -1.5778
 1909SOL     OW17362   4.381   1.714   1.285 -0.1833  0.0781  0.4034
 1909SOL    HW117363   4.469   1.682   1.265 -0.2523 -0.9180  1.6313
 1909SOL    HW217364   4.398   1.722   1.379  0.8456  0.8738  0.1378
 1910SOL     OW17365   2.302   0.631  16.714  0.1839 -0.1917 -0.3809
 1910SOL    HW117366   2.273   0.721  16.696 -0.6002 -0.4730 -0.5241
 1910SOL    HW217367   2.362   0.619  16.641  1.6960  0.9955  0.6714
 1911SOL     OW17368   4.256   1.288   2.405  0.0707  0.1298  0.1984
 1911SOL    HW117369   4.166   1.255   2.414 -0.1473  0.4161 -0.9521
 1911SOL    HW217370   4.311   1.210   2.414 -0.0811  0.0533  0.4778
 1912SOL     OW17371   2.190   1.292   7.400 -0.3488 -0.1287  0.1632
 1912SOL    HW117372   2.231   1.209   7.377  0.1326  0.1408  0.0616
 1912SOL    HW217373   2.266   1.350   7.403 -0.5353  0.2098 -1.6790
 1913SOL     OW17374   4.420   2.371  11.818  0.2521 -0.2500 -0.1105
 1913SOL    HW117375   4.377   2.421  11.887  0.2695 -0.0556 -0.2423
 1913SOL    HW217376   4.476   2.319  11.876 -0.3850 -0.6743  0.1229
 1914SOL     OW17377   2.747   4.191   7.203 -0.5727 -0.5807 -0.5891
 1914SOL    HW117378   2.663   4.237   7.195 -0.6394 -0.5646  0.1915
 1914SOL    HW217379   2.727   4.158   7.290  2.1369  1.7435  0.9269
 1915SOL     OW17380   3.716   0.275   7.739  0.2349  0.0915  0.0853
 1915SOL    HW117381   3.768   0.274   7.659  0.6315 -3.6204  0.3995
 1915SOL    HW217382   3.718   0.364   7.774 -1.7379  0.0847  0.2315
 1916SOL     OW17383   4.237   3.239   8.838 -0.1314  0.6307 -0.8820
 1916SOL    HW117384   4.144   3.220   8.827 -0.9775  3.6639  1.0615
 1916SOL    HW217385   4.232   3.331   8.864  0.8916 -0.1895  2.2234
 1917SOL     OW17386   1.986   4.041   9.727 -0.6739  0.2608 -0.0641
 1917SOL    HW117387   2.064   4.029   9.672  1.3967  1.4168  2.5902
 1917SOL    HW217388   1.906   4.003   9.690 -0.0163 -2.2465  1.0653
 1918SOL     OW17389   0.351   0.100   3.327 -0.3704 -0.2488 -0.3353
 1918SOL    HW117390   0.387   0.157   3.395  1.8056 -2.5825  0.4844
 1918SOL    HW217391   0.431   0.049   3.315 -0.3609  0.3591 -2.9053
 1919SOL     OW17392   0.991   3.025   9.708  0.5749  0.0325  0.3568
 1919SOL    HW117393   0.902   3.060   9.716  0.5858  0.7894 -2.7813
 1919SOL    HW217394   0.992   2.956   9.774  1.4707 -0.1133  0.1931
 1920SOL     OW17395   3.998   0.369   5.910 -0.0545 -0.1686 -0.3574
 1920SOL    HW117396   4.006   0.279   5.942  2.6632  0.4990  0.7760
 1920SOL    HW217397   3.997   0.361   5.814  2.5263  1.5834 -0.5312
 1921SOL     OW17398   2.513   2.440  12.152  0.2415 -0.0176  0.2329
 1921SOL    HW117399   2.420   2.449  12.172  0.1821  0.9928 -0.4688
 1921SOL    HW217400   2.523   2.356  12.196 -0.0545 -0.5472 -0.6974
 1922SOL     OW17401   2.276   3.479   8.430  0.5904 -1.3336  0.1002
 1922SOL    HW117402   2.352   3.535   8.417  0.3143 -0.5534  1.7989
 1922SOL    HW217403   2.305   3.411   8.491  0.6014  0.6542  2.3277
 1923SOL     OW17404   0.772   1.794  13.261  0.3714 -0.6298  0.1008
 1923SOL    HW117405   0.746   1.885  13.253 -0.8854 -1.0439 -0.5308
 1923SOL    HW217406   0.718   1.771  13.337 -0.6997  3.9530  0.7059
 1924SOL     OW17407   1.651   4.466   7.126  0.1043  0.0061 -0.3350
 1924SOL    HW117408   1.654   4.463   7.222  1.9647 -1.7830 -0.4708
 1924SOL    HW217409   1.721   4.527   7.105 -0.6009  0.7847 -0.4492
 1925SOL     OW17410   3.078   4.667   6.211  0.0650 -0.0637 -0.2628
 1925SOL    HW117411   3.130   4.718   6.149  1.3245 -0.7492  0.2354
 1925SOL    HW217412   3.000   4.722   6.203  1.0630  1.6127  1.4492
 1926SOL     OW17413   4.071   1.703  17.129 -0.2690 -0.3301 -0.1922
 1926SOL    HW117414   3.986   1.716  17.171 -0.3859  1.9059 -1.1251
 1926SOL    HW217415   4.037   1.618  17.100  0.8753 -0.6370 -0.6545
 1927SOL     OW17416   0.434   0.667   2.845 -0.5685  0.5176 -0.3754
 1927SOL    HW117417   0.403   0.615   2.919  2.3073 -0.3202  0.2617
 1927SOL    HW217418   0.352   0.708   2.817  0.3995  1.1907 -2.2079
 1928SOL     OW17419   4.662   1.841   3.446 -0.6119  0.4621 -0.5406
 1928SOL    HW117420   4.714   1.913   3.481 -0.2389 -0.7973  1.4832
 1928SOL    HW217421   4.667   1.770   3.510 -0.4190  1.2923  0.3459
 1929SOL     OW17422   3.604   3.448   1.850 -0.0508 -0.2831 -0.3192
 1929SOL    HW117423   3.580   3.406   1.932  0.1935 -0.0593 -0.1340
 1929SOL    HW217424   3.526   3.421   1.801  0.8199 -1.1046 -1.2388
 1930SOL     OW17425   4.319   3.181   3.053  0.3552 -0.0125 -0.3308
 1930SOL    HW117426   4.412   3.181   3.030  0.3238  2.2334 -0.4509
 1930SOL    HW217427   4.283   3.212   2.970  0.6739 -3.3677 -1.7151
 1931SOL     OW17428   1.927   0.133  10.591  0.2183  0.1534 -0.3582
 1931SOL    HW117429   1.898   0.047  10.622 -0.7674  0.4439 -0.4804
 1931SOL    HW217430   1.989   0.151  10.662  0.4999 -0.2530 -0.4933
 1932SOL     OW17431   1.956   0.445   4.679  0.3428  0.4435  0.4672
 1932SOL    HW117432   1.918   0.447   4.591 -1.2066  0.7153  1.1484
 1932SOL    HW217433   1.993   0.357   4.679 -0.7204  0.0057  2.2250
 1933SOL     OW17434   3.402   4.178   7.061 -0.6879  0.7130  0.0457
 1933SOL    HW117435   3.328   4.128   7.097  0.7117 -1.2726  0.2039
 1933SOL    HW217436   3.363   4.262   7.039 -0.2270  0.6048 -1.2119
 1934SOL     OW17437   0.813   1.396  15.104  0.0243 -0.1748 -0.0979
 1934SOL    HW117438   0.776   1.477  15.140  0.3896 -1.2398  2.6682
 1934SOL    HW217439   0.767   1.377  15.022 -2.5578  0.8604  1.1093
 1935SOL     OW17440   0.101   0.259   7.013 -0.3750  0.4520 -0.7907
 1935SOL    HW117441   0.029   0.261   7.075 -0.2592  0.5205 -0.6572
 1935SOL    HW217442   0.102   0.168   6.984  2.9224  0.2533 -0.0229
 1936SOL     OW17443   4.466   4.121   6.173  0.5060 -0.0757  0.1726
 1936SOL    HW117444   4.399   4.068   6.216 -0.9427  1.3470 -0.3110
 1936SOL    HW217445   4.448   4.083   6.088  1.2438  0.4504 -0.2239
 1937SOL     OW17446   0.204   4.223   1.153  0.7668  0.6975  0.2411
 1937SOL    HW117447   0.178   4.304   1.197  0.0318  0.7103 -0.2077
 1937SOL    HW217448   0.266   4.183   1.213  0.4214 -0.0606  0.1091
 1938SOL     OW17449   0.051   1.648   2.846 -0.0132 -0.1849 -0.1093
 1938SOL    HW117450   0.104   1.646   2.767  0.1881  0.9441 -0.0066
 1938SOL    HW217451   0.127   1.663   2.903 -0.8095 -2.2666  1.4941
 1939SOL     OW17452   4.138   1.182  14.742  0.4926 -0.2572  0.6970
 1939SOL    HW117453   4.067   1.230  14.784 -0.3002  0.5886 -1.6456
 1939SOL    HW217454   4.122   1.092  14.772  0.4498 -0.0530  1.2785
 1940SOL     OW17455   0.673   4.471   9.565 -0.6076  0.2342  0.2803
 1940SOL    HW117456   0.762   4.486   9.598  0.0311 -1.0420 -0.9134
 1940SOL    HW217457   0.656   4.379   9.584  1.9144  0.2452  2.6354
 1941SOL     OW17458   3.851   4.205   7.687 -0.5143  0.6022 -0.0081
 1941SOL    HW117459   3.826   4.188   7.597 -0.5103  0.9090 -0.0668
 1941SOL    HW217460   3.779   4.261   7.717  0.1677  1.3502  0.2218
 1942SOL     OW17461   3.351   3.424   1.572 -0.3947 -0.5283  0.0516
 1942SOL    HW117462   3.282   3.491   1.576  0.5111  0.5148 -1.5860
 1942SOL    HW217463   3.309   3.353   1.621  1.6073 -0.3690  1.9702
 1943SOL     OW17464   2.271   3.436   5.331 -0.9849  0.0961  0.0702
 1943SOL    HW117465   2.183   3.408   5.303 -1.2016  0.8274  0.0404
 1943SOL    HW217466   2.297   3.470   5.245 -2.4767 -1.8887 -1.1785
 1944SOL     OW17467   1.858   0.967   9.410  0.3509  0.0087 -0.0027
 1944SOL    HW117468   1.833   1.007   9.326 -0.4570  0.3246  0.3853
 1944SOL    HW217469   1.941   0.931   9.379 -0.5097 -1.6487 -0.3847
 1945SOL     OW17470   2.089   1.646  12.680 -0.0795  0.4959 -0.0421
 1945SOL    HW117471   2.010   1.625  12.730  1.1282  1.5087  2.2736
 1945SOL    HW217472   2.042   1.670  12.600 -0.2555  0.3550  0.0174
 1946SOL     OW17473   1.742   2.082   2.174 -0.2259  0.2925  0.4153
 1946SOL    HW117474   1.824   2.047   2.209 -0.4023 -1.3430 -0.7813
 1946SOL    HW217475   1.769   2.174   2.177 -0.2545  0.3114  0.1304
 1947SOL     OW17476   4.538   4.516   9.614  0.0284 -0.3647 -1.0337
 1947SOL    HW117477   4.542   4.465   9.533  0.0096 -2.4721  0.2853
 1947SOL    HW217478   4.589   4.591   9.583 -3.6215  3.0599  1.3436
 1948SOL     OW17479   0.328   3.985   1.267  0.1810  0.1859  0.5712
 1948SOL    HW117480   0.272   3.971   1.190  0.4420  1.7220  0.0986
 1948SOL    HW217481   0.325   3.902   1.314 -0.8536  0.4776  1.0102
 1949SOL     OW17482   2.746   1.908  12.826 -0.0850 -0.0808 -0.6723
 1949SOL    HW117483   2.668   1.884  12.776  0.5678  0.5338 -1.9873
 1949SOL    HW217484   2.715   1.904  12.917  2.3876  0.5477  0.2145
 1950SOL     OW17485   2.088   1.291  12.530  0.6173 -0.0280  0.2047
 1950SOL    HW117486   2.136   1.250  12.458 -0.5498 -1.5242  0.2834
 1950SOL    HW217487   2.012   1.232  12.534  1.6506 -1.5181 -2.2996
 1951SOL     OW17488   1.269   0.348   2.767 -0.1503  0.7085  0.0436
 1951SOL    HW117489   1.318   0.290   2.824  1.1748  0.0336 -1.7927
 1951SOL    HW217490   1.194   0.368   2.824 -0.5777 -1.7215  0.3468
 1952SOL     OW17491   1.262   4.606   4.323 -0.1984  0.5915 -0.8304
 1952SOL    HW117492   1.292   4.567   4.406  2.5720 -1.1222 -2.6257
 1952SOL    HW217493   1.263   4.699   4.344 -0.0222  0.0843  1.4038
 1953SOL     OW17494   3.064   1.709   8.249  0.1055  0.1429 -0.1086
 1953SOL    HW117495   2.981   1.757   8.254  0.2736  0.0208  3.5328
 1953SOL    HW217496   3.126   1.783   8.246 -1.3108  1.3575  1.0345
 1954SOL     OW17497   2.931   1.783   3.369  0.2519 -0.5569  0.2671
 1954SOL    HW117498   2.920   1.790   3.274 -0.4504 -0.1924  0.3723
 1954SOL    HW217499   2.841   1.795   3.401 -0.0633 -3.1970  0.3166
 1955SOL     OW17500   3.056   3.041   9.953 -0.1220  0.1494  0.3173
 1955SOL    HW117501   3.047   3.032  10.048 -1.2656  1.3933  0.3183
 1955SOL    HW217502   2.974   3.082   9.927  0.0223 -1.0171 -2.0057
 1956SOL     OW17503   2.459   1.425   6.211 -0.9292 -0.1039  0.0494
 1956SOL    HW117504   2.495   1.338   6.226  0.2315  0.0756 -1.6030
 1956SOL    HW217505   2.484   1.446   6.121 -0.7782 -3.2859 -0.6484
 1957SOL     OW17506   3.952   4.356   2.235  0.3522  0.0050  0.3373
 1957SOL    HW117507   3.924   4.429   2.180  0.7227 -0.5462 -0.5822
 1957SOL    HW217508   3.872   4.337   2.284 -0.7857  0.9139 -1.1515
 1958SOL     OW17509   4.708   3.446   0.253 -0.2463 -0.3633 -0.8231
 1958SOL    HW117510   4.658   3.525   0.231  0.3156 -0.1632 -1.3746
 1958SOL    HW217511   4.654   3.409   0.323 -0.7776 -1.0692 -1.6160
 1959SOL     OW17512   3.019   1.150   7.969  0.0107 -0.1428 -0.3367
 1959SOL    HW117513   2.964   1.209   8.021  1.6197  0.2409  0.9156
 1959SOL    HW217514   3.085   1.203   7.927 -0.8254 -0.2434 -1.7779
 1960SOL     OW17515   1.290   1.681  11.512  0.4263  0.3301 -0.0236
 1960SOL    HW117516   1.218   1.713  11.566  1.6430  0.4350  1.5343
 1960SOL    HW217517   1.350   1.754  11.520 -0.6435  1.3000 -0.8292
 1961SOL     OW17518   1.988   4.496   7.824 -0.0525 -0.2119 -0.5320
 1961SOL    HW117519   2.015   4.497   7.916  1.5499 -1.9739 -0.9759
 1961SOL    HW217520   1.905   4.540   7.842 -0.2804 -1.1073  0.5361
 1962SOL     OW17521   4.217   1.665   8.610 -0.0532 -0.6697 -0.8966
 1962SOL    HW117522   4.272   1.637   8.537 -1.4502 -0.9847 -1.8249
 1962SOL    HW217523   4.158   1.726   8.566 -1.8103 -1.9524 -0.3185
 1963SOL     OW17524   1.058   0.895  16.271  0.5928  0.4462  0.2600
 1963SOL    HW117525   1.063   0.800  16.260 -0.4103  0.3563  0.5214
 1963SOL    HW217526   1.148   0.925  16.266  0.2777  1.0434 -1.7817
 1964SOL     OW17527   3.313   2.788   8.787  0.4246 -0.1946  0.1013
 1964SOL    HW117528   3.222   2.761   8.781 -0.5186  3.1431 -0.5755
 1964SOL    HW217529   3.312   2.857   8.853  0.0183  0.2145 -0.3412
 1965SOL     OW17530   2.297   1.261   5.090  0.4347 -0.1027  0.5632
 1965SOL    HW117531   2.377   1.209   5.084  2.1248  2.3998  1.5517
 1965SOL    HW217532   2.336   1.341   5.055 -0.8660 -0.9555 -2.8465
 1966SOL     OW17533   4.507   3.953   4.173  0.5558  0.3668  0.2013
 1966SOL    HW117534   4.561   3.890   4.221 -0.6890 -0.2556  0.7787
 1966SOL    HW217535   4.467   3.995   4.249  3.3644  0.9251  1.4089
 1967SOL     OW17536   1.901   1.760  12.341 -0.6335 -0.4956  1.2169
 1967SOL    HW117537   1.928   1.680  12.385  0.3322  0.5096  2.4830
 1967SOL    HW217538   1.911   1.729  12.252  0.6367  0.7945  0.9148
 1968SOL     OW17539   1.646   2.406   5.411  0.2390 -0.2910 -0.4148
 1968SOL    HW117540   1.734   2.444   5.417 -1.0607  2.7941 -0.7394
 1968SOL    HW217541   1.621   2.392   5.502 -0.6071  1.0227 -0.4443
 1969SOL     OW17542   1.498   1.700   1.226 -0.1639 -0.1734 -0.0632
 1969SOL    HW117543   1.442   1.631   1.261  0.9839 -1.1123 -0.0704
 1969SOL    HW217544   1.427   1.757   1.196 -1.1454 -1.4728 -0.2278
 1970SOL     OW17545   3.320   0.254   2.112 -0.3279 -0.1926  0.5762
 1970SOL    HW117546   3.347   0.339   2.146 -2.8108  0.8177 -0.0264
 1970SOL    HW217547   3.381   0.229   2.042 -1.5436  1.7596 -1.1486
 1971SOL     OW17548   1.375   3.516  11.394  0.4531  0.2256 -0.1875
 1971SOL    HW117549   1.321   3.492  11.470 -0.7581  0.5344 -0.9491
 1971SOL    HW217550   1.380   3.436  11.342 -0.6249 -0.1033  0.2133
 1972SOL     OW17551   3.365   2.212   0.024  0.1541  0.0636 -0.7135
 1972SOL    HW117552   3.381   2.139   0.085  1.1658 -1.2072 -2.5183
 1972SOL    HW217553   3.329   2.158  17.695  1.1856  0.3262 -1.4437
 1973SOL     OW17554   3.369   0.774  16.719 -0.0794  0.2919 -0.0653
 1973SOL    HW117555   3.384   0.712  16.648 -1.3612  1.2864 -1.2006
 1973SOL    HW217556   3.362   0.854  16.666  0.3557 -0.3331 -1.0644
 1974SOL     OW17557   3.812   3.315   2.528 -0.5381 -0.7194 -0.6957
 1974SOL    HW117558   3.758   3.342   2.454  0.9889  2.7823 -0.5617
 1974SOL    HW217559   3.745   3.296   2.594  0.9062 -1.6211  0.4920
 1975SOL     OW17560   2.887   1.128  12.933  0.2039 -0.4788  0.0567
 1975SOL    HW117561   2.837   1.078  12.869 -1.4508 -0.6861  1.5011
 1975SOL    HW217562   2.821   1.187  12.970  0.5941 -0.4935  0.7793
 1976SOL     OW17563   4.103   1.405   4.944  0.3205 -0.4871 -0.1007
 1976SOL    HW117564   4.160   1.482   4.943 -0.0882 -0.1900 -0.5626
 1976SOL    HW217565   4.032   1.431   5.002  1.0855  3.1161 -0.8199
 1977SOL     OW17566   0.109   0.042   3.694 -0.4491 -0.5193 -0.0512
 1977SOL    HW117567   0.140   4.693   3.724  1.2330 -0.4014 -1.4588
 1977SOL    HW217568   0.035   0.018   3.639  0.5531 -0.4948 -1.3863
 1978SOL     OW17569   1.973   2.673  17.386 -0.3113 -0.2064  0.0349
 1978SOL    HW117570   2.033   2.652  17.457 -0.1498  0.5950  0.1389
 1978SOL    HW217571   1.999   2.617  17.314 -0.4725  0.0446 -0.2196
 1979SOL     OW17572   1.996   1.776   0.662  0.1684 -0.1765  0.2486
 1979SOL    HW117573   2.012   1.851   0.719 -1.3805  2.1745 -2.3935
 1979SOL    HW217574   1.926   1.806   0.604  1.5036  2.0714 -0.2003
 1980SOL     OW17575   1.131   0.920   6.140 -0.6433 -0.3810 -0.2866
 1980SOL    HW117576   1.075   0.996   6.155 -1.0074 -0.7759  0.3543
 1980SOL    HW217577   1.212   0.967   6.119 -0.5408 -0.6793 -0.5654
 1981SOL     OW17578   1.813   3.774   3.033 -0.1903 -0.4260 -0.4588
 1981SOL    HW117579   1.817   3.753   2.940  0.2468  0.7311 -0.7033
 1981SOL    HW217580   1.787   3.689   3.067  1.6513 -0.6049  0.4875
 1982SOL     OW17581   1.001   0.032   3.421  0.5478 -0.3201 -0.5227
 1982SOL    HW117582   1.035   4.710   3.490  1.5013  0.9156  0.0471
 1982SOL    HW217583   1.020   4.722   3.340  1.5197 -0.1896 -0.3712
 1983SOL     OW17584   0.395   4.420   2.393  0.2526  0.0420  0.5668
 1983SOL    HW117585   0.449   4.348   2.362 -1.2610  0.0762 -2.1882
 1983SOL    HW217586   0.456   4.493   2.384 -0.1128  0.5713  2.2414
 1984SOL     OW17587   2.642   3.920  13.532  0.2898  1.2902  0.0079
 1984SOL    HW117588   2.637   3.826  13.513  2.8050  1.4562 -1.5028
 1984SOL    HW217589   2.548   3.939  13.539 -0.2758 -0.7760 -2.0322
 1985SOL     OW17590   3.268   3.891   7.000 -0.0583  0.1985 -0.5734
 1985SOL    HW117591   3.256   3.830   7.072  1.4044  2.4646  1.5592
 1985SOL    HW217592   3.315   3.836   6.936 -0.4593  0.8595 -1.4415
 1986SOL     OW17593   4.007   0.207   4.526 -0.0476  0.5134 -0.1904
 1986SOL    HW117594   4.065   0.132   4.510  0.4302  1.0684 -1.0593
 1986SOL    HW217595   4.068   0.271   4.564 -0.2702  0.2288  0.6553
 1987SOL     OW17596   4.584   1.493   9.498 -0.3922 -0.4953 -0.2439
 1987SOL    HW117597   4.559   1.553   9.428  0.5129  1.2969  0.9743
 1987SOL    HW217598   4.581   1.412   9.448  0.2793 -1.2054  0.8511
 1988SOL     OW17599   0.361   2.630   2.725 -0.1194 -1.1576 -0.1595
 1988SOL    HW117600   0.302   2.705   2.728 -1.1941 -1.9590 -0.9167
 1988SOL    HW217601   0.303   2.560   2.693 -0.2950 -1.0638 -0.0449
 1989SOL     OW17602   3.608   2.370   2.403 -0.0918  0.3453  0.1934
 1989SOL    HW117603   3.551   2.303   2.366  2.2404 -0.6562 -1.5607
 1989SOL    HW217604   3.562   2.393   2.484 -2.0509  0.6928 -1.0227
 1990SOL     OW17605   3.054   3.784   2.506  0.4419 -0.0415  0.2754
 1990SOL    HW117606   3.112   3.738   2.446 -2.2668  0.4496 -2.7341
 1990SOL    HW217607   2.978   3.728   2.519 -0.5980  0.6894 -2.7414
 1991SOL     OW17608   4.530   4.718   8.104 -0.2888  0.7957 -0.2627
 1991SOL    HW117609   4.460   0.022   8.156  1.3037  1.1424  1.6603
 1991SOL    HW217610   4.606   4.718   8.163 -1.1798 -0.5379  0.8790
 1992SOL     OW17611   3.733   4.036   2.674  0.4013 -0.1470  0.2882
 1992SOL    HW117612   3.780   4.115   2.648 -1.1906  0.6524 -0.1730
 1992SOL    HW217613   3.735   3.978   2.597  2.4756  0.7789 -0.3461
 1993SOL     OW17614   0.461   3.625   7.730  0.1242  0.6887  0.7943
 1993SOL    HW117615   0.519   3.550   7.736 -1.5399 -0.6309  0.3695
 1993SOL    HW217616   0.382   3.584   7.766  0.2559  0.7659  1.1671
 1994SOL     OW17617   1.200   1.930  10.642 -0.1137 -0.5838 -0.4292
 1994SOL    HW117618   1.221   1.846  10.601 -1.5229 -1.0373 -0.2209
 1994SOL    HW217619   1.247   1.930  10.725  0.7063 -1.1466 -0.8951
 1995SOL     OW17620   0.881   0.733   8.785  0.3959  0.3915 -0.5531
 1995SOL    HW117621   0.958   0.724   8.729  0.4633 -1.0003 -0.2344
 1995SOL    HW217622   0.897   0.820   8.822  0.6206  0.7970 -1.6087
 1996SOL     OW17623   2.809   0.759   5.581  0.1568 -0.0457 -0.2152
 1996SOL    HW117624   2.898   0.723   5.574 -0.1448 -1.0010  0.7090
 1996SOL    HW217625   2.755   0.726   5.510  0.1493  1.0772 -0.7095
 1997SOL     OW17626   0.659   0.650  12.143 -0.1505 -0.4450 -0.5345
 1997SOL    HW117627   0.618   0.569  12.115  1.7056 -0.9309 -1.8266
 1997SOL    HW217628   0.676   0.687  12.056 -0.6015 -0.2827 -0.5511
 1998SOL     OW17629   0.323   0.834   5.973  0.0007 -0.8524  0.4211
 1998SOL    HW117630   0.356   0.747   5.996  0.2193 -0.7754  0.3906
 1998SOL    HW217631   0.241   0.803   6.012 -0.8470  0.1889 -0.5637
 1999SOL     OW17632   2.085   2.229   6.202  0.1873  0.6927 -0.0171
 1999SOL    HW117633   2.004   2.178   6.206  2.1291 -2.4590 -0.7185
 1999SOL    HW217634   2.055   2.317   6.224  0.3521  1.0409 -1.1866
 2000SOL     OW17635   1.312   2.594   5.099  0.2587 -0.2634 -0.2919
 2000SOL    HW117636   1.234   2.632   5.139  1.2277  0.7863  0.5968
 2000SOL    HW217637   1.381   2.629   5.155 -2.0334  2.2579  0.9601
 2001SOL     OW17638   1.679   3.172   2.236 -0.4019 -0.0681  0.4438
 2001SOL    HW117639   1.743   3.239   2.260  1.1771 -0.9177 -1.3474
 2001SOL    HW217640   1.663   3.193   2.144  0.8643 -0.1419  0.2015
 2002SOL     OW17641   3.850   3.365   6.273  0.3029  0.3078  0.2600
 2002SOL    HW117642   3.762   3.399   6.255  0.8706  1.7586  0.2234
 2002SOL    HW217643   3.849   3.291   6.212 -0.5584  0.2656  0.3138
 2003SOL     OW17644   2.291   2.917  13.471 -0.1484 -0.1414  0.1568
 2003SOL    HW117645   2.337   2.989  13.514  0.6845  0.8323 -2.3536
 2003SOL    HW217646   2.200   2.927  13.498 -0.6096  0.6770 -1.6720
 2004SOL     OW17647   0.114   1.687   2.297  0.0587 -0.2082 -0.0881
 2004SOL    HW117648   0.045   1.741   2.259 -1.4555 -2.0565  0.0710
 2004SOL    HW217649   0.138   1.756   2.360 -1.8260 -1.1245  1.6335
 2005SOL     OW17650   2.450   1.900   1.006 -0.4894  0.4134 -0.0387
 2005SOL    HW117651   2.470   1.971   1.068  0.5837 -0.6262  0.8150
 2005SOL    HW217652   2.514   1.831   1.019  0.7647  1.7865  1.0955
 2006SOL     OW17653   4.539   4.697   6.627  0.1326  0.3050 -0.4147
 2006SOL    HW117654   4.494   4.674   6.546 -0.6853  2.0491 -0.4410
 2006SOL    HW217655   4.604   0.020   6.588 -0.6260  2.2311  1.2130
 2007SOL     OW17656   1.647   3.084   3.862  0.2282  0.0451 -0.1883
 2007SOL    HW117657   1.630   3.162   3.916  4.5595  0.1207  1.0945
 2007SOL    HW217658   1.738   3.059   3.877  0.1877  1.1114  1.7984
 2008SOL     OW17659   2.012   2.235  13.995  0.3092  0.2325  0.4606
 2008SOL    HW117660   2.019   2.231  13.899 -1.5037 -0.6682  0.3609
 2008SOL    HW217661   2.032   2.326  14.017 -1.3968  0.0005  2.9319
 2009SOL     OW17662   4.305   4.341   0.613  0.4731  0.0749  1.4569
 2009SOL    HW117663   4.321   4.272   0.549  0.5295  0.6527  0.8506
 2009SOL    HW217664   4.381   4.398   0.600  0.0233  0.4449  0.5014
 2010SOL     OW17665   2.488   2.205   3.082  0.1993 -0.4230 -0.1936
 2010SOL    HW117666   2.473   2.177   3.173 -2.4495  0.7884 -0.2538
 2010SOL    HW217667   2.513   2.298   3.088 -0.4923 -0.2436 -0.0544
 2011SOL     OW17668   4.316   3.586   2.007  0.2493  0.2177 -0.4778
 2011SOL    HW117669   4.292   3.501   1.970 -0.4341  0.6622 -1.0797
 2011SOL    HW217670   4.258   3.602   2.081 -1.0574  1.9964 -1.8477
 2012SOL     OW17671   2.650   1.934   7.346 -0.1126 -0.1734  0.2765
 2012SOL    HW117672   2.710   2.008   7.336 -1.3317  0.8310  0.4135
 2012SOL    HW217673   2.568   1.967   7.308 -0.7470 -1.5322  0.4672
 2013SOL     OW17674   1.815   0.478   2.809 -0.1295 -0.2134 -0.3749
 2013SOL    HW117675   1.785   0.449   2.723 -0.2356 -0.0030 -0.4093
 2013SOL    HW217676   1.795   0.400   2.860 -0.7573  0.6792  0.7603
 2014SOL     OW17677   2.183   1.385  17.462  0.2617  0.4182 -0.5977
 2014SOL    HW117678   2.219   1.296  17.468 -2.8189 -0.9784 -2.5799
 2014SOL    HW217679   2.095   1.378  17.499  1.3166  0.1567  1.8806
 2015SOL     OW17680   3.146   2.254   2.571  0.4600 -0.0679 -0.0090
 2015SOL    HW117681   3.214   2.237   2.636  1.3502 -3.3576 -1.7904
 2015SOL    HW217682   3.087   2.181   2.590 -0.5120  0.3888 -1.2332
 2016SOL     OW17683   1.637   1.162   6.464 -0.7525  0.1611 -0.6067
 2016SOL    HW117684   1.622   1.248   6.503  0.1778 -0.1535  0.4500
 2016SOL    HW217685   1.550   1.142   6.428 -0.6423 -1.3686 -0.0520
 2017SOL     OW17686   3.472   2.187   2.271 -0.5306 -0.1070 -0.0092
 2017SOL    HW117687   3.549   2.135   2.247 -0.5794 -0.7355  1.1640
 2017SOL    HW217688   3.432   2.206   2.187  1.3856  0.5018 -0.7865
 2018SOL     OW17689   3.611   0.659  11.931 -0.5344  0.1882  0.1826
 2018SOL    HW117690   3.526   0.616  11.925 -1.5906  2.3107 -0.2736
 2018SOL    HW217691   3.586   0.744  11.894 -1.7372  0.6609  2.0893
 2019SOL     OW17692   1.370   3.700   7.464  0.2620 -0.4312  0.3921
 2019SOL    HW117693   1.319   3.620   7.481 -2.7776  1.2315 -0.9349
 2019SOL    HW217694   1.310   3.751   7.410  0.0551 -0.6573  0.4055
 2020SOL     OW17695   4.517   1.768   5.268  0.5671  0.2286 -0.2122
 2020SOL    HW117696   4.516   1.801   5.358  0.3174 -0.0187 -0.1260
 2020SOL    HW217697   4.493   1.840   5.210 -1.7441  0.4706  1.0504
 2021SOL     OW17698   1.453   1.518   2.777 -0.0115  0.0571  0.9232
 2021SOL    HW117699   1.517   1.535   2.847  0.9125  0.5946 -0.0566
 2021SOL    HW217700   1.470   1.425   2.764  0.6541  0.1830  0.8866
 2022SOL     OW17701   3.294   1.293   2.898 -0.2440 -0.5067  0.4632
 2022SOL    HW117702   3.266   1.314   2.987  1.7850  2.5927  0.3863
 2022SOL    HW217703   3.251   1.208   2.893  0.8067 -1.0632  0.8826
 2023SOL     OW17704   1.046   2.725   5.979  0.2222 -0.1562  0.0654
 2023SOL    HW117705   1.074   2.681   6.059 -1.9852 -0.0665  0.8656
 2023SOL    HW217706   0.972   2.782   6.000  0.0330 -0.1375 -0.6603
 2024SOL     OW17707   3.356   0.787   3.441 -0.1614 -0.2853 -0.7411
 2024SOL    HW117708   3.413   0.784   3.517  1.1151  0.6523 -1.6704
 2024SOL    HW217709   3.408   0.736   3.379 -1.4388  1.1429 -3.0232
 2025SOL     OW17710   0.635   0.391   6.994  0.2161 -0.3336 -0.3945
 2025SOL    HW117711   0.542   0.381   7.014  0.9014  2.4515  4.0761
 2025SOL    HW217712   0.663   0.337   7.067  0.7565  0.5432  0.0394
 2026SOL     OW17713   2.435   4.163   1.353 -0.4236 -0.1929 -0.0556
 2026SOL    HW117714   2.419   4.111   1.275  1.3687 -0.4515 -0.2404
 2026SOL    HW217715   2.482   4.233   1.308  0.8761 -1.1709 -0.2213
 2027SOL     OW17716   0.548   0.410   9.104  0.4616 -0.3248  0.5327
 2027SOL    HW117717   0.588   0.416   9.191 -1.3471  1.1597  1.2754
 2027SOL    HW217718   0.602   0.345   9.059  0.2658 -0.3204  0.2895
 2028SOL     OW17719   3.098   3.219   7.090 -0.3462  0.0023  0.3790
 2028SOL    HW117720   3.134   3.265   7.166  0.8197  0.2069 -0.2944
 2028SOL    HW217721   3.175   3.168   7.065 -0.4607 -0.3710  0.7986
 2029SOL     OW17722   4.540   1.560   2.661 -0.4699  0.3642  0.5002
 2029SOL    HW117723   4.494   1.549   2.577  0.3728  2.7555 -0.2800
 2029SOL    HW217724   4.614   1.618   2.641 -0.3920 -0.2626 -1.0021
 2030SOL     OW17725   3.813   1.378   6.062 -0.1658 -0.0232 -0.2886
 2030SOL    HW117726   3.871   1.322   6.011 -0.1991 -1.0223  0.7616
 2030SOL    HW217727   3.859   1.396   6.145 -0.1052 -0.3723 -0.2491
 2031SOL     OW17728   3.448   2.373  14.823  0.3761  0.0716  0.2140
 2031SOL    HW117729   3.394   2.448  14.848  0.0823  0.2921 -1.0875
 2031SOL    HW217730   3.381   2.310  14.796 -0.6123  1.0086  0.4606
 2032SOL     OW17731   2.534   0.047   4.198 -0.0670  0.0643  0.0157
 2032SOL    HW117732   2.551   0.128   4.151  0.4820 -0.4995 -0.7531
 2032SOL    HW217733   2.585   4.719   4.148  0.9289 -0.0961  1.2182
 2033SOL     OW17734   1.599   1.878  11.313 -0.0028  0.3320  0.2521
 2033SOL    HW117735   1.567   1.834  11.392 -2.6478 -0.3153 -1.1799
 2033SOL    HW217736   1.653   1.946  11.352  1.0569 -1.3697  1.7634
 2034SOL     OW17737   0.407   0.137   4.844 -0.1499  0.1557  0.2541
 2034SOL    HW117738   0.485   0.182   4.878 -1.1901  1.5952  0.7323
 2034SOL    HW217739   0.396   0.187   4.764 -0.0782  0.0459  0.1748
 2035SOL     OW17740   3.576   2.025   3.490 -0.3511  0.0881 -0.0500
 2035SOL    HW117741   3.610   2.068   3.568 -0.8968 -1.4002  1.0109
 2035SOL    HW217742   3.621   1.941   3.478  0.6394  0.6859 -0.4782
 2036SOL     OW17743   0.978   1.700   4.207  0.1545  0.4388 -0.2833
 2036SOL    HW117744   0.977   1.716   4.113  0.2449 -0.5861 -0.4578
 2036SOL    HW217745   1.032   1.622   4.212  0.0037  0.3174 -0.5668
 2037SOL     OW17746   3.524   0.232   6.850  0.1276 -0.0985 -0.8327
 2037SOL    HW117747   3.497   0.143   6.873  1.3468  0.2397  1.8367
 2037SOL    HW217748   3.619   0.236   6.857 -0.1757 -2.4166  4.3299
 2038SOL     OW17749   4.388   3.332   7.207 -0.4480 -0.5842 -0.2995
 2038SOL    HW117750   4.393   3.266   7.138  3.3221 -0.4574 -0.0991
 2038SOL    HW217751   4.356   3.408   7.159  0.3181  0.3379  0.6679
 2039SOL     OW17752   0.330   1.579  13.806  0.0243 -0.3676 -0.6423
 2039SOL    HW117753   0.290   1.603  13.722  3.6792 -1.5203 -2.7397
 2039SOL    HW217754   0.255   1.611  13.856 -0.8124 -1.9692 -0.8560
 2040SOL     OW17755   3.228   0.148  10.138 -0.3672  0.2735 -0.0287
 2040SOL    HW117756   3.215   0.054  10.152 -1.4984  0.5804  0.9840
 2040SOL    HW217757   3.142   0.175  10.171 -0.7044 -1.1499  0.2574
 2041SOL     OW17758   4.552   3.761   3.350 -0.3700  0.2845 -0.4391
 2041SOL    HW117759   4.520   3.774   3.260 -1.5164  3.7738  0.4495
 2041SOL    HW217760   4.469   3.749   3.396 -0.2854 -0.8744 -0.5902
 2042SOL     OW17761   1.698   2.720   5.547  0.5155 -0.5641 -0.0134
 2042SOL    HW117762   1.754   2.649   5.579  1.1492 -0.1808 -0.2636
 2042SOL    HW217763   1.618   2.716   5.598  0.8345 -0.9921  0.4527
 2043SOL     OW17764   3.104   2.535   4.689 -0.3692 -0.4231  0.4163
 2043SOL    HW117765   3.162   2.502   4.620  0.7873 -0.6361  1.4857
 2043SOL    HW217766   3.019   2.544   4.646 -0.1109 -3.0492 -0.6766
 2044SOL     OW17767   1.824   0.758   4.046  0.0121  0.1003 -0.4260
 2044SOL    HW117768   1.863   0.842   4.071 -0.4261  0.2556 -0.2769
 2044SOL    HW217769   1.814   0.761   3.951  2.9175  1.2776 -0.7105
 2045SOL     OW17770   1.836   0.977   3.000 -0.0428  0.0903  0.7768
 2045SOL    HW117771   1.893   0.952   3.073  3.0301  0.7697 -1.3620
 2045SOL    HW217772   1.876   0.917   2.937  0.2516  0.5868  0.4902
 2046SOL     OW17773   0.774   3.989   7.584 -0.0246 -0.1417 -0.0360
 2046SOL    HW117774   0.741   3.931   7.516  0.8852 -1.6882  0.8408
 2046SOL    HW217775   0.796   4.065   7.531 -1.8888  0.2113 -0.2935
 2047SOL     OW17776   3.702   2.118   2.602 -0.0177 -0.7959  0.1999
 2047SOL    HW117777   3.760   2.192   2.584 -0.6802 -0.5038 -0.7097
 2047SOL    HW217778   3.664   2.140   2.687  0.1166 -3.3976  0.9542
 2048SOL     OW17779   4.659   0.678   4.254  0.7325 -0.3626 -0.3849
 2048SOL    HW117780   4.696   0.643   4.173 -0.8671 -1.3880 -0.6679
 2048SOL    HW217781   4.676   0.772   4.250  1.7717 -0.5183  0.3516
 2049SOL     OW17782   0.274   1.629   3.235  0.1862  0.4935  0.5003
 2049SOL    HW117783   0.211   1.701   3.229  0.7470  1.0122  0.7608
 2049SOL    HW217784   0.262   1.614   3.328  0.5826 -1.4812  0.2339
 2050SOL     OW17785   2.730   1.851   5.883  0.3642 -0.2252  0.7927
 2050SOL    HW117786   2.813   1.898   5.895  2.0681 -2.6701 -1.2246
 2050SOL    HW217787   2.722   1.879   5.793 -0.1878 -0.7533  0.6800
 2051SOL     OW17788   2.089   4.107   3.214 -0.0552 -0.2266  0.3307
 2051SOL    HW117789   2.183   4.109   3.232  0.5856 -0.1997 -2.9212
 2051SOL    HW217790   2.088   4.105   3.118 -0.0774 -0.0928  0.3277
 2052SOL     OW17791   1.437   3.040   4.033 -0.0779  0.2141  0.5320
 2052SOL    HW117792   1.357   2.988   4.026 -0.7696  1.1005  1.8048
 2052SOL    HW217793   1.491   3.012   3.960 -0.6732 -1.9176  0.9235
 2053SOL     OW17794   4.349   0.193   8.246 -0.2578  0.4018  0.6390
 2053SOL    HW117795   4.266   0.153   8.272  0.3470  0.1755  2.2047
 2053SOL    HW217796   4.351   0.257   8.317 -1.3941 -0.5433  1.5150
 2054SOL     OW17797   3.755   2.589   0.249 -0.2188 -0.4188 -0.7264
 2054SOL    HW117798   3.825   2.649   0.275 -1.0516  0.1759  0.1185
 2054SOL    HW217799   3.682   2.652   0.248  0.9871  0.9901 -0.7312
 2055SOL     OW17800   2.076   0.413   6.006 -0.4467  0.0459 -0.3703
 2055SOL    HW117801   2.086   0.501   5.968 -1.3168 -0.0521 -0.8138
 2055SOL    HW217802   2.170   0.397   6.018 -0.4353 -0.0258 -0.5528
 2056SOL     OW17803   1.019   4.411  13.194 -0.0950 -0.0743  0.1128
 2056SOL    HW117804   1.077   4.470  13.147 -2.7926 -0.1542 -3.3174
 2056SOL    HW217805   0.947   4.470  13.219 -0.7013 -0.0226 -1.7707
 2057SOL     OW17806   3.642   1.239  16.459 -0.1067 -0.6881  0.1568
 2057SOL    HW117807   3.701   1.248  16.385 -0.1233  2.5364  0.5066
 2057SOL    HW217808   3.614   1.148  16.453  1.4872 -1.2849  2.1074
 2058SOL     OW17809   3.949   3.262   8.757 -0.0344  0.0323 -0.6456
 2058SOL    HW117810   3.932   3.293   8.846  0.4835 -1.3438 -0.0659
 2058SOL    HW217811   3.908   3.176   8.754  2.9758 -1.3940 -1.7444
 2059SOL     OW17812   1.301   0.138  11.946 -0.0773  0.1590  0.2441
 2059SOL    HW117813   1.327   0.173  12.031 -0.6993  0.7775  0.1815
 2059SOL    HW217814   1.383   0.106  11.909 -1.4145 -3.2793  0.2554
 2060SOL     OW17815   0.065   0.395   9.126  0.3607 -0.1382 -0.2490
 2060SOL    HW117816   0.136   0.449   9.161 -0.1230  0.3282  0.0153
 2060SOL    HW217817   0.006   0.376   9.199 -0.3730  0.9354 -0.5669
 2061SOL     OW17818   2.579   2.844   3.324 -0.7078 -0.2627  0.1348
 2061SOL    HW117819   2.580   2.922   3.379  0.2178 -0.4480  0.3813
 2061SOL    HW217820   2.613   2.777   3.384  0.1005 -0.7103 -0.8293
 2062SOL     OW17821   0.846   4.427   2.460 -0.4285  0.6591  0.0771
 2062SOL    HW117822   0.844   4.351   2.402 -0.1707 -0.9064  2.1475
 2062SOL    HW217823   0.915   4.473   2.412 -0.9639 -1.2541 -2.5523
 2063SOL     OW17824   1.204   2.965  13.932 -0.1767  0.2851 -0.0178
 2063SOL    HW117825   1.226   2.951  14.024  2.3503  0.3087 -0.6156
 2063SOL    HW217826   1.122   3.013  13.926 -1.2778 -1.7209 -1.1924
 2064SOL     OW17827   4.700   0.449   8.602  0.2547 -0.1257  0.0189
 2064SOL    HW117828   0.015   0.480   8.528  1.4051  0.8154  1.1987
 2064SOL    HW217829   0.035   0.432   8.665 -0.7856 -2.5519  0.5423
 2065SOL     OW17830   4.308   3.455   3.826  1.1138  0.5702  0.0156
 2065SOL    HW117831   4.241   3.439   3.760  0.0601  0.5985  1.0778
 2065SOL    HW217832   4.371   3.489   3.762 -0.3327  1.4185 -0.9530
 2066SOL     OW17833   2.402   3.512   8.905 -0.6898  0.5881  0.4170
 2066SOL    HW117834   2.471   3.496   8.970 -0.4293 -0.2893 -0.0665
 2066SOL    HW217835   2.435   3.446   8.843 -1.3978  2.0499 -1.5158
 2067SOL     OW17836   3.259   2.954   4.562  1.0491 -0.3445 -0.1123
 2067SOL    HW117837   3.294   2.890   4.500 -0.5938  0.4031 -1.8088
 2067SOL    HW217838   3.172   2.971   4.525  0.7425 -0.4678  0.5374
 2068SOL     OW17839   2.535   0.798  14.794 -0.1346  1.2374 -0.8672
 2068SOL    HW117840   2.623   0.803  14.831 -0.3335 -1.1241 -0.0678
 2068SOL    HW217841   2.545   0.826  14.703 -0.9979 -1.6929 -1.8564
 2069SOL     OW17842   2.397   2.848   8.522 -0.9135 -0.6680  0.4568
 2069SOL    HW117843   2.383   2.793   8.445 -1.6772  0.4929 -0.2233
 2069SOL    HW217844   2.415   2.935   8.486 -2.6957  0.1822  1.6070
 2070SOL     OW17845   3.938   0.283  15.296  0.2709 -0.3920 -0.1931
 2070SOL    HW117846   3.967   0.248  15.212  0.7529  1.8036 -0.9343
 2070SOL    HW217847   3.906   0.369  15.270  0.1408 -0.6495 -0.9056
 2071SOL     OW17848   0.761   1.097  15.293 -0.1877 -0.0548 -0.1598
 2071SOL    HW117849   0.812   1.178  15.302 -1.5133  0.5816  1.6210
 2071SOL    HW217850   0.746   1.063  15.381 -0.0278 -0.9089 -0.4639
 2072SOL     OW17851   1.038   0.867  14.483 -0.4449  0.0565 -0.0682
 2072SOL    HW117852   1.024   0.774  14.503 -1.5091  0.6514  1.9493
 2072SOL    HW217853   0.960   0.908  14.521 -1.0009 -1.3613  0.3245
 2073SOL     OW17854   2.995   2.592   7.691  0.5085 -0.1429  0.4245
 2073SOL    HW117855   3.023   2.674   7.733  0.4737 -0.1523  0.4662
 2073SOL    HW217856   2.900   2.600   7.681  0.7375  0.5859 -1.0914
 2074SOL     OW17857   1.384   3.259   2.756 -0.1086  0.0191 -0.0171
 2074SOL    HW117858   1.297   3.272   2.718  0.7183 -1.6554 -2.4428
 2074SOL    HW217859   1.441   3.309   2.698 -0.5456 -1.2252 -1.5070
 2075SOL     OW17860   4.418   2.083   8.764  0.2210  0.5568  0.3640
 2075SOL    HW117861   4.497   2.033   8.743 -1.5320 -2.0966 -0.0305
 2075SOL    HW217862   4.396   2.047   8.851  1.2843  2.1881  1.3007
 2076SOL     OW17863   4.608   0.821   8.770 -0.1265 -0.1789 -0.0239
 2076SOL    HW117864   4.596   0.808   8.864 -1.6715 -0.1686 -0.2272
 2076SOL    HW217865   4.550   0.755   8.735 -0.2320 -0.8720  1.4839
 2077SOL     OW17866   0.317   2.264  14.647 -0.0337 -0.4518 -0.2309
 2077SOL    HW117867   0.352   2.336  14.594 -1.6208  1.9406  1.9436
 2077SOL    HW217868   0.252   2.234  14.584  0.6643 -2.1419 -0.1479
 2078SOL     OW17869   2.362   0.419  15.625  0.4705 -0.1277 -0.0700
 2078SOL    HW117870   2.367   0.463  15.540 -0.1554  4.2770  2.1761
 2078SOL    HW217871   2.452   0.427  15.655 -0.0048  2.1633  0.7410
 2079SOL     OW17872   4.311   2.600  11.615 -0.5817  0.0744  0.1741
 2079SOL    HW117873   4.348   2.585  11.702  2.1936 -0.7900 -1.1363
 2079SOL    HW217874   4.270   2.687  11.626 -2.7699 -0.9572  0.1619
 2080SOL     OW17875   2.605   3.317   5.656  0.5755  0.4491 -0.4446
 2080SOL    HW117876   2.530   3.303   5.598 -1.4211 -0.0241  2.2035
 2080SOL    HW217877   2.632   3.401   5.619  2.3233  0.2384  0.3545
 2081SOL     OW17878   0.857   3.956  16.335  0.0933 -0.8659  0.6434
 2081SOL    HW117879   0.836   3.919  16.249  2.8445  0.3343 -0.5376
 2081SOL    HW217880   0.951   3.951  16.318  0.3349  1.9113  1.0685
 2082SOL     OW17881   4.093   2.482   4.814  0.5499 -0.6036 -0.2395
 2082SOL    HW117882   3.999   2.492   4.831  0.4474 -0.5431 -0.8369
 2082SOL    HW217883   4.122   2.492   4.905 -2.3029 -1.0713  0.7214
 2083SOL     OW17884   1.782   3.820   3.969 -0.4090  0.2288 -0.0831
 2083SOL    HW117885   1.804   3.881   4.040  2.3694 -1.4242  0.4451
 2083SOL    HW217886   1.843   3.849   3.901 -0.6004 -0.8353 -0.6984
 2084SOL     OW17887   1.355   4.297   7.834  0.1875 -0.0574  0.2111
 2084SOL    HW117888   1.328   4.210   7.805  0.0700  0.5361 -1.4836
 2084SOL    HW217889   1.440   4.306   7.792  0.3330  1.2178  0.7951
 2085SOL     OW17890   2.157   4.057   2.947  0.0350  0.0225  0.3310
 2085SOL    HW117891   2.252   4.063   2.947  0.0815 -0.7288 -0.9180
 2085SOL    HW217892   2.129   4.118   2.879  0.8413  2.3979  2.1320
 2086SOL     OW17893   3.393   3.672   2.070  0.1915 -0.0850  0.1209
 2086SOL    HW117894   3.422   3.603   2.131 -1.1044 -1.1841 -0.5246
 2086SOL    HW217895   3.339   3.616   2.015 -0.3471 -0.1473  0.7148
 2087SOL     OW17896   3.462   1.705  15.311 -0.5668  0.0855  0.1302
 2087SOL    HW117897   3.491   1.791  15.342 -0.5594 -0.0392  0.4744
 2087SOL    HW217898   3.536   1.652  15.341  0.6250  2.1729  0.8555
 2088SOL     OW17899   2.599   3.827   5.002 -0.3686  0.2336 -0.6422
 2088SOL    HW117900   2.691   3.800   4.999 -0.7005 -0.7976 -1.3122
 2088SOL    HW217901   2.601   3.898   4.938 -0.8965  1.0825  0.2849
 2089SOL     OW17902   0.520   0.183  12.402  0.4340 -0.0741  0.1956
 2089SOL    HW117903   0.488   0.273  12.392  1.0693  0.1181 -0.1367
 2089SOL    HW217904   0.614   0.190  12.387  0.2850  0.0052 -0.7574
 2090SOL     OW17905   0.813   0.407   5.436  0.4317 -0.0406  0.0350
 2090SOL    HW117906   0.744   0.389   5.499  1.7846  2.1593  2.1432
 2090SOL    HW217907   0.776   0.430   5.350  1.8220 -0.2020 -0.6180
 2091SOL     OW17908   4.455   2.538  16.205  0.1733 -0.5427 -0.2642
 2091SOL    HW117909   4.371   2.581  16.191  1.0004  0.7118 -1.4109
 2091SOL    HW217910   4.509   2.580  16.138  1.1676 -1.8882 -0.3082
 2092SOL     OW17911   1.960   4.599   7.437 -0.3726  0.1534  0.1004
 2092SOL    HW117912   2.021   4.660   7.478 -0.0210  0.9120 -1.5152
 2092SOL    HW217913   2.014   4.578   7.361  0.8855  0.0565  1.0233
 2093SOL     OW17914   0.390   1.547   3.849  0.4421  0.0052 -0.1625
 2093SOL    HW117915   0.401   1.471   3.793  0.3385 -0.8968  1.0233
 2093SOL    HW217916   0.475   1.590   3.858 -0.1580  0.3030  4.0993
 2094SOL     OW17917   0.912   3.602   5.566  0.2983 -0.1334  0.5783
 2094SOL    HW117918   0.847   3.602   5.496 -0.4110  2.2975  1.2028
 2094SOL    HW217919   0.870   3.569   5.646 -0.9215  1.8338  0.7524
 2095SOL     OW17920   4.684   4.073  14.275 -0.5413 -0.0447  0.3678
 2095SOL    HW117921   4.610   4.131  14.257 -0.0931 -0.0556 -1.4802
 2095SOL    HW217922   4.680   4.013  14.201  0.1321  0.1549  0.1786
 2096SOL     OW17923   0.892   1.185   1.794 -0.3126  0.6218  0.4985
 2096SOL    HW117924   0.979   1.221   1.813  0.9155 -1.5469 -0.9181
 2096SOL    HW217925   0.875   1.163   1.885  0.6085  1.1464  0.7978
 2097SOL     OW17926   2.525   2.049   3.897  0.6444 -0.4431  0.1590
 2097SOL    HW117927   2.618   2.030   3.913  1.1610  1.1223 -1.0397
 2097SOL    HW217928   2.498   2.040   3.988  3.0200  0.1945  0.9365
 2098SOL     OW17929   1.292   1.517   3.354 -0.0297  0.4280  0.0502
 2098SOL    HW117930   1.334   1.492   3.271  0.4411  0.6362  0.2259
 2098SOL    HW217931   1.363   1.487   3.410 -1.5164 -1.3372  0.9932
 2099SOL     OW17932   0.037   1.823   7.060  0.0345 -0.4549 -0.2240
 2099SOL    HW117933   0.003   1.740   7.026  0.7203  0.3171 -2.8169
 2099SOL    HW217934   0.029   1.892   6.994 -0.9381 -2.0537 -1.7557
 2100SOL     OW17935   4.725   0.862   5.994 -0.5621  0.1103  0.0943
 2100SOL    HW117936   0.015   0.952   6.012  0.0292 -0.4416  1.9658
 2100SOL    HW217937   0.020   0.813   6.070  0.6722  1.1702  0.2854
 2101SOL     OW17938   3.475   2.493   4.550  0.8907 -0.0604  0.3664
 2101SOL    HW117939   3.383   2.493   4.522  1.0164 -0.4239 -0.0343
 2101SOL    HW217940   3.473   2.427   4.619  3.4045 -1.7301 -1.1591
 2102SOL     OW17941   4.281   4.408   4.280  0.1827  0.2054  0.6950
 2102SOL    HW117942   4.201   4.460   4.269 -0.4680 -0.3659  2.6063
 2102SOL    HW217943   4.237   4.325   4.297  2.2419 -0.5765  2.2615
 2103SOL     OW17944   2.423   0.189   7.545 -0.3157 -0.2672 -0.6590
 2103SOL    HW117945   2.449   0.268   7.499  1.5129 -0.6626 -0.3145
 2103SOL    HW217946   2.453   0.208   7.634 -1.8429 -0.3999 -0.1280
 2104SOL     OW17947   2.103   0.933  10.279  0.2701  0.1873  0.0280
 2104SOL    HW117948   2.120   0.840  10.264 -0.8438 -0.3102  1.8202
 2104SOL    HW217949   2.137   0.964  10.194  0.9096 -0.8501 -0.0859
 2105SOL     OW17950   3.159   3.236   8.243 -0.2450 -0.0988  0.0824
 2105SOL    HW117951   3.121   3.288   8.314 -0.1445 -3.1749  2.3938
 2105SOL    HW217952   3.216   3.170   8.283 -0.2337 -0.0011  0.2272
 2106SOL     OW17953   0.455   0.639   0.670  0.1206  0.5769 -0.2561
 2106SOL    HW117954   0.515   0.565   0.673  0.6857  1.1620  2.7115
 2106SOL    HW217955   0.520   0.705   0.694 -0.1849  0.1643  1.6630
 2107SOL     OW17956   0.729   0.831   5.912 -0.8312  0.1548 -0.2452
 2107SOL    HW117957   0.697   0.850   5.824 -2.1202  0.2303  0.2512
 2107SOL    HW217958   0.749   0.921   5.938  2.1501 -1.1946  2.1510
 2108SOL     OW17959   1.985   2.863   5.049 -0.0776 -0.2534 -0.3198
 2108SOL    HW117960   1.985   2.774   5.085  2.2880 -0.4948 -0.9500
 2108SOL    HW217961   2.073   2.893   5.068 -0.3929 -0.8129  1.9897
 2109SOL     OW17962   2.056   1.311   4.868  0.3795  0.4597 -0.0824
 2109SOL    HW117963   2.125   1.320   4.803  1.3242  1.9865  1.1385
 2109SOL    HW217964   2.112   1.282   4.939  0.0467  0.2411  0.0919
 2110SOL     OW17965   4.327   1.175   5.377  0.1335 -0.0420 -0.1384
 2110SOL    HW117966   4.297   1.228   5.303  0.1728 -1.4885 -1.2027
 2110SOL    HW217967   4.258   1.182   5.443 -2.3832 -1.7856 -2.5850
 2111SOL     OW17968   1.658   4.083   8.015  0.0573 -0.9074 -0.4498
 2111SOL    HW117969   1.683   4.151   8.077  0.9237 -2.6773  1.1311
 2111SOL    HW217970   1.600   4.035   8.074 -1.1765  0.9831 -0.1382
 2112SOL     OW17971   3.132   4.635   2.522  0.6359  0.5014 -0.3176
 2112SOL    HW117972   3.061   4.604   2.466  1.8304 -1.9783 -0.4511
 2112SOL    HW217973   3.082   4.702   2.569  0.7706  0.4387 -0.0838
 2113SOL     OW17974   0.976   0.128   4.286 -0.0768 -0.0461 -0.2193
 2113SOL    HW117975   0.977   0.116   4.381 -0.6826  2.4191  0.1207
 2113SOL    HW217976   0.935   0.215   4.290  0.8631  0.3791  0.1685
 2114SOL     OW17977   4.378   3.819   6.128  0.2657  0.0947 -0.0860
 2114SOL    HW117978   4.461   3.771   6.132 -0.2766 -0.8089  0.4019
 2114SOL    HW217979   4.338   3.807   6.041  1.1790 -0.5449 -0.4190
 2115SOL     OW17980   4.281   3.867   5.755 -0.0560  0.2107  0.5506
 2115SOL    HW117981   4.196   3.842   5.719  0.3488 -1.4899  0.7969
 2115SOL    HW217982   4.320   3.787   5.790 -1.7287 -0.8302  0.0466
 2116SOL     OW17983   1.708   3.411   8.288 -0.2316 -0.6938 -0.2212
 2116SOL    HW117984   1.705   3.411   8.192 -1.6238  0.8979 -0.1908
 2116SOL    HW217985   1.756   3.330   8.303  0.2824 -0.4373 -0.4804
 2117SOL     OW17986   1.902   4.556   4.062  0.2954 -0.5911 -0.1374
 2117SOL    HW117987   1.830   4.550   4.001 -0.6173  2.1573  0.6555
 2117SOL    HW217988   1.869   4.529   4.148  1.0774 -0.9746  0.0439
 2118SOL     OW17989   0.409   2.573   8.682  0.2199  1.0745 -0.5883
 2118SOL    HW117990   0.472   2.607   8.619 -0.8803  1.2747 -1.5850
 2118SOL    HW217991   0.361   2.647   8.719 -1.4672 -0.5776  0.5585
 2119SOL     OW17992   3.908   0.656  17.371 -0.2881 -0.1227 -0.6908
 2119SOL    HW117993   3.953   0.740  17.357  1.6727 -1.0935 -0.2246
 2119SOL    HW217994   3.819   0.675  17.343 -1.0794 -3.4026 -0.4197
 2120SOL     OW17995   3.214   2.446   4.452 -0.1308  0.0304  0.1219
 2120SOL    HW117996   3.128   2.405   4.451  0.0809 -0.4171  0.2383
 2120SOL    HW217997   3.213   2.505   4.376  0.5886  0.0197  0.0955
 2121SOL     OW17998   0.335   3.555   6.659  0.1653 -0.1375 -0.1197
 2121SOL    HW117999   0.273   3.553   6.732  0.1046  1.8462 -0.1082
 2121SOL    HW218000   0.325   3.648   6.636 -0.0411 -0.1893 -0.2410
 2122SOL     OW18001   2.180   2.274   1.731 -0.3127  0.0872  0.3087
 2122SOL    HW118002   2.188   2.201   1.669  1.2755 -0.2139  0.8684
 2122SOL    HW218003   2.147   2.339   1.668 -0.4427 -0.3425 -0.0656
 2123SOL     OW18004   2.884   2.996  10.866 -0.0015 -0.4308 -0.2580
 2123SOL    HW118005   2.915   3.048  10.792  0.1361  1.6059  1.2153
 2123SOL    HW218006   2.903   3.053  10.941 -0.1785 -0.2561 -0.3459
 2124SOL     OW18007   3.725   2.581   1.916 -0.1245  0.0468  0.4891
 2124SOL    HW118008   3.776   2.500   1.912 -0.3259 -0.0779  0.4013
 2124SOL    HW218009   3.655   2.567   1.852  0.1573 -1.3188  0.4653
 2125SOL     OW18010   2.558   2.114   1.152  0.2738  0.3606 -0.1040
 2125SOL    HW118011   2.566   2.137   1.245  1.0785 -1.5506  0.2999
 2125SOL    HW218012   2.491   2.172   1.115  0.1461 -0.2883 -0.8780
 2126SOL     OW18013   4.099   3.444  17.715 -0.2473 -0.1617 -0.0212
 2126SOL    HW118014   4.026   3.392  17.682 -0.4700  0.5061 -0.5751
 2126SOL    HW218015   4.175   3.430  17.658  0.0897 -0.3333  0.4679
 2127SOL     OW18016   3.494   4.673  12.269  0.3143  0.1292  0.5259
 2127SOL    HW118017   3.447   4.714  12.341 -1.1163 -0.6368  0.0331
 2127SOL    HW218018   3.582   4.687  12.303  2.0679 -0.6910 -3.6280
 2128SOL     OW18019   3.239   3.120  15.100  0.0586  0.1553  0.0833
 2128SOL    HW118020   3.307   3.116  15.166 -0.3189 -0.0843  0.4531
 2128SOL    HW218021   3.158   3.088  15.140  0.2162 -0.7653 -0.3514
 2129SOL     OW18022   3.178   1.704   3.356 -0.1620 -0.4093 -0.5606
 2129SOL    HW118023   3.221   1.788   3.370  2.1522 -1.2220 -2.8332
 2129SOL    HW218024   3.087   1.732   3.349  1.0898  3.6045 -0.8769
 2130SOL     OW18025   4.082   3.780   7.308  0.3243 -0.2149  0.1169
 2130SOL    HW118026   4.034   3.800   7.228  3.8077  0.4659 -1.8297
 2130SOL    HW218027   4.105   3.688   7.301 -1.3248 -0.7833  2.0173
 2131SOL     OW18028   3.370   2.293   5.591  0.2278  0.5669 -0.0276
 2131SOL    HW118029   3.340   2.269   5.503  1.1359  1.8615 -0.6964
 2131SOL    HW218030   3.341   2.384   5.587 -1.2704  0.1282  0.9254
 2132SOL     OW18031   2.825   1.868   8.357 -0.2187 -0.0697  0.3028
 2132SOL    HW118032   2.744   1.824   8.383 -2.5070  3.5320 -0.6960
 2132SOL    HW218033   2.848   1.909   8.441 -0.1770 -0.3629  0.4342
 2133SOL     OW18034   4.366   1.771  14.758 -0.4580 -0.2604  0.0024
 2133SOL    HW118035   4.323   1.743  14.677  1.1982 -0.2915 -0.8799
 2133SOL    HW218036   4.454   1.786  14.723 -0.2547  0.2447  0.7332
 2134SOL     OW18037   1.471   1.401  13.027  0.2960  0.2399 -0.3248
 2134SOL    HW118038   1.493   1.399  12.934  2.8203 -0.5455  0.2730
 2134SOL    HW218039   1.482   1.308  13.050  0.4962  0.3552  0.0442
 2135SOL     OW18040   4.385   1.328  14.740  0.5037 -0.2462 -0.4489
 2135SOL    HW118041   4.299   1.287  14.748  0.1350  0.4717 -0.6999
 2135SOL    HW218042   4.442   1.287  14.805  0.1249  0.4294  0.3277
 2136SOL     OW18043   3.118   3.620   7.092  0.2549  0.1699 -0.4553
 2136SOL    HW118044   3.188   3.570   7.050  0.4774  1.0787 -1.1818
 2136SOL    HW218045   3.176   3.670   7.151  1.9035 -2.4308  0.1552
 2137SOL     OW18046   1.965   0.493   8.160  0.1747  0.2692 -0.0977
 2137SOL    HW118047   2.013   0.411   8.170 -0.5937 -0.1483  0.1351
 2137SOL    HW218048   1.960   0.497   8.064 -2.4001 -0.4843  0.0151
 2138SOL     OW18049   3.392   4.105   6.050  0.2454  0.6083  0.6976
 2138SOL    HW118050   3.394   4.058   5.967 -2.0031  0.1106  0.9183
 2138SOL    HW218051   3.474   4.074   6.090 -1.3210 -3.3056  0.8961
 2139SOL     OW18052   3.300   2.831  11.646 -0.1296 -0.3206  0.7150
 2139SOL    HW118053   3.383   2.810  11.689 -0.3258  2.2324  2.3345
 2139SOL    HW218054   3.291   2.749  11.597 -1.4293  0.2116  0.0776
 2140SOL     OW18055   1.977   1.801   4.025 -0.3012  0.6308 -0.5257
 2140SOL    HW118056   1.929   1.880   4.052  1.5692  1.3362  0.7857
 2140SOL    HW218057   1.907   1.736   4.028 -0.6480  0.9709 -1.2688
 2141SOL     OW18058   0.762   3.696   3.100  0.5926 -0.6642  0.7755
 2141SOL    HW118059   0.765   3.743   3.184 -0.0344  0.2846  0.2552
 2141SOL    HW218060   0.672   3.665   3.101  0.6675 -0.8469  3.4864
 2142SOL     OW18061   0.514   1.914   3.800  0.0659 -0.7650  0.5452
 2142SOL    HW118062   0.563   1.839   3.834 -0.0334 -1.3302 -0.5550
 2142SOL    HW218063   0.437   1.874   3.760  2.1210 -0.9930 -3.1866
 2143SOL     OW18064   1.688   1.553   8.686 -0.7582 -0.0557  0.0570
 2143SOL    HW118065   1.599   1.564   8.653 -1.0443 -1.6567  0.2564
 2143SOL    HW218066   1.726   1.632   8.649  0.0318 -0.1167  0.7347
 2144SOL     OW18067   3.633   2.244  17.277  0.0927 -0.5754  0.0179
 2144SOL    HW118068   3.575   2.301  17.328  0.9128 -0.1869  0.5052
 2144SOL    HW218069   3.598   2.161  17.307  0.9771 -1.1985 -0.6796
 2145SOL     OW18070   2.576   2.052   2.758 -0.0833 -0.6475 -0.0170
 2145SOL    HW118071   2.614   2.140   2.746 -1.2123 -0.3440 -1.3327
 2145SOL    HW218072   2.587   2.044   2.852  0.2647 -0.3616 -0.0302
 2146SOL     OW18073   2.449   4.455   2.148  0.5033 -0.0255 -0.1094
 2146SOL    HW118074   2.465   4.549   2.154  0.3175  0.0862 -1.4564
 2146SOL    HW218075   2.535   4.421   2.125  1.0162  1.1743  0.0498
 2147SOL     OW18076   1.869   3.262   8.483 -0.2020 -0.3072  0.2592
 2147SOL    HW118077   1.826   3.252   8.568  0.2625  0.2438  0.5565
 2147SOL    HW218078   1.958   3.289   8.502 -0.0278 -0.2421 -0.6451
 2148SOL     OW18079   0.792   4.037   6.901 -0.2900 -0.1025  0.3960
 2148SOL    HW118080   0.719   3.974   6.908  1.3324 -1.8653  1.4396
 2148SOL    HW218081   0.746   4.120   6.886  1.7354  1.1321  1.0834
 2149SOL     OW18082   2.137   1.276   3.824 -0.4168 -0.1520  0.5763
 2149SOL    HW118083   2.098   1.332   3.890 -0.2849 -1.1243  1.4669
 2149SOL    HW218084   2.093   1.192   3.833 -0.3032 -0.0547  1.9897
 2150SOL     OW18085   4.732   2.644  11.296 -0.0479 -0.5099  0.5275
 2150SOL    HW118086   4.694   2.707  11.358 -1.1792  0.6985 -1.4072
 2150SOL    HW218087   0.019   2.571  11.353 -1.1475  0.0141  1.6350
 2151SOL     OW18088   0.045   1.061   8.501  0.0403 -0.0142 -0.1862
 2151SOL    HW118089   0.134   1.027   8.514  0.3593  0.2311 -1.7980
 2151SOL    HW218090   0.004   1.071   8.587 -0.6722 -0.1171 -0.5157
 2152SOL     OW18091   3.194   3.131  17.059 -0.1478 -0.1728 -1.0189
 2152SOL    HW118092   3.180   3.203  16.998 -1.1414 -0.8476 -1.5952
 2152SOL    HW218093   3.152   3.062  17.007  0.4164 -1.6096  0.4091
 2153SOL     OW18094   3.447   0.035   6.255  0.1709 -0.0675  0.4375
 2153SOL    HW118095   3.513   4.718   6.300  0.1057 -0.2576  0.3081
 2153SOL    HW218096   3.452   0.120   6.299 -0.1322 -0.4778  1.2621
 2154SOL     OW18097   3.858   3.249  13.248 -0.8150 -0.1631  0.1808
 2154SOL    HW118098   3.887   3.228  13.337  1.0226  3.3461  0.4250
 2154SOL    HW218099   3.820   3.336  13.259  0.8194  0.5594  0.1453
 2155SOL     OW18100   2.154   2.170   9.440  0.1035  0.0800 -0.7067
 2155SOL    HW118101   2.213   2.095   9.442  0.9857  0.8062  1.1320
 2155SOL    HW218102   2.170   2.190   9.348  2.1772 -1.6236 -0.7082
 2156SOL     OW18103   1.346   4.062  16.194  0.0811  0.6209  0.8939
 2156SOL    HW118104   1.307   4.126  16.134 -1.8311 -1.8971 -0.5171
 2156SOL    HW218105   1.435   4.097  16.192 -0.5383  2.0868 -2.0394
 2157SOL     OW18106   4.578   0.589   9.472  0.1046 -0.1286  0.0441
 2157SOL    HW118107   4.593   0.662   9.532 -1.0294 -0.4411  0.7245
 2157SOL    HW218108   4.500   0.605   9.420 -0.2966  2.1298  1.3381
 2158SOL     OW18109   2.043   1.384   4.306 -0.0976 -0.7242 -0.6369
 2158SOL    HW118110   2.016   1.299   4.339 -0.0934 -0.4168  0.1538
 2158SOL    HW218111   2.137   1.368   4.300  0.2059  1.5082 -2.1973
 2159SOL     OW18112   2.488   2.564   9.301  0.3156 -0.4870 -0.9069
 2159SOL    HW118113   2.454   2.507   9.232 -0.9180  0.1841 -0.8541
 2159SOL    HW218114   2.416   2.619   9.332  2.1136  1.1658  0.3450
 2160SOL     OW18115   0.481   4.251  16.352 -0.1009 -0.7577  0.5380
 2160SOL    HW118116   0.461   4.237  16.259 -0.5282 -0.8156  0.6355
 2160SOL    HW218117   0.576   4.246  16.350  0.0425  2.3833 -0.0241
 2161SOL     OW18118   2.677   3.626   1.862  0.2602 -0.4550  0.0415
 2161SOL    HW118119   2.611   3.564   1.894  1.4155 -1.3665  0.6206
 2161SOL    HW218120   2.693   3.599   1.772 -2.0165  2.6139 -1.2857
 2162SOL     OW18121   4.573   1.556   5.114  0.6207 -0.4558 -0.2450
 2162SOL    HW118122   4.574   1.625   5.181 -1.1791  0.1017 -0.7722
 2162SOL    HW218123   4.478   1.554   5.099  0.5116  1.6972  0.1229
 2163SOL     OW18124   4.362   3.811   6.953  0.0671  0.1258  0.2997
 2163SOL    HW118125   4.272   3.836   6.935 -0.1468 -0.8509 -0.0100
 2163SOL    HW218126   4.397   3.878   7.011  1.5374  0.6924 -1.2134
 2164SOL     OW18127   3.778   4.525   8.996  0.6356  0.3963 -0.3222
 2164SOL    HW118128   3.703   4.495   9.048  2.3575  0.7461  2.3090
 2164SOL    HW218129   3.785   4.459   8.926 -1.8184  0.1252 -0.3150
 2165SOL     OW18130   3.475   0.900   9.953  0.4213  0.0004 -0.0004
 2165SOL    HW118131   3.463   0.957  10.029 -0.2407 -2.2814  1.6023
 2165SOL    HW218132   3.421   0.824   9.972  2.5386 -1.8315 -1.3025
 2166SOL     OW18133   4.569   2.602   6.535  0.3797  0.2788  0.3309
 2166SOL    HW118134   4.544   2.554   6.614 -1.7886  0.3969 -0.2814
 2166SOL    HW218135   4.615   2.532   6.490  0.6458  0.5817  0.1343
 2167SOL     OW18136   0.465   0.771   3.734 -0.4828 -0.1092 -0.1074
 2167SOL    HW118137   0.402   0.765   3.806 -0.6285  0.3751 -0.1947
 2167SOL    HW218138   0.534   0.799   3.794 -0.0540 -0.6222 -0.3597
 2168SOL     OW18139   0.760   0.327  12.401 -0.0077  0.1550  0.3568
 2168SOL    HW118140   0.771   0.343  12.307  1.1212 -0.7533  0.3232
 2168SOL    HW218141   0.840   0.283  12.430  0.9550 -0.1042 -2.6449
 2169SOL     OW18142   1.106   0.192   8.579 -0.1153  0.4887  0.6683
 2169SOL    HW118143   1.098   0.220   8.670  1.5119  2.7328  0.1227
 2169SOL    HW218144   1.019   0.151   8.571  0.8952 -1.3550 -0.8560
 2170SOL     OW18145   0.178   0.571   1.536 -0.3943  0.0506 -0.3754
 2170SOL    HW118146   0.215   0.549   1.621  0.6360  4.1850  0.2327
 2170SOL    HW218147   0.256   0.572   1.480 -1.3625 -0.7835 -1.7559
 2171SOL     OW18148   2.083   3.059   2.991  0.5899 -0.2113  0.5357
 2171SOL    HW118149   2.119   3.073   2.903  0.8325 -1.7116  0.3852
 2171SOL    HW218150   2.093   2.963   2.992 -2.2305 -0.5138 -0.7189
 2172SOL     OW18151   3.601   3.506   9.006 -0.2754 -0.5929 -0.1343
 2172SOL    HW118152   3.650   3.561   9.066 -3.6116  0.3168  1.7504
 2172SOL    HW218153   3.601   3.435   9.071  0.9972  0.0008  0.5231
 2173SOL     OW18154   2.775   0.816  10.498  0.0443 -0.1695 -0.3225
 2173SOL    HW118155   2.697   0.829  10.552  1.1647  3.2936  0.4645
 2173SOL    HW218156   2.739   0.840  10.412 -0.2092 -1.2055 -0.4997
 2174SOL     OW18157   2.819   3.293   4.157 -0.3369  0.2155 -0.4228
 2174SOL    HW118158   2.872   3.224   4.196 -1.0738 -0.1918 -0.1469
 2174SOL    HW218159   2.835   3.278   4.064  0.3932  0.5330 -0.3440
 2175SOL     OW18160   2.123   2.749  14.509 -0.4338 -0.3937  0.5354
 2175SOL    HW118161   2.109   2.663  14.548 -3.0252 -1.9701 -3.9041
 2175SOL    HW218162   2.180   2.787  14.577 -0.8379 -2.5292  2.0480
 2176SOL     OW18163   4.316   2.063  13.268  0.2508 -0.1296  0.0793
 2176SOL    HW118164   4.321   2.100  13.356 -0.2433  1.9512 -0.7814
 2176SOL    HW218165   4.309   2.145  13.221 -0.6889  2.3022  4.4409
 2177SOL     OW18166   2.488   0.326   6.567 -0.1480 -0.3779 -0.6625
 2177SOL    HW118167   2.529   0.293   6.647 -0.6812  3.6508  1.3225
 2177SOL    HW218168   2.553   0.393   6.546  0.2640 -0.2383  1.0754
 2178SOL     OW18169   4.623   3.013   7.528  0.3637  0.1034  0.3618
 2178SOL    HW118170   4.531   2.986   7.532 -0.6448  3.2353 -1.8768
 2178SOL    HW218171   4.615   3.106   7.510  0.6640 -0.1967 -1.3242
 2179SOL     OW18172   4.449   3.621   6.564  0.2428  0.1225 -0.5948
 2179SOL    HW118173   4.386   3.607   6.493  0.7970 -0.6331 -0.9479
 2179SOL    HW218174   4.511   3.670   6.509 -0.5641 -0.3541 -1.9393
 2180SOL     OW18175   0.739   0.425  14.627 -0.3123 -0.2061 -0.0806
 2180SOL    HW118176   0.722   0.345  14.577 -1.1386 -0.3965  0.5162
 2180SOL    HW218177   0.765   0.489  14.560 -0.1886 -0.2968 -0.1202
 2181SOL     OW18178   0.590   0.492   3.621  0.7737 -0.0769  0.9458
 2181SOL    HW118179   0.592   0.476   3.716 -1.3548 -0.5125  0.9301
 2181SOL    HW218180   0.645   0.570   3.612 -1.1661  1.1711 -0.0798
 2182SOL     OW18181   3.124   3.889   2.758 -0.2473 -0.4476  0.4325
 2182SOL    HW118182   3.125   3.862   2.666 -0.6749  1.4076 -0.1316
 2182SOL    HW218183   3.214   3.921   2.772  0.0494 -0.5857 -1.1352
 2183SOL     OW18184   2.874   3.772   1.557 -0.3559 -0.2006  0.4643
 2183SOL    HW118185   2.923   3.749   1.478  1.3831 -1.4787  1.9169
 2183SOL    HW218186   2.823   3.693   1.573  1.3929 -1.3174  0.5429
 2184SOL     OW18187   1.412   1.970   6.145 -0.0084  0.4647 -0.4168
 2184SOL    HW118188   1.472   2.041   6.167 -1.0714  1.5055 -0.8714
 2184SOL    HW218189   1.397   1.933   6.232  1.6036  0.2757 -0.2227
 2185SOL     OW18190   2.541   3.972   5.562 -0.5285  0.8585  0.0644
 2185SOL    HW118191   2.491   4.027   5.622 -0.1928 -0.9629  2.0430
 2185SOL    HW218192   2.613   4.031   5.540  1.5084 -2.3033 -1.8167
 2186SOL     OW18193   3.208   3.433  14.730 -0.0693  0.7373  0.3669
 2186SOL    HW118194   3.179   3.524  14.728  0.0586  0.7773  0.2910
 2186SOL    HW218195   3.208   3.407  14.638 -0.6593  0.4823  0.4454
 2187SOL     OW18196   2.046   2.002   7.451 -0.6034 -0.2593  0.1097
 2187SOL    HW118197   1.973   1.943   7.470 -1.8929  0.7086 -1.8479
 2187SOL    HW218198   2.124   1.948   7.461  0.3508  0.7715 -1.7906
 2188SOL     OW18199   1.410   1.556   6.324  0.0075 -0.4260 -0.4073
 2188SOL    HW118200   1.384   1.640   6.362 -1.1204 -2.4372  3.3954
 2188SOL    HW218201   1.353   1.503   6.382  1.3375 -1.6219 -0.1889
 2189SOL     OW18202   0.674   1.165   3.497  0.2793 -0.5243  0.3141
 2189SOL    HW118203   0.765   1.147   3.521 -0.2331 -1.4844  1.6112
 2189SOL    HW218204   0.684   1.234   3.433 -1.3301 -0.8445 -0.2788
 2190SOL     OW18205   2.370   3.398   9.755  0.1845 -0.0055  0.4647
 2190SOL    HW118206   2.356   3.486   9.790 -0.1568  0.1238  0.0067
 2190SOL    HW218207   2.283   3.361   9.774 -0.1399  0.3908 -0.2479
 2191SOL     OW18208   2.532   0.744  12.105 -0.5726  0.2426 -0.0054
 2191SOL    HW118209   2.541   0.830  12.065 -1.9079 -0.8919 -2.7425
 2191SOL    HW218210   2.546   0.686  12.030 -0.5599 -0.0299  0.2087
 2192SOL     OW18211   3.900   3.301   6.738 -0.8424 -0.3811  0.5842
 2192SOL    HW118212   3.942   3.276   6.655 -1.4607 -0.7390  0.3758
 2192SOL    HW218213   3.940   3.382   6.768  3.3441 -3.1553  2.5155
 2193SOL     OW18214   2.741   4.671   8.181 -0.3358  0.6451  0.2504
 2193SOL    HW118215   2.789   0.016   8.162  0.7582 -0.2035 -0.5991
 2193SOL    HW218216   2.706   4.677   8.269 -1.0603  0.0640  0.0022
 2194SOL     OW18217   4.723   2.726   9.164  0.2129 -0.9074  0.1906
 2194SOL    HW118218   4.693   2.754   9.250  1.8154 -3.5738  1.6328
 2194SOL    HW218219   4.652   2.772   9.119 -0.0952 -0.4818  1.1174
 2195SOL     OW18220   3.879   4.593   9.290  0.4727  0.2494  0.6938
 2195SOL    HW118221   3.798   4.628   9.253 -0.4882 -2.9457 -0.2939
 2195SOL    HW218222   3.881   4.503   9.256  1.2517 -0.4565  2.5936
 2196SOL     OW18223   4.449   3.632  15.949  0.3488  0.2964 -0.5232
 2196SOL    HW118224   4.407   3.577  15.884  1.3518 -1.0086 -0.0640
 2196SOL    HW218225   4.499   3.565  15.995 -0.5552  1.2410  1.8573
 2197SOL     OW18226   2.136   3.560   1.749  0.4813  0.1922  0.2714
 2197SOL    HW118227   2.194   3.606   1.809 -0.0342 -2.3864  2.7515
 2197SOL    HW218228   2.079   3.628   1.713 -1.3336 -1.4851 -0.0530
 2198SOL     OW18229   1.056   2.708   8.499 -0.0184 -0.2094  0.3070
 2198SOL    HW118230   0.972   2.675   8.529  0.2207 -0.8549  0.2605
 2198SOL    HW218231   1.122   2.657   8.546 -0.6452 -0.8303  0.4982
 2199SOL     OW18232   3.520   3.195   3.557  0.4698  0.1589 -0.0877
 2199SOL    HW118233   3.431   3.160   3.550  0.8987 -1.3814  2.0744
 2199SOL    HW218234   3.505   3.274   3.608 -1.2822 -1.1539  1.4024
 2200SOL     OW18235   3.814   1.032   8.717 -0.3106 -0.2653 -0.3431
 2200SOL    HW118236   3.741   1.012   8.658  0.5525  1.7755 -2.1533
 2200SOL    HW218237   3.821   0.952   8.767 -1.0625 -0.0608  0.0947
 2201SOL     OW18238   4.685   0.357   9.366 -0.2549  0.0210 -0.1680
 2201SOL    HW118239   4.639   0.433   9.402  2.7076  0.1260  3.4588
 2201SOL    HW218240   4.622   0.289   9.345 -1.3319  1.1364 -0.5305
 2202SOL     OW18241   4.409   2.037  16.621  0.0458  0.1566 -0.3875
 2202SOL    HW118242   4.351   2.089  16.564  1.2687  1.5791 -0.3360
 2202SOL    HW218243   4.488   2.061  16.573  0.4011 -1.1691 -0.4544
 2203SOL     OW18244   4.677   2.022  16.091 -0.7611 -0.8652  0.0141
 2203SOL    HW118245   4.630   1.955  16.043  0.3359 -1.5475 -0.0997
 2203SOL    HW218246   0.007   2.058  16.031 -0.5758 -0.6122  0.3662
 2204SOL     OW18247   4.261   0.064   3.283  0.4321  0.3270 -0.2547
 2204SOL    HW118248   4.345   0.108   3.299  0.8195  0.8800 -3.8024
 2204SOL    HW218249   4.223   0.096   3.202 -1.4682 -0.0239  0.4967
 2205SOL     OW18250   3.662   2.457   3.598 -0.3620  0.3461  0.6145
 2205SOL    HW118251   3.586   2.405   3.575  0.4055 -0.3282 -0.3939
 2205SOL    HW218252   3.729   2.389   3.592 -0.3081  0.4332  0.2258
 2206SOL     OW18253   2.582   2.823   4.114 -0.0026  0.3766 -0.1290
 2206SOL    HW118254   2.583   2.838   4.208  1.7081 -0.9923  0.0654
 2206SOL    HW218255   2.491   2.844   4.092 -0.2225  0.9255  1.3287
 2207SOL     OW18256   0.067   1.387   8.670  0.0943  0.6586 -0.1153
 2207SOL    HW118257   0.075   1.408   8.763  2.0556 -0.7560  0.0386
 2207SOL    HW218258   0.030   1.300   8.681  0.4868  0.5981  0.6717
 2208SOL     OW18259   1.723   1.536   7.119 -0.0771 -0.2642 -0.0894
 2208SOL    HW118260   1.774   1.491   7.053 -2.4704 -1.3124 -1.2467
 2208SOL    HW218261   1.669   1.470   7.163  2.0248 -0.7828  1.7239
 2209SOL     OW18262   4.168   2.263   5.408 -0.0725  0.1288 -0.1602
 2209SOL    HW118263   4.225   2.205   5.460 -0.4294 -0.7959 -0.7984
 2209SOL    HW218264   4.180   2.348   5.451 -1.0360 -0.4211  1.2205
 2210SOL     OW18265   1.065   0.597   9.802 -0.2804 -0.8081 -0.2451
 2210SOL    HW118266   1.059   0.643   9.718  1.1887  0.3501  0.2747
 2210SOL    HW218267   1.014   0.650   9.863  0.6401 -0.3090  0.1007
 2211SOL     OW18268   4.619   1.338   8.407  0.4009 -0.0248  0.2166
 2211SOL    HW118269   4.615   1.407   8.341 -0.6197 -2.6097 -2.4301
 2211SOL    HW218270   4.711   1.316   8.415  0.5061  0.6763  1.0181
 2212SOL     OW18271   0.113   2.910   8.792  0.0012  0.0838  0.3085
 2212SOL    HW118272   0.069   2.984   8.749 -0.9491  0.5859  2.1427
 2212SOL    HW218273   0.057   2.838   8.763 -1.5676  2.0375 -1.5632
 2213SOL     OW18274   4.275   3.499   6.774  0.1647  0.2559 -0.0010
 2213SOL    HW118275   4.254   3.421   6.722 -1.7610  1.8956 -1.7165
 2213SOL    HW218276   4.345   3.538   6.722 -2.3551  1.6866 -2.3860
 2214SOL     OW18277   1.666   1.908  17.286 -0.3967 -0.4282  0.0961
 2214SOL    HW118278   1.724   1.900  17.210 -0.3829 -1.7230  0.2477
 2214SOL    HW218279   1.587   1.946  17.247 -0.0389  0.1355 -0.0646
 2215SOL     OW18280   4.197   0.699  12.301  0.3847 -0.2446  0.0219
 2215SOL    HW118281   4.291   0.684  12.293  0.6163  1.2803 -0.1865
 2215SOL    HW218282   4.189   0.752  12.221  0.4480  0.7276  0.6600
 2216SOL     OW18283   3.782   0.018   3.534 -0.3599 -0.1252  0.1438
 2216SOL    HW118284   3.689   4.733   3.544 -0.2762 -0.9301 -0.7283
 2216SOL    HW218285   3.802   4.694   3.462  0.5969  0.4890 -0.0916
 2217SOL     OW18286   4.267   0.802   3.026  0.1542 -0.0730 -0.2268
 2217SOL    HW118287   4.264   0.830   2.934 -0.2825  0.9548  0.1050
 2217SOL    HW218288   4.346   0.748   3.029 -0.4595 -0.9663 -0.1016
 2218SOL     OW18289   4.115   1.854   4.453  0.6070  0.0543  0.4450
 2218SOL    HW118290   4.160   1.930   4.416  2.7415 -1.3386  0.1396
 2218SOL    HW218291   4.116   1.880   4.545  2.9826  0.2105  0.3778
 2219SOL     OW18292   3.561   2.095   6.081 -0.4114 -1.1435 -0.1158
 2219SOL    HW118293   3.560   2.001   6.064 -0.1183 -1.4755  1.7247
 2219SOL    HW218294   3.475   2.121   6.048  0.0999  0.0844 -0.4569
 2220SOL     OW18295   2.502   1.615  17.616  0.9660 -0.4430 -0.4994
 2220SOL    HW118296   2.537   1.532  17.649 -1.6702 -0.6239  1.8051
 2220SOL    HW218297   2.555   1.671  17.673 -0.2049  0.2961 -0.1454
 2221SOL     OW18298   2.842   4.414  15.144 -0.8817  0.2430 -0.2066
 2221SOL    HW118299   2.847   4.406  15.049  0.0736 -2.3201  0.0524
 2221SOL    HW218300   2.820   4.506  15.158 -1.1271  0.0439  0.6900
 2222SOL     OW18301   1.676   1.508   4.401 -0.7637  0.1656  0.6033
 2222SOL    HW118302   1.766   1.536   4.415  0.1745 -1.8456 -1.5353
 2222SOL    HW218303   1.632   1.572   4.458 -1.5133 -0.2105  0.4454
 2223SOL     OW18304   3.818   3.111   1.850 -0.7382 -0.1114  0.2429
 2223SOL    HW118305   3.830   3.016   1.845 -1.3974  0.0402 -3.5958
 2223SOL    HW218306   3.814   3.124   1.945  0.5465 -0.5890  0.3716
 2224SOL     OW18307   1.158   0.271   3.312  0.6289  0.2076 -0.1581
 2224SOL    HW118308   1.202   0.214   3.376  0.9790  0.9216  0.2447
 2224SOL    HW218309   1.105   0.205   3.268 -0.7308  1.1254  0.1251
 2225SOL     OW18310   2.522   4.268  12.244 -0.2267 -0.2203  0.5500
 2225SOL    HW118311   2.468   4.333  12.290 -1.8450 -1.5920  0.5879
 2225SOL    HW218312   2.605   4.305  12.272  0.1549 -0.4655 -0.2775
 2226SOL     OW18313   4.443   3.486   5.700 -0.0095 -0.0058  0.0548
 2226SOL    HW118314   4.384   3.441   5.639 -2.0816  1.4748  0.9677
 2226SOL    HW218315   4.477   3.404   5.737 -0.2479  0.4561  1.2840
 2227SOL     OW18316   4.509   3.726   5.521  0.7914 -0.0269 -0.2185
 2227SOL    HW118317   4.466   3.640   5.526 -0.9240  0.7748 -1.2235
 2227SOL    HW218318   4.565   3.726   5.599  2.6491  0.6708 -1.5581
 2228SOL     OW18319   2.849   2.774   9.479  0.0068 -0.5448  0.0523
 2228SOL    HW118320   2.858   2.751   9.386 -0.2605  1.3873 -0.4581
 2228SOL    HW218321   2.935   2.759   9.516  0.2699 -1.4229 -0.9051
 2229SOL     OW18322   2.067   0.175   2.246 -0.0149 -0.1473 -0.0690
 2229SOL    HW118323   2.004   0.208   2.309 -0.1237 -1.4226  0.4873
 2229SOL    HW218324   2.057   0.234   2.171 -1.4247 -1.3429 -0.8256
 2230SOL     OW18325   2.546   2.193  13.263 -0.1004  0.7461  0.4225
 2230SOL    HW118326   2.625   2.211  13.213  0.0046  0.9586  0.6653
 2230SOL    HW218327   2.556   2.257  13.333  1.1331  0.1470  0.7847
 2231SOL     OW18328   4.650   4.380   5.298  0.3330 -0.2346  0.5478
 2231SOL    HW118329   4.565   4.413   5.271  0.9408  0.4239 -0.5621
 2231SOL    HW218330   4.710   4.443   5.257 -1.7001  0.7129 -0.9281
 2232SOL     OW18331   0.115   4.345   2.919  0.1256  0.1872  0.2105
 2232SOL    HW118332   0.103   4.301   2.835  0.6699  2.7007 -1.1744
 2232SOL    HW218333   0.167   4.280   2.967 -3.1563 -0.1989  3.2618
 2233SOL     OW18334   1.213   1.642   3.058 -0.1298 -0.2737  0.0357
 2233SOL    HW118335   1.201   1.711   2.992  1.0605  0.0600  0.1746
 2233SOL    HW218336   1.304   1.645   3.087 -0.6588  1.9394  1.5037
 2234SOL     OW18337   1.415   1.989   4.813  0.4867 -0.0124 -0.3190
 2234SOL    HW118338   1.464   1.999   4.895 -0.7320  2.3909  0.1265
 2234SOL    HW218339   1.411   2.082   4.792 -1.9171 -0.0222  0.1579
 2235SOL     OW18340   0.867   4.704   2.273 -0.1918 -0.4711  0.0256
 2235SOL    HW118341   0.786   4.674   2.315  0.3941 -0.7986  0.9373
 2235SOL    HW218342   0.915   0.015   2.342 -2.4316  1.4377  0.2657
 2236SOL     OW18343   1.498   2.980   7.122  0.3268  0.2275  0.2033
 2236SOL    HW118344   1.534   3.067   7.104  0.8674 -0.3704 -1.5951
 2236SOL    HW218345   1.405   3.000   7.113  0.2453  0.3459  1.2331
 2237SOL     OW18346   1.934   4.407   5.617  0.0272  0.2917  0.1550
 2237SOL    HW118347   1.876   4.461   5.671  1.2422  0.4679  1.2683
 2237SOL    HW218348   1.873   4.362   5.557 -0.0622  0.0517  0.4294
 2238SOL     OW18349   3.478   2.148  13.416  0.4974  0.0587 -0.3881
 2238SOL    HW118350   3.498   2.066  13.460  2.6020 -0.2363 -1.9075
 2238SOL    HW218351   3.537   2.146  13.341  0.9058  1.9628 -0.1368
 2239SOL     OW18352   2.688   0.407   0.333 -0.0449  0.2406 -0.1429
 2239SOL    HW118353   2.648   0.354   0.264  0.8132  0.0023 -0.4584
 2239SOL    HW218354   2.778   0.376   0.329  0.2466  1.2427 -1.3657
 2240SOL     OW18355   3.639   4.436  11.840  0.2716 -0.2372 -0.1323
 2240SOL    HW118356   3.703   4.483  11.894  1.2111 -0.2102 -1.2639
 2240SOL    HW218357   3.618   4.361  11.896  1.6888 -1.0519 -0.6788
 2241SOL     OW18358   4.183   4.400  10.264 -0.2609  0.5201 -0.3931
 2241SOL    HW118359   4.246   4.466  10.233  2.7193 -1.9198  0.4376
 2241SOL    HW218360   4.215   4.388  10.353 -1.1558 -0.7924 -0.2575
 2242SOL     OW18361   1.926   0.786   3.300 -0.2302  0.2255 -0.2577
 2242SOL    HW118362   2.000   0.791   3.239  0.1616 -1.8234  0.0683
 2242SOL    HW218363   1.872   0.720   3.257  0.8951 -1.0940  0.3713
 2243SOL     OW18364   4.522   2.690   5.737 -0.1482 -0.0118 -0.9045
 2243SOL    HW118365   4.573   2.680   5.656 -2.1834 -1.4258 -2.0005
 2243SOL    HW218366   4.488   2.778   5.728 -0.8450 -0.2325 -0.3371
 2244SOL     OW18367   3.510   1.845  12.303 -0.4031  0.1622  0.3889
 2244SOL    HW118368   3.429   1.800  12.325 -0.5918  1.0955  1.5840
 2244SOL    HW218369   3.521   1.811  12.214  0.0717 -0.5748  0.7346
 2245SOL     OW18370   0.411   3.146  12.270  0.0244  0.1014 -0.0142
 2245SOL    HW118371   0.396   3.159  12.177 -3.3773 -1.0402  0.3546
 2245SOL    HW218372   0.368   3.061  12.285  0.7110 -0.3557 -0.6311
 2246SOL     OW18373   2.550   4.060   9.119  0.4667  0.2879  0.4315
 2246SOL    HW118374   2.591   4.011   9.048 -0.7065  1.7738 -1.3012
 2246SOL    HW218375   2.525   3.979   9.164  3.6468 -2.2343 -2.3606
 2247SOL     OW18376   4.622   1.151   8.731 -0.2064 -0.0020 -0.8877
 2247SOL    HW118377   4.641   1.076   8.787 -1.1277 -1.6788 -2.8199
 2247SOL    HW218378   4.535   1.170   8.766 -0.1221  0.3812 -0.8903
 2248SOL     OW18379   0.455   4.465   2.066 -0.9006  0.4421 -0.4105
 2248SOL    HW118380   0.373   4.508   2.091 -0.1480  2.2271 -0.9760
 2248SOL    HW218381   0.474   4.412   2.143 -0.7066 -0.1104 -0.8388
 2249SOL     OW18382   4.345   1.855   9.360  0.1725 -0.1305 -0.2998
 2249SOL    HW118383   4.293   1.887   9.286  2.1570  2.6376 -0.4720
 2249SOL    HW218384   4.339   1.760   9.349  0.4812 -0.0130 -1.4224
 2250SOL     OW18385   1.342   0.150   8.404 -0.0721 -0.1271 -0.0616
 2250SOL    HW118386   1.276   0.150   8.473  0.4396 -1.8688  0.4218
 2250SOL    HW218387   1.344   0.243   8.382 -0.9433  0.0551  0.6387
 2251SOL     OW18388   3.614   0.512   0.226  0.6513 -0.0931  1.0201
 2251SOL    HW118389   3.662   0.479   0.302  2.9191 -0.8031 -0.7564
 2251SOL    HW218390   3.675   0.488   0.157 -0.1215  0.1378  0.2596
 2252SOL     OW18391   0.729   2.608   8.882 -0.0226  0.0539  0.4917
 2252SOL    HW118392   0.659   2.637   8.941 -0.1856 -0.8966  0.7590
 2252SOL    HW218393   0.792   2.580   8.948  1.2546 -2.2620 -1.7276
 2253SOL     OW18394   2.042   3.926  11.927  0.0376 -0.4335 -0.3036
 2253SOL    HW118395   2.121   3.975  11.903 -0.4349 -0.1582 -1.3076
 2253SOL    HW218396   2.008   3.909  11.839  1.1321  0.5933 -0.9214
 2254SOL     OW18397   3.886   3.378   5.926  0.0090 -0.4315 -0.4374
 2254SOL    HW118398   3.857   3.299   5.973 -0.4631  0.5214  0.8471
 2254SOL    HW218399   3.977   3.385   5.952  0.1757  0.1210 -1.1756
 2255SOL     OW18400   4.591   1.028   4.712  0.0902 -0.0788  0.6071
 2255SOL    HW118401   4.569   0.941   4.746  0.3263 -0.2958  0.2051
 2255SOL    HW218402   4.597   1.007   4.618 -1.9278  0.2519  0.4102
 2256SOL     OW18403   4.531   4.692   2.382  0.8244 -0.0133  0.0666
 2256SOL    HW118404   4.500   4.608   2.349 -0.2978  1.1120 -1.7383
 2256SOL    HW218405   4.471   4.708   2.455  1.0737  1.5825 -0.0689
 2257SOL     OW18406   2.039   1.603  13.369 -0.0306 -0.2064 -0.1479
 2257SOL    HW118407   2.045   1.575  13.277 -0.7319 -0.7774 -0.0243
 2257SOL    HW218408   2.132   1.601  13.390 -0.5254  1.1779  2.1234
 2258SOL     OW18409   2.814   2.440   3.190  0.3941 -0.3612  0.3413
 2258SOL    HW118410   2.799   2.427   3.097  0.9754  0.1502  0.1786
 2258SOL    HW218411   2.818   2.536   3.188  1.5924 -0.4338 -0.7071
 2259SOL     OW18412   1.720   1.706   3.965 -0.8964  0.4700 -0.1001
 2259SOL    HW118413   1.632   1.669   3.954 -0.6912  0.8491 -3.1849
 2259SOL    HW218414   1.698   1.798   3.979 -0.9519  0.2297  1.3812
 2260SOL     OW18415   1.656   3.173  10.601  0.0255 -0.0679  0.3364
 2260SOL    HW118416   1.638   3.266  10.612  3.3006  0.4945  0.9196
 2260SOL    HW218417   1.577   3.137  10.640 -1.1221  1.5861 -0.4887
 2261SOL     OW18418   3.185   2.944   8.435  0.1058 -0.0423 -0.3998
 2261SOL    HW118419   3.240   3.003   8.384  0.2448 -0.5834 -0.8787
 2261SOL    HW218420   3.248   2.876   8.456 -0.7883 -0.7997 -0.1580
 2262SOL     OW18421   2.913   3.927   8.108 -0.3866 -0.9755 -0.3727
 2262SOL    HW118422   2.982   3.861   8.110  0.6398  0.1297  0.8615
 2262SOL    HW218423   2.955   4.012   8.121  0.2171 -1.4450  0.8086
 2263SOL     OW18424   2.695   3.999   1.451 -0.4743  0.6553 -0.1895
 2263SOL    HW118425   2.600   3.990   1.445 -0.1955 -0.7899 -2.3121
 2263SOL    HW218426   2.723   3.912   1.480 -0.8526  1.3105  2.1006
 2264SOL     OW18427   2.169   2.505   5.421  0.3559  0.1867  0.2109
 2264SOL    HW118428   2.229   2.431   5.411  0.3170  0.1057  0.5940
 2264SOL    HW218429   2.215   2.563   5.481 -0.3053  0.0494  0.8577
 2265SOL     OW18430   2.044   1.068   2.362  0.0805 -0.2015 -0.0506
 2265SOL    HW118431   2.040   0.983   2.317  0.0448 -0.2124 -0.0278
 2265SOL    HW218432   2.021   1.051   2.454 -1.3458  1.3922 -0.1297
 2266SOL     OW18433   3.520   2.269   1.976 -0.1058  0.3885 -0.0839
 2266SOL    HW118434   3.435   2.236   1.948  0.7138 -0.8572 -1.0970
 2266SOL    HW218435   3.508   2.363   1.987  3.3262  1.0242 -1.5701
 2267SOL     OW18436   4.376   0.327   6.968 -0.2944 -0.2982 -0.2997
 2267SOL    HW118437   4.462   0.304   6.934 -0.7674  0.2233 -1.8235
 2267SOL    HW218438   4.364   0.253   7.028 -0.3745  0.3191  0.4488
 2268SOL     OW18439   4.569   0.225   6.084 -0.0796  0.4841 -0.3068
 2268SOL    HW118440   4.632   0.259   6.021 -1.3235  1.3637 -1.0792
 2268SOL    HW218441   4.498   0.201   6.025 -0.1277  2.2735 -0.9841
 2269SOL     OW18442   1.723   3.949   5.277  0.4303 -0.1674  0.1417
 2269SOL    HW118443   1.670   3.870   5.270 -0.6024  0.6113 -0.9925
 2269SOL    HW218444   1.665   4.023   5.257  1.9146  1.0755  0.4752
 2270SOL     OW18445   1.404   3.002   6.100 -0.5695 -0.0897 -0.0772
 2270SOL    HW118446   1.392   3.029   6.009  1.5288  2.4975  0.4228
 2270SOL    HW218447   1.441   3.080   6.140  2.4946 -0.7665 -1.5919
 2271SOL     OW18448   2.752   3.619   7.437 -0.0608 -0.1153  0.0061
 2271SOL    HW118449   2.773   3.640   7.346  0.4839  1.2195  0.4385
 2271SOL    HW218450   2.833   3.576   7.465  0.2709  2.0263  2.2719
 2272SOL     OW18451   3.317   2.953   2.169 -0.3838  0.7115  0.0699
 2272SOL    HW118452   3.361   2.896   2.232 -0.4017  0.6284  0.0070
 2272SOL    HW218453   3.277   2.885   2.115  1.3345  0.2082 -0.5682
 2273SOL     OW18454   3.885   3.435  16.263  0.3552 -0.2262  0.4947
 2273SOL    HW118455   3.796   3.407  16.244  1.0355  0.5059 -3.7662
 2273SOL    HW218456   3.940   3.374  16.214  1.0968 -0.6366  1.8329
 2274SOL     OW18457   1.931   2.598   4.408  0.8272 -0.2029  0.0924
 2274SOL    HW118458   1.864   2.638   4.353  0.2566 -0.6196  0.4911
 2274SOL    HW218459   1.881   2.616   4.488  0.8316  2.1458 -0.4191
 2275SOL     OW18460   3.773   0.446   3.766  0.1748  0.6062  0.3057
 2275SOL    HW118461   3.794   0.385   3.695 -1.3918  1.4107 -0.8709
 2275SOL    HW218462   3.727   0.395   3.833 -1.6228 -0.5592 -1.8147
 2276SOL     OW18463   3.568   1.311   2.558  0.7695  0.7797  0.2286
 2276SOL    HW118464   3.580   1.276   2.646  1.1906  0.0815 -0.1081
 2276SOL    HW218465   3.610   1.397   2.565  0.4493  0.8822  0.8209
 2277SOL     OW18466   0.626   1.813   3.322 -0.2134 -0.0086  0.7078
 2277SOL    HW118467   0.575   1.890   3.294 -3.7956 -1.3032  3.7416
 2277SOL    HW218468   0.698   1.812   3.260 -0.4793  0.4560  0.3910
 2278SOL     OW18469   0.596   3.496   6.769 -0.4068 -0.3944 -0.0745
 2278SOL    HW118470   0.573   3.404   6.782 -0.4288 -0.6057 -1.5763
 2278SOL    HW218471   0.519   3.524   6.719 -0.5485 -0.8442 -0.1095
 2279SOL     OW18472   1.705   3.301   4.454  0.0767  0.2146  0.2713
 2279SOL    HW118473   1.623   3.335   4.419 -0.6030  1.0464  2.6981
 2279SOL    HW218474   1.745   3.270   4.373 -0.4545 -3.2159  1.3120
 2280SOL     OW18475   2.353   0.524   3.050 -0.0913  0.1919  0.0668
 2280SOL    HW118476   2.346   0.504   3.144  1.1559 -1.1861 -0.1417
 2280SOL    HW218477   2.346   0.441   3.004  0.0573  0.0528  0.2898
 2281SOL     OW18478   1.961   2.898   8.011 -0.6370 -0.0008  0.2179
 2281SOL    HW118479   1.945   2.871   8.101  0.0153 -0.6949  0.1149
 2281SOL    HW218480   1.886   2.955   7.992 -0.4477  0.2842  0.3132
 2282SOL     OW18481   1.229   3.444   6.874  0.3972  0.3867  0.0892
 2282SOL    HW118482   1.216   3.384   6.948  0.9555 -0.7511 -0.7403
 2282SOL    HW218483   1.145   3.489   6.866  1.6184  2.0360 -3.3616
 2283SOL     OW18484   4.627   3.666   9.043  0.4399  0.1560  0.3621
 2283SOL    HW118485   4.712   3.708   9.037 -0.3978  1.7764 -0.0290
 2283SOL    HW218486   4.569   3.740   9.061  1.7434  1.3068 -0.2647
 2284SOL     OW18487   4.378   2.070   1.988  0.3709 -0.7355 -0.2663
 2284SOL    HW118488   4.337   2.080   2.074 -0.5590  0.7066 -0.8722
 2284SOL    HW218489   4.468   2.089   2.013 -0.6093  2.9869  0.5230
 2285SOL     OW18490   0.876   1.077   4.124 -0.0771  0.5732 -0.4513
 2285SOL    HW118491   0.904   1.075   4.032 -1.3660 -0.8928 -0.8185
 2285SOL    HW218492   0.955   1.114   4.164  0.2494 -1.1511  0.4800
 2286SOL     OW18493   0.732   3.602   6.980  0.2562 -0.1052 -0.5996
 2286SOL    HW118494   0.676   3.678   6.993  0.5860 -0.1192  0.8953
 2286SOL    HW218495   0.683   3.567   6.906  0.3634  0.9066 -1.1384
 2287SOL     OW18496   2.549   1.095   6.130 -0.0169 -0.3263 -0.2398
 2287SOL    HW118497   2.593   1.132   6.053  1.0248 -0.5233  0.2607
 2287SOL    HW218498   2.468   1.081   6.081  0.3692  1.3652 -1.3784
 2288SOL     OW18499   1.878   0.584   7.207  0.3397 -0.2207 -0.0527
 2288SOL    HW118500   1.884   0.501   7.160 -1.9192 -0.7129  0.5293
 2288SOL    HW218501   1.854   0.643   7.135  1.1681  0.1280 -0.0446
 2289SOL     OW18502   0.568   1.885  12.298 -0.1308  0.0015  0.1873
 2289SOL    HW118503   0.503   1.900  12.365 -0.4738  0.2393 -0.1994
 2289SOL    HW218504   0.609   1.971  12.298 -1.1274  0.4620  0.4214
 2290SOL     OW18505   1.919   4.077   5.826 -0.8169 -0.5550  0.0799
 2290SOL    HW118506   1.925   3.986   5.855 -0.4369 -1.2831 -2.2396
 2290SOL    HW218507   1.890   4.066   5.735  2.4968  0.1591 -1.0434
 2291SOL     OW18508   3.707   2.697   2.601  0.5704 -0.1278 -0.4710
 2291SOL    HW118509   3.707   2.691   2.696 -0.9341  0.4724 -0.4344
 2291SOL    HW218510   3.798   2.719   2.583  0.9312 -0.1902  1.3269
 2292SOL     OW18511   1.424   2.098  10.247 -0.1207 -0.2165 -0.2491
 2292SOL    HW118512   1.376   2.101  10.165 -1.1462 -1.7217  0.3082
 2292SOL    HW218513   1.437   2.180  10.295 -0.2679 -0.5812  0.4177
 2293SOL     OW18514   4.580   1.549   3.212  0.5886  0.1941 -0.0193
 2293SOL    HW118515   4.631   1.477   3.248 -1.9232 -0.7441  1.6613
 2293SOL    HW218516   4.643   1.621   3.218  2.4607 -1.1580 -3.2364
 2294SOL     OW18517   4.410   0.558   4.149 -0.4334 -0.3014 -0.0911
 2294SOL    HW118518   4.339   0.600   4.100  1.7038 -0.2273 -3.0973
 2294SOL    HW218519   4.480   0.623   4.158  0.3406 -1.0078 -1.0411
 2295SOL     OW18520   0.356   1.371   2.132 -0.0570  0.3155  0.2412
 2295SOL    HW118521   0.308   1.449   2.104 -0.9736 -0.8783 -1.4735
 2295SOL    HW218522   0.423   1.415   2.185  1.0623 -0.0562 -0.8801
 2296SOL     OW18523   3.210   2.793   4.283 -0.2267  0.2821  0.0428
 2296SOL    HW118524   3.266   2.815   4.209  1.8692 -1.3575  1.1514
 2296SOL    HW218525   3.169   2.877   4.300 -0.5465  0.2938 -0.7749
 2297SOL     OW18526   3.411   3.876   2.686 -0.3058  0.5271  0.2227
 2297SOL    HW118527   3.483   3.838   2.736 -0.2453 -0.4497 -0.6263
 2297SOL    HW218528   3.414   3.824   2.606  2.1648  2.4219 -0.9152
 2298SOL     OW18529   2.566   2.677   5.286  0.2295  0.0314 -0.0316
 2298SOL    HW118530   2.576   2.582   5.282  1.4441  0.1849 -0.4444
 2298SOL    HW218531   2.498   2.678   5.353  0.5861  0.8096  0.3160
 2299SOL     OW18532   3.619   3.076   2.924 -0.1429  0.2316  0.0170
 2299SOL    HW118533   3.536   3.084   2.971 -0.9172 -2.4743 -0.8707
 2299SOL    HW218534   3.637   3.168   2.906 -1.8827  0.1261 -2.1734
 2300SOL     OW18535   1.461   3.451   4.356 -0.4846  0.0530  0.2265
 2300SOL    HW118536   1.424   3.417   4.437  0.2256 -0.4970  0.3281
 2300SOL    HW218537   1.450   3.378   4.294 -1.2278 -0.6554  1.2027
 2301SOL     OW18538   4.454   3.231  12.725  0.1037  0.1017  0.2801
 2301SOL    HW118539   4.491   3.257  12.641  1.0050  0.0082  0.6570
 2301SOL    HW218540   4.373   3.283  12.727 -0.2845 -0.5529  1.3777
 2302SOL     OW18541   1.534   2.420   8.908  0.2756  0.4331 -0.3090
 2302SOL    HW118542   1.479   2.492   8.936  2.1704  1.6274  0.3393
 2302SOL    HW218543   1.559   2.377   8.990  3.4260  1.9024 -0.5076
 2303SOL     OW18544   1.363   0.415   3.927 -0.0762 -0.7805  0.1134
 2303SOL    HW118545   1.418   0.342   3.955  0.1697 -1.0516 -1.0448
 2303SOL    HW218546   1.295   0.368   3.878 -0.4971 -0.9288  0.8370
 2304SOL     OW18547   0.808   2.379  10.166 -0.5650  0.9487  0.3974
 2304SOL    HW118548   0.864   2.418  10.234 -1.5529  2.8746  0.1030
 2304SOL    HW218549   0.750   2.344  10.234  1.7321 -1.7883  0.9314
 2305SOL     OW18550   2.067   1.237   9.335  0.2865 -0.4732  0.4038
 2305SOL    HW118551   2.042   1.289   9.411  0.8917 -1.1051  1.0419
 2305SOL    HW218552   2.145   1.191   9.367  0.4361 -0.7194 -0.3051
 2306SOL     OW18553   3.359   4.307   1.880 -0.1744 -0.2671  0.1932
 2306SOL    HW118554   3.383   4.223   1.839 -1.5132 -0.2455 -0.6499
 2306SOL    HW218555   3.443   4.345   1.905  0.4515 -0.4352 -1.6171
 2307SOL     OW18556   1.245   4.484   4.605  0.4308 -0.3082 -0.5393
 2307SOL    HW118557   1.296   4.406   4.628  0.9863 -0.7821 -3.2998
 2307SOL    HW218558   1.156   4.449   4.591  0.8401 -0.9204 -1.6736
 2308SOL     OW18559   2.194   0.670  17.463  0.8475  0.5500  0.0483
 2308SOL    HW118560   2.270   0.726  17.475  0.6816  0.7670  0.0902
 2308SOL    HW218561   2.189   0.649  17.370  0.8132 -0.6557  0.3206
 2309SOL     OW18562   2.948   2.497  12.568  0.1986  0.0744  0.6679
 2309SOL    HW118563   2.934   2.477  12.476  0.1881 -0.7636  0.8519
 2309SOL    HW218564   3.044   2.502  12.567  0.3234 -2.4951  0.5873
 2310SOL     OW18565   2.986   3.508   7.493  0.2948 -0.1231 -0.2654
 2310SOL    HW118566   3.046   3.434   7.493  1.4234  0.8061 -1.6342
 2310SOL    HW218567   3.047   3.579   7.512 -1.8507  1.7951 -0.5364
 2311SOL     OW18568   4.549   4.070   3.407 -0.6330  0.3600  0.2249
 2311SOL    HW118569   4.480   4.082   3.473  1.4150  1.7859  2.1091
 2311SOL    HW218570   4.609   4.013   3.454 -0.7098  1.1684  1.3385
 2312SOL     OW18571   1.465   1.049   1.048  0.6597 -0.3435  0.3818
 2312SOL    HW118572   1.511   1.031   1.130  0.2735 -2.3444  0.1616
 2312SOL    HW218573   1.383   1.001   1.055 -1.1384  2.7665  0.1423
 2313SOL     OW18574   4.293   0.637  12.896 -0.4691 -0.0562 -0.1560
 2313SOL    HW118575   4.214   0.588  12.873 -1.7394  1.1931  1.4596
 2313SOL    HW218576   4.254   0.713  12.940  1.7800  0.8081  0.3138
 2314SOL     OW18577   0.873   2.986   3.569 -0.0464 -0.4117 -0.5231
 2314SOL    HW118578   0.804   2.922   3.550  0.2887 -1.1494  0.7947
 2314SOL    HW218579   0.946   2.938   3.530  0.0938  1.2075 -2.2710
 2315SOL     OW18580   3.277   2.829   5.604 -0.0051 -0.2353  0.1349
 2315SOL    HW118581   3.317   2.907   5.642  0.9806 -1.0873  0.8449
 2315SOL    HW218582   3.230   2.791   5.678  0.2998  0.5751  0.7547
 2316SOL     OW18583   3.772   2.623   9.962  0.3385  0.4667  0.6698
 2316SOL    HW118584   3.820   2.702   9.983 -0.6560  1.6133 -1.4056
 2316SOL    HW218585   3.796   2.599   9.873  1.1638 -0.6048  1.1807
 2317SOL     OW18586   3.409   1.850  16.191 -0.3061  0.0822 -0.2745
 2317SOL    HW118587   3.349   1.850  16.265  1.1417  1.0700  0.8714
 2317SOL    HW218588   3.447   1.938  16.191  2.6025 -1.1641  0.3258
 2318SOL     OW18589   4.219   4.168  12.939  0.1694  0.2204 -0.2642
 2318SOL    HW118590   4.128   4.171  12.965 -0.0508  1.8799 -1.2354
 2318SOL    HW218591   4.253   4.147  13.026  1.6776 -4.1028 -1.8974
 2319SOL     OW18592   1.464   1.897  15.424  0.0563  0.0109 -0.5829
 2319SOL    HW118593   1.514   1.974  15.396 -1.6392  1.2686 -0.1553
 2319SOL    HW218594   1.526   1.847  15.477 -2.1548 -0.4659  1.5711
 2320SOL     OW18595   1.889   0.559  12.243 -0.1993 -0.0661 -0.6174
 2320SOL    HW118596   1.964   0.596  12.289 -0.8589  1.2639 -0.5937
 2320SOL    HW218597   1.905   0.465  12.250 -0.8753 -0.1984 -0.8473
 2321SOL     OW18598   0.720   4.719   4.869 -0.5340 -0.7494 -0.2544
 2321SOL    HW118599   0.687   4.640   4.827 -0.8592 -1.6071  1.6501
 2321SOL    HW218600   0.695   0.052   4.806 -0.0064 -0.8899 -0.6209
 2322SOL     OW18601   0.472   0.423   7.923  0.2914  0.1305  0.0495
 2322SOL    HW118602   0.461   0.392   8.013 -0.3112  0.9953  0.2720
 2322SOL    HW218603   0.398   0.372   7.891 -0.2713  1.3404 -0.5766
 2323SOL     OW18604   4.687   1.391   5.986 -0.6339 -0.3559  1.0235
 2323SOL    HW118605   0.011   1.358   6.054 -0.9920 -3.5711 -0.2014
 2323SOL    HW218606   4.709   1.480   6.011 -0.8659  0.9095 -3.3699
 2324SOL     OW18607   2.093   3.272   3.851 -0.7001  0.5836 -0.5071
 2324SOL    HW118608   2.186   3.257   3.871 -1.5455 -1.3142  2.0338
 2324SOL    HW218609   2.079   3.357   3.893  2.4284  0.4829  0.7763
 2325SOL     OW18610   0.115   2.161  11.485  0.2886  0.3802  0.7916
 2325SOL    HW118611   0.180   2.137  11.418 -0.5490  3.8150 -1.2383
 2325SOL    HW218612   0.114   2.087  11.546  0.1066 -0.8980 -0.7564
 2326SOL     OW18613   3.551   1.895  11.477 -0.0146 -0.7653  0.4397
 2326SOL    HW118614   3.489   1.965  11.497  1.5941  0.5455  0.7966
 2326SOL    HW218615   3.518   1.873  11.390 -0.1076  0.4113  0.1808
 2327SOL     OW18616   3.453   4.447   9.334 -0.5899 -0.5668 -0.6047
 2327SOL    HW118617   3.538   4.422   9.369  1.3791  2.6807 -3.1361
 2327SOL    HW218618   3.395   4.385   9.377 -0.8173 -1.1830 -1.8049
 2328SOL     OW18619   1.571   0.731   4.118 -0.4207 -0.5580  0.2812
 2328SOL    HW118620   1.664   0.754   4.117 -0.1903 -1.5095 -0.3301
 2328SOL    HW218621   1.547   0.776   4.199 -1.9012  0.6698 -0.8254
 2329SOL     OW18622   2.114   0.238   8.062  0.0986 -0.0561 -0.2374
 2329SOL    HW118623   2.170   0.243   8.139 -0.7805 -0.1650  0.4050
 2329SOL    HW218624   2.168   0.182   8.006 -1.2243 -0.7135 -0.8554
 2330SOL     OW18625   0.023   4.075   8.020  0.0273  0.1873 -0.0619
 2330SOL    HW118626   0.031   4.035   8.107  0.3674  1.1691  0.3619
 2330SOL    HW218627   0.059   4.161   8.043 -1.2102  0.7751 -0.3585
 2331SOL     OW18628   2.974   4.690   5.036 -0.1221 -0.4058 -0.2546
 2331SOL    HW118629   2.949   0.006   5.113 -0.9643 -0.5320 -0.4416
 2331SOL    HW218630   2.894   4.653   4.999 -0.4174 -1.1271  1.1251
 2332SOL     OW18631   0.704   4.485   4.049 -0.7143  0.3676 -0.5497
 2332SOL    HW118632   0.734   4.544   4.118  0.4692 -0.8496 -0.0309
 2332SOL    HW218633   0.652   4.545   3.996 -1.6588  0.2021  0.1786
 2333SOL     OW18634   3.533   2.828   7.397  0.2209  0.2448  0.3382
 2333SOL    HW118635   3.600   2.855   7.461  0.8358 -0.7811  0.1273
 2333SOL    HW218636   3.464   2.799   7.457 -0.0568 -1.7497 -0.9518
 2334SOL     OW18637   2.506   3.502  14.573  0.3661 -0.3453  0.5218
 2334SOL    HW118638   2.442   3.553  14.623  1.3519  1.5621 -0.2086
 2334SOL    HW218639   2.590   3.534  14.604 -0.1672 -0.4356  2.0818
 2335SOL     OW18640   1.716   3.028   8.415 -0.3550  0.5639  0.6294
 2335SOL    HW118641   1.661   3.007   8.491 -1.9954 -1.1675 -1.0175
 2335SOL    HW218642   1.748   3.117   8.429 -1.1897  1.0569 -0.5480
 2336SOL     OW18643   2.115   0.817   3.113 -0.1871 -0.4176  0.2328
 2336SOL    HW118644   2.188   0.818   3.175 -1.1080 -0.6383  1.3131
 2336SOL    HW218645   2.154   0.827   3.026  0.3780 -4.5892  0.0452
 2337SOL     OW18646   4.037   4.332   6.503 -0.3741  0.0321  0.3354
 2337SOL    HW118647   4.125   4.366   6.485  0.3884 -1.7425  0.6392
 2337SOL    HW218648   4.032   4.316   6.597  1.5109 -0.7968  0.3068
 2338SOL     OW18649   4.102   1.232  13.793  0.0757  0.2199 -0.2295
 2338SOL    HW118650   4.085   1.187  13.710  1.5264  1.7457 -1.3297
 2338SOL    HW218651   4.182   1.282  13.775 -0.4052 -0.0097 -3.0447
 2339SOL     OW18652   2.414   4.286   2.591  0.7609  0.4546  0.4121
 2339SOL    HW118653   2.445   4.196   2.602 -1.0131 -0.2066 -0.0383
 2339SOL    HW218654   2.392   4.288   2.498  1.2574 -0.3314  0.2815
 2340SOL     OW18655   2.947   3.107   9.063  0.1418 -0.3635 -0.1543
 2340SOL    HW118656   2.975   3.016   9.047  1.1795 -0.4963  2.3566
 2340SOL    HW218657   2.962   3.118   9.157 -0.9232 -0.8195  0.0682
 2341SOL     OW18658   4.061   3.345   4.163  0.4979 -0.0175 -0.0092
 2341SOL    HW118659   3.980   3.316   4.122  0.8495 -1.2354  0.1399
 2341SOL    HW218660   4.114   3.276   4.123  1.3949 -0.5634  2.0845
 2342SOL     OW18661   2.666   3.053   6.601 -0.5975  0.4236  0.3757
 2342SOL    HW118662   2.610   3.034   6.526 -1.7467  0.8955  1.1065
 2342SOL    HW218663   2.650   2.979   6.659 -2.2177 -0.1946 -0.8713
 2343SOL     OW18664   1.828   4.430   5.048 -0.6310 -0.3301 -0.2356
 2343SOL    HW118665   1.835   4.341   5.012 -1.7489 -0.7041  0.4618
 2343SOL    HW218666   1.920   4.455   5.051 -0.5167 -0.5746 -1.7994
 2344SOL     OW18667   2.823   1.492   8.684  0.2897 -0.4265 -0.4116
 2344SOL    HW118668   2.878   1.540   8.745 -0.1869 -0.7773  0.2933
 2344SOL    HW218669   2.733   1.522   8.696  1.5764  3.1383  0.3045
 2345SOL     OW18670   1.393   3.078   6.546 -0.2774 -0.1789 -0.7611
 2345SOL    HW118671   1.309   3.083   6.499 -0.8691 -0.7611  0.2266
 2345SOL    HW218672   1.411   3.172   6.551  0.0812 -0.2577 -0.6221
 2346SOL     OW18673   1.702   3.040  13.141  0.0892 -0.1089  0.0263
 2346SOL    HW118674   1.796   3.027  13.155 -0.5887 -4.1748  0.7637
 2346SOL    HW218675   1.662   3.029  13.227 -0.0837  0.5643  0.0333
 2347SOL     OW18676   1.444   3.309   9.042 -0.0614  0.1292  0.1196
 2347SOL    HW118677   1.350   3.302   9.059 -0.1681  0.0344 -0.5321
 2347SOL    HW218678   1.433   3.395   9.003  1.3942  0.7029  0.9482
 2348SOL     OW18679   3.851   2.281  14.852  0.1098 -0.0491 -0.8439
 2348SOL    HW118680   3.801   2.362  14.844  1.2015  0.6874 -0.3510
 2348SOL    HW218681   3.821   2.235  14.774 -0.2553 -0.8856 -0.2116
 2349SOL     OW18682   4.244   3.959  15.702 -0.0755 -0.4639  0.1923
 2349SOL    HW118683   4.333   3.938  15.730  0.6139 -0.2464 -1.8148
 2349SOL    HW218684   4.229   4.041  15.749 -1.4910 -0.1983 -0.7048
 2350SOL     OW18685   3.208   1.654   6.738 -0.1501 -0.2103  0.0868
 2350SOL    HW118686   3.262   1.577   6.720  0.2280 -0.1619  1.0088
 2350SOL    HW218687   3.117   1.624   6.740 -0.6359  1.4387  2.3542
 2351SOL     OW18688   0.151   1.733   1.027  0.5104  0.3369 -0.5506
 2351SOL    HW118689   0.168   1.647   1.065 -2.0391 -0.8327 -2.0672
 2351SOL    HW218690   0.057   1.746   1.037  0.5934  0.1782  0.4465
 2352SOL     OW18691   2.036   3.032   6.571 -0.5531 -0.0758  0.7540
 2352SOL    HW118692   2.102   3.006   6.636  0.9585 -1.9037 -1.5026
 2352SOL    HW218693   2.042   3.127   6.572  0.1292 -0.1299  1.8819
 2353SOL     OW18694   1.749   4.255   6.185  0.5056  0.0343 -0.9186
 2353SOL    HW118695   1.684   4.253   6.255 -0.2178  4.9299 -1.4015
 2353SOL    HW218696   1.760   4.164   6.159  0.0982 -0.0926 -0.6438
 2354SOL     OW18697   0.515   0.432  12.048  0.0381  0.0939  0.7735
 2354SOL    HW118698   0.494   0.380  11.970  0.7837  0.3150  0.4192
 2354SOL    HW218699   0.457   0.398  12.115  3.4163 -2.3151  2.5071
 2355SOL     OW18700   2.038   4.569  11.282  0.1679  0.1712  0.0297
 2355SOL    HW118701   2.043   4.567  11.186 -0.5134 -1.2883  0.0241
 2355SOL    HW218702   2.133   4.579  11.288 -0.0225  0.8498  1.8006
 2356SOL     OW18703   2.559   2.490  16.635 -0.0490  0.1756 -0.2865
 2356SOL    HW118704   2.536   2.477  16.728  1.4410 -1.9995 -0.2199
 2356SOL    HW218705   2.626   2.556  16.652 -0.8656  0.9211  0.1001
 2357SOL     OW18706   2.407   4.577   4.634 -0.1593  0.0071 -0.0268
 2357SOL    HW118707   2.341   4.627   4.683  0.0461  0.1318  0.1209
 2357SOL    HW218708   2.422   4.632   4.557 -0.7242  0.0747 -0.0895
 2358SOL     OW18709   3.770   4.587   2.872  0.2534  0.8206  0.4802
 2358SOL    HW118710   3.788   4.679   2.893  0.5825  0.8189  0.2000
 2358SOL    HW218711   3.726   4.600   2.788  0.3819 -1.1805  0.0949
 2359SOL     OW18712   0.807   0.970  14.610  0.0817 -0.1542  0.3076
 2359SOL    HW118713   0.744   0.914  14.565 -0.3059  1.9132 -1.7598
 2359SOL    HW218714   0.745   1.031  14.649  1.1694  1.3843 -0.3620
 2360SOL     OW18715   2.553   0.873  10.269  0.0383  0.5533 -0.3395
 2360SOL    HW118716   2.483   0.812  10.246 -0.8512  1.0519  1.1003
 2360SOL    HW218717   2.518   0.921  10.344  2.7543  0.2230  1.1471
 2361SOL     OW18718   0.792   3.430   4.266 -0.2262  1.0955  0.1711
 2361SOL    HW118719   0.762   3.520   4.274  0.3180  1.3531 -0.7102
 2361SOL    HW218720   0.741   3.393   4.339  3.1450 -1.6505  1.1207
 2362SOL     OW18721   2.981   2.500   9.608 -0.1517  0.2363 -0.2320
 2362SOL    HW118722   3.058   2.464   9.564  0.0966  1.4544 -0.8049
 2362SOL    HW218723   3.017   2.582   9.643  0.7715  0.1868 -1.0589
 2363SOL     OW18724   3.247   2.855   6.915 -0.2107 -0.7919 -0.4771
 2363SOL    HW118725   3.262   2.949   6.927  0.4164 -0.7646 -1.4390
 2363SOL    HW218726   3.332   2.828   6.878  0.3892 -1.4350  1.3839
 2364SOL     OW18727   3.839   2.041  13.479  0.2673 -0.1282 -0.0974
 2364SOL    HW118728   3.895   2.119  13.480  2.5914 -1.8269  1.8216
 2364SOL    HW218729   3.803   2.055  13.391  0.2550 -1.6413 -0.3300
 2365SOL     OW18730   2.438   1.489   7.518  0.3105 -0.2253 -0.7596
 2365SOL    HW118731   2.426   1.574   7.477 -0.1594  0.1571  0.1845
 2365SOL    HW218732   2.513   1.458   7.466  1.0803 -1.5547  1.1584
 2366SOL     OW18733   4.633   3.441   3.358 -0.6062  0.5728 -0.1498
 2366SOL    HW118734   4.545   3.476   3.345  0.2975  3.2162  0.9258
 2366SOL    HW218735   4.677   3.516   3.398 -0.5740  0.2013  0.5119
 2367SOL     OW18736   1.249   3.641   2.582  0.1097 -0.5217  0.0916
 2367SOL    HW118737   1.233   3.551   2.609  1.1351  0.2835  3.3018
 2367SOL    HW218738   1.156   3.663   2.574  0.1410 -0.2154  0.5701
 2368SOL     OW18739   1.608   2.760  17.007 -0.6234  0.5475  0.1822
 2368SOL    HW118740   1.555   2.839  16.999 -0.7059  0.7878  3.0785
 2368SOL    HW218741   1.601   2.731  16.916  3.6231 -2.5209  0.8459
 2369SOL     OW18742   4.594   4.715  13.733 -0.0363  0.2788 -0.3863
 2369SOL    HW118743   4.565   0.065  13.764 -0.0951 -0.0613  0.4874
 2369SOL    HW218744   4.508   4.673  13.741 -0.3183  0.8723 -0.2403
 2370SOL     OW18745   2.953   3.727   6.885  0.2065 -0.0138 -0.2273
 2370SOL    HW118746   3.012   3.684   6.947  1.1022 -0.0556 -1.1098
 2370SOL    HW218747   3.011   3.794   6.847  1.0542 -0.8968 -0.4948
 2371SOL     OW18748   0.223   4.513   1.827 -0.4465  0.2851 -0.4696
 2371SOL    HW118749   0.232   4.564   1.908  1.7902 -1.1969  0.2240
 2371SOL    HW218750   0.283   4.441   1.844  0.8042  1.6014  0.7249
 2372SOL     OW18751   3.967   3.977   6.409  0.1731  0.3769 -0.2055
 2372SOL    HW118752   4.038   3.998   6.470  0.3085  0.6199 -0.4482
 2372SOL    HW218753   4.008   3.916   6.347  0.2893  1.6313 -1.3672
 2373SOL     OW18754   0.426   1.415   4.766  0.3468  0.4442 -0.0044
 2373SOL    HW118755   0.332   1.399   4.752  0.7628 -1.4342 -0.6076
 2373SOL    HW218756   0.439   1.370   4.850 -1.8514  1.4922  0.9025
 2374SOL     OW18757   3.936   0.563   3.255  0.4009 -0.1117 -0.2264
 2374SOL    HW118758   3.964   0.624   3.186  1.5820 -1.8449 -1.2676
 2374SOL    HW218759   3.995   0.490   3.236 -1.1174 -1.5776  0.6915
 2375SOL     OW18760   0.711   1.794  16.035  0.2725 -0.2255 -0.5832
 2375SOL    HW118761   0.784   1.823  15.980  0.1158 -2.3643 -1.9558
 2375SOL    HW218762   0.741   1.811  16.124 -0.0989 -0.4418 -0.4171
 2376SOL     OW18763   2.251   3.679   7.840 -0.3811  0.0520 -0.1424
 2376SOL    HW118764   2.335   3.693   7.883 -0.7375  2.1232 -0.1339
 2376SOL    HW218765   2.261   3.598   7.790  0.0109  1.6621 -2.6624
 2377SOL     OW18766   1.093   2.267   6.950  0.4397  0.0111 -0.2849
 2377SOL    HW118767   1.132   2.230   7.029  0.1242  1.5556  0.5883
 2377SOL    HW218768   1.020   2.316   6.987 -0.7242 -0.9067 -1.3801
 2378SOL     OW18769   1.716   4.237   3.995  0.6581  0.7089 -0.3590
 2378SOL    HW118770   1.699   4.242   4.089  2.3514  1.6484 -0.1032
 2378SOL    HW218771   1.652   4.166   3.983  0.4917  1.0457 -1.5334
 2379SOL     OW18772   0.479   2.989   8.227  0.3690  0.4832 -0.0256
 2379SOL    HW118773   0.497   3.071   8.274 -0.3527  0.6511 -0.0403
 2379SOL    HW218774   0.385   2.981   8.241 -0.0595  1.6886 -2.2528
 2380SOL     OW18775   1.473   4.493   6.185  0.3763  0.3054  0.3144
 2380SOL    HW118776   1.531   4.508   6.260 -0.7351 -1.0226  1.4265
 2380SOL    HW218777   1.464   4.585   6.161 -0.6969  0.3832  1.0075
 2381SOL     OW18778   0.713   3.490   3.439  0.6464  0.2961  0.5502
 2381SOL    HW118779   0.753   3.403   3.442 -0.2217 -0.0491  1.9702
 2381SOL    HW218780   0.791   3.545   3.438  0.0960  1.0872  1.1299
 2382SOL     OW18781   2.207   3.540   2.496  0.3043  0.1436  0.6718
 2382SOL    HW118782   2.161   3.570   2.575  2.3420 -0.6973  2.1644
 2382SOL    HW218783   2.294   3.561   2.529  0.4820  1.2004 -0.4776
 2383SOL     OW18784   0.052   0.309   5.864 -0.0309 -0.1964  0.0726
 2383SOL    HW118785   0.109   0.385   5.858 -0.5940  0.3183  1.3334
 2383SOL    HW218786   0.114   0.243   5.896 -2.0049 -0.4995  3.3071
 2384SOL     OW18787   0.775   4.118  16.099  0.7543 -0.0473 -0.4181
 2384SOL    HW118788   0.690   4.116  16.056 -0.1826  1.6492  1.3374
 2384SOL    HW218789   0.805   4.028  16.090 -0.4520 -0.4277 -0.5666
 2385SOL     OW18790   1.320   2.932   2.311  0.7146 -0.1312  0.1190
 2385SOL    HW118791   1.298   3.010   2.260 -1.9326  0.1360  1.6982
 2385SOL    HW218792   1.286   2.973   2.391  0.2867 -2.8390  1.3192
 2386SOL     OW18793   3.474   3.465   3.617  0.1449  0.1924  0.2994
 2386SOL    HW118794   3.395   3.482   3.668 -0.9694 -1.1635 -1.0125
 2386SOL    HW218795   3.530   3.536   3.651 -1.0400  1.2011  0.1224
 2387SOL     OW18796   1.259   4.158   6.325 -0.1383 -0.4880  0.4535
 2387SOL    HW118797   1.176   4.205   6.326  0.3475  0.3973 -0.5657
 2387SOL    HW218798   1.278   4.155   6.418 -0.4510  0.8055  0.5553
 2388SOL     OW18799   2.880   0.701   0.353  0.1124 -0.8742 -0.0200
 2388SOL    HW118800   2.902   0.613   0.322  2.1707 -0.6882  0.9704
 2388SOL    HW218801   2.836   0.688   0.437  0.5135  0.4664  0.3949
 2389SOL     OW18802   1.039   3.654   9.375  0.1428 -0.0813  0.4143
 2389SOL    HW118803   1.031   3.749   9.372 -2.7727 -0.3411 -0.2565
 2389SOL    HW218804   1.105   3.638   9.443  2.0788 -2.3941 -1.9802
 2390SOL     OW18805   1.058   0.084   6.382 -0.4636 -0.7999 -0.3534
 2390SOL    HW118806   1.121   0.041   6.439  0.8262  2.2784  0.5600
 2390SOL    HW218807   1.101   0.058   6.300 -1.3401  1.1006 -1.4155
 2391SOL     OW18808   0.422   1.418   2.685  0.0644  0.1565 -0.2764
 2391SOL    HW118809   0.488   1.454   2.745  1.1763 -1.4329 -0.5237
 2391SOL    HW218810   0.471   1.407   2.604  1.2678  0.3388  0.4188
 2392SOL     OW18811   4.261   4.134   7.760  0.1251 -0.7875  0.2650
 2392SOL    HW118812   4.244   4.212   7.707 -1.2174 -2.0957 -1.2131
 2392SOL    HW218813   4.202   4.144   7.835  2.0474 -1.2674  1.8541
 2393SOL     OW18814   0.635   1.895   5.917  0.3245  0.5850 -0.0633
 2393SOL    HW118815   0.723   1.894   5.880  0.8803  0.7641  1.2590
 2393SOL    HW218816   0.593   1.833   5.857  1.0615  0.8644 -0.8764
 2394SOL     OW18817   4.717   4.282   2.614  0.1435 -0.3506 -0.2603
 2394SOL    HW118818   0.019   4.196   2.632  4.7837  1.6954 -0.2487
 2394SOL    HW218819   0.041   4.314   2.547 -0.8414  1.1895 -0.4061
 2395SOL     OW18820   1.101   4.547  10.732  0.0015  0.0236 -0.3449
 2395SOL    HW118821   1.016   4.573  10.697  1.1667  3.9746 -0.2476
 2395SOL    HW218822   1.120   4.462  10.693 -2.0457 -0.8750  0.6055
 2396SOL     OW18823   2.766   1.182   0.897  0.4924  0.1528 -0.4602
 2396SOL    HW118824   2.824   1.112   0.865  1.1512 -0.1300  1.3838
 2396SOL    HW218825   2.742   1.232   0.819  0.6687  0.3468 -0.3926
 2397SOL     OW18826   1.729   0.520  10.759  0.0162 -0.3770  0.2495
 2397SOL    HW118827   1.656   0.484  10.810 -0.1096 -1.4946 -0.7096
 2397SOL    HW218828   1.805   0.505  10.815 -0.3660  0.5290  1.0222
 2398SOL     OW18829   1.237   2.336   5.852 -0.3658 -1.0506 -0.1269
 2398SOL    HW118830   1.286   2.254   5.846 -0.3833 -1.0621 -0.1115
 2398SOL    HW218831   1.302   2.387   5.901 -1.6560 -0.1058  0.5941
 2399SOL     OW18832   0.558   2.747   7.260  0.2943 -0.0884 -0.1234
 2399SOL    HW118833   0.565   2.824   7.317  0.8960 -0.6303  0.5317
 2399SOL    HW218834   0.473   2.774   7.226  0.4047  0.2714 -0.1178
 2400SOL     OW18835   2.277   1.317  16.821  0.2531 -0.1753  0.1201
 2400SOL    HW118836   2.372   1.316  16.831  0.1616 -0.3571  0.9672
 2400SOL    HW218837   2.253   1.340  16.911  1.3417  0.2173  0.3117
 2401SOL     OW18838   1.774   1.077   4.055  0.0160 -0.0651  0.7073
 2401SOL    HW118839   1.868   1.079   4.039 -0.0859  1.0809  0.2560
 2401SOL    HW218840   1.760   1.145   4.120  1.1574  0.9269 -0.0840
 2402SOL     OW18841   3.096   1.319  16.590  0.3028 -0.3798 -0.3380
 2402SOL    HW118842   3.056   1.288  16.671 -2.1460  2.8154 -0.3317
 2402SOL    HW218843   3.116   1.232  16.556 -1.2202 -0.1421 -1.8380
 2403SOL     OW18844   1.479   0.740  14.796  0.2654 -0.2536 -0.1648
 2403SOL    HW118845   1.500   0.729  14.888  1.6765 -1.7320 -0.6594
 2403SOL    HW218846   1.550   0.796  14.762  1.1992 -1.6550 -0.5502
 2404SOL     OW18847   1.668   0.416   5.973  0.0239 -0.4179  0.1186
 2404SOL    HW118848   1.662   0.326   5.940  1.1223 -0.7502  0.8065
 2404SOL    HW218849   1.720   0.465   5.910 -1.2330  0.9099  0.1145
 2405SOL     OW18850   0.782   0.551   8.509  0.7793 -0.1443  0.6052
 2405SOL    HW118851   0.746   0.628   8.553  1.3325  0.3346  0.2110
 2405SOL    HW218852   0.846   0.522   8.574 -1.3276 -0.8923  2.3626
 2406SOL     OW18853   3.710   2.852   8.077 -0.2581  0.3472  0.5446
 2406SOL    HW118854   3.624   2.819   8.052 -1.5486  2.5713  2.0471
 2406SOL    HW218855   3.697   2.880   8.167 -2.0803 -2.0579  1.0276
 2407SOL     OW18856   1.314   3.526   3.591  0.5812 -0.4100 -0.1787
 2407SOL    HW118857   1.399   3.567   3.609  0.1462  0.1471  0.6328
 2407SOL    HW218858   1.331   3.469   3.517 -0.1454  2.0654 -2.2644
 2408SOL     OW18859   4.024   3.747   1.315 -0.4343 -0.9259 -0.1852
 2408SOL    HW118860   3.954   3.786   1.367  0.9015  1.2204 -0.0021
 2408SOL    HW218861   3.978   3.729   1.233 -0.6007 -0.0261 -0.2884
 2409SOL     OW18862   1.409   3.515  17.600 -0.2575 -0.1469 -0.1001
 2409SOL    HW118863   1.448   3.558  17.675 -1.6549  0.0601  0.5048
 2409SOL    HW218864   1.475   3.449  17.578 -0.8740 -1.3253  1.6462
 2410SOL     OW18865   1.621   4.384   5.905  0.2426  0.0830  0.3728
 2410SOL    HW118866   1.655   4.302   5.941 -1.3217 -1.4715 -1.7073
 2410SOL    HW218867   1.599   4.437   5.982  0.9553  0.4873  0.2942
 2411SOL     OW18868   1.050   1.839   1.115  0.3552  0.5580 -0.6895
 2411SOL    HW118869   1.045   1.934   1.101  0.7092  0.4236 -1.7236
 2411SOL    HW218870   1.140   1.831   1.147  0.1893 -0.5701 -0.5182
 2412SOL     OW18871   2.905   0.949  15.985  0.1534 -0.4882 -0.0219
 2412SOL    HW118872   2.988   0.925  15.943 -0.0433  1.2315 -1.4296
 2412SOL    HW218873   2.885   0.858  16.007  0.6366 -0.6360 -0.2023
 2413SOL     OW18874   1.175   4.293   5.559  0.5715 -0.2060  0.5680
 2413SOL    HW118875   1.195   4.385   5.539  2.2465 -1.3198 -2.9679
 2413SOL    HW218876   1.090   4.308   5.599 -1.3054 -3.2736 -2.2875
 2414SOL     OW18877   2.486   3.425   1.901 -0.4718  0.3656  0.4265
 2414SOL    HW118878   2.435   3.418   1.820 -2.4071  1.3070  1.5548
 2414SOL    HW218879   2.417   3.403   1.963 -1.8611 -0.4409 -1.3903
 2415SOL     OW18880   1.409   1.483   8.014  0.1120 -0.4353 -0.3117
 2415SOL    HW118881   1.442   1.448   8.096  1.6631  0.1616 -0.6797
 2415SOL    HW218882   1.447   1.571   8.016 -2.2711  0.5591  0.9714
 2416SOL     OW18883   1.243   2.461   9.458 -0.2650 -0.0831 -0.6673
 2416SOL    HW118884   1.237   2.433   9.549  0.6629 -1.5881 -1.0732
 2416SOL    HW218885   1.317   2.410   9.425  0.3797  0.3290  0.1397
 2417SOL     OW18886   2.311   1.156   0.066  0.2264 -0.0401  0.1273
 2417SOL    HW118887   2.344   1.087   0.124  0.7037 -0.5226 -0.7083
 2417SOL    HW218888   2.220   1.126   0.059  0.6087 -0.7631 -1.9019
 2418SOL     OW18889   0.968   4.698  14.318  0.0480 -0.0730 -0.1652
 2418SOL    HW118890   0.897   4.678  14.379 -0.3648  1.5286 -0.1330
 2418SOL    HW218891   1.012   4.614  14.327 -1.6057 -0.6581  2.7509
 2419SOL     OW18892   1.431   3.888   5.423 -0.2045  0.0115 -0.0226
 2419SOL    HW118893   1.376   3.871   5.346 -2.2374 -1.8027  1.8467
 2419SOL    HW218894   1.384   3.966   5.453  0.4818  0.7169 -0.7813
 2420SOL     OW18895   1.827   2.008   5.972  0.5853 -0.0127 -0.1719
 2420SOL    HW118896   1.873   2.032   6.052 -0.9989 -0.1825  0.7948
 2420SOL    HW218897   1.834   1.913   5.972  1.4759  0.0603  2.2568
 2421SOL     OW18898   3.389   2.880  12.503 -0.5568 -0.0087  0.6003
 2421SOL    HW118899   3.475   2.843  12.523  0.0549  0.4629 -1.1884
 2421SOL    HW218900   3.339   2.799  12.510  0.2438 -0.6292 -0.8240
 2422SOL     OW18901   3.336   3.174   9.221 -0.2262  0.3814  0.2941
 2422SOL    HW118902   3.296   3.151   9.306  0.3380  0.2038  0.5112
 2422SOL    HW218903   3.395   3.244   9.248 -0.2782  1.2962 -1.9616
 2423SOL     OW18904   3.399   3.697   6.863  0.5049 -0.8030  0.0963
 2423SOL    HW118905   3.492   3.705   6.839  0.5501 -0.6263  0.3172
 2423SOL    HW218906   3.387   3.604   6.878 -0.7304 -0.6020  0.3344
 2424SOL     OW18907   3.843   2.464   0.504 -0.4424  0.1028  0.1333
 2424SOL    HW118908   3.868   2.442   0.415  3.1369 -0.1137  1.1908
 2424SOL    HW218909   3.753   2.491   0.485 -0.8761 -1.9058 -0.6148
 2425SOL     OW18910   0.037   0.999  12.252 -0.0573  0.3563 -0.0171
 2425SOL    HW118911   4.694   0.975  12.302 -0.6207  1.7005 -0.2553
 2425SOL    HW218912   0.050   1.084  12.295 -0.8586 -0.3342  1.5976
 2426SOL     OW18913   0.749   4.020   7.216  0.1592 -0.5058  0.1970
 2426SOL    HW118914   0.693   3.986   7.146  0.2982  0.4645 -0.3728
 2426SOL    HW218915   0.710   4.105   7.236  0.8602  0.4689 -2.6804
 2427SOL     OW18916   3.320   3.462   6.997 -0.0547  0.0495  0.1450
 2427SOL    HW118917   3.403   3.497   7.029  0.4521 -0.7156 -0.3271
 2427SOL    HW218918   3.324   3.370   7.023 -1.9961 -0.1259 -0.1541
 2428SOL     OW18919   1.964   2.272   9.075  1.1532  0.0079  0.5571
 2428SOL    HW118920   1.991   2.342   9.135  1.0686  0.8230 -0.3665
 2428SOL    HW218921   2.040   2.214   9.073  1.0123 -0.1954  1.0228
 2429SOL     OW18922   2.277   0.708   4.721  0.0778  0.2084 -0.1924
 2429SOL    HW118923   2.338   0.648   4.680  2.6525  2.8581 -0.2565
 2429SOL    HW218924   2.233   0.741   4.643 -1.9472 -0.1352  0.8025
 2430SOL     OW18925   2.382   2.333   5.399  0.3856 -0.4730  0.6430
 2430SOL    HW118926   2.363   2.268   5.331 -0.1889  0.1887  0.1730
 2430SOL    HW218927   2.471   2.359   5.374 -0.3908  0.0446 -1.6131
 2431SOL     OW18928   0.422   3.473   1.558  0.0940 -0.2535  0.1552
 2431SOL    HW118929   0.454   3.383   1.558  2.0444  0.4491 -1.9598
 2431SOL    HW218930   0.331   3.453   1.535  0.3985 -0.7087 -0.6418
 2432SOL     OW18931   2.639   3.264   6.119  0.2183 -0.4211  0.5216
 2432SOL    HW118932   2.635   3.322   6.043  0.4082  1.6022  2.0527
 2432SOL    HW218933   2.726   3.287   6.151 -0.6020 -0.5791  2.9258
 2433SOL     OW18934   2.915   0.247   1.614 -0.5268  0.1809  0.0928
 2433SOL    HW118935   2.900   0.276   1.524 -1.7015 -2.1190 -0.4691
 2433SOL    HW218936   2.886   0.314   1.675  1.3237  1.4519 -0.4400
 2434SOL     OW18937   1.966   2.505   7.870 -0.2921  0.2290 -0.3185
 2434SOL    HW118938   2.043   2.529   7.818 -0.0083  0.4516  0.2128
 2434SOL    HW218939   1.907   2.504   7.795  0.4317 -0.6796 -0.8765
 2435SOL     OW18940   4.504   0.256   3.851  0.3486 -0.1514  0.1066
 2435SOL    HW118941   4.421   0.285   3.813  0.2599  1.0218  1.1861
 2435SOL    HW218942   4.475   0.193   3.917 -1.3737 -0.1426 -0.6506
 2436SOL     OW18943   3.720   2.218   5.875 -0.0274 -0.5612 -0.8511
 2436SOL    HW118944   3.759   2.148   5.823  2.1526  0.5186 -0.6411
 2436SOL    HW218945   3.667   2.172   5.941  0.8417  1.8434  1.4983
 2437SOL     OW18946   1.996   2.838   7.075 -0.9165 -1.1910  0.2080
 2437SOL    HW118947   1.927   2.892   7.114  0.3548  0.2552  0.4591
 2437SOL    HW218948   1.945   2.803   7.001  1.3391 -2.9296 -0.5374
 2438SOL     OW18949   2.395   1.841   2.448  0.4040 -0.1939  0.3627
 2438SOL    HW118950   2.408   1.934   2.466  0.2672 -0.1460  0.2187
 2438SOL    HW218951   2.482   1.803   2.466  1.2258  1.8849  0.7453
 2439SOL     OW18952   3.721   1.469   6.807 -0.3032 -0.4402  0.0479
 2439SOL    HW118953   3.782   1.456   6.879 -0.5735  3.8231  1.0421
 2439SOL    HW218954   3.669   1.390   6.825 -0.1305 -0.7138 -0.6604
 2440SOL     OW18955   3.570   2.701   4.175  0.0461  0.0153 -0.4397
 2440SOL    HW118956   3.558   2.693   4.270  2.7066  1.8466  0.0636
 2440SOL    HW218957   3.584   2.611   4.145  1.5509  0.0892  0.0281
 2441SOL     OW18958   3.168   3.955   4.682 -0.5761  0.0250  0.1816
 2441SOL    HW118959   3.136   4.003   4.758 -1.1106 -1.5470  0.9506
 2441SOL    HW218960   3.093   3.961   4.624 -1.9953  1.2664  2.1485
 2442SOL     OW18961   4.118   1.473   6.195 -0.2669  0.4765  0.2111
 2442SOL    HW118962   4.031   1.472   6.234 -0.0242 -2.0026  0.7091
 2442SOL    HW218963   4.174   1.433   6.261 -1.1970 -1.1135  0.0221
 2443SOL     OW18964   3.637   2.208   5.586 -0.5772  0.9818 -0.3557
 2443SOL    HW118965   3.546   2.237   5.578 -1.5385 -1.8594  0.3054
 2443SOL    HW218966   3.660   2.225   5.678 -2.4863  0.4150  0.2228
 2444SOL     OW18967   3.735   3.886   4.535 -0.8464  0.1737  0.1822
 2444SOL    HW118968   3.659   3.833   4.557 -0.9769  0.1579 -0.3230
 2444SOL    HW218969   3.695   3.972   4.526 -1.1748 -0.2011 -2.0254
 2445SOL     OW18970   1.412   0.427   8.164 -0.4093  0.3693 -0.0899
 2445SOL    HW118971   1.461   0.493   8.115  0.6119 -0.5225 -0.2637
 2445SOL    HW218972   1.350   0.386   8.105  0.2184 -1.3895  0.4922
 2446SOL     OW18973   2.878   0.872   5.010 -0.1232 -0.1794  0.4806
 2446SOL    HW118974   2.880   0.778   4.990  3.5468 -0.3340  1.5685
 2446SOL    HW218975   2.862   0.912   4.924  0.2784  0.7175  0.8291
 2447SOL     OW18976   0.901   2.710   3.915  0.0611  0.4058 -0.2108
 2447SOL    HW118977   0.957   2.651   3.966 -1.4087 -1.6514 -0.9710
 2447SOL    HW218978   0.898   2.790   3.966 -2.0478  0.1771  0.0466
 2448SOL     OW18979   1.156   3.889   3.433  0.0420 -0.0466  0.4034
 2448SOL    HW118980   1.141   3.983   3.433 -1.6334 -0.3052 -0.6112
 2448SOL    HW218981   1.172   3.874   3.340 -0.4969 -1.3436  0.5151
 2449SOL     OW18982   1.884   0.787   5.714 -0.3840  0.2128  0.0192
 2449SOL    HW118983   1.792   0.765   5.727 -0.4469  1.2697  1.3762
 2449SOL    HW218984   1.867   0.876   5.745 -1.4195 -0.2702  0.7987
 2450SOL     OW18985   0.288   2.119   1.648  0.2859  0.1341  0.1270
 2450SOL    HW118986   0.317   2.028   1.643 -1.4380 -0.3885 -0.2402
 2450SOL    HW218987   0.343   2.153   1.578  1.8503  0.7363  1.6452
 2451SOL     OW18988   2.819   3.628  11.526 -0.1958  0.2299  0.1639
 2451SOL    HW118989   2.846   3.701  11.582 -1.5130  0.9590 -0.1657
 2451SOL    HW218990   2.886   3.565  11.553  0.7933  1.3251  0.2389
 2452SOL     OW18991   1.096   1.156   6.503 -0.8688 -0.3739 -0.7383
 2452SOL    HW118992   1.120   1.068   6.531 -1.7487 -0.4166 -0.1137
 2452SOL    HW218993   1.043   1.189   6.576 -2.2171  0.4656 -2.0734
 2453SOL     OW18994   3.304   1.251   5.235  0.1956  0.6996 -0.8119
 2453SOL    HW118995   3.266   1.233   5.321 -0.4308  0.1763 -1.1935
 2453SOL    HW218996   3.318   1.162   5.203 -0.8216  0.1793  0.2030
 2454SOL     OW18997   2.385   1.270  12.864 -0.1540  0.3967  0.5401
 2454SOL    HW118998   2.302   1.297  12.824 -0.8670 -1.0011  1.1023
 2454SOL    HW218999   2.389   1.317  12.947 -2.2310  3.5913 -1.1614
 2455SOL     OW19000   0.739   2.810  10.182  0.0657 -0.1624  0.1518
 2455SOL    HW119001   0.699   2.739  10.131  0.3856 -0.2436  0.0119
 2455SOL    HW219002   0.722   2.774  10.269 -2.1529 -1.1934 -0.7005
 2456SOL     OW19003   2.682   4.499   3.510  0.8560  0.6192 -0.1419
 2456SOL    HW119004   2.625   4.426   3.535  2.6291 -0.6260  0.2805
 2456SOL    HW219005   2.657   4.567   3.572 -2.1101  0.8032 -1.5693
 2457SOL     OW19006   0.332   1.627   0.773 -0.0177 -0.5793 -0.2407
 2457SOL    HW119007   0.287   1.568   0.834 -2.2365  2.1178  0.7466
 2457SOL    HW219008   0.280   1.706   0.765  0.9631  0.0640 -0.2287
 2458SOL     OW19009   1.311   0.600   4.492 -0.1958  0.5584  0.8984
 2458SOL    HW119010   1.339   0.692   4.492  1.1834  0.1315  1.1371
 2458SOL    HW219011   1.339   0.571   4.406 -0.2316  0.7228  0.8307
 2459SOL     OW19012   4.158   2.059   2.551  0.0919  0.5407  0.2153
 2459SOL    HW119013   4.249   2.075   2.528  0.2797 -0.6260  0.1240
 2459SOL    HW219014   4.122   2.146   2.534  0.8995  0.5742 -1.2904
 2460SOL     OW19015   2.573   1.498   8.488 -0.4094 -0.7506  0.2453
 2460SOL    HW119016   2.616   1.414   8.505  0.4002 -0.4455 -0.2702
 2460SOL    HW219017   2.540   1.522   8.575  0.7802  0.1106  0.4728
 2461SOL     OW19018   1.392   0.179   1.821  0.2300  0.1808 -0.2042
 2461SOL    HW119019   1.354   0.203   1.906  2.1118 -0.4370  0.8004
 2461SOL    HW219020   1.447   0.250   1.791 -1.2555  2.0958  1.6013
 2462SOL     OW19021   2.003   1.727  15.004 -0.6845  0.0278  0.5098
 2462SOL    HW119022   2.018   1.720  14.910 -2.6277 -1.2447  0.3146
 2462SOL    HW219023   2.049   1.809  15.024 -2.7136  1.4643 -0.8238
 2463SOL     OW19024   3.592   3.241   6.250  0.0887  0.5810  0.1487
 2463SOL    HW119025   3.578   3.177   6.319 -3.5209  1.4442  0.2200
 2463SOL    HW219026   3.616   3.180   6.180  0.4024 -0.1504  0.9019
 2464SOL     OW19027   4.642   4.541   8.465 -0.2468 -0.5365  0.2105
 2464SOL    HW119028   4.614   4.497   8.385  2.0269 -2.1221  0.2811
 2464SOL    HW219029   4.584   4.617   8.477  0.0743 -0.4236  1.0666
 2465SOL     OW19030   3.524   1.181   3.192  0.6158 -0.2897 -0.2128
 2465SOL    HW119031   3.568   1.104   3.226 -0.1881 -0.6139  0.1015
 2465SOL    HW219032   3.431   1.159   3.200  0.3801 -0.1415 -2.7313
 2466SOL     OW19033   2.955   2.252  12.656 -0.3970  0.3558 -0.0664
 2466SOL    HW119034   2.957   2.344  12.629 -0.8236  0.0496 -1.1379
 2466SOL    HW219035   2.886   2.213  12.603  1.0515 -2.5399  0.1851
 2467SOL     OW19036   2.336   2.757   8.082  0.3028 -0.1952  0.0861
 2467SOL    HW119037   2.402   2.814   8.120 -0.4470  0.4066  0.4920
 2467SOL    HW219038   2.290   2.731   8.162 -2.3605 -0.3434 -1.4685
 2468SOL     OW19039   3.760   3.686   9.134 -0.1927  0.4088 -0.2901
 2468SOL    HW119040   3.844   3.687   9.088  0.1031 -1.6603  0.1898
 2468SOL    HW219041   3.756   3.780   9.151 -2.3268 -0.4128  3.6113
 2469SOL     OW19042   1.446   1.964   2.000 -0.1210 -0.3751  0.1836
 2469SOL    HW119043   1.439   2.058   1.983  0.1374 -0.5268 -0.7774
 2469SOL    HW219044   1.358   1.926   1.997 -0.0655 -0.4064 -0.9774
 2470SOL     OW19045   4.452   0.918   3.901  0.3261 -0.1222  0.3918
 2470SOL    HW119046   4.432   0.982   3.968  1.2563  1.3628 -0.7531
 2470SOL    HW219047   4.543   0.944   3.889  1.3476 -3.5069  0.7748
 2471SOL     OW19048   3.577   3.122   2.638 -0.2696 -0.0633  0.1933
 2471SOL    HW119049   3.556   3.037   2.599 -1.1636 -0.5961  1.8666
 2471SOL    HW219050   3.554   3.114   2.730 -2.0460 -2.2851 -0.4267
 2472SOL     OW19051   0.293   2.327   3.544  0.4255  0.1814  0.3374
 2472SOL    HW119052   0.275   2.400   3.603  0.7815 -0.1391  0.8484
 2472SOL    HW219053   0.350   2.278   3.603  2.3179  2.0225  0.0681
 2473SOL     OW19054   2.524   1.090   3.582 -0.5597 -0.1860  0.5461
 2473SOL    HW119055   2.450   1.044   3.542  0.4283 -0.7891 -0.5977
 2473SOL    HW219056   2.469   1.153   3.628  1.7285 -0.2786  3.4087
 2474SOL     OW19057   3.766   4.204   3.839  0.0113 -0.2755 -0.5842
 2474SOL    HW119058   3.860   4.198   3.854 -0.1738 -1.5658  0.0387
 2474SOL    HW219059   3.724   4.131   3.884  0.9640 -0.2515  0.3331
 2475SOL     OW19060   3.896   2.543   9.744 -0.0341 -0.8866 -0.6420
 2475SOL    HW119061   3.911   2.449   9.739  0.6273 -0.9663  2.6774
 2475SOL    HW219062   3.961   2.570   9.679 -0.8319 -1.4479 -1.6684
 2476SOL     OW19063   3.534   4.292   4.910  0.3301 -0.2137  0.1739
 2476SOL    HW119064   3.442   4.307   4.888  0.3310 -1.0393 -0.3988
 2476SOL    HW219065   3.568   4.379   4.927  0.0379 -0.3273  1.3959
 2477SOL     OW19066   0.486   0.574   6.719 -0.8124 -0.0664  0.2995
 2477SOL    HW119067   0.490   0.665   6.748 -0.4503  0.2393 -0.7217
 2477SOL    HW219068   0.399   0.546   6.746 -0.0396 -2.3683  0.4864
 2478SOL     OW19069   4.421   1.495   5.991  0.3390  0.1254 -0.5083
 2478SOL    HW119070   4.515   1.481   6.003  0.6258 -0.4390 -3.5077
 2478SOL    HW219071   4.377   1.413   6.012 -0.1306  0.8682  1.4318
 2479SOL     OW19072   2.357   2.510   9.026 -0.9698  0.4096 -0.3412
 2479SOL    HW119073   2.318   2.438   8.977 -3.7191  0.8608  1.1449
 2479SOL    HW219074   2.408   2.545   8.953 -1.0826  3.6323  1.0990
 2480SOL     OW19075   2.396   1.966   5.568 -0.3328 -0.4080 -0.3874
 2480SOL    HW119076   2.486   1.939   5.587 -0.6703  0.3284  2.2440
 2480SOL    HW219077   2.378   1.929   5.482 -1.2874  0.5655 -0.6008
 2481SOL     OW19078   0.873   1.874   5.805  0.8127  0.1747 -0.9284
 2481SOL    HW119079   0.874   1.963   5.770  2.4345  0.7753  0.6336
 2481SOL    HW219080   0.960   1.883   5.842  0.2283  3.3774 -0.3272
 2482SOL     OW19081   2.174   0.896   3.794  0.2756  0.0236 -0.8716
 2482SOL    HW119082   2.238   0.875   3.726  0.0449 -0.7630 -0.8455
 2482SOL    HW219083   2.117   0.820   3.798 -0.7625  0.8048 -0.7651
 2483SOL     OW19084   2.414   4.336   9.120  0.5139 -0.4353  0.4768
 2483SOL    HW119085   2.404   4.242   9.100 -0.4429 -0.2990  0.2981
 2483SOL    HW219086   2.320   4.355   9.117  0.8066  1.1879  1.9500
 2484SOL     OW19087   0.528   2.259  12.838  0.1661  0.4912  0.4714
 2484SOL    HW119088   0.536   2.208  12.757  2.2633  2.6997 -0.6919
 2484SOL    HW219089   0.520   2.192  12.906 -0.8601  0.7136  0.5720
 2485SOL     OW19090   1.682   3.133  10.058 -0.0113 -0.0635  0.2356
 2485SOL    HW119091   1.756   3.092  10.102 -1.0290 -1.1636  0.9099
 2485SOL    HW219092   1.635   3.182  10.125 -0.9658 -0.0096 -0.4846
 2486SOL     OW19093   2.425   4.070   1.901  0.2551  0.3550 -0.6196
 2486SOL    HW119094   2.454   4.160   1.884  1.1798  0.2629  0.4585
 2486SOL    HW219095   2.389   4.054   1.813 -1.2218 -3.1290  0.6169
 2487SOL     OW19096   0.883   4.674   7.880  0.4130  0.0781 -0.4874
 2487SOL    HW119097   0.927   4.607   7.826  2.0866  0.9324 -0.2038
 2487SOL    HW219098   0.814   4.689   7.816 -1.8193 -3.9350  1.0233
 2488SOL     OW19099   3.231   2.518   2.117  0.0171  0.1503 -0.1352
 2488SOL    HW119100   3.232   2.474   2.203  0.4285 -0.4617 -0.4520
 2488SOL    HW219101   3.137   2.526   2.104 -0.0850  1.3582  1.3624
 2489SOL     OW19102   1.016   3.480   2.799 -0.4391  0.4787 -0.3836
 2489SOL    HW119103   1.009   3.467   2.894  0.5346  0.3755 -0.3238
 2489SOL    HW219104   1.015   3.576   2.798  1.3790  0.5006  0.4116
 2490SOL     OW19105   0.377   4.540   5.389 -0.0791  0.3168  0.2599
 2490SOL    HW119106   0.425   4.471   5.343  1.3949  0.8184  1.0559
 2490SOL    HW219107   0.286   4.511   5.378  0.2911 -1.8429  2.7855
 2491SOL     OW19108   4.639   0.779   3.464 -0.1735  0.3801 -0.6222
 2491SOL    HW119109   4.605   0.711   3.522  2.1335 -0.6209 -0.4151
 2491SOL    HW219110   4.689   0.823   3.533  0.3573 -0.7081 -0.2980
 2492SOL     OW19111   3.737   2.283   7.211 -0.9192  0.0493 -0.0625
 2492SOL    HW119112   3.738   2.202   7.159 -3.1024  0.6210 -0.9930
 2492SOL    HW219113   3.712   2.352   7.149  0.1817  2.3118  2.0543
 2493SOL     OW19114   1.648   3.370   2.666 -0.0824  0.4429  0.0403
 2493SOL    HW119115   1.606   3.347   2.583 -0.1695  1.0916 -0.0899
 2493SOL    HW219116   1.714   3.435   2.644 -0.8362  0.5538 -1.8598
 2494SOL     OW19117   2.942   0.078  15.075  0.4222 -0.1392 -0.3241
 2494SOL    HW119118   2.991   0.106  15.152 -0.0296  1.1089 -0.4974
 2494SOL    HW219119   2.860   0.035  15.102  0.9394 -1.4463 -0.8360
 2495SOL     OW19120   1.651   3.853   4.874  0.5970  0.3069  0.0029
 2495SOL    HW119121   1.569   3.891   4.905  0.0039 -2.1996  1.4777
 2495SOL    HW219122   1.700   3.931   4.846  1.7159 -0.5433 -0.4493
 2496SOL     OW19123   4.174   1.597   2.660 -0.2465 -0.3324  0.0909
 2496SOL    HW119124   4.213   1.542   2.728 -0.0927  0.2358  0.4650
 2496SOL    HW219125   4.232   1.673   2.654 -1.0213  0.3508  1.2017
 2497SOL     OW19126   2.232   1.604   9.838  0.5936  0.5255 -0.1279
 2497SOL    HW119127   2.146   1.565   9.826  1.6151 -1.2734 -1.6231
 2497SOL    HW219128   2.228   1.627   9.930 -1.7295 -0.2739 -0.0387
 2498SOL     OW19129   4.597   1.280   4.363 -0.1904 -0.2700  0.1915
 2498SOL    HW119130   4.537   1.353   4.383  2.2954  1.9211 -0.3969
 2498SOL    HW219131   4.627   1.299   4.275 -1.7388 -1.7198 -0.6470
 2499SOL     OW19132   1.571   2.977   4.280  0.4388  0.8112 -0.5646
 2499SOL    HW119133   1.487   3.003   4.317  0.9494  0.5516  0.7877
 2499SOL    HW219134   1.546   2.981   4.188  1.7564  0.7274 -0.9188
 2500SOL     OW19135   4.300   0.891   5.425  0.3157 -0.5611  0.1455
 2500SOL    HW119136   4.281   0.975   5.384 -0.4420 -0.8896 -0.1758
 2500SOL    HW219137   4.383   0.915   5.466  0.8146  1.8921 -2.3290
 2501SOL     OW19138   4.651   1.496   4.815 -0.0457 -0.4742  0.8629
 2501SOL    HW119139   4.641   1.528   4.905  0.3896  0.2602  0.6484
 2501SOL    HW219140   4.584   1.427   4.818 -0.8645  0.2762 -0.0388
 2502SOL     OW19141   3.087   1.310   2.248 -0.2014 -0.0244  0.1317
 2502SOL    HW119142   3.117   1.398   2.269 -0.0286 -0.3345  1.2261
 2502SOL    HW219143   3.118   1.298   2.158  2.6767 -0.6934  1.1942
 2503SOL     OW19144   3.555   1.705   0.928 -0.0279 -0.6294 -0.1503
 2503SOL    HW119145   3.517   1.654   1.000  0.2280 -0.6128 -0.0024
 2503SOL    HW219146   3.643   1.668   0.933  0.3864  0.4425  0.6790
 2504SOL     OW19147   3.308   2.943   4.994 -0.0742  0.4541  0.1761
 2504SOL    HW119148   3.242   2.975   4.931  1.1042  0.4065 -1.0917
 2504SOL    HW219149   3.312   2.851   4.969 -1.0368  0.3710  0.3519
 2505SOL     OW19150   0.467   1.372   0.811  0.6504 -0.3779  0.5039
 2505SOL    HW119151   0.413   1.400   0.885  0.0684  2.7246 -1.0602
 2505SOL    HW219152   0.418   1.384   0.729  1.0929  0.8788  0.4151
 2506SOL     OW19153   4.075   1.903  16.552  0.2237  1.1408 -0.1700
 2506SOL    HW119154   4.154   1.850  16.555 -0.0504  0.5772 -2.8656
 2506SOL    HW219155   4.057   1.929  16.643 -3.0399 -0.5451 -0.3241
 2507SOL     OW19156   3.650   4.020  10.773 -0.4540  0.0401  0.1531
 2507SOL    HW119157   3.672   4.110  10.750 -0.2092  0.3020  1.3816
 2507SOL    HW219158   3.700   3.967  10.710 -2.5874 -1.0046 -0.6705
 2508SOL     OW19159   3.795   2.786   0.560 -0.2284 -0.4172 -0.0735
 2508SOL    HW119160   3.741   2.719   0.600 -1.0090 -0.0208 -0.4696
 2508SOL    HW219161   3.879   2.772   0.603 -0.8247  0.5724  1.4181
 2509SOL     OW19162   3.677   2.785   5.160 -0.1654 -0.0328  0.0331
 2509SOL    HW119163   3.644   2.702   5.195 -0.0831 -0.1837 -0.2492
 2509SOL    HW219164   3.592   2.821   5.132 -0.7052 -0.0922  1.6080
 2510SOL     OW19165   1.228   3.359  16.834 -0.7678 -0.1447 -0.0797
 2510SOL    HW119166   1.218   3.295  16.764 -0.4038  2.0004 -2.0963
 2510SOL    HW219167   1.135   3.368  16.855 -0.7033 -0.4482  0.3372
 2511SOL     OW19168   0.275   1.846   3.651 -0.3811  0.0880 -0.1627
 2511SOL    HW119169   0.211   1.904   3.609  0.5700  2.0976  1.1302
 2511SOL    HW219170   0.219   1.811   3.721  1.0902  2.4573  2.2171
 2512SOL     OW19171   0.142   2.261  10.621  0.0052 -0.2370  0.3540
 2512SOL    HW119172   0.215   2.289  10.566 -1.4178  1.8082 -0.4658
 2512SOL    HW219173   0.193   2.254  10.701  0.3592  0.1165  0.1577
 2513SOL     OW19174   4.336   3.341  11.899 -0.0178  1.1148  0.3519
 2513SOL    HW119175   4.350   3.333  11.805 -0.3590 -1.1233  0.4910
 2513SOL    HW219176   4.346   3.434  11.917 -0.6525  1.6666 -2.2480
 2514SOL     OW19177   3.803   3.276   2.236 -0.6283 -0.1503 -0.4504
 2514SOL    HW119178   3.844   3.195   2.208 -0.8022 -0.7904  1.1660
 2514SOL    HW219179   3.713   3.242   2.235 -0.1271 -1.4186 -2.1797
 2515SOL     OW19180   2.787   1.255   9.436 -0.3056  0.0928 -0.2090
 2515SOL    HW119181   2.757   1.277   9.524  2.2883  2.2399  0.1498
 2515SOL    HW219182   2.714   1.291   9.385  1.6152  0.1355 -2.9616
 2516SOL     OW19183   2.875   1.813   8.854  0.1967  0.5038  1.1119
 2516SOL    HW119184   2.786   1.790   8.829  1.0861 -1.1016 -0.5494
 2516SOL    HW219185   2.922   1.730   8.864  0.2797  0.5134  0.7754
 2517SOL     OW19186   3.349   1.562  16.481  0.2252 -0.4986  0.0524
 2517SOL    HW119187   3.286   1.511  16.430  1.0461  1.3972 -2.8738
 2517SOL    HW219188   3.429   1.516  16.458 -1.0873 -0.8950 -3.6893
 2518SOL     OW19189   4.021   0.303  10.135  0.0476  0.2319 -0.4502
 2518SOL    HW119190   3.976   0.387  10.140  0.6449  0.5360 -0.2068
 2518SOL    HW219191   4.063   0.301  10.049 -0.2472 -0.6382 -0.5762
 2519SOL     OW19192   1.750   1.567   8.073 -0.2277 -0.1964 -0.2871
 2519SOL    HW119193   1.667   1.582   8.117  0.0107 -1.4942  0.5976
 2519SOL    HW219194   1.814   1.589   8.140  2.1718 -0.5858 -2.4404
 2520SOL     OW19195   2.683   1.936   5.623  0.3597 -0.1863 -0.1101
 2520SOL    HW119196   2.734   1.887   5.558  1.5383  1.3231 -0.3124
 2520SOL    HW219197   2.700   2.021   5.583  0.5116  0.3324  1.0558
 2521SOL     OW19198   3.335   1.305  16.041  0.1573 -0.1018 -0.1325
 2521SOL    HW119199   3.389   1.252  15.983  0.2654 -0.2761  0.1258
 2521SOL    HW219200   3.276   1.357  15.987  0.0329 -0.5761 -0.4466
 2522SOL     OW19201   1.039   0.038   9.117 -0.1136 -0.4505  0.1472
 2522SOL    HW119202   1.084   4.727   9.046  2.8067 -0.5461  2.0772
 2522SOL    HW219203   1.018   4.699   9.173 -1.2978 -0.8109 -0.7786
 2523SOL     OW19204   3.674   3.983   7.111 -0.2728 -0.6719 -0.2070
 2523SOL    HW119205   3.720   3.935   7.043 -1.8969 -0.9487 -1.1048
 2523SOL    HW219206   3.595   4.006   7.063 -1.3319  0.1704  1.9573
 2524SOL     OW19207   2.575   2.812   4.385  0.5027  0.5644 -0.0577
 2524SOL    HW119208   2.625   2.887   4.419  2.1082  0.0530 -1.2764
 2524SOL    HW219209   2.487   2.827   4.420 -0.4738 -0.1562 -2.2593
 2525SOL     OW19210   2.358   3.038   1.556  0.2904 -0.1995 -0.3375
 2525SOL    HW119211   2.365   2.946   1.581  1.4167 -0.4966 -1.7401
 2525SOL    HW219212   2.292   3.074   1.616 -1.4038 -1.9739 -1.1391
 2526SOL     OW19213   2.082   1.089  14.521  0.2839  0.0412  0.2411
 2526SOL    HW119214   2.169   1.052  14.538 -0.1774 -1.3833 -0.4604
 2526SOL    HW219215   2.047   1.007  14.486  0.8794  0.4950 -1.4305
 2527SOL     OW19216   4.568   4.728  12.522 -0.2643  0.4414  0.3066
 2527SOL    HW119217   4.591   4.651  12.471 -0.3565  1.9840 -2.0746
 2527SOL    HW219218   4.476   4.712  12.502 -0.4482 -1.2394  2.5033
 2528SOL     OW19219   0.117   0.522   2.735  0.2469  0.2730 -0.4687
 2528SOL    HW119220   0.130   0.611   2.770  2.3451 -1.0714  2.1328
 2528SOL    HW219221   0.097   0.544   2.644 -2.2427  0.9719  0.2355
 2529SOL     OW19222   3.615   3.745   3.929 -0.0400  0.2129  0.0294
 2529SOL    HW119223   3.625   3.699   4.012  1.2033  1.5238  0.6119
 2529SOL    HW219224   3.619   3.840   3.943 -2.8893  0.6178 -1.7934
 2530SOL     OW19225   4.717   0.306   4.012 -0.1231  0.5998 -0.0513
 2530SOL    HW119226   4.643   0.289   4.070  1.2252 -0.1123  1.4568
 2530SOL    HW219227   4.669   0.290   3.932 -0.2870 -0.1333  0.1967
 2531SOL     OW19228   2.040   0.791  15.179 -0.2095  0.4482 -0.3019
 2531SOL    HW119229   2.053   0.775  15.272  1.9721 -1.0592 -0.8625
 2531SOL    HW219230   2.122   0.830  15.147  0.8321 -0.2842  1.4898
 2532SOL     OW19231   2.174   0.874   4.491  0.0370 -0.7540  0.3955
 2532SOL    HW119232   2.198   0.966   4.501 -1.2563 -0.5096  1.2239
 2532SOL    HW219233   2.240   0.843   4.428  0.2095 -0.7581  0.5756
 2533SOL     OW19234   3.027   1.661   7.219  0.4726  0.2445 -0.0225
 2533SOL    HW119235   3.044   1.699   7.305 -0.0516 -0.4699  0.3937
 2533SOL    HW219236   2.983   1.733   7.174 -0.2850 -1.5032 -2.0950
 2534SOL     OW19237   1.403   3.843   5.954  0.2107  0.3064 -0.2491
 2534SOL    HW119238   1.456   3.922   5.943  0.4484  0.0228 -1.1117
 2534SOL    HW219239   1.379   3.829   5.863 -1.4383 -1.3845  0.4411
 2535SOL     OW19240   3.761   1.468  12.290 -0.1534  0.0088  0.2462
 2535SOL    HW119241   3.669   1.498  12.290  0.9112  3.2744 -2.0953
 2535SOL    HW219242   3.818   1.545  12.294 -0.3639  0.1234  1.1423
 2536SOL     OW19243   1.559   1.884  13.662 -0.1862  0.0684 -0.4143
 2536SOL    HW119244   1.472   1.856  13.692 -0.6273  0.3389 -1.4366
 2536SOL    HW219245   1.564   1.840  13.577  1.3898 -0.8477  0.1414
 2537SOL     OW19246   1.484   1.819   0.596 -0.3141 -0.2316  0.1104
 2537SOL    HW119247   1.409   1.819   0.537 -1.2586  0.2028  1.3102
 2537SOL    HW219248   1.487   1.911   0.620  3.3755 -0.6534  1.3376
 2538SOL     OW19249   4.548   0.636  17.040 -0.0396 -0.1419 -0.7354
 2538SOL    HW119250   4.596   0.671  17.116 -2.3880 -0.2753  0.7874
 2538SOL    HW219251   4.587   0.689  16.970 -1.7848  0.0834 -1.5405
 2539SOL     OW19252   4.408   1.892   3.356 -0.0956 -0.3916 -1.0255
 2539SOL    HW119253   4.486   1.866   3.406 -0.7444 -0.6921 -0.1716
 2539SOL    HW219254   4.433   1.861   3.269  1.7178 -1.2294 -0.2170
 2540SOL     OW19255   3.905   0.892   3.199  0.1290 -0.7389  0.4521
 2540SOL    HW119256   3.985   0.894   3.251  0.4910 -1.5905 -0.0738
 2540SOL    HW219257   3.929   0.841   3.121 -0.6159 -1.3967  0.6498
 2541SOL     OW19258   1.255   2.000   3.072  0.1193  0.1827 -0.0147
 2541SOL    HW119259   1.199   2.029   3.144 -0.5990 -0.7676 -0.1915
 2541SOL    HW219260   1.206   1.999   2.989 -1.8444  1.6228  1.1292
 2542SOL     OW19261   1.954   1.602   4.437 -0.6463  0.1185  0.6825
 2542SOL    HW119262   1.966   1.521   4.386 -1.5158  0.9780 -0.8897
 2542SOL    HW219263   2.035   1.652   4.436  0.6539 -2.0310 -1.6821
 2543SOL     OW19264   2.135   3.801   2.114 -0.8536 -0.0688 -0.0815
 2543SOL    HW119265   2.040   3.802   2.099 -1.0199  0.2802  0.9975
 2543SOL    HW219266   2.147   3.854   2.193 -0.0720  0.6185 -0.6464
 2544SOL     OW19267   3.425   3.740   5.079 -0.2421 -0.2914 -0.1331
 2544SOL    HW119268   3.507   3.720   5.036 -0.2058 -1.2285  0.3741
 2544SOL    HW219269   3.396   3.672   5.140 -1.2764  0.8197  0.6113
 2545SOL     OW19270   0.283   1.145   7.660 -0.1455  0.2928 -0.6127
 2545SOL    HW119271   0.189   1.158   7.657 -0.1676  0.2610 -0.1185
 2545SOL    HW219272   0.275   1.083   7.733 -0.8554 -0.2859 -1.1788
 2546SOL     OW19273   2.015   4.413   6.877 -0.0347  0.2764 -0.1125
 2546SOL    HW119274   1.941   4.375   6.830 -0.4060  0.6369  0.1779
 2546SOL    HW219275   2.008   4.505   6.851 -0.6109 -0.0718 -1.1566
 2547SOL     OW19276   1.075   0.290  14.750  0.0090  0.2989  0.5266
 2547SOL    HW119277   1.073   0.225  14.680  1.3855  1.9638 -1.0755
 2547SOL    HW219278   1.144   0.353  14.726  0.2028 -0.1612 -0.1275
 2548SOL     OW19279   0.535   0.327   6.561 -0.1351 -0.4547 -0.2773
 2548SOL    HW119280   0.579   0.382   6.496 -1.8436  1.4976  0.2391
 2548SOL    HW219281   0.530   0.395   6.629  0.0654 -0.5004 -0.2151
 2549SOL     OW19282   0.921   2.367   3.845  0.0821  0.1649 -0.2398
 2549SOL    HW119283   0.949   2.434   3.783 -2.9462  2.4338  0.8415
 2549SOL    HW219284   0.832   2.351   3.814 -0.1337  1.6077 -0.3392
 2550SOL     OW19285   1.213   0.581  11.738 -0.3107 -0.8109  0.0473
 2550SOL    HW119286   1.233   0.524  11.664 -0.5461 -1.6363  0.6228
 2550SOL    HW219287   1.141   0.632  11.701  0.4241 -0.4372 -0.8616
 2551SOL     OW19288   2.537   1.334  17.182  0.2560 -0.1504  0.3719
 2551SOL    HW119289   2.517   1.308  17.272 -0.0449 -1.4357 -0.0761
 2551SOL    HW219290   2.445   1.343  17.155  1.3199  0.0271 -3.1504
 2552SOL     OW19291   1.120   1.943   4.030 -0.1036  0.5510 -0.1232
 2552SOL    HW119292   1.066   1.990   4.093  0.1069  0.2797  0.2549
 2552SOL    HW219293   1.108   2.002   3.955  0.4660  0.9860  0.1291
 2553SOL     OW19294   3.152   2.861  15.750 -0.8541  0.1707  0.1154
 2553SOL    HW119295   3.161   2.951  15.719  0.1114  0.4468  1.1563
 2553SOL    HW219296   3.210   2.811  15.693 -0.3526  3.4771 -2.2644
 2554SOL     OW19297   2.179   0.907   7.245 -0.1343 -0.6001  0.0152
 2554SOL    HW119298   2.244   0.856   7.197 -0.6033 -1.8357  0.7034
 2554SOL    HW219299   2.226   0.988   7.267 -0.1841 -0.8080  0.8926
 2555SOL     OW19300   1.896   0.283   5.020  0.2268  0.2307  0.2323
 2555SOL    HW119301   1.914   0.353   4.958 -0.5348 -1.2632 -1.7025
 2555SOL    HW219302   1.868   0.213   4.961  0.4243  2.2598 -2.2596
 2556SOL     OW19303   2.029   3.155   7.394  0.0913  0.0556 -0.0041
 2556SOL    HW119304   2.008   3.239   7.434 -2.9695 -0.7100 -0.0331
 2556SOL    HW219305   2.096   3.195   7.338  0.0276 -1.2268 -0.9968
 2557SOL     OW19306   2.876   2.900   0.140  0.2236  0.4850 -0.3498
 2557SOL    HW119307   2.881   2.931   0.050  2.5959  0.8514 -0.0869
 2557SOL    HW219308   2.810   2.831   0.133  1.8428 -1.2325  1.3949
 2558SOL     OW19309   2.451   3.649   5.141  0.0011  0.0682 -0.1352
 2558SOL    HW119310   2.431   3.694   5.223 -0.9343 -0.3210 -0.1601
 2558SOL    HW219311   2.512   3.705   5.092  0.2365 -0.2461 -0.2042
 2559SOL     OW19312   2.252   1.332  17.095  0.4879  0.0776  0.4699
 2559SOL    HW119313   2.168   1.299  17.127 -1.1858  2.6193 -1.3432
 2559SOL    HW219314   2.244   1.425  17.116  0.7040 -0.1110  1.3626
 2560SOL     OW19315   3.814   0.074   4.388 -0.0684  0.6154  0.6262
 2560SOL    HW119316   3.897   0.110   4.421 -0.5355  2.6799 -0.4755
 2560SOL    HW219317   3.750   0.119   4.442 -0.6529  0.8723 -0.2739
 2561SOL     OW19318   1.588   2.620   2.132  0.0148  0.4762  0.5897
 2561SOL    HW119319   1.495   2.596   2.130 -0.2434  1.4169  1.6568
 2561SOL    HW219320   1.592   2.711   2.102  1.0030 -0.3921 -1.9052
 2562SOL     OW19321   0.693   3.277   9.894  0.7223 -0.0624  0.1579
 2562SOL    HW119322   0.684   3.198   9.949 -0.9177  1.0213  1.4207
 2562SOL    HW219323   0.762   3.242   9.838  0.9384  1.1143 -0.3051
 2563SOL     OW19324   4.089   1.467  11.130  0.5500  0.1924 -0.5079
 2563SOL    HW119325   4.055   1.512  11.208 -0.6022  1.0067 -1.4698
 2563SOL    HW219326   4.049   1.383  11.149  2.6286 -0.7632 -0.3566
 2564SOL     OW19327   1.959   4.723   9.260 -0.2830  0.4337 -0.0572
 2564SOL    HW119328   1.902   0.006   9.186 -2.6311 -1.4462  1.2398
 2564SOL    HW219329   2.035   4.678   9.224 -1.7489  1.1872 -4.0179
 2565SOL     OW19330   1.800   3.396   8.762 -0.1649  0.6573  0.4422
 2565SOL    HW119331   1.754   3.479   8.748  2.3887  1.9913  0.0447
 2565SOL    HW219332   1.891   3.419   8.747  0.0935 -0.0686  0.9147
 2566SOL     OW19333   2.565   0.123   7.992 -0.1334  0.6505  0.4068
 2566SOL    HW119334   2.631   0.181   7.954 -0.0226  0.0173 -0.3635
 2566SOL    HW219335   2.616   0.076   8.058 -1.7860  0.6733  1.7263
 2567SOL     OW19336   3.207   4.231  13.476  0.3345  0.0116 -0.3742
 2567SOL    HW119337   3.178   4.173  13.406 -2.5452 -2.3483  2.7422
 2567SOL    HW219338   3.169   4.314  13.448  0.1067 -0.0072 -0.1308
 2568SOL     OW19339   3.182   1.919  16.672  0.2966 -0.0395 -0.1627
 2568SOL    HW119340   3.209   1.845  16.726 -2.0230 -0.4689  0.4055
 2568SOL    HW219341   3.138   1.969  16.740  0.4762 -1.9017  1.3253
 2569SOL     OW19342   3.660   3.810   3.113 -0.0452 -0.1141  0.4778
 2569SOL    HW119343   3.749   3.845   3.118 -0.2845  0.7421 -1.4218
 2569SOL    HW219344   3.621   3.864   3.182 -0.8245 -0.1110  0.0341
 2570SOL     OW19345   0.904   4.108   8.897  0.5543  0.0627  0.6748
 2570SOL    HW119346   0.844   4.048   8.852 -0.3634  0.9169  0.7510
 2570SOL    HW219347   0.853   4.188   8.903 -0.9240 -0.7940 -0.3178
 2571SOL     OW19348   2.454   0.583   8.422 -0.5786  0.6652  0.3116
 2571SOL    HW119349   2.368   0.604   8.459 -0.7528  0.3089  0.1019
 2571SOL    HW219350   2.493   0.525   8.488  0.2959  0.6892 -0.1888
 2572SOL     OW19351   2.495   3.727   7.927 -0.0228 -0.6791  0.9620
 2572SOL    HW119352   2.550   3.750   7.852 -1.6050 -0.5635 -0.1640
 2572SOL    HW219353   2.553   3.751   8.000 -0.2604  0.9840  0.5995
 2573SOL     OW19354   4.068   1.422   7.454 -0.4029  0.1166 -0.3366
 2573SOL    HW119355   4.024   1.469   7.525  2.8003  2.8575 -0.1220
 2573SOL    HW219356   4.022   1.342   7.476 -1.4130  0.9058  0.3977
 2574SOL     OW19357   2.918   2.979   6.501 -0.6096 -0.2039  0.4447
 2574SOL    HW119358   2.827   2.987   6.528  0.1032  3.6076  1.6942
 2574SOL    HW219359   2.959   2.930   6.573 -1.0180 -1.9973 -0.5431
 2575SOL     OW19360   4.425   2.097   4.424  0.0764 -0.4234  0.4396
 2575SOL    HW119361   4.497   2.116   4.484  2.2684  0.5640 -2.4987
 2575SOL    HW219362   4.485   2.056   4.362 -0.8409 -2.6848  1.0415
 2576SOL     OW19363   0.908   2.021   4.836 -0.6199  0.3999  0.3134
 2576SOL    HW119364   0.903   2.089   4.768 -0.4885  0.0083 -0.0926
 2576SOL    HW219365   0.980   1.969   4.800 -0.4048  1.4387 -0.7549
 2577SOL     OW19366   1.196   4.097   1.552 -0.1750  0.0858 -0.1117
 2577SOL    HW119367   1.250   4.067   1.479  0.6373 -0.0454  0.5369
 2577SOL    HW219368   1.166   4.020   1.600  0.8205 -0.4219 -0.3102
 2578SOL     OW19369   3.970   1.643  16.760  0.6396  0.4678 -0.4354
 2578SOL    HW119370   3.875   1.644  16.768  0.8137  0.1117  1.6824
 2578SOL    HW219371   3.997   1.731  16.787  0.0415  0.5307 -0.0354
 2579SOL     OW19372   3.642   2.371  17.029 -0.3978  0.5536  0.1943
 2579SOL    HW119373   3.651   2.462  17.056  0.4643  0.3934  0.4385
 2579SOL    HW219374   3.645   2.326  17.113  1.8406  2.0718  0.9184
 2580SOL     OW19375   1.186   3.508   7.758  0.2406 -0.1075  0.0936
 2580SOL    HW119376   1.193   3.522   7.664 -1.4937 -0.0519 -0.0298
 2580SOL    HW219377   1.142   3.423   7.758 -1.3814  0.7271  0.3153
 2581SOL     OW19378   0.829   1.999   6.314  0.0168  0.5585 -0.5537
 2581SOL    HW119379   0.808   2.034   6.228 -1.9034 -0.7018 -0.5825
 2581SOL    HW219380   0.742   1.973   6.343 -0.0617  2.6013  1.1156
 2582SOL     OW19381   1.767   3.258   2.896 -0.3453  0.2815  0.0873
 2582SOL    HW119382   1.859   3.236   2.878 -0.8427 -2.0552  0.4592
 2582SOL    HW219383   1.718   3.269   2.815  0.1366  0.5853 -0.1644
 2583SOL     OW19384   2.969   1.407  14.010 -0.1290 -0.3553  0.1941
 2583SOL    HW119385   2.880   1.409  13.975 -0.0582  3.1359  0.2380
 2583SOL    HW219386   3.022   1.424  13.932  0.3654 -0.2510  0.5510
 2584SOL     OW19387   3.520   3.456   8.037  0.4332 -0.2529 -0.0063
 2584SOL    HW119388   3.487   3.448   8.126 -2.6945  0.2647 -1.1205
 2584SOL    HW219389   3.518   3.364   8.011  2.0498 -0.3452  0.2217
 2585SOL     OW19390   2.151   3.016   4.801  0.1467 -0.1753 -0.4102
 2585SOL    HW119391   2.243   2.996   4.783  0.5522  2.5782 -1.3704
 2585SOL    HW219392   2.111   2.960   4.735  3.0919 -0.6384 -1.8377
 2586SOL     OW19393   1.069   2.307  12.457  0.2204 -0.4631  0.4197
 2586SOL    HW119394   1.138   2.265  12.407 -1.2178 -1.0837 -1.0453
 2586SOL    HW219395   1.049   2.245  12.527 -1.3539  0.6690  0.9806
 2587SOL     OW19396   2.988   4.436   8.249 -0.5045 -0.6681 -0.1134
 2587SOL    HW119397   3.006   4.454   8.342  1.3092 -1.6430 -0.2698
 2587SOL    HW219398   3.027   4.513   8.210 -0.7560  0.0823  1.1127
 2588SOL     OW19399   4.558   3.233   9.122 -0.4066 -0.6076 -0.7427
 2588SOL    HW119400   4.633   3.185   9.085  0.1294  0.5899 -1.2114
 2588SOL    HW219401   4.492   3.165   9.107 -2.4290  1.0851  0.4577
 2589SOL     OW19402   2.624   2.985   2.556  0.0568 -0.1810  0.0576
 2589SOL    HW119403   2.643   2.909   2.611  0.3333  0.4202  0.7847
 2589SOL    HW219404   2.662   3.061   2.598 -1.6450  0.7076 -0.0267
 2590SOL     OW19405   2.640   3.272   8.670 -0.4936 -0.3808  0.3986
 2590SOL    HW119406   2.653   3.218   8.748 -1.0013  0.4736  1.0835
 2590SOL    HW219407   2.730   3.279   8.639 -1.4658  3.9651 -1.3652
 2591SOL     OW19408   1.171   1.374   7.896  0.3092  0.9978  0.4738
 2591SOL    HW119409   1.255   1.388   7.940  0.2191 -1.5170  1.4739
 2591SOL    HW219410   1.157   1.452   7.843 -0.6460 -1.2589 -2.6119
 2592SOL     OW19411   1.171   0.332   2.529 -0.0134  0.1769  0.1696
 2592SOL    HW119412   1.094   0.389   2.522  0.7332  1.0074 -1.3933
 2592SOL    HW219413   1.189   0.342   2.622 -1.2363  1.4242  0.2748
 2593SOL     OW19414   2.706   3.671   4.018 -0.3194 -0.1557 -0.2726
 2593SOL    HW119415   2.661   3.597   4.059  1.1062 -1.0532 -0.2972
 2593SOL    HW219416   2.799   3.649   4.028 -0.4007  0.4602  1.8660
 2594SOL     OW19417   4.698   3.915   2.529  0.1049 -0.1843 -0.4097
 2594SOL    HW119418   4.642   3.988   2.553  0.1151  0.2058 -1.5666
 2594SOL    HW219419   4.641   3.846   2.562 -0.8755  1.3371  1.0394
 2595SOL     OW19420   3.749   3.847  15.137  0.3824  0.3274  0.1005
 2595SOL    HW119421   3.749   3.942  15.145  0.4816  0.4176 -0.9713
 2595SOL    HW219422   3.663   3.832  15.097 -0.6841 -2.2505  3.4149
 2596SOL     OW19423   4.507   0.578   5.040 -0.4381 -0.6567 -0.5691
 2596SOL    HW119424   4.591   0.610   5.073 -0.9914 -2.3883  2.4892
 2596SOL    HW219425   4.453   0.627   5.102 -0.4023  0.4751 -1.4293
 2597SOL     OW19426   1.038   3.961   9.370  0.7141 -0.4043 -0.5349
 2597SOL    HW119427   0.994   4.000   9.295 -0.8604 -0.7563  0.2154
 2597SOL    HW219428   1.126   3.979   9.336  1.7904 -2.1009  1.3475
 2598SOL     OW19429   2.891   3.467   3.149  0.2518  0.1392 -0.1676
 2598SOL    HW119430   2.813   3.522   3.147 -0.2823 -0.7109 -2.0888
 2598SOL    HW219431   2.937   3.528   3.207  0.5971 -0.4686  0.1913
 2599SOL     OW19432   1.041   1.368  16.901 -1.1000 -0.1011  0.6693
 2599SOL    HW119433   1.000   1.306  16.962 -0.4369 -2.4269 -1.2057
 2599SOL    HW219434   1.099   1.412  16.963  1.1905 -1.3000 -0.5851
 2600SOL     OW19435   3.252   1.507  16.723  0.0250  0.0934 -0.5279
 2600SOL    HW119436   3.287   1.547  16.643  0.1891 -0.7347 -0.8738
 2600SOL    HW219437   3.214   1.426  16.687  0.4447 -0.2749 -0.1420
 2601SOL     OW19438   2.770   1.720   2.868 -0.2066 -0.1842  0.1043
 2601SOL    HW119439   2.780   1.649   2.932 -1.9977 -0.6543 -0.1450
 2601SOL    HW219440   2.763   1.677   2.783 -0.8874 -1.5252  0.8364
 2602SOL     OW19441   4.427   1.273   1.972 -0.6710 -0.3392 -0.1661
 2602SOL    HW119442   4.337   1.303   1.985 -1.2698 -1.4705 -1.6905
 2602SOL    HW219443   4.412   1.228   1.889 -0.3784 -2.1516  0.7622
 2603SOL     OW19444   4.524   3.692  12.245  0.0955  0.2654  0.5130
 2603SOL    HW119445   4.459   3.629  12.276 -0.6739  0.3949 -0.8234
 2603SOL    HW219446   4.495   3.706  12.155  1.4458 -0.6153 -0.0667
 2604SOL     OW19447   2.588   1.802   9.937 -0.2685  0.0466  0.5167
 2604SOL    HW119448   2.595   1.893   9.966  0.6063 -0.4316  1.7814
 2604SOL    HW219449   2.674   1.772   9.968  0.4167 -1.1420 -2.5068
 2605SOL     OW19450   4.371   2.066   4.079 -0.0459  0.0319  0.0765
 2605SOL    HW119451   4.320   2.087   4.001 -0.2722  0.7474  0.4126
 2605SOL    HW219452   4.365   1.971   4.076  1.1335 -0.0605  0.7649
 2606SOL     OW19453   0.102   0.391   7.435 -0.2881 -0.5371  0.0472
 2606SOL    HW119454   0.036   0.421   7.496  0.4698 -0.2173  0.7067
 2606SOL    HW219455   0.163   0.464   7.429  0.6792 -1.4432 -1.3535
 2607SOL     OW19456   2.671   3.649   8.775  0.2587 -0.3493 -0.0612
 2607SOL    HW119457   2.712   3.710   8.715 -0.7117  0.6125  0.2584
 2607SOL    HW219458   2.610   3.605   8.716  0.5969  1.8915 -2.0587
 2608SOL     OW19459   2.264   1.924   9.410  0.1310  0.1122 -0.1124
 2608SOL    HW119460   2.351   1.885   9.408 -1.2715 -2.9182 -2.3533
 2608SOL    HW219461   2.226   1.877   9.485  1.1076 -0.9807 -0.3074
 2609SOL     OW19462   4.407   3.233   1.584 -0.1715  0.2115 -0.1986
 2609SOL    HW119463   4.331   3.273   1.541  0.4240  2.0523  0.4699
 2609SOL    HW219464   4.359   3.190   1.655 -0.7094  2.4209  0.7842
 2610SOL     OW19465   1.215   2.285   0.881 -0.1020  0.1227  0.4140
 2610SOL    HW119466   1.216   2.369   0.835  0.0907 -0.9885 -1.5809
 2610SOL    HW219467   1.203   2.224   0.808 -1.3568  1.3078 -0.3776
 2611SOL     OW19468   2.274   0.089   7.905 -0.0119 -0.6409  0.4807
 2611SOL    HW119469   2.361   0.129   7.902 -0.4660  0.2282 -1.2111
 2611SOL    HW219470   2.272   0.039   7.824  2.3427 -1.7245  1.0733
 2612SOL     OW19471   3.421   4.412   2.387 -0.0260  0.2097  0.1761
 2612SOL    HW119472   3.365   4.345   2.349  0.4550  1.0277 -1.9872
 2612SOL    HW219473   3.381   4.489   2.346 -2.3411 -0.7701  0.5898
 2613SOL     OW19474   3.129   3.934   7.533 -0.4682  0.2283  0.0944
 2613SOL    HW119475   3.051   3.955   7.481  0.5100  0.6987 -1.2082
 2613SOL    HW219476   3.174   4.018   7.521 -2.2817  1.1189 -0.5797
 2614SOL     OW19477   2.770   3.161   2.709 -0.6319 -0.4198 -0.5195
 2614SOL    HW119478   2.862   3.135   2.719 -0.2086  1.1340 -0.1849
 2614SOL    HW219479   2.772   3.248   2.751 -1.9198 -0.7408  0.1972
 2615SOL     OW19480   3.849   4.438  11.222 -0.1585  0.4455  0.2856
 2615SOL    HW119481   3.871   4.364  11.277  2.1268  0.4802 -0.6013
 2615SOL    HW219482   3.767   4.414  11.177 -0.4701 -0.3466  1.2912
 2616SOL     OW19483   4.417   3.662   5.906 -0.2066  0.6005  0.2569
 2616SOL    HW119484   4.402   3.586   5.963  1.2220  1.3793  1.6700
 2616SOL    HW219485   4.448   3.621   5.826  1.7698  0.5851  1.0316
 2617SOL     OW19486   4.095   2.633  12.192 -0.1504  0.6682  0.1109
 2617SOL    HW119487   4.013   2.664  12.230  0.5006  2.4448  0.0706
 2617SOL    HW219488   4.076   2.539  12.197  2.0686  0.3060  1.6548
 2618SOL     OW19489   0.490   2.046  14.872  0.2865  0.6338  0.2877
 2618SOL    HW119490   0.491   1.954  14.844 -0.5091  0.6508  0.2179
 2618SOL    HW219491   0.580   2.049  14.906 -0.1605  0.9842  1.4366
 2619SOL     OW19492   3.675   0.356   6.279 -0.2340 -0.1004  0.6010
 2619SOL    HW119493   3.648   0.359   6.371 -0.1441  0.6691  0.5992
 2619SOL    HW219494   3.730   0.278   6.280 -0.0824 -0.0471 -3.5997
 2620SOL     OW19495   0.284   3.848   7.294  0.1275 -0.4571  0.4216
 2620SOL    HW119496   0.256   3.914   7.357  2.1337  2.0584 -1.3241
 2620SOL    HW219497   0.196   3.813   7.279  1.0557 -1.9662 -1.5710
 2621SOL     OW19498   1.490   2.253   7.741  0.3165  0.2363 -0.3981
 2621SOL    HW119499   1.442   2.290   7.815 -2.9590 -0.3190 -2.2430
 2621SOL    HW219500   1.462   2.314   7.673 -0.1352  1.1585  0.6170
 2622SOL     OW19501   2.140   1.570   7.620  0.0500  0.4331  0.1073
 2622SOL    HW119502   2.162   1.653   7.578 -1.4922  1.3848  1.1646
 2622SOL    HW219503   2.072   1.545   7.558  0.4235 -1.0641  0.3030
 2623SOL     OW19504   0.437   3.298   5.906  0.0503  0.5213  0.5494
 2623SOL    HW119505   0.401   3.247   5.979  2.6309  1.3565  2.3899
 2623SOL    HW219506   0.524   3.322   5.937  0.6880 -2.6887  1.2240
 2624SOL     OW19507   1.535   3.304   3.658 -0.2177 -0.1230  0.0355
 2624SOL    HW119508   1.565   3.264   3.740 -0.8079 -0.2973  0.1660
 2624SOL    HW219509   1.459   3.254   3.627  0.7591 -0.5015 -1.6945
 2625SOL     OW19510   0.049   4.027   4.296 -0.3945  0.3573  0.6905
 2625SOL    HW119511   0.099   3.996   4.220 -0.3287  2.1624 -0.0065
 2625SOL    HW219512   0.041   3.957   4.360  0.2334  0.7758  1.2271
 2626SOL     OW19513   3.362   3.756  17.112  0.2006  0.0269 -0.1696
 2626SOL    HW119514   3.370   3.675  17.162  2.0544  1.2525  1.5195
 2626SOL    HW219515   3.372   3.823  17.179  0.5900 -0.8188  0.6096
 2627SOL     OW19516   1.355   1.944  10.896 -0.0625  0.4198  0.2221
 2627SOL    HW119517   1.329   1.900  10.976 -0.6164 -1.3876 -0.9409
 2627SOL    HW219518   1.437   1.902  10.868  0.0161  0.4136  0.4676
 2628SOL     OW19519   2.052   1.095   8.852  0.3265 -0.7445  0.1239
 2628SOL    HW119520   2.125   1.156   8.841 -0.4597 -0.2015 -2.1114
 2628SOL    HW219521   2.073   1.013   8.807  2.0212  0.1257 -0.7081
 2629SOL     OW19522   0.367   2.842   3.466 -0.5302 -0.0373 -0.1793
 2629SOL    HW119523   0.372   2.761   3.516  0.1859  0.0444 -0.1275
 2629SOL    HW219524   0.319   2.897   3.528  2.0480  0.1550  1.6311
 2630SOL     OW19525   1.148   4.291  10.642 -0.5047  0.0369  0.3589
 2630SOL    HW119526   1.235   4.322  10.667 -0.2673 -0.3226 -0.0280
 2630SOL    HW219527   1.138   4.304  10.548 -1.1890 -0.1294  0.4097
 2631SOL     OW19528   0.605   4.502   8.135  0.5743 -0.2111 -0.2590
 2631SOL    HW119529   0.661   4.579   8.131 -0.9633  0.8169 -2.3254
 2631SOL    HW219530   0.672   4.434   8.128  0.3418 -0.6121  1.5490
 2632SOL     OW19531   1.836   4.717   9.032 -0.8814 -0.3102  0.1803
 2632SOL    HW119532   1.804   0.069   9.051 -1.4650  0.2843 -3.5437
 2632SOL    HW219533   1.793   4.700   8.948 -0.0928 -3.2391  0.3738
 2633SOL     OW19534   4.438   0.839   1.780  0.1561  1.0940  0.0922
 2633SOL    HW119535   4.394   0.876   1.703  1.4687  2.4494  0.0017
 2633SOL    HW219536   4.484   0.767   1.737  1.6896  2.3595 -0.3817
 2634SOL     OW19537   3.575   4.089  14.351  0.2849 -0.6757  0.1169
 2634SOL    HW119538   3.642   4.130  14.405  1.0189 -0.2062 -1.1377
 2634SOL    HW219539   3.572   3.999  14.384 -1.8427 -0.4506  0.5394
 2635SOL     OW19540   1.591   4.583   6.424 -0.0971  0.1552 -0.3159
 2635SOL    HW119541   1.625   4.672   6.422  1.4416 -0.4362 -0.3709
 2635SOL    HW219542   1.643   4.531   6.485 -1.7263 -0.3311  0.6596
 2636SOL     OW19543   2.373   0.660   3.787 -0.2236  0.0867 -0.2464
 2636SOL    HW119544   2.428   0.595   3.743 -0.9182  0.7285 -2.0838
 2636SOL    HW219545   2.310   0.594   3.814 -0.3061  0.0405 -0.5512
 2637SOL     OW19546   1.840   3.103   5.120 -0.2354 -0.2940 -0.3028
 2637SOL    HW119547   1.904   3.161   5.080 -0.9503  0.5012 -0.2838
 2637SOL    HW219548   1.863   3.018   5.083  0.8470 -0.7268  1.3633
 2638SOL     OW19549   2.889   0.590   5.991  0.3141  0.9016 -0.1380
 2638SOL    HW119550   2.843   0.630   5.917 -1.6802  2.0728  1.7319
 2638SOL    HW219551   2.924   0.513   5.947 -0.8658 -0.2193  0.9017
 2639SOL     OW19552   2.472   2.189   7.241  0.6234 -0.2329 -0.4963
 2639SOL    HW119553   2.473   2.277   7.278  1.4554 -0.7140  0.5969
 2639SOL    HW219554   2.434   2.212   7.156  0.9449  0.9346 -0.3215
 2640SOL     OW19555   3.290   4.427  10.111 -0.4627 -0.0148  0.1302
 2640SOL    HW119556   3.316   4.506  10.159  2.0231 -0.4394 -0.5191
 2640SOL    HW219557   3.217   4.465  10.062 -1.6100 -0.1703  1.6914
 2641SOL     OW19558   0.629   3.016   5.619  0.2285  0.2853 -0.3288
 2641SOL    HW119559   0.687   2.948   5.586 -0.2580  0.4751 -1.5664
 2641SOL    HW219560   0.630   2.994   5.712 -1.6146 -1.3789 -0.6813
 2642SOL     OW19561   2.561   1.240   3.237  0.2776  0.3584 -0.1008
 2642SOL    HW119562   2.592   1.254   3.327  2.1307 -0.5047 -0.6156
 2642SOL    HW219563   2.500   1.313   3.235  0.4258  0.4454 -1.0383
 2643SOL     OW19564   1.686   4.658   3.462 -0.3623  0.0713  0.1802
 2643SOL    HW119565   1.765   4.683   3.509 -0.8085  1.5505  0.1448
 2643SOL    HW219566   1.686   4.563   3.445 -4.3624 -0.1151  1.2137
 2644SOL     OW19567   2.247   1.219   5.741  0.5115 -0.8046  0.2159
 2644SOL    HW119568   2.295   1.303   5.740  0.1254 -0.5544  2.7199
 2644SOL    HW219569   2.281   1.164   5.670  2.5221  2.0956 -1.0655
 2645SOL     OW19570   3.718   2.642   9.188 -0.1642  0.5781  0.4253
 2645SOL    HW119571   3.811   2.648   9.170  0.0724  1.1574  1.8022
 2645SOL    HW219572   3.700   2.554   9.157 -1.9775  0.9203  0.4545
 2646SOL     OW19573   2.506   0.048   5.492  0.2283 -0.1663  0.1815
 2646SOL    HW119574   2.560   0.110   5.443 -0.6270  1.6709  1.5948
 2646SOL    HW219575   2.427   0.047   5.438 -0.4275  0.2929  1.1493
 2647SOL     OW19576   1.781   2.920   6.613 -0.1321  0.4233  0.2514
 2647SOL    HW119577   1.712   2.952   6.555 -1.1593 -2.2755 -0.0252
 2647SOL    HW219578   1.866   2.933   6.571 -0.2392 -1.1767 -0.4769
 2648SOL     OW19579   4.376   0.813   5.976  0.1898  0.2328  0.6278
 2648SOL    HW119580   4.422   0.826   5.894  1.2041  2.1103  1.5037
 2648SOL    HW219581   4.408   0.727   6.003  0.8231  1.3376  3.4328
 2649SOL     OW19582   3.424   0.736   0.147 -0.8966  0.2271  0.2903
 2649SOL    HW119583   3.446   0.797   0.217  0.4490  1.0911 -0.8901
 2649SOL    HW219584   3.490   0.669   0.163 -0.6372  0.5865  0.7491
 2650SOL     OW19585   2.170   3.500   0.974 -0.2124  0.4418  0.5682
 2650SOL    HW119586   2.164   3.442   1.049  2.6164 -0.7739 -0.1526
 2650SOL    HW219587   2.242   3.458   0.928 -0.6343  0.9106 -0.5203
 2651SOL     OW19588   3.380   1.398   8.214 -0.5891  0.1604  0.2034
 2651SOL    HW119589   3.402   1.479   8.167 -0.2442 -1.0497 -1.7165
 2651SOL    HW219590   3.287   1.418   8.219 -0.7132 -0.4866  0.3628
 2652SOL     OW19591   2.369   3.078  13.135  0.2650  0.2826 -0.2759
 2652SOL    HW119592   2.420   2.999  13.153  2.0546  1.6498  0.5953
 2652SOL    HW219593   2.359   3.116  13.223 -0.9182  1.3419 -0.8653
 2653SOL     OW19594   3.368   4.063   0.191 -0.3413  0.5406 -0.0489
 2653SOL    HW119595   3.393   4.117   0.116  0.0759  1.2485  0.6008
 2653SOL    HW219596   3.272   4.065   0.185 -0.3952  0.5469  0.7686
 2654SOL     OW19597   4.734   2.019  10.886 -0.1935 -0.0438  0.1434
 2654SOL    HW119598   0.048   2.017  10.968  0.6001 -1.2585 -0.3724
 2654SOL    HW219599   0.007   2.112  10.865 -0.3265 -0.0779 -0.0638
 2655SOL     OW19600   4.191   2.955   7.227 -1.1707 -0.4392  0.2528
 2655SOL    HW119601   4.212   2.914   7.311 -1.8969  0.5821  0.9218
 2655SOL    HW219602   4.106   2.996   7.237 -1.5657 -1.3386  0.6312
 2656SOL     OW19603   3.602   4.149   4.665 -1.3678 -0.4608  0.0498
 2656SOL    HW119604   3.586   4.194   4.748 -0.1430  0.2718 -0.1228
 2656SOL    HW219605   3.530   4.086   4.664 -0.7384 -1.1531 -1.2709
 2657SOL     OW19606   0.954   2.690  16.065 -0.1328  0.6429  0.4851
 2657SOL    HW119607   0.942   2.619  16.001 -2.7389  0.5904  1.0219
 2657SOL    HW219608   0.871   2.672  16.110  0.2584 -1.1645  0.4977
 2658SOL     OW19609   2.519   0.594  15.057  0.0304  0.4625 -0.1152
 2658SOL    HW119610   2.547   0.684  15.074  1.4059  0.4884 -2.4371
 2658SOL    HW219611   2.568   0.572  14.978 -0.3214 -0.8258  0.0235
 2659SOL     OW19612   0.177   1.227   1.324 -0.6179 -0.0739  0.2823
 2659SOL    HW119613   0.139   1.266   1.246 -2.3667  2.2191  2.2758
 2659SOL    HW219614   0.201   1.302   1.379  1.3689 -0.0897 -0.5417
 2660SOL     OW19615   3.705   4.649   7.486 -0.5031  0.4209  0.2340
 2660SOL    HW119616   3.669   4.564   7.463 -0.6580  0.3321  0.8176
 2660SOL    HW219617   3.618   4.688   7.494 -0.6814 -0.4873  2.5112
 2661SOL     OW19618   0.475   3.865   3.828  0.0401 -0.5692  0.0804
 2661SOL    HW119619   0.544   3.926   3.855 -1.0045  1.4979 -1.9054
 2661SOL    HW219620   0.529   3.791   3.801  0.4035  0.3109 -1.6098
 2662SOL     OW19621   3.728   4.651   1.410  0.1842 -0.3301 -0.2559
 2662SOL    HW119622   3.704   4.682   1.323 -0.3246 -0.6528 -0.2367
 2662SOL    HW219623   3.652   4.690   1.454  1.3590  0.8153  0.7554
 2663SOL     OW19624   2.048   1.457   2.707 -0.1327 -0.1951  0.2743
 2663SOL    HW119625   2.091   1.412   2.780  1.3395 -2.1018 -1.7607
 2663SOL    HW219626   2.065   1.397   2.633 -0.4800 -1.0130  0.8642
 2664SOL     OW19627   3.576   1.232  15.757  0.2097 -0.8470  0.8515
 2664SOL    HW119628   3.568   1.316  15.803  0.3968 -0.7083  0.6368
 2664SOL    HW219629   3.600   1.249  15.665  1.5999  2.6848  1.8720
 2665SOL     OW19630   1.059   3.871  13.297  0.0158 -0.3322 -0.4170
 2665SOL    HW119631   1.049   3.965  13.309 -0.5463 -0.6476  1.6285
 2665SOL    HW219632   1.022   3.846  13.381 -0.2719  1.9739  0.1471
 2666SOL     OW19633   4.277   1.658   4.337 -0.1170 -0.8282 -0.0502
 2666SOL    HW119634   4.346   1.724   4.338 -1.4656  0.5548  1.7569
 2666SOL    HW219635   4.209   1.702   4.388  0.8604  1.2940 -0.5761
 2667SOL     OW19636   4.297   1.440   9.033 -0.2469 -0.6574  0.5608
 2667SOL    HW119637   4.333   1.509   9.089 -0.8566  1.8479 -2.1169
 2667SOL    HW219638   4.210   1.423   9.070 -0.4850 -1.3338 -0.3076
 2668SOL     OW19639   0.726   3.816  15.757 -0.2356  0.0764 -0.7357
 2668SOL    HW119640   0.784   3.757  15.708  1.4672  1.2110 -0.1123
 2668SOL    HW219641   0.734   3.890  15.697 -1.4523  0.7022 -0.1050
 2669SOL     OW19642   4.351   4.138   0.870  0.7913 -0.1018 -0.2711
 2669SOL    HW119643   4.306   4.216   0.902  1.5859 -0.3503  1.4408
 2669SOL    HW219644   4.417   4.171   0.809  1.8201  0.2345  1.0319
 2670SOL     OW19645   4.200   1.651  14.563  0.4386  0.2796 -0.4118
 2670SOL    HW119646   4.139   1.631  14.634 -0.2546 -3.4610 -2.1055
 2670SOL    HW219647   4.142   1.642  14.488 -0.6229  3.1875  0.0743
 2671SOL     OW19648   0.008   1.727   9.275 -0.2980  0.2474 -0.0765
 2671SOL    HW119649   4.690   1.805   9.280  0.0392  0.5906 -1.6730
 2671SOL    HW219650   0.040   1.704   9.362  1.6637  3.0083 -0.0760
 2672SOL     OW19651   4.140   2.287   6.979  0.1829 -0.1837  0.4923
 2672SOL    HW119652   4.167   2.258   7.067  1.7393  2.1902  0.7815
 2672SOL    HW219653   4.203   2.248   6.919  1.6289  0.6455  1.4725
 2673SOL     OW19654   2.550   4.726   9.113 -0.1071 -0.1072 -0.1690
 2673SOL    HW119655   2.646   4.726   9.118 -0.1966 -0.0440  1.4300
 2673SOL    HW219656   2.536   0.068   9.059 -1.4737 -0.7937 -0.7961
 2674SOL     OW19657   3.833   1.993   7.378 -0.1918 -0.2687 -0.9198
 2674SOL    HW119658   3.925   1.984   7.352  0.1768 -0.4598  0.4139
 2674SOL    HW219659   3.846   2.079   7.417 -1.8829 -1.2528  1.7974
 2675SOL     OW19660   0.430   0.440  12.387  0.2057 -0.5415  0.0296
 2675SOL    HW119661   0.428   0.536  12.385  0.2094 -0.5680 -1.1085
 2675SOL    HW219662   0.365   0.419  12.321  0.7149 -1.0954 -0.2915
 2676SOL     OW19663   1.101   2.977  14.781 -0.6627  0.1710 -0.3080
 2676SOL    HW119664   1.034   2.931  14.730 -2.1530  0.5433  1.2756
 2676SOL    HW219665   1.083   3.067  14.754  2.3656  1.5639  2.2955
 2677SOL     OW19666   1.055   1.034  12.168  0.9538 -0.0958 -0.2278
 2677SOL    HW119667   1.139   1.021  12.124  2.5817  0.5079  2.6799
 2677SOL    HW219668   1.022   0.947  12.191 -1.1185  0.6430 -0.4058
 2678SOL     OW19669   0.197   0.131   0.026 -0.4474  0.3256  0.4609
 2678SOL    HW119670   0.122   0.189   0.034  0.5939  1.5805  1.1708
 2678SOL    HW219671   0.199   0.116   0.121  0.8327 -0.1911  0.3580
 2679SOL     OW19672   0.107   1.859   2.503  0.3960 -0.2689 -0.0418
 2679SOL    HW119673   0.097   1.929   2.568 -1.1832 -0.4559 -0.0829
 2679SOL    HW219674   0.132   1.784   2.556 -0.5799  0.0849  0.9439
 2680SOL     OW19675   2.478   3.932   9.593  0.2328  0.5467 -0.4382
 2680SOL    HW119676   2.434   4.010   9.559 -0.1370  0.3510 -0.4112
 2680SOL    HW219677   2.557   3.978   9.619  0.5047  0.2011 -0.6493
 2681SOL     OW19678   2.069   3.488   8.692  0.6501 -0.2126 -0.3917
 2681SOL    HW119679   2.067   3.557   8.626 -1.8947 -0.2059 -0.3081
 2681SOL    HW219680   2.076   3.546   8.768 -0.6515  1.1740 -1.3232
 2682SOL     OW19681   2.342   3.338   4.943  0.0593  0.1590 -0.5820
 2682SOL    HW119682   2.347   3.352   4.848  1.9101 -1.2432 -0.7101
 2682SOL    HW219683   2.432   3.353   4.974 -0.8246  0.1440  1.9990
 2683SOL     OW19684   1.008   4.513   4.248  0.0473  0.5663  0.0278
 2683SOL    HW119685   1.086   4.556   4.285  0.7141 -2.1877  1.7887
 2683SOL    HW219686   0.995   4.432   4.298 -1.3823  2.3574  2.5983
 2684SOL     OW19687   4.395   2.510   2.784  0.3761  0.1860  0.6687
 2684SOL    HW119688   4.335   2.564   2.835  0.7357  1.5317 -0.3316
 2684SOL    HW219689   4.438   2.465   2.857  0.7138  1.3683  1.2085
 2685SOL     OW19690   0.746   3.932   5.455 -0.2947 -0.0959 -0.2163
 2685SOL    HW119691   0.783   3.928   5.543  0.4995 -0.3133 -0.5603
 2685SOL    HW219692   0.674   3.873   5.476  0.4741  0.0563  2.8488
 2686SOL     OW19693   0.003   2.679   4.155  0.3713  0.2974  0.3924
 2686SOL    HW119694   0.001   2.722   4.240 -1.0692  0.2965  0.3594
 2686SOL    HW219695   4.675   2.734   4.109 -2.5580 -3.0577  0.5266
 2687SOL     OW19696   0.329   0.702   7.023 -0.0464 -0.8207  0.1753
 2687SOL    HW119697   0.308   0.738   6.937 -0.7072 -2.2224 -0.2588
 2687SOL    HW219698   0.255   0.643   7.036 -2.2779  1.7156 -1.2749
 2688SOL     OW19699   0.993   4.611   5.632  0.1207  0.4823 -0.2169
 2688SOL    HW119700   1.078   4.639   5.666 -0.3316 -0.5587  1.7798
 2688SOL    HW219701   0.959   4.692   5.594  0.9379 -0.7509 -3.5389
 2689SOL     OW19702   2.363   1.498   4.982  0.5602  0.2059  0.4306
 2689SOL    HW119703   2.417   1.570   5.015 -1.5510  1.9981 -0.0187
 2689SOL    HW219704   2.310   1.542   4.916 -0.6411 -2.1885 -0.2234
 2690SOL     OW19705   2.346   2.330   7.044  0.3928  0.7970 -0.0720
 2690SOL    HW119706   2.269   2.356   7.095 -0.9665 -2.8740 -0.2944
 2690SOL    HW219707   2.301   2.278   6.978  0.0652  0.6996  0.2283
 2691SOL     OW19708   1.842   3.972   1.849  0.4489  0.1818 -0.1090
 2691SOL    HW119709   1.896   4.030   1.903  1.2413 -0.7683  0.1149
 2691SOL    HW219710   1.761   4.021   1.833  0.9799  0.9422 -0.4211
 2692SOL     OW19711   1.527   4.453  13.913 -0.3160 -0.2220 -0.7266
 2692SOL    HW119712   1.457   4.397  13.948 -0.2285 -0.6628 -1.2523
 2692SOL    HW219713   1.580   4.384  13.873  2.8594  1.9010 -0.1577
 2693SOL     OW19714   2.740   1.281   2.550  0.7494  0.5134 -0.4161
 2693SOL    HW119715   2.748   1.204   2.606  0.9235  1.7214  1.2180
 2693SOL    HW219716   2.647   1.292   2.529  0.1196 -1.5201  1.2411
 2694SOL     OW19717   3.577   1.836   5.987 -0.3567  0.3848  0.3659
 2694SOL    HW119718   3.564   1.806   5.897  4.0570  0.2408 -0.2199
 2694SOL    HW219719   3.608   1.766   6.045  3.1391 -0.2839 -2.3515
 2695SOL     OW19720   4.105   2.897   4.999 -0.1578  0.3399 -0.1129
 2695SOL    HW119721   4.113   2.876   4.906  1.2676  0.1445  0.0658
 2695SOL    HW219722   4.169   2.967   5.011 -1.5670  1.8166 -1.2575
 2696SOL     OW19723   1.575   3.117  11.309  0.0753 -0.3471 -0.5551
 2696SOL    HW119724   1.604   3.040  11.261  2.9931 -0.0167  0.6934
 2696SOL    HW219725   1.637   3.120  11.382 -0.1394 -4.1346 -0.2255
 2697SOL     OW19726   0.308   4.234   7.966 -0.7284 -0.0001  0.3760
 2697SOL    HW119727   0.360   4.237   8.047  1.2689  0.7717 -0.9543
 2697SOL    HW219728   0.238   4.288   8.002  1.2207  2.6557  0.1426
 2698SOL     OW19729   2.454   0.365   3.704 -0.4579  0.0439  0.0197
 2698SOL    HW119730   2.447   0.300   3.634  3.8467  1.1435 -1.4260
 2698SOL    HW219731   2.369   0.404   3.685 -0.6740 -0.0214  0.8600
 2699SOL     OW19732   0.842   4.640   1.727  0.0236 -0.1365  0.8137
 2699SOL    HW119733   0.852   4.735   1.724  0.1388 -0.2026 -1.2398
 2699SOL    HW219734   0.758   4.625   1.769  0.3758  0.7609  1.8423
 2700SOL     OW19735   0.466   4.538   5.628  0.2241  0.7390  0.2408
 2700SOL    HW119736   0.426   4.542   5.541  1.0357  1.2728 -0.1087
 2700SOL    HW219737   0.419   4.472   5.680  1.5939  0.1560  0.7365
 2701SOL     OW19738   3.987   0.856  13.715  0.2549  0.6066 -0.3239
 2701SOL    HW119739   3.952   0.933  13.760 -2.1533 -1.1022  0.7300
 2701SOL    HW219740   4.056   0.896  13.661 -0.1370  1.7159 -0.0133
 2702SOL     OW19741   1.836   3.563   2.595  0.1812 -0.1611 -0.1240
 2702SOL    HW119742   1.916   3.606   2.625 -0.1701  1.2320 -1.2017
 2702SOL    HW219743   1.806   3.624   2.528  0.4330 -1.2891 -1.2564
 2703SOL     OW19744   2.909   4.339  10.816  0.5912 -0.5930 -0.4952
 2703SOL    HW119745   2.887   4.277  10.746  1.3609 -0.4986 -0.8213
 2703SOL    HW219746   2.854   4.301  10.885  3.1689 -1.8350  0.9201
 2704SOL     OW19747   0.753   3.149   2.961  0.2488  0.2139  0.3442
 2704SOL    HW119748   0.787   3.162   3.050  2.1881 -0.3911 -0.3040
 2704SOL    HW219749   0.823   3.102   2.916  1.3569  2.6504 -0.4873
 2705SOL     OW19750   0.567   2.449   4.034  0.3592  0.2076 -0.3497
 2705SOL    HW119751   0.632   2.485   3.973  1.1756 -0.8423 -0.1056
 2705SOL    HW219752   0.596   2.358   4.040  0.2195  0.0743 -1.5580
 2706SOL     OW19753   4.284   4.683   5.853  0.3284  0.0030 -0.0478
 2706SOL    HW119754   4.274   4.710   5.944  1.7790  3.3991 -0.9037
 2706SOL    HW219755   4.193   4.673   5.823  0.2797 -2.0886  0.7838
 2707SOL     OW19756   3.609   4.721   0.190  0.2794 -0.1795 -0.5393
 2707SOL    HW119757   3.603   4.628   0.169 -0.1244 -0.3652  0.4096
 2707SOL    HW219758   3.649   0.014   0.108  2.7207  0.2635  0.8128
 2708SOL     OW19759   0.743   3.124   9.668 -0.7664 -0.0026  0.1797
 2708SOL    HW119760   0.741   3.071   9.588 -1.8283  1.8271 -1.0075
 2708SOL    HW219761   0.654   3.156   9.679 -0.4963  0.3558  1.3029
 2709SOL     OW19762   3.532   2.893   2.535  0.4632  0.1671 -0.5978
 2709SOL    HW119763   3.450   2.845   2.548 -0.3056  1.4668 -0.6378
 2709SOL    HW219764   3.605   2.843   2.573  0.9294  0.5862 -0.9458
 2710SOL     OW19765   4.692   0.065   5.289 -0.0796 -0.9633  0.1637
 2710SOL    HW119766   4.663   0.146   5.248  0.2043 -1.2708 -0.6436
 2710SOL    HW219767   4.642   0.077   5.370  0.4306  1.9277  0.0555
 2711SOL     OW19768   3.214   4.394   0.373 -0.1383 -0.3693 -0.2260
 2711SOL    HW119769   3.218   4.346   0.291  2.3892 -0.3694 -0.0965
 2711SOL    HW219770   3.213   4.322   0.435 -0.1548  2.1054  2.6857
 2712SOL     OW19771   3.265   1.746  12.376 -0.1414 -0.1749  0.3152
 2712SOL    HW119772   3.293   1.663  12.413  3.2224  0.8824  0.1174
 2712SOL    HW219773   3.231   1.792  12.453  0.8182 -1.1925  1.3330
 2713SOL     OW19774   1.137   2.541   5.461  0.0991  0.5098  0.2182
 2713SOL    HW119775   1.065   2.527   5.400  0.2110 -0.2856  0.2740
 2713SOL    HW219776   1.168   2.451   5.470  0.9476  0.3379 -4.5702
 2714SOL     OW19777   4.647   3.515  17.500  0.1748  0.1188  0.4562
 2714SOL    HW119778   4.593   3.464  17.439 -0.0075  0.0894  0.6435
 2714SOL    HW219779   4.620   3.606  17.488 -1.8241 -0.7863 -2.0551
 2715SOL     OW19780   2.645   2.859   2.914  0.0544 -0.2107 -0.6610
 2715SOL    HW119781   2.553   2.849   2.938  0.3579 -0.5926  0.3570
 2715SOL    HW219782   2.689   2.859   2.999 -1.6401  2.7083  0.2327
 2716SOL     OW19783   2.213   0.928   2.685  0.1300 -0.1824 -0.0401
 2716SOL    HW119784   2.300   0.966   2.694  0.7515 -1.7230  0.2810
 2716SOL    HW219785   2.231   0.835   2.693  0.7561 -0.1514 -1.1000
 2717SOL     OW19786   3.335   0.215   4.337 -0.1729 -0.5279  0.0817
 2717SOL    HW119787   3.283   0.135   4.352  0.2808 -1.6106 -3.9588
 2717SOL    HW219788   3.269   0.284   4.342  0.4006  0.1041 -1.1345
 2718SOL     OW19789   1.136   2.304   3.103 -0.4876 -0.0752 -0.1548
 2718SOL    HW119790   1.085   2.242   3.155 -1.9815 -0.9912 -2.7560
 2718SOL    HW219791   1.214   2.316   3.157 -0.6908 -0.5117  0.2409
 2719SOL     OW19792   2.757   1.704   7.492 -0.1276  0.3398  0.5801
 2719SOL    HW119793   2.707   1.780   7.463 -2.6578 -0.1340  3.7054
 2719SOL    HW219794   2.742   1.707   7.586  0.4176  0.9915  0.6482
 2720SOL     OW19795   3.907   4.625   3.311  0.8872 -0.1981 -0.2461
 2720SOL    HW119796   3.936   4.671   3.232 -0.2144 -0.3536 -0.7274
 2720SOL    HW219797   3.864   4.552   3.268 -2.1622  2.4854 -1.7633
 2721SOL     OW19798   1.896   1.329   1.854 -0.0304 -0.2383  0.1572
 2721SOL    HW119799   1.858   1.269   1.790 -1.4323 -0.1483  0.9031
 2721SOL    HW219800   1.824   1.387   1.881  1.9582  2.1951  0.1976
 2722SOL     OW19801   4.352   4.126   9.305  0.1300  0.0493 -0.2115
 2722SOL    HW119802   4.343   4.128   9.400  3.3819 -0.1561  0.1034
 2722SOL    HW219803   4.419   4.191   9.283  0.6147 -1.6726 -3.8148
 2723SOL     OW19804   4.075   4.158  11.201 -0.2578 -0.5210 -0.4314
 2723SOL    HW119805   4.046   4.087  11.145 -0.1175  0.2135 -1.4493
 2723SOL    HW219806   3.990   4.187  11.235  0.2781 -0.7748  1.1463
 2724SOL     OW19807   3.268   4.381   5.236  0.1648  0.4097  0.0840
 2724SOL    HW119808   3.220   4.388   5.319 -1.6085 -0.5502 -0.8600
 2724SOL    HW219809   3.357   4.409   5.259 -0.3261  1.2939  0.8881
 2725SOL     OW19810   2.887   4.278   2.661 -0.0907  0.0118 -0.4193
 2725SOL    HW119811   2.975   4.260   2.627 -1.0052 -1.4095 -2.0318
 2725SOL    HW219812   2.833   4.212   2.619  1.2726 -0.7358 -1.0055
 2726SOL     OW19813   0.849   2.721   6.707 -0.0155 -0.2876  0.6842
 2726SOL    HW119814   0.891   2.660   6.767 -1.1818 -0.4195  1.3536
 2726SOL    HW219815   0.907   2.796   6.723 -0.5406  0.4934 -1.0648
 2727SOL     OW19816   4.025   2.903   6.758 -0.0728  0.0854 -0.4394
 2727SOL    HW119817   3.975   2.976   6.794  0.5596  1.0640 -1.5681
 2727SOL    HW219818   3.957   2.857   6.710  1.0075 -3.0171  0.9999
 2728SOL     OW19819   3.578   0.877   2.466 -0.4085 -0.2766  0.3109
 2728SOL    HW119820   3.491   0.905   2.439  0.8444  2.3146 -1.0850
 2728SOL    HW219821   3.620   0.963   2.468  0.2607 -0.5324 -2.4955
 2729SOL     OW19822   2.582   3.667   6.166 -0.0987 -0.0561 -0.2852
 2729SOL    HW119823   2.672   3.659   6.199 -0.6130  2.4851  1.8071
 2729SOL    HW219824   2.562   3.760   6.179 -1.1496 -0.4240  0.7952
 2730SOL     OW19825   0.298   0.498  11.614 -0.2512  0.0889 -0.2155
 2730SOL    HW119826   0.231   0.439  11.579  0.8616 -0.8776 -0.6932
 2730SOL    HW219827   0.292   0.483  11.708 -1.3269  1.1712 -0.1080
 2731SOL     OW19828   1.603   1.083   4.453  0.1027  0.1512 -0.0036
 2731SOL    HW119829   1.588   1.140   4.528  0.6022  0.0891  0.1449
 2731SOL    HW219830   1.624   1.151   4.389  0.2444  0.7757  0.7131
 2732SOL     OW19831   2.059   3.328   4.298  0.3764  0.5672 -0.5138
 2732SOL    HW119832   2.130   3.264   4.304  0.2381  0.3056 -1.6223
 2732SOL    HW219833   1.986   3.269   4.279  0.1464  0.1992  1.5776
 2733SOL     OW19834   4.096   4.331   6.019 -0.1137 -0.0575 -0.3305
 2733SOL    HW119835   4.024   4.381   5.982  0.3574  1.2965  0.5834
 2733SOL    HW219836   4.044   4.283   6.083 -0.7114 -0.0082 -0.7837
 2734SOL     OW19837   4.194   3.366   6.380  0.2399  0.9923  0.2357
 2734SOL    HW119838   4.274   3.356   6.328 -1.0430 -0.6980 -1.3957
 2734SOL    HW219839   4.173   3.458   6.361  0.3627  0.5041 -2.3268
 2735SOL     OW19840   3.094   1.231   1.666  0.8505 -0.3712 -0.6710
 2735SOL    HW119841   3.033   1.193   1.603 -2.3653  1.4171  1.3313
 2735SOL    HW219842   3.150   1.154   1.669  1.0467 -0.2192 -0.4608
 2736SOL     OW19843   4.723   3.115  10.506  0.1744 -0.1285 -0.5421
 2736SOL    HW119844   0.024   3.028  10.490  0.0175 -0.2664 -0.1482
 2736SOL    HW219845   0.063   3.148  10.555 -0.7250  1.0501  0.0320
 2737SOL     OW19846   2.336   2.241   4.327 -0.2969 -0.7608  0.3306
 2737SOL    HW119847   2.272   2.287   4.381  0.6107  0.3936  0.4152
 2737SOL    HW219848   2.413   2.273   4.373  0.2541 -0.6755 -0.6557
 2738SOL     OW19849   2.631   3.867  17.602 -0.1390 -0.0893  0.7406
 2738SOL    HW119850   2.680   3.949  17.592  3.1219 -2.0246  0.8175
 2738SOL    HW219851   2.691   3.807  17.558 -1.7254 -0.3249 -1.0711
 2739SOL     OW19852   4.391   3.745   7.278 -0.6918 -0.0301 -0.2663
 2739SOL    HW119853   4.367   3.664   7.234  0.2685 -0.3528 -0.1931
 2739SOL    HW219854   4.320   3.739   7.342 -2.3543  2.4738 -1.8420
 2740SOL     OW19855   0.502   2.465   1.143 -0.0496 -0.1019  0.2130
 2740SOL    HW119856   0.419   2.483   1.099  0.9969  0.9053 -1.3367
 2740SOL    HW219857   0.511   2.531   1.212  1.2079  0.9959 -1.0186
 2741SOL     OW19858   3.242   0.251   7.433 -0.0826  0.6861  0.3545
 2741SOL    HW119859   3.147   0.267   7.432 -0.7847 -3.7051 -2.2847
 2741SOL    HW219860   3.261   0.219   7.345 -0.0788 -0.7257  0.8647
 2742SOL     OW19861   1.755   1.483   6.299  0.1603  0.2577  0.1146
 2742SOL    HW119862   1.671   1.466   6.342 -0.5738  0.2422 -1.3038
 2742SOL    HW219863   1.805   1.403   6.314  2.6875  1.8582  0.2402
 2743SOL     OW19864   2.554   3.279  11.218  0.2139  0.2361  0.0351
 2743SOL    HW119865   2.597   3.227  11.149 -0.4366 -3.6245  2.5279
 2743SOL    HW219866   2.600   3.251  11.297 -1.0967  0.0416  0.7110
 2744SOL     OW19867   4.283   3.224   3.309 -0.2167  0.0677  0.6339
 2744SOL    HW119868   4.202   3.174   3.313  0.5121 -1.1129  0.6164
 2744SOL    HW219869   4.302   3.204   3.217  1.4501  1.0968  0.7463
 2745SOL     OW19870   1.805   2.617   2.323  0.0576  0.8871 -0.1479
 2745SOL    HW119871   1.820   2.711   2.312 -2.4056  1.2767 -0.1137
 2745SOL    HW219872   1.725   2.605   2.272 -0.4401 -0.5458  0.9827
 2746SOL     OW19873   3.435   3.944   4.805  0.3997 -0.0802 -0.0998
 2746SOL    HW119874   3.450   3.979   4.893 -0.0926 -1.2098  0.4409
 2746SOL    HW219875   3.341   3.924   4.814  0.3490 -0.5034 -1.6506
 2747SOL     OW19876   1.363   4.224   9.933 -0.3338 -0.2634  0.0160
 2747SOL    HW119877   1.434   4.170   9.967  0.5985  2.9849  3.2207
 2747SOL    HW219878   1.314   4.164   9.877 -0.4134  0.0832 -0.2881
 2748SOL     OW19879   1.927   4.245  16.521 -0.2023  0.3040  0.0496
 2748SOL    HW119880   1.910   4.304  16.447 -0.1782  0.1695 -0.0643
 2748SOL    HW219881   1.965   4.305  16.585 -0.5408  1.7242 -1.0745
 2749SOL     OW19882   2.104   0.249   8.816  0.1150  0.2867 -0.0401
 2749SOL    HW119883   2.132   0.227   8.905 -0.7498 -2.7265 -0.5163
 2749SOL    HW219884   2.023   0.198   8.805  0.2034 -0.2185  1.6666
 2750SOL     OW19885   3.233   0.928  11.718  0.1913  0.1235 -0.2420
 2750SOL    HW119886   3.295   1.001  11.723 -0.7970  0.9580 -0.1955
 2750SOL    HW219887   3.220   0.917  11.623  0.1145 -0.0018 -0.2165
 2751SOL     OW19888   3.100   2.694   7.107  0.1886  0.5819  0.2311
 2751SOL    HW119889   3.135   2.749   7.037 -1.0508 -0.6769 -1.3497
 2751SOL    HW219890   3.174   2.703   7.167 -0.3008  2.0071  0.6216
 2752SOL     OW19891   2.833   3.723   7.190  0.6854 -0.2939 -0.2779
 2752SOL    HW119892   2.882   3.771   7.123 -1.9122  0.7150 -1.4480
 2752SOL    HW219893   2.840   3.631   7.166 -2.0611 -0.6600  0.3560
 2753SOL     OW19894   3.933   2.804  17.257 -0.8635  0.1866  0.1694
 2753SOL    HW119895   3.877   2.793  17.334  0.6065 -1.3327  1.0017
 2753SOL    HW219896   4.018   2.802  17.300 -0.3346  1.3079 -0.8185
 2754SOL     OW19897   2.343   3.057  12.335  0.2206  0.0731 -0.1343
 2754SOL    HW119898   2.342   3.136  12.281 -3.3115  2.3092  3.1459
 2754SOL    HW219899   2.387   3.089  12.414 -0.0772 -0.2070  0.1490
 2755SOL     OW19900   3.328   2.679   9.287 -0.1117 -0.6184  0.5021
 2755SOL    HW119901   3.287   2.666   9.202 -0.2436 -0.7714  0.5899
 2755SOL    HW219902   3.246   2.703   9.329  0.4551  2.3064 -0.0301
 2756SOL     OW19903   3.245   0.543   1.844 -0.2074 -0.7934  0.2993
 2756SOL    HW119904   3.277   0.495   1.767  3.8285  2.6494 -0.1602
 2756SOL    HW219905   3.324   0.578   1.885 -0.7032  0.9139 -0.2198
 2757SOL     OW19906   1.270   4.076  14.034 -0.6649 -0.1183  0.3135
 2757SOL    HW119907   1.238   4.019  13.964 -0.9046 -1.9486  1.9214
 2757SOL    HW219908   1.205   4.065  14.103  0.0770 -0.6208  0.9304
 2758SOL     OW19909   2.899   0.474   8.696  0.3385 -0.1832  0.3401
 2758SOL    HW119910   2.892   0.556   8.745 -2.3105 -1.7757  2.6151
 2758SOL    HW219911   2.994   0.463   8.700  0.4175  0.3710 -0.0325
 2759SOL     OW19912   2.832   3.525  11.090  0.2220  0.1350 -0.0442
 2759SOL    HW119913   2.909   3.581  11.085 -1.1065  1.6890 -2.9472
 2759SOL    HW219914   2.771   3.583  11.135  1.3837  1.4566 -0.1945
 2760SOL     OW19915   3.212   2.052   7.735 -0.0198  0.9038  0.6902
 2760SOL    HW119916   3.188   2.058   7.827 -0.1922  1.3703  0.6136
 2760SOL    HW219917   3.234   1.959   7.743 -1.2345  0.7412  2.1771
 2761SOL     OW19918   1.327   4.186   9.480  0.1017  0.0116 -0.1036
 2761SOL    HW119919   1.307   4.113   9.421  2.0773 -0.2271 -0.4945
 2761SOL    HW219920   1.298   4.254   9.420  2.7512 -0.3384 -1.7992
 2762SOL     OW19921   1.404   0.189  11.607  0.4118  0.2497  0.0788
 2762SOL    HW119922   1.470   0.122  11.625  1.4386  1.5694  1.1979
 2762SOL    HW219923   1.325   0.134  11.611 -0.6593  1.6678 -2.1095
 2763SOL     OW19924   0.780   1.821   0.998  0.4782 -0.3352  0.0350
 2763SOL    HW119925   0.839   1.797   1.069  1.4604 -1.6024 -1.2294
 2763SOL    HW219926   0.723   1.744   0.992 -0.5852  0.3578  1.2299
 2764SOL     OW19927   2.994   2.134  14.917  0.1882 -0.6977 -0.1127
 2764SOL    HW119928   2.992   2.207  14.979 -0.4544 -2.1091  1.5333
 2764SOL    HW219929   2.930   2.168  14.855  0.3610 -3.1237 -1.6214
 2765SOL     OW19930   4.641   0.649   5.805  0.3751  0.8375  0.0393
 2765SOL    HW119931   4.673   0.729   5.845 -2.5745  1.9395  0.1425
 2765SOL    HW219932   4.696   0.586   5.852 -1.0818 -0.9481 -0.6263
 2766SOL     OW19933   3.427   4.403   2.807  0.3444  0.1534 -0.2049
 2766SOL    HW119934   3.483   4.479   2.791  0.8437 -0.4241 -1.1449
 2766SOL    HW219935   3.443   4.356   2.725  0.4884 -0.7272  0.3250
 2767SOL     OW19936   1.011   3.451   9.163 -0.0219 -0.6306 -0.0449
 2767SOL    HW119937   1.007   3.484   9.253  1.2135  0.2565 -0.3266
 2767SOL    HW219938   0.918   3.446   9.138  0.1966 -1.9787 -0.6000
 2768SOL     OW19939   0.744   0.118  16.464 -0.4652 -0.2399 -0.7298
 2768SOL    HW119940   0.764   0.061  16.389 -2.1157  1.1875 -2.2369
 2768SOL    HW219941   0.804   0.075  16.525  0.1692  1.0032 -0.4978
 2769SOL     OW19942   1.734   1.439   8.405 -0.1715 -0.7192  0.7390
 2769SOL    HW119943   1.767   1.519   8.446  2.1946 -0.6410 -1.3554
 2769SOL    HW219944   1.729   1.379   8.480 -2.7333 -0.8503  0.4735
 2770SOL     OW19945   1.148   1.892   6.603 -0.0477 -0.1978  0.0002
 2770SOL    HW119946   1.145   1.801   6.631  0.9324 -0.0582  0.5394
 2770SOL    HW219947   1.119   1.936   6.683 -0.5929  0.5821 -0.6195
 2771SOL     OW19948   2.676   4.397   5.313  0.4874  1.0336  0.4320
 2771SOL    HW119949   2.593   4.439   5.335  0.5364  1.3155  0.0890
 2771SOL    HW219950   2.675   4.309   5.352  1.1201  0.2678 -1.2631
 2772SOL     OW19951   2.996   3.762   4.312  0.6649  0.1874  0.0597
 2772SOL    HW119952   2.944   3.682   4.320  0.2657  0.4815  0.4030
 2772SOL    HW219953   3.024   3.750   4.221 -1.2367  1.7040 -0.7194
 2773SOL     OW19954   0.164   0.039   0.268 -0.3095  0.5041  0.0709
 2773SOL    HW119955   0.072   0.048   0.291 -0.3871 -0.3776  0.1082
 2773SOL    HW219956   0.206   0.078   0.345  4.1985 -0.8516 -1.7183
 2774SOL     OW19957   4.199   3.817   5.255  0.4038  0.0850 -0.2651
 2774SOL    HW119958   4.171   3.856   5.173  0.8218  0.4026 -0.2577
 2774SOL    HW219959   4.254   3.890   5.283 -0.1276 -0.1817  1.4692
 2775SOL     OW19960   4.545   0.605  12.810 -0.3083 -0.1148 -0.4609
 2775SOL    HW119961   4.546   0.512  12.833 -3.2583  0.6092  2.5242
 2775SOL    HW219962   4.459   0.626  12.846 -0.7060 -0.9122 -0.9581
 2776SOL     OW19963   3.045   1.988   6.701 -0.7588 -0.5738  0.2015
 2776SOL    HW119964   3.009   2.077   6.703  1.4788  0.3393 -0.8895
 2776SOL    HW219965   3.122   1.989   6.645 -0.2522 -0.7111  0.8986
 2777SOL     OW19966   2.303   1.149  15.755  0.2807 -0.4374  0.1762
 2777SOL    HW119967   2.329   1.231  15.713  1.0683 -0.6449  0.2677
 2777SOL    HW219968   2.219   1.136  15.712  0.8843 -0.5208 -0.9828
 2778SOL     OW19969   3.868   4.611  11.436 -0.0457  0.2275  0.1323
 2778SOL    HW119970   3.963   4.615  11.450  0.4201 -2.2356 -2.2656
 2778SOL    HW219971   3.859   4.557  11.358  2.2942  0.5721 -0.3632
 2779SOL     OW19972   0.586   4.660   3.334 -0.6378  0.3909 -0.4413
 2779SOL    HW119973   0.576   4.665   3.429 -0.4141 -0.9170 -0.3603
 2779SOL    HW219974   0.659   4.718   3.312 -0.2005 -0.1487 -0.3889
 2780SOL     OW19975   0.370   4.007   4.725 -0.5060  0.0303  0.1510
 2780SOL    HW119976   0.288   3.958   4.728  0.2845 -1.3575 -1.0494
 2780SOL    HW219977   0.393   3.995   4.817  2.6122  0.7809 -0.5424
 2781SOL     OW19978   2.349   2.017  17.089 -0.1765  0.2771  0.1147
 2781SOL    HW119979   2.332   2.086  17.153  0.4397  1.0318 -0.5419
 2781SOL    HW219980   2.403   1.953  17.137 -0.7816 -0.4087 -0.1247
 2782SOL     OW19981   1.805   0.971   8.103 -0.5680 -0.4756  0.5410
 2782SOL    HW119982   1.782   0.985   8.195 -1.2504 -3.6500  0.8561
 2782SOL    HW219983   1.816   1.062   8.076 -0.3483 -1.0080 -1.1613
 2783SOL     OW19984   2.020   4.481   8.090 -0.5392 -0.4037  0.1719
 2783SOL    HW119985   1.987   4.566   8.119 -0.1375 -0.6372  1.2786
 2783SOL    HW219986   2.009   4.429   8.169  1.7509 -2.2617 -0.7238
 2784SOL     OW19987   1.766   0.114   7.722 -0.3365  0.5355 -0.0775
 2784SOL    HW119988   1.861   0.116   7.729 -0.2582 -2.2097 -0.0531
 2784SOL    HW219989   1.746   0.207   7.728 -0.1979  0.4371  1.8952
 2785SOL     OW19990   3.502   3.182   4.459  0.0015  0.0873  0.0645
 2785SOL    HW119991   3.579   3.200   4.405 -1.3083  0.0183 -1.8162
 2785SOL    HW219992   3.545   3.187   4.544  0.7953  2.0365 -0.4500
 2786SOL     OW19993   1.106   0.109  15.353 -0.1673  0.2303  0.0360
 2786SOL    HW119994   1.057   0.175  15.401 -0.9923 -0.1633 -0.2687
 2786SOL    HW219995   1.098   0.147  15.266 -0.1145  1.7261  0.7003
 2787SOL     OW19996   2.629   0.475   9.539  0.6381 -0.4479  0.5501
 2787SOL    HW119997   2.665   0.562   9.521 -1.5804  0.2303 -0.6354
 2787SOL    HW219998   2.686   0.427   9.479  0.6532  1.1678 -0.7104
 2788SOL     OW19999   0.270   4.055   3.768 -0.2042 -0.2380 -0.3041
 2788SOL    HW120000   0.349   4.094   3.731  0.5149 -2.0128 -0.6259
 2788SOL    HW220001   0.302   3.968   3.794 -0.4653 -0.5253 -0.9439
 2789SOL     OW20002   3.698   0.983   7.870  0.0356  0.0446 -0.4490
 2789SOL    HW120003   3.765   1.047   7.848  1.2021 -1.0406 -0.0359
 2789SOL    HW220004   3.629   1.041   7.902 -0.2632 -0.6000  0.0784
 2790SOL     OW20005   2.552   1.075  10.445 -0.1989  0.7375 -0.1954
 2790SOL    HW120006   2.522   1.027  10.523 -1.8161  0.1755 -1.1553
 2790SOL    HW220007   2.562   1.163  10.481  0.0189  0.7252 -0.2269
 2791SOL     OW20008   4.592   0.864   5.501  0.1460 -0.0452 -0.5610
 2791SOL    HW120009   4.658   0.824   5.444  2.0095  0.4608  1.2551
 2791SOL    HW220010   4.616   0.956   5.502  0.7769 -0.2312  0.9176
 2792SOL     OW20011   1.473   0.510   5.444  0.6355 -0.0319  0.4141
 2792SOL    HW120012   1.420   0.547   5.514 -0.7789  0.9799 -1.1753
 2792SOL    HW220013   1.432   0.424   5.443  2.3417 -0.8470  2.4681
 2793SOL     OW20014   4.641   1.619   3.763  0.1451  0.2539  0.4128
 2793SOL    HW120015   4.587   1.590   3.836 -2.1827  0.1098 -1.3787
 2793SOL    HW220016   4.725   1.632   3.807  0.7253  2.0058 -1.2300
 2794SOL     OW20017   1.911   4.558   3.158 -0.5053  0.5885 -0.0244
 2794SOL    HW120018   1.851   4.630   3.137  0.9109  1.5708 -0.6706
 2794SOL    HW220019   1.859   4.517   3.227 -0.2632  1.4341  0.6521
 2795SOL     OW20020   3.584   4.463  14.169 -0.2801 -0.6007 -0.3704
 2795SOL    HW120021   3.533   4.531  14.125 -0.3602 -1.4859 -1.6669
 2795SOL    HW220022   3.651   4.519  14.207 -0.4820 -0.4962 -0.1710
 2796SOL     OW20023   1.994   4.447   5.946  0.2004  0.1502  0.7413
 2796SOL    HW120024   2.080   4.485   5.928 -0.0177  1.8485  3.2199
 2796SOL    HW220025   1.938   4.505   5.895 -0.0707 -0.4801  0.3268
 2797SOL     OW20026   3.627   4.478   7.091  0.3684  0.1816 -0.6796
 2797SOL    HW120027   3.612   4.398   7.042 -0.7265 -0.8603  1.3435
 2797SOL    HW220028   3.598   4.449   7.178 -2.0475 -0.3895 -1.6725
 2798SOL     OW20029   0.179   3.635  16.723  0.2656  0.7409  0.6035
 2798SOL    HW120030   0.250   3.631  16.787  1.4143 -2.1184 -0.8370
 2798SOL    HW220031   0.237   3.668  16.654 -0.4600 -2.5752 -1.5881
 2799SOL     OW20032   0.066   3.645   3.487  0.6709 -0.2047 -0.1679
 2799SOL    HW120033   0.092   3.664   3.577 -0.6296  1.4686 -0.1468
 2799SOL    HW220034   4.729   3.708   3.482  1.0817  0.1753 -1.3157
 2800SOL     OW20035   1.502   3.831   7.726 -0.3882  0.0859 -0.2491
 2800SOL    HW120036   1.509   3.762   7.660 -0.0427  0.4025 -0.5469
 2800SOL    HW220037   1.448   3.785   7.790 -1.3721  0.7669 -0.5947
 2801SOL     OW20038   3.922   3.706   3.443  0.2444 -0.1049 -0.4629
 2801SOL    HW120039   3.924   3.715   3.347 -0.0149 -0.6558 -0.5186
 2801SOL    HW220040   3.937   3.612   3.453 -1.2899 -0.1889  1.0208
 2802SOL     OW20041   0.518   0.318   8.163 -0.8467 -0.7078  0.2060
 2802SOL    HW120042   0.554   0.358   8.243  0.6183 -2.9771  0.6806
 2802SOL    HW220043   0.539   0.228   8.190 -1.2674 -0.9031 -0.1311
 2803SOL     OW20044   3.499   2.929   3.361 -0.1941  0.5640  0.3299
 2803SOL    HW120045   3.518   2.874   3.438 -2.6619 -1.5238 -0.5360
 2803SOL    HW220046   3.538   3.013   3.385  2.0570 -0.6204  0.8961
 2804SOL     OW20047   0.576   1.977   7.096 -0.2393 -0.1869  0.1088
 2804SOL    HW120048   0.583   2.068   7.124  1.6989 -0.9180  2.0137
 2804SOL    HW220049   0.576   1.934   7.182 -1.2602  0.7700  0.5855
 2805SOL     OW20050   2.441   3.622   7.168 -0.2765 -0.1308 -0.7427
 2805SOL    HW120051   2.522   3.584   7.136  0.0707  0.1222 -0.1742
 2805SOL    HW220052   2.389   3.598   7.091 -0.4905  0.7677 -0.8801
 2806SOL     OW20053   4.686   4.273   6.798  0.3087 -1.0375 -0.1268
 2806SOL    HW120054   4.728   4.342   6.747 -0.1170  0.5962  1.7151
 2806SOL    HW220055   0.026   4.245   6.849 -1.4084 -0.2429  2.8828
 2807SOL     OW20056   0.886   1.192   0.939  0.2028 -0.6415 -0.0371
 2807SOL    HW120057   0.951   1.226   0.878 -0.2166 -2.4174 -1.4793
 2807SOL    HW220058   0.810   1.206   0.882  1.2930 -0.1207 -1.3674
 2808SOL     OW20059   2.903   2.028   8.569  0.1968  0.1334 -0.6937
 2808SOL    HW120060   2.964   2.057   8.501  1.3008 -0.2076  0.1485
 2808SOL    HW220061   2.963   1.986   8.631 -0.5607 -1.1472 -0.8050
 2809SOL     OW20062   3.790   2.838  12.885  0.0068 -0.1094  0.7287
 2809SOL    HW120063   3.825   2.750  12.878  0.6721  0.3294 -1.3704
 2809SOL    HW220064   3.695   2.825  12.881  0.4073 -1.0613 -5.0297
 2810SOL     OW20065   0.623   1.567   5.048 -0.4559  0.2335  0.0216
 2810SOL    HW120066   0.616   1.472   5.053  1.3929  0.1198  0.7133
 2810SOL    HW220067   0.703   1.574   5.100  0.5568 -1.6180 -1.3029
 2811SOL     OW20068   2.579   0.694  13.408  0.5256  0.0339 -0.1266
 2811SOL    HW120069   2.528   0.644  13.471  0.4423 -0.8039 -0.8535
 2811SOL    HW220070   2.659   0.709  13.458  1.7733 -1.8745 -1.5874
 2812SOL     OW20071   3.037   3.682  11.057  0.1793  0.3471 -0.1596
 2812SOL    HW120072   3.031   3.772  11.025  2.3230 -0.1958 -2.0110
 2812SOL    HW220073   3.090   3.639  10.991  0.0469  0.1406 -0.1320
 2813SOL     OW20074   4.175   2.439  11.436 -0.5541 -0.3926  0.2644
 2813SOL    HW120075   4.234   2.509  11.463  0.0847 -1.1082  0.7297
 2813SOL    HW220076   4.222   2.361  11.467  1.1139 -0.6142 -2.8535
 2814SOL     OW20077   3.444   0.350   4.958 -0.0095 -0.4309 -0.0507
 2814SOL    HW120078   3.512   0.407   4.922 -1.0089  0.7518 -0.0604
 2814SOL    HW220079   3.423   0.302   4.878  0.9848  0.4310 -0.8167
 2815SOL     OW20080   3.198   3.124   0.158 -0.2682 -0.3582 -0.1538
 2815SOL    HW120081   3.195   3.211   0.197 -0.4377 -1.3954  2.1577
 2815SOL    HW220082   3.173   3.151   0.069 -1.2164 -0.0402  0.2127
 2816SOL     OW20083   3.734   1.158   5.218 -0.4281  0.3031 -0.2181
 2816SOL    HW120084   3.770   1.227   5.163  2.1873 -1.9965 -1.3829
 2816SOL    HW220085   3.743   1.080   5.164 -3.2026 -0.1650  0.0027
 2817SOL     OW20086   2.864   4.649   9.162 -0.5315  0.3763  0.1984
 2817SOL    HW120087   2.894   4.579   9.220 -2.8096  1.3858  2.6177
 2817SOL    HW220088   2.867   4.720   9.226 -1.5673 -0.0919  0.7717
 2818SOL     OW20089   4.236   0.274   3.774 -0.4664  0.3402 -0.1377
 2818SOL    HW120090   4.226   0.369   3.780  1.3813  0.5648 -0.5999
 2818SOL    HW220091   4.165   0.250   3.834  1.8379 -2.4742  1.4534
 2819SOL     OW20092   0.415   4.591  12.661  0.3094 -0.8885 -0.1823
 2819SOL    HW120093   0.430   4.671  12.711 -1.3130 -0.2226 -0.7661
 2819SOL    HW220094   0.380   4.620  12.577  2.3431  0.1312 -0.6943
 2820SOL     OW20095   1.832   2.436   7.224 -0.6081 -0.1255 -0.4859
 2820SOL    HW120096   1.804   2.346   7.206 -2.0765 -0.2162  2.1716
 2820SOL    HW220097   1.778   2.489   7.165  0.1499 -0.8155 -1.8039
 2821SOL     OW20098   4.225   4.164  10.940 -0.0150 -0.2138  0.4284
 2821SOL    HW120099   4.130   4.157  10.929 -0.1953  2.0785  0.5182
 2821SOL    HW220100   4.218   4.211  11.023 -0.1970  0.7192 -0.1242
 2822SOL     OW20101   4.002   0.709   3.014 -0.7908 -0.2337 -0.4303
 2822SOL    HW120102   3.957   0.693   2.931 -1.2554  0.9580 -0.4134
 2822SOL    HW220103   4.085   0.737   2.976  0.5593 -2.3659  0.9314
 2823SOL     OW20104   2.455   3.965  11.213  0.2772 -0.3655 -0.4837
 2823SOL    HW120105   2.474   3.881  11.172  2.1394 -0.1643 -0.0052
 2823SOL    HW220106   2.389   3.939  11.277 -0.9349  0.7665 -1.2689
 2824SOL     OW20107   3.365   3.145   7.772 -0.2327  0.1193  0.3139
 2824SOL    HW120108   3.304   3.078   7.802  0.2816 -1.2790 -1.7934
 2824SOL    HW220109   3.450   3.128   7.810 -0.0891 -0.2805 -0.1866
 2825SOL     OW20110   4.571   0.766   4.817 -0.0745  0.1155 -0.2970
 2825SOL    HW120111   4.478   0.749   4.827 -0.1965 -0.5681 -2.6215
 2825SOL    HW220112   4.603   0.716   4.892  2.7971 -1.1460 -2.3503
 2826SOL     OW20113   0.416   1.168  13.262 -0.2904  0.1207  0.2550
 2826SOL    HW120114   0.340   1.204  13.307 -0.6739 -1.3752  0.7974
 2826SOL    HW220115   0.486   1.223  13.298  0.1839 -0.0790 -0.3630
 2827SOL     OW20116   3.942   4.450  13.875  0.2560  0.4593 -0.1943
 2827SOL    HW120117   4.025   4.415  13.843 -0.5362 -1.7914  0.2208
 2827SOL    HW220118   3.883   4.412  13.810  0.1438  3.7569 -2.0400
 2828SOL     OW20119   3.346   1.854   7.333  0.4648  0.0042 -0.2244
 2828SOL    HW120120   3.332   1.948   7.321 -1.0162  0.0312  1.6426
 2828SOL    HW220121   3.431   1.843   7.291 -0.1645 -0.3343 -1.4050
 2829SOL     OW20122   1.140   0.582  15.981  0.2712  0.0699 -0.1792
 2829SOL    HW120123   1.196   0.505  15.971 -0.7808 -0.8788  1.1550
 2829SOL    HW220124   1.172   0.641  15.913 -0.4445  1.3851  0.6370
 2830SOL     OW20125   2.481   3.519  10.968 -0.3637  0.1461 -0.5448
 2830SOL    HW120126   2.391   3.494  10.987 -0.6986 -0.0249 -2.4223
 2830SOL    HW220127   2.503   3.572  11.044 -0.5356  0.3463 -0.6372
 2831SOL     OW20128   1.413   1.358   1.776 -0.1132 -0.5290  0.2105
 2831SOL    HW120129   1.438   1.385   1.864  1.0079 -2.0079  0.3568
 2831SOL    HW220130   1.362   1.282   1.805  0.9705 -1.4213 -0.1999
 2832SOL     OW20131   4.193   1.150   8.562 -0.6034 -0.0139 -0.7783
 2832SOL    HW120132   4.108   1.144   8.518 -2.2646  0.0521  2.4132
 2832SOL    HW220133   4.250   1.185   8.494 -0.9729 -0.2517 -1.2028
 2833SOL     OW20134   0.696   4.132   8.631 -0.3950 -0.1582  0.2297
 2833SOL    HW120135   0.696   4.068   8.703  1.9978 -1.6702 -1.0985
 2833SOL    HW220136   0.694   4.062   8.566 -1.4522 -1.6678  1.8689
 2834SOL     OW20137   4.560   0.963  12.393 -0.8734  0.0450  0.0897
 2834SOL    HW120138   4.465   0.977  12.392 -0.9269 -0.3649 -0.5292
 2834SOL    HW220139   4.558   0.889  12.454  0.0129 -0.7112 -0.7894
 2835SOL     OW20140   3.710   2.289   5.337  0.0770 -0.0855  0.3081
 2835SOL    HW120141   3.694   2.266   5.428  0.3864  3.0017  1.1367
 2835SOL    HW220142   3.770   2.219   5.310  0.3708  0.1179  0.4310
 2836SOL     OW20143   0.216   1.784   8.607 -0.5244  0.2708  0.5482
 2836SOL    HW120144   0.194   1.700   8.567  0.3464 -0.2741  1.2003
 2836SOL    HW220145   0.260   1.832   8.537  1.5304 -0.3716  1.3858
 2837SOL     OW20146   0.176   4.719   6.675  0.2272  0.1159 -0.0258
 2837SOL    HW120147   0.265   4.711   6.642  0.4613 -4.9762  1.7760
 2837SOL    HW220148   0.143   0.059   6.627 -1.1084  1.2190  2.6177
 2838SOL     OW20149   3.225   3.661   6.503  0.4881 -0.4309  0.8041
 2838SOL    HW120150   3.259   3.739   6.547  2.1024 -0.1980 -0.8486
 2838SOL    HW220151   3.221   3.693   6.413 -0.0145 -0.7619  0.7054
 2839SOL     OW20152   2.169   2.910  12.520  0.1988  0.5648  0.2188
 2839SOL    HW120153   2.225   2.975  12.477  2.5237 -0.5363  1.5262
 2839SOL    HW220154   2.077   2.933  12.514  0.1559 -0.0073 -1.2757
 2840SOL     OW20155   2.832   2.774   6.060 -0.0533  0.0318  0.1575
 2840SOL    HW120156   2.915   2.746   6.021 -0.4754 -0.8610 -0.1075
 2840SOL    HW220157   2.780   2.695   6.069 -1.8811  0.6997 -4.4151
 2841SOL     OW20158   0.547   4.210  11.865 -0.4646 -0.1905  0.2951
 2841SOL    HW120159   0.490   4.169  11.800  0.8559  0.7637 -1.4629
 2841SOL    HW220160   0.531   4.151  11.939  0.4149 -1.5094 -0.5666
 2842SOL     OW20161   3.471   2.159  16.088 -0.0818  0.9429 -0.0261
 2842SOL    HW120162   3.395   2.158  16.029 -0.2703 -0.0101  0.2371
 2842SOL    HW220163   3.429   2.183  16.171  1.4073  0.9986  0.7046
 2843SOL     OW20164   0.576   1.462   5.846  0.0347  0.3483 -0.3123
 2843SOL    HW120165   0.483   1.446   5.830  0.1043 -1.0761  0.7227
 2843SOL    HW220166   0.599   1.543   5.800  0.9831  0.1477 -0.1788
 2844SOL     OW20167   0.749   0.160   2.098 -0.0495 -0.2059  0.3737
 2844SOL    HW120168   0.723   0.104   2.024 -0.8959  1.5388 -0.6473
 2844SOL    HW220169   0.810   0.104   2.146 -1.0363 -1.8743 -0.3179
 2845SOL     OW20170   4.598   3.241  14.817  0.3875  0.1549  0.6375
 2845SOL    HW120171   4.650   3.321  14.812 -0.5800  1.0413  5.4034
 2845SOL    HW220172   4.625   3.204  14.900 -0.4213 -0.5927  0.5666
 2846SOL     OW20173   2.592   2.785   9.589 -0.1533 -0.4187 -0.2823
 2846SOL    HW120174   2.681   2.805   9.562 -0.0609  0.8425  1.0121
 2846SOL    HW220175   2.584   2.795   9.683  0.0333 -0.4617 -0.2618
 2847SOL     OW20176   4.577   4.317  16.239 -0.1441  0.1442 -0.4367
 2847SOL    HW120177   4.631   4.396  16.247 -1.1074  0.4872  2.8381
 2847SOL    HW220178   4.527   4.324  16.320 -0.1674 -2.0665 -0.2679
 2848SOL     OW20179   2.419   2.518   8.418 -0.2543  0.5124  0.0988
 2848SOL    HW120180   2.454   2.564   8.494  1.4122 -1.7334  0.6750
 2848SOL    HW220181   2.330   2.552   8.416 -0.3135  0.4052  1.3571
 2849SOL     OW20182   0.270   2.033  16.689  0.1099  0.2229 -0.2031
 2849SOL    HW120183   0.320   1.955  16.713 -0.3409  0.8147  2.5896
 2849SOL    HW220184   0.275   2.022  16.594 -0.1393  0.7653 -0.2767
 2850SOL     OW20185   4.227   3.722   9.241  0.1464 -0.7788  0.3903
 2850SOL    HW120186   4.282   3.728   9.320  1.1640 -0.4759 -0.3426
 2850SOL    HW220187   4.211   3.627   9.236 -0.7415 -0.6403  0.6093
 2851SOL     OW20188   0.651   2.201  14.568  0.4785 -0.2956  0.4377
 2851SOL    HW120189   0.573   2.198  14.623 -0.1802  0.5170 -0.4591
 2851SOL    HW220190   0.613   2.161  14.489  1.5144 -1.1553  0.3641
 2852SOL     OW20191   1.220   0.688  15.749 -0.1357  0.1336  0.1528
 2852SOL    HW120192   1.264   0.614  15.708 -1.3863 -0.3755 -0.2759
 2852SOL    HW220193   1.263   0.763  15.709  3.3228 -1.4338  0.9549
 2853SOL     OW20194   1.376   0.808   2.947  0.5778 -0.7831  0.1756
 2853SOL    HW120195   1.333   0.814   2.861 -0.1389 -2.0353  0.4491
 2853SOL    HW220196   1.454   0.761   2.917  2.2277  2.1541 -0.1171
 2854SOL     OW20197   0.433   3.193  17.129 -0.3840 -0.4791  0.1352
 2854SOL    HW120198   0.407   3.232  17.045  1.4622 -0.8311 -0.5884
 2854SOL    HW220199   0.347   3.157  17.151 -1.2386  1.9608  0.8057
 2855SOL     OW20200   1.869   1.843  12.935 -0.2015  0.0332  0.3735
 2855SOL    HW120201   1.811   1.853  13.010  1.7067 -2.1780  2.1071
 2855SOL    HW220202   1.954   1.811  12.964  0.0571  0.8256  0.4848
 2856SOL     OW20203   3.271   1.302   6.500 -0.3196  0.5964 -0.2310
 2856SOL    HW120204   3.359   1.282   6.468 -0.6220  2.0251 -1.9460
 2856SOL    HW220205   3.255   1.222   6.550  3.6318  0.6432  1.0923
 2857SOL     OW20206   4.528   2.061  11.152  0.1963 -0.5129  0.1819
 2857SOL    HW120207   4.563   2.132  11.205  1.5577  0.4793 -2.0573
 2857SOL    HW220208   4.609   2.015  11.127 -0.4376 -2.6507  1.9985
 2858SOL     OW20209   3.351   3.758   1.134  0.0143  0.1930  0.2343
 2858SOL    HW120210   3.438   3.759   1.094  0.0817 -0.4121  0.3648
 2858SOL    HW220211   3.291   3.728   1.065 -0.4470  2.6214 -0.4336
 2859SOL     OW20212   0.293   0.410   5.372 -0.0386  0.6084 -0.1367
 2859SOL    HW120213   0.220   0.348   5.377  1.7045 -1.3860  0.5414
 2859SOL    HW220214   0.344   0.376   5.298  0.1756 -0.3433  0.4579
 2860SOL     OW20215   2.307   2.247   0.344  0.1591 -0.1658 -0.6816
 2860SOL    HW120216   2.312   2.177   0.409 -0.1462  0.7751  0.3722
 2860SOL    HW220217   2.245   2.204   0.284 -0.1792  0.9519 -1.1407
 2861SOL     OW20218   0.821   3.902   3.993 -0.8033  0.2603  0.2580
 2861SOL    HW120219   0.833   3.974   3.930 -0.4726 -0.2595 -0.2639
 2861SOL    HW220220   0.792   3.955   4.067 -2.6092 -1.4078  0.7493
 2862SOL     OW20221   2.034   1.037  13.901  0.0490  0.0646  0.5265
 2862SOL    HW120222   2.015   1.112  13.845 -1.0944 -1.2381 -0.8384
 2862SOL    HW220223   1.945   1.010  13.921 -0.4494  2.3371  1.3075
 2863SOL     OW20224   2.243   1.396   9.517 -0.0154  0.1837  0.3386
 2863SOL    HW120225   2.172   1.458   9.502 -0.6974 -0.2960  1.6366
 2863SOL    HW220226   2.208   1.334   9.581  0.2299 -0.5333 -0.2326
 2864SOL     OW20227   1.914   1.625   0.879 -0.3766  0.2133  0.2768
 2864SOL    HW120228   1.931   1.659   0.967 -2.5804  2.2538 -0.0804
 2864SOL    HW220229   1.963   1.681   0.819 -1.2738  1.3170  0.5737
 2865SOL     OW20230   1.748   3.470  11.186  0.2983 -0.3347  0.2325
 2865SOL    HW120231   1.768   3.385  11.147 -0.2538 -0.6791  0.7024
 2865SOL    HW220232   1.675   3.507  11.137 -0.6371  0.9158  2.5307
 2866SOL     OW20233   2.373   1.295   3.660  0.5474 -0.7413 -0.2768
 2866SOL    HW120234   2.312   1.278   3.732 -0.6518 -0.2556 -1.1750
 2866SOL    HW220235   2.305   1.318   3.596 -0.4635  0.2948  1.1806
 2867SOL     OW20236   3.090   3.259   3.480 -0.2512  0.1470 -0.2780
 2867SOL    HW120237   3.063   3.178   3.523 -1.1288 -0.2817 -1.6438
 2867SOL    HW220238   3.004   3.280   3.445  0.3908  2.8791 -0.2441
 2868SOL     OW20239   2.528   0.948   9.287 -0.0851  0.0976  0.6284
 2868SOL    HW120240   2.509   0.930   9.195  1.8310  1.2986 -0.0042
 2868SOL    HW220241   2.481   0.874   9.327  0.6259  0.6980  2.5709
 2869SOL     OW20242   2.285   3.678   6.929 -0.2648  0.2628  0.5747
 2869SOL    HW120243   2.213   3.714   6.980  0.0573  0.2277  1.0540
 2869SOL    HW220244   2.287   3.735   6.852  3.0900 -0.6771 -0.0256
 2870SOL     OW20245   3.022   1.386   6.439  0.2560 -0.3597 -0.4257
 2870SOL    HW120246   3.109   1.349   6.454  0.6530  0.3057 -1.1140
 2870SOL    HW220247   2.981   1.312   6.394  1.5697 -1.3899  0.0673
 2871SOL     OW20248   1.724   3.594   7.713 -0.3807 -0.3603 -0.6704
 2871SOL    HW120249   1.672   3.558   7.642 -0.8930 -2.2193  0.6407
 2871SOL    HW220250   1.667   3.590   7.790  1.3592 -2.5398  0.5327
 2872SOL     OW20251   0.598   1.320  13.397  0.2874 -0.3501 -0.5617
 2872SOL    HW120252   0.672   1.380  13.406  0.3054 -0.7173  1.6592
 2872SOL    HW220253   0.625   1.244  13.448 -1.8140 -0.8403 -0.1593
 2873SOL     OW20254   1.647   2.006   5.480 -0.0605 -0.6469  0.0196
 2873SOL    HW120255   1.662   1.915   5.504  1.7032  0.6436  3.8296
 2873SOL    HW220256   1.718   2.027   5.419 -1.8256  2.1586 -1.0610
 2874SOL     OW20257   2.190   1.463   6.792 -0.0448  0.3526 -0.1574
 2874SOL    HW120258   2.232   1.381   6.816 -0.6122  0.7706  2.2486
 2874SOL    HW220259   2.269   1.515   6.804 -0.1298  0.4317  0.0560
 2875SOL     OW20260   4.407   0.899   3.379 -0.4008  0.1212 -0.1191
 2875SOL    HW120261   4.478   0.836   3.386 -0.0915  0.3840 -0.8838
 2875SOL    HW220262   4.434   0.968   3.440  1.2193  0.9009 -1.7050
 2876SOL     OW20263   0.072   4.653   2.367 -0.0970 -0.2447  0.3895
 2876SOL    HW120264   4.716   4.679   2.366  0.2166  0.8529  0.4654
 2876SOL    HW220265   0.100   4.708   2.440  0.7892 -0.8620  0.5197
 2877SOL     OW20266   2.601   0.175   6.816  0.1471  0.6494  0.3847
 2877SOL    HW120267   2.625   0.091   6.776 -0.7158  0.8944 -0.6557
 2877SOL    HW220268   2.681   0.205   6.859  0.4756  2.3013 -1.3350
 2878SOL     OW20269   2.381   0.780   4.358 -0.1127 -0.1408 -0.5989
 2878SOL    HW120270   2.381   0.737   4.272  1.1586 -2.7266  0.6802
 2878SOL    HW220271   2.474   0.804   4.361 -0.0771 -0.4229  0.5891
 2879SOL     OW20272   0.212   1.474  14.711  0.2303 -0.2012  0.2780
 2879SOL    HW120273   0.244   1.459  14.622  0.4216 -1.5889  0.5832
 2879SOL    HW220274   0.118   1.475  14.693  0.1524 -1.5117  0.6538
 2880SOL     OW20275   2.176   4.594   2.015  0.7553  0.1627 -0.6609
 2880SOL    HW120276   2.150   4.598   1.923 -0.0768 -1.0749 -0.4801
 2880SOL    HW220277   2.253   4.538   2.008  0.3476 -0.5420  0.3958
 2881SOL     OW20278   3.756   1.051   6.974 -0.1474 -0.0747 -0.2706
 2881SOL    HW120279   3.817   0.978   6.988  0.7406  0.5849 -0.7126
 2881SOL    HW220280   3.674   1.015   7.008 -0.2588  1.3003  0.9224
 2882SOL     OW20281   2.485   2.051   6.198 -0.3257 -0.7470 -0.3478
 2882SOL    HW120282   2.573   2.053   6.161  0.0335 -0.5456  0.5291
 2882SOL    HW220283   2.496   2.110   6.272 -1.0806 -0.8026 -0.1936
 2883SOL     OW20284   1.416   4.635   6.940  0.0826 -0.0275 -0.1580
 2883SOL    HW120285   1.475   4.597   7.005  0.5883 -1.0380 -1.2057
 2883SOL    HW220286   1.483   4.670   6.881  0.2163  0.0418  0.0363
 2884SOL     OW20287   1.298   4.665  15.993 -0.1066 -0.3553  0.3123
 2884SOL    HW120288   1.329   4.678  16.083 -0.2270 -0.1714  0.3277
 2884SOL    HW220289   1.343   0.006  15.959 -0.5406 -1.9193 -3.6986
 2885SOL     OW20290   3.530   0.751   8.761  0.6002 -0.0380  0.0493
 2885SOL    HW120291   3.503   0.705   8.682  1.1952 -1.6346  0.7629
 2885SOL    HW220292   3.527   0.841   8.729 -4.2767 -0.3355 -0.4123
 2886SOL     OW20293   3.107   4.430   5.493  0.1804  0.0824  0.0803
 2886SOL    HW120294   3.101   4.420   5.588 -0.7569  2.4527  0.2468
 2886SOL    HW220295   3.052   4.506   5.478  1.3886  0.8290 -0.5309
 2887SOL     OW20296   1.720   1.054   4.718 -0.2388 -0.3548  0.1851
 2887SOL    HW120297   1.649   1.038   4.779  0.5545  1.2024  1.5125
 2887SOL    HW220298   1.741   1.146   4.734 -0.8150 -0.2277  0.1996
 2888SOL     OW20299   1.452   0.358   8.601 -0.0616 -0.1715  0.6218
 2888SOL    HW120300   1.394   0.387   8.671 -0.4558  0.1852  0.1508
 2888SOL    HW220301   1.413   0.403   8.526 -0.4523 -3.4226 -1.1512
 2889SOL     OW20302   4.567   3.259  16.547  0.2473 -0.9386 -0.3871
 2889SOL    HW120303   4.642   3.319  16.550  0.0639 -0.8146  1.7631
 2889SOL    HW220304   4.509   3.304  16.609 -0.8772 -1.5145 -1.0216
 2890SOL     OW20305   2.596   0.554  12.352  0.7682 -0.3495 -0.0241
 2890SOL    HW120306   2.568   0.583  12.265 -0.1331 -0.7651  0.1243
 2890SOL    HW220307   2.609   0.459  12.339  2.8923  0.0701 -1.1489
 2891SOL     OW20308   2.381   1.636   3.749  0.6140 -0.5934  0.2693
 2891SOL    HW120309   2.313   1.699   3.724  0.2273 -0.6235  1.2446
 2891SOL    HW220310   2.324   1.559   3.742 -1.5968  1.0870 -0.2717
 2892SOL     OW20311   2.971   0.718   3.934  0.0493 -0.5315  0.2046
 2892SOL    HW120312   3.020   0.687   4.010  1.1153  0.5511 -0.0246
 2892SOL    HW220313   2.973   0.812   3.952  1.3806 -0.1284 -1.9994
 2893SOL     OW20314   2.314   0.611   9.072 -0.0909 -0.3456 -0.0498
 2893SOL    HW120315   2.271   0.571   8.996 -0.7101 -2.0886  1.2146
 2893SOL    HW220316   2.403   0.607   9.038  0.2346  0.5578  0.7036
 2894SOL     OW20317   3.153   3.496  12.659  0.2765 -0.2164 -0.2793
 2894SOL    HW120318   3.176   3.528  12.747  2.3670  1.7493 -1.5421
 2894SOL    HW220319   3.078   3.445  12.689 -0.6266  1.2363 -0.0872
 2895SOL     OW20320   1.837   0.822  12.528  0.3509  0.4448  0.1578
 2895SOL    HW120321   1.897   0.895  12.532  1.8066 -0.8036  1.0715
 2895SOL    HW220322   1.817   0.815  12.622 -0.8036 -1.1653 -0.2022
 2896SOL     OW20323   4.046   1.731   6.339  0.0800 -0.1564  0.3970
 2896SOL    HW120324   4.052   1.636   6.337 -0.1159 -0.1593 -0.0278
 2896SOL    HW220325   3.977   1.740   6.405 -1.5232 -0.5861 -1.2239
 2897SOL     OW20326   0.589   1.026  15.121  0.1875  0.0089  0.0485
 2897SOL    HW120327   0.643   1.003  15.046 -0.2466 -1.0099  0.0617
 2897SOL    HW220328   0.656   1.047  15.187 -0.3611 -0.2893  0.6968
 2898SOL     OW20329   2.553   3.979   8.782  0.0943  0.0348  0.1050
 2898SOL    HW120330   2.459   3.993   8.771 -0.3120 -3.2569 -0.7523
 2898SOL    HW220331   2.562   3.906   8.844  3.3816  1.4460  1.2669
 2899SOL     OW20332   3.909   3.582   9.680 -0.4271  0.0777  0.2059
 2899SOL    HW120333   3.938   3.551   9.766  1.5865  1.1780 -0.0751
 2899SOL    HW220334   3.814   3.595   9.691 -0.8632 -0.4705 -2.8334
 2900SOL     OW20335   0.462   3.039   7.615  0.0743 -0.0246  0.3061
 2900SOL    HW120336   0.397   3.030   7.545 -0.6663  1.3701  0.8079
 2900SOL    HW220337   0.421   3.106   7.670  0.4178  0.4571 -0.0290
 2901SOL     OW20338   1.967   4.559   4.723 -0.5978 -0.0484 -0.5344
 2901SOL    HW120339   2.020   4.480   4.713 -1.1855 -0.1167 -3.0073
 2901SOL    HW220340   1.992   4.590   4.810 -0.1029 -0.6084 -0.4798
 2902SOL     OW20341   3.208   1.999   8.029  0.0901 -0.2837  0.4925
 2902SOL    HW120342   3.122   1.958   8.039  0.1177 -0.0765  1.5436
 2902SOL    HW220343   3.184   2.088   8.057  0.2747 -1.7343  5.1990
 2903SOL     OW20344   3.550   1.594   2.643 -0.1489  0.5264  0.3907
 2903SOL    HW120345   3.532   1.653   2.716 -2.3836  1.4255 -0.8670
 2903SOL    HW220346   3.622   1.641   2.601  0.2931 -0.7752 -0.3245
 2904SOL     OW20347   1.860   3.221   3.691 -0.0427 -0.3817 -0.4937
 2904SOL    HW120348   1.849   3.234   3.785  2.7611  1.5042 -0.4203
 2904SOL    HW220349   1.955   3.226   3.686 -0.1071  1.6856  0.5196
 2905SOL     OW20350   1.548   2.835   4.676 -0.1551  0.5580  0.4731
 2905SOL    HW120351   1.469   2.830   4.622 -0.5044 -0.9640  1.1310
 2905SOL    HW220352   1.509   2.808   4.759 -0.1227  0.1250  0.3480
 2906SOL     OW20353   4.153   2.823   6.326  0.3420 -0.4404 -0.7905
 2906SOL    HW120354   4.248   2.807   6.326  0.1545 -1.6077 -0.4273
 2906SOL    HW220355   4.119   2.733   6.331 -0.1489 -0.2394 -0.5307
 2907SOL     OW20356   0.577   3.981   6.285 -0.1521 -0.3455 -0.1719
 2907SOL    HW120357   0.542   3.965   6.373  0.8226 -0.4856  0.1925
 2907SOL    HW220358   0.658   3.930   6.284  0.2126  0.1791  1.5364
 2908SOL     OW20359   1.217   2.143   7.155 -0.5433 -0.5289 -0.0473
 2908SOL    HW120360   1.224   2.053   7.186 -1.2175 -1.0330 -1.3958
 2908SOL    HW220361   1.254   2.183   7.235 -0.3580 -2.1032  0.6528
 2909SOL     OW20362   2.475   2.495   1.304 -0.2815 -0.0641  0.0519
 2909SOL    HW120363   2.548   2.444   1.340  0.1535  0.6011  0.1210
 2909SOL    HW220364   2.477   2.494   1.208 -1.0859  1.0398  0.0329
 2910SOL     OW20365   1.652   4.660  17.400  1.0614  0.2563  0.9412
 2910SOL    HW120366   1.595   4.584  17.408  0.5188  0.1770 -3.8458
 2910SOL    HW220367   1.680   4.668  17.491  0.5047  0.5836  1.0782
 2911SOL     OW20368   3.140   0.403   4.309  0.0039 -0.1016  0.2784
 2911SOL    HW120369   3.110   0.331   4.253 -0.0992  0.3476 -0.2340
 2911SOL    HW220370   3.106   0.476   4.258  1.5077  0.6559  0.3539
 2912SOL     OW20371   2.473   2.008   0.174 -0.1332  0.1121  0.1793
 2912SOL    HW120372   2.476   1.914   0.158 -0.5970  0.2267 -0.5921
 2912SOL    HW220373   2.409   2.030   0.106  1.5345  3.9183 -0.1528
 2913SOL     OW20374   1.147   3.787   3.187  0.1044  0.2268  0.0127
 2913SOL    HW120375   1.078   3.814   3.125 -0.7716  0.7591  1.2121
 2913SOL    HW220376   1.190   3.714   3.142 -0.4667 -1.4009  2.0969
 2914SOL     OW20377   1.186   1.138   3.043  0.2810  0.1799 -0.0570
 2914SOL    HW120378   1.117   1.203   3.031  0.8851  0.8306 -0.0822
 2914SOL    HW220379   1.255   1.166   2.983  2.0155 -0.4577  1.6343
 2915SOL     OW20380   0.103   4.277   8.242  0.1868  0.7814  1.1108
 2915SOL    HW120381   0.089   4.185   8.263  1.9617  0.4516  0.8447
 2915SOL    HW220382   0.013   4.310   8.240  1.0572  3.0543 -1.6617
 2916SOL     OW20383   4.131   1.043   7.296 -0.4856 -0.3742 -0.9201
 2916SOL    HW120384   4.051   1.088   7.268 -0.9338  0.0975  1.1191
 2916SOL    HW220385   4.150   1.068   7.386  0.0655  1.9594 -1.6753
 2917SOL     OW20386   0.934   0.075   4.537  0.3017  0.0392 -0.0356
 2917SOL    HW120387   0.973   0.072   4.624  1.4331 -0.1007 -0.5418
 2917SOL    HW220388   0.856   0.120   4.568 -1.1532 -1.7461 -1.0551
 2918SOL     OW20389   0.323   3.234   7.723  0.2909  0.0129 -0.7078
 2918SOL    HW120390   0.379   3.306   7.752  0.7296 -1.4506  2.0839
 2918SOL    HW220391   0.259   3.236   7.794  0.6496 -2.4015 -0.3380
 2919SOL     OW20392   0.603   2.834   3.165 -0.4360  0.0690 -0.2876
 2919SOL    HW120393   0.595   2.758   3.223  1.9795  0.9550  1.1850
 2919SOL    HW220394   0.610   2.909   3.224  0.3514  1.3070 -1.9539
 2920SOL     OW20395   0.722   4.143   8.249  0.1537 -0.0143  0.2343
 2920SOL    HW120396   0.768   4.071   8.292 -2.7511 -0.6615  2.2980
 2920SOL    HW220397   0.640   4.094   8.242  0.9477 -1.3730  0.4695
 2921SOL     OW20398   1.326   3.179  15.924  0.1304 -0.8364  0.2833
 2921SOL    HW120399   1.269   3.116  15.970 -0.7950 -0.2286 -0.0245
 2921SOL    HW220400   1.282   3.200  15.842  0.6018 -0.5488  0.1058
 2922SOL     OW20401   0.311   1.076   5.876  0.1708 -0.5413  0.3389
 2922SOL    HW120402   0.328   1.042   5.788 -0.6187 -0.9837  0.3578
 2922SOL    HW220403   0.317   0.996   5.929 -0.4156  0.5342  2.0402
 2923SOL     OW20404   3.014   4.136   4.823  0.0053 -0.0876 -0.3654
 2923SOL    HW120405   2.921   4.113   4.826  0.2095 -0.5739  2.1513
 2923SOL    HW220406   3.005   4.219   4.776  1.0539 -0.4230 -1.1328
 2924SOL     OW20407   1.537   2.412   8.642 -0.4416 -0.1227  0.4876
 2924SOL    HW120408   1.533   2.395   8.737  1.8352 -2.0105  0.2384
 2924SOL    HW220409   1.540   2.507   8.635  0.0683 -0.2470 -0.8973
 2925SOL     OW20410   0.814   2.485   6.194  0.1230  0.3734 -0.5819
 2925SOL    HW120411   0.869   2.443   6.128 -0.0855 -0.0682 -0.4799
 2925SOL    HW220412   0.790   2.411   6.250 -1.6790  3.3740  2.5760
 2926SOL     OW20413   3.117   1.635   2.528  0.5979  0.3152 -0.1558
 2926SOL    HW120414   3.028   1.610   2.553  0.9474 -2.1456 -1.4095
 2926SOL    HW220415   3.175   1.586   2.587  0.3904  0.6149  0.2996
 2927SOL     OW20416   3.352   2.870  10.071  1.2183 -0.0638 -0.3237
 2927SOL    HW120417   3.381   2.805  10.007 -0.1069  0.1144 -1.1081
 2927SOL    HW220418   3.340   2.945  10.013 -1.1526 -0.5375 -0.4291
 2928SOL     OW20419   4.595   2.345   4.240  0.4147 -0.4743  0.0648
 2928SOL    HW120420   4.503   2.319   4.250  0.6397 -0.6541  1.6063
 2928SOL    HW220421   4.586   2.436   4.270  0.1786 -0.1159 -1.1008
 2929SOL     OW20422   3.299   4.278   8.250  0.3118 -0.5451 -0.3187
 2929SOL    HW120423   3.325   4.359   8.205  1.0723 -0.6494 -0.0611
 2929SOL    HW220424   3.314   4.305   8.340  1.3066 -1.3957 -0.2285
 2930SOL     OW20425   3.619   1.563   6.042 -0.1253 -0.1277  0.0018
 2930SOL    HW120426   3.616   1.576   6.137 -0.8460  2.7055 -0.3999
 2930SOL    HW220427   3.701   1.516   6.053 -0.2195  0.1788  2.1632
 2931SOL     OW20428   2.262   0.314   5.374 -0.2845 -0.2105 -0.0005
 2931SOL    HW120429   2.200   0.381   5.347 -0.4478 -0.9252 -1.3829
 2931SOL    HW220430   2.315   0.356   5.442 -3.1302  3.5038 -0.1084
 2932SOL     OW20431   4.591   2.981  16.715  0.2608  0.2251  0.1990
 2932SOL    HW120432   4.623   2.964  16.626 -1.0969  1.4223 -0.5334
 2932SOL    HW220433   4.659   2.935  16.763 -0.4157 -0.7154  0.2540
 2933SOL     OW20434   0.341   3.322   4.802  0.0711 -0.3513 -0.1433
 2933SOL    HW120435   0.287   3.398   4.819  0.9805  0.3460 -0.3499
 2933SOL    HW220436   0.420   3.373   4.784 -0.4718 -0.3224 -2.4674
 2934SOL     OW20437   2.405   1.862   8.325  0.2407  0.6123 -0.1757
 2934SOL    HW120438   2.451   1.849   8.243  1.3551 -3.7111  1.1240
 2934SOL    HW220439   2.469   1.831   8.389 -1.4509 -0.5331  0.9552
 2935SOL     OW20440   2.907   1.644   5.629  0.8912  0.3911 -0.4167
 2935SOL    HW120441   2.915   1.550   5.638 -0.0310  0.7970  4.3722
 2935SOL    HW220442   2.934   1.651   5.537  2.3141  1.8268  0.0974
 2936SOL     OW20443   4.363   4.055   3.982 -0.3451 -0.3797 -0.5279
 2936SOL    HW120444   4.417   4.019   4.052  1.4919 -0.2844 -1.8977
 2936SOL    HW220445   4.422   4.121   3.944 -0.7036  0.8349  1.0397
 2937SOL     OW20446   4.066   4.555  12.625 -0.1553 -0.2367  0.0863
 2937SOL    HW120447   3.983   4.593  12.653 -0.3217 -0.8805  0.4693
 2937SOL    HW220448   4.118   4.572  12.703  1.3205  0.3341 -1.0172
 2938SOL     OW20449   2.540   4.095  15.717  0.2158  0.2098 -0.5925
 2938SOL    HW120450   2.575   4.181  15.695 -1.1876  0.5051 -1.6898
 2938SOL    HW220451   2.621   4.056  15.751  0.8671  0.9980 -1.2174
 2939SOL     OW20452   2.572   0.888  14.545 -0.1321  0.2577 -0.5018
 2939SOL    HW120453   2.644   0.950  14.553 -0.0477 -0.1349  1.7222
 2939SOL    HW220454   2.575   0.870  14.451  0.4189  0.4722 -0.5268
 2940SOL     OW20455   3.435   4.660   1.496  0.5025 -0.2201 -0.0084
 2940SOL    HW120456   3.369   4.615   1.444 -0.0258  1.6457 -0.9647
 2940SOL    HW220457   3.388   4.658   1.580  0.0115  0.4284 -0.2615
 2941SOL     OW20458   3.823   4.213  11.352 -0.4243  0.0591 -0.0563
 2941SOL    HW120459   3.779   4.256  11.425 -0.3619 -1.8411  1.0950
 2941SOL    HW220460   3.845   4.129  11.391 -2.1561  0.4091  1.7074
 2942SOL     OW20461   0.584   2.915   2.101 -0.4344 -0.4360  0.1536
 2942SOL    HW120462   0.501   2.889   2.062  0.0599 -0.6005 -0.7782
 2942SOL    HW220463   0.574   2.883   2.191  1.6021  0.2131  0.6087
 2943SOL     OW20464   3.655   1.087   1.437 -0.3644  0.4763  0.2274
 2943SOL    HW120465   3.680   0.996   1.454 -0.0720  0.6267  0.6211
 2943SOL    HW220466   3.561   1.076   1.423 -0.1895  0.5886 -1.0022
 2944SOL     OW20467   4.052   1.888   0.717 -0.0649 -0.1051  0.0937
 2944SOL    HW120468   4.135   1.854   0.751  0.3754  0.7628 -0.1069
 2944SOL    HW220469   4.045   1.966   0.771  1.1603  0.0585  0.0234
 2945SOL     OW20470   1.357   3.821   7.006  0.2184 -0.4561 -0.7249
 2945SOL    HW120471   1.407   3.890   7.050 -0.7538 -0.6701  0.7305
 2945SOL    HW220472   1.306   3.801   7.085 -1.5217  4.1014 -0.6683
 2946SOL     OW20473   4.384   4.493   5.151  0.4179 -0.5669 -0.3210
 2946SOL    HW120474   4.328   4.422   5.181  0.4250  0.3085  1.7463
 2946SOL    HW220475   4.367   4.561   5.216  1.9682  1.4482 -2.0048
 2947SOL     OW20476   3.940   0.625  13.902 -0.1696  0.6559 -0.0785
 2947SOL    HW120477   3.956   0.688  13.832  0.8733  0.2963 -0.1586
 2947SOL    HW220478   3.931   0.684  13.978  1.5324  0.1117  0.5442
 2948SOL     OW20479   2.991   3.634   3.351  0.3618 -0.2752 -0.4206
 2948SOL    HW120480   3.080   3.608   3.374 -0.1920  1.1240  3.4012
 2948SOL    HW220481   2.942   3.623   3.432  2.5663  0.3008  0.9940
 2949SOL     OW20482   1.094   3.228   7.476  0.2558  0.0645  0.1348
 2949SOL    HW120483   1.088   3.182   7.393 -0.1427  0.3824 -0.0083
 2949SOL    HW220484   1.003   3.254   7.485  0.3135  0.7100 -1.2211
 2950SOL     OW20485   4.731   4.293  14.045 -0.2746 -0.2784 -0.2069
 2950SOL    HW120486   4.689   4.322  14.126  1.3111 -2.2229  1.3034
 2950SOL    HW220487   4.732   4.375  13.996 -1.1109 -0.3502 -0.3473
 2951SOL     OW20488   4.615   0.463   9.709 -0.1625  0.1566 -0.4259
 2951SOL    HW120489   4.676   0.390   9.722 -0.1892  0.0401 -0.9562
 2951SOL    HW220490   4.632   0.490   9.619  0.1823  0.6709 -0.2042
 2952SOL     OW20491   0.913   0.864   2.658 -0.0748  0.5069 -0.3763
 2952SOL    HW120492   0.919   0.898   2.748  0.9610 -2.1823  0.5620
 2952SOL    HW220493   0.827   0.824   2.673 -0.2447  1.1687  0.4395
 2953SOL     OW20494   2.170   0.551  15.729  0.3639  0.2660  0.2632
 2953SOL    HW120495   2.236   0.485  15.709 -0.1531 -0.6810  1.6611
 2953SOL    HW220496   2.220   0.610  15.785  1.9641 -0.4885 -0.3822
 2954SOL     OW20497   1.708   0.004   5.345 -0.6201  0.3200 -0.3146
 2954SOL    HW120498   1.656   0.082   5.325  0.8135  1.0058 -1.4291
 2954SOL    HW220499   1.668   4.678   5.284  0.7644 -0.6491 -0.2408
 2955SOL     OW20500   4.306   4.156   2.021  0.2327  0.3783  0.0427
 2955SOL    HW120501   4.318   4.180   2.114 -0.2726  0.7763  0.0109
 2955SOL    HW220502   4.213   4.180   2.013  0.2799  0.9873  1.1900
 2956SOL     OW20503   1.417   3.513   7.155 -0.5458  0.1793  0.4032
 2956SOL    HW120504   1.492   3.487   7.102 -1.1001  0.1908 -0.3978
 2956SOL    HW220505   1.448   3.593   7.198  1.6136 -0.2166 -0.4003
 2957SOL     OW20506   2.857   3.196  16.616 -0.3654 -0.2265 -0.2213
 2957SOL    HW120507   2.900   3.278  16.590  1.0101 -0.5875  0.9643
 2957SOL    HW220508   2.800   3.223  16.687  0.5790 -1.0063  0.8246
 2958SOL     OW20509   0.906   2.748   3.283  0.1897 -0.3493 -0.1119
 2958SOL    HW120510   0.825   2.705   3.311 -0.1753  0.4779  0.1170
 2958SOL    HW220511   0.933   2.679   3.223 -1.6002 -0.0469 -1.2620
 2959SOL     OW20512   2.899   0.924   0.812  0.1734  0.1797  0.4563
 2959SOL    HW120513   2.861   0.902   0.726  1.4400 -1.5146  0.3326
 2959SOL    HW220514   2.993   0.921   0.794 -0.0367  0.4988 -0.7297
 2960SOL     OW20515   4.569   3.110   1.379 -0.5638 -0.1507  0.0697
 2960SOL    HW120516   4.496   3.118   1.317 -1.5640 -0.6523  1.1673
 2960SOL    HW220517   4.513   3.141   1.451 -0.3620 -0.2657  0.2724
 2961SOL     OW20518   1.658   0.324   8.006  0.2444  0.0742  0.1586
 2961SOL    HW120519   1.624   0.412   8.021  1.6008  0.7283 -0.5571
 2961SOL    HW220520   1.746   0.347   7.975  1.0221 -0.0295  2.2513
 2962SOL     OW20521   2.741   3.112   7.917  0.1316  0.3054 -0.1862
 2962SOL    HW120522   2.654   3.083   7.889 -0.4960  1.3574  0.6877
 2962SOL    HW220523   2.805   3.088   7.850  0.2650  0.2532 -0.0404
 2963SOL     OW20524   3.700   3.873   2.462  0.1372 -0.2749  0.3581
 2963SOL    HW120525   3.756   3.800   2.487  1.4903  0.6482  0.0421
 2963SOL    HW220526   3.697   3.858   2.368 -0.2904  0.7708  0.1993
 2964SOL     OW20527   0.645   2.393   3.767 -0.0004 -0.5443 -0.3558
 2964SOL    HW120528   0.657   2.298   3.773  0.4787 -0.3556  1.6916
 2964SOL    HW220529   0.550   2.399   3.776  0.0777  1.6553 -0.9670
 2965SOL     OW20530   3.472   4.674  14.049 -0.2382 -0.0311  0.0005
 2965SOL    HW120531   3.532   0.007  14.018 -0.5261 -0.2635 -1.0753
 2965SOL    HW220532   3.390   4.684  14.000 -0.4239 -1.1734  0.0906
 2966SOL     OW20533   3.969   0.831   5.980  0.0356 -0.2223  0.2942
 2966SOL    HW120534   3.884   0.847   5.938  0.1128 -1.8459 -0.4776
 2966SOL    HW220535   4.028   0.804   5.910  0.7274  0.5102  0.6034
 2967SOL     OW20536   0.422   4.545   6.582  0.5621  0.1743 -0.2914
 2967SOL    HW120537   0.474   4.625   6.582 -1.7329  1.6654  1.2723
 2967SOL    HW220538   0.484   4.478   6.551  1.1004  0.3239  0.4543
 2968SOL     OW20539   2.535   0.298  13.394 -0.7355 -1.1053 -0.1065
 2968SOL    HW120540   2.528   0.387  13.427  1.5078 -1.8250  2.3556
 2968SOL    HW220541   2.619   0.302  13.348 -1.0022 -0.8681 -0.5698
 2969SOL     OW20542   0.809   0.873   6.876 -0.4741 -0.0121  0.4356
 2969SOL    HW120543   0.841   0.783   6.879 -0.6639 -0.1156 -0.7448
 2969SOL    HW220544   0.849   0.910   6.798 -1.2464 -1.0532 -0.4473
 2970SOL     OW20545   3.229   3.316   5.908 -0.0185  0.1695 -0.7964
 2970SOL    HW120546   3.158   3.257   5.935  1.6437 -2.2644 -1.8443
 2970SOL    HW220547   3.206   3.329   5.816 -1.1324  1.0175 -0.4114
 2971SOL     OW20548   2.324   1.934   0.770 -0.1242  0.4614 -1.1639
 2971SOL    HW120549   2.339   1.845   0.738  0.2318  0.2587 -0.4362
 2971SOL    HW220550   2.373   1.932   0.852 -1.6340 -2.7818 -0.3203
 2972SOL     OW20551   2.928   4.275   4.102 -0.2593  0.1291 -0.0620
 2972SOL    HW120552   2.880   4.338   4.157 -0.2243  0.3634 -0.3009
 2972SOL    HW220553   3.005   4.331   4.103 -0.2134  0.0661 -0.2148
 2973SOL     OW20554   3.044   2.853   9.008 -0.9735  1.1883 -0.4985
 2973SOL    HW120555   3.079   2.768   9.033  0.1492  1.6640 -0.4904
 2973SOL    HW220556   2.991   2.819   8.935  0.8128  0.0892 -1.2614
 2974SOL     OW20557   2.452   4.180   9.459  0.3476 -0.4663  0.2963
 2974SOL    HW120558   2.371   4.228   9.477  0.0353 -0.0608 -2.1046
 2974SOL    HW220559   2.513   4.253   9.469 -0.5926  0.3068  0.3628
 2975SOL     OW20560   4.084   1.520  14.769 -0.0303 -0.2804  0.0917
 2975SOL    HW120561   4.038   1.450  14.816 -0.2006 -0.5227 -0.4378
 2975SOL    HW220562   4.095   1.582  14.842  0.2868 -0.3760  0.1220
 2976SOL     OW20563   2.195   2.599   7.401  0.0037  0.0359  0.4381
 2976SOL    HW120564   2.225   2.546   7.327  0.9647 -0.5612  1.2421
 2976SOL    HW220565   2.256   2.559   7.464  0.6404  1.1256  0.5155
 2977SOL     OW20566   0.638   2.343   6.785 -0.1223  0.1638  0.4281
 2977SOL    HW120567   0.566   2.379   6.837 -0.6010 -0.3613  0.1332
 2977SOL    HW220568   0.608   2.253   6.774  1.5503 -0.2136 -1.0549
 2978SOL     OW20569   4.142   0.751   6.534 -0.3667  0.5929 -0.3933
 2978SOL    HW120570   4.110   0.661   6.532 -1.0916  0.8394 -0.0265
 2978SOL    HW220571   4.237   0.748   6.546 -0.2237  2.2651 -1.0198
 2979SOL     OW20572   1.264   1.251   5.099 -0.8246 -0.4717  0.7520
 2979SOL    HW120573   1.287   1.280   5.187 -0.3195  0.3581  0.3378
 2979SOL    HW220574   1.194   1.186   5.105 -2.2090  0.8541 -1.0732
 2980SOL     OW20575   0.340   0.821   7.292  0.1417  0.2057 -0.0367
 2980SOL    HW120576   0.363   0.774   7.212 -0.3999 -1.2817  0.6910
 2980SOL    HW220577   0.269   0.877   7.260 -0.1372 -0.2786 -0.2689
 2981SOL     OW20578   4.483   3.587  11.944 -0.2743 -0.1254  0.1421
 2981SOL    HW120579   4.563   3.539  11.964  0.7193  1.4579  0.0026
 2981SOL    HW220580   4.521   3.649  11.881  1.6974 -0.6541  0.7995
 2982SOL     OW20581   1.992   3.512   2.970  0.9080  0.1934 -0.0982
 2982SOL    HW120582   1.999   3.423   3.005 -1.9861 -0.1802 -0.5094
 2982SOL    HW220583   1.952   3.554   3.047 -2.1486 -1.5290 -0.7667
 2983SOL     OW20584   2.336   4.209  12.636 -0.1794 -0.2083  0.2277
 2983SOL    HW120585   2.309   4.170  12.719  3.1400 -1.7138  0.6474
 2983SOL    HW220586   2.323   4.132  12.580 -2.6319  0.4399 -0.0724
 2984SOL     OW20587   2.405   2.060  12.846  0.0790  0.8538  0.3943
 2984SOL    HW120588   2.360   1.977  12.829  1.5126  0.2355 -0.3211
 2984SOL    HW220589   2.466   2.057  12.773 -0.5803  2.9708 -0.2313
 2985SOL     OW20590   3.244   1.640   4.823  0.6688 -0.4169  0.5308
 2985SOL    HW120591   3.293   1.613   4.901 -0.3007  0.8895  1.6045
 2985SOL    HW220592   3.166   1.584   4.830 -0.9735  1.5222 -2.0972
 2986SOL     OW20593   0.989   4.088   6.516 -0.4395  0.6266  0.6747
 2986SOL    HW120594   0.991   4.142   6.437 -3.9401 -1.2907 -0.7238
 2986SOL    HW220595   1.065   4.134   6.553 -0.8397  2.8411 -1.2746
 2987SOL     OW20596   0.944   3.482   3.069  0.0872  0.0035 -0.1783
 2987SOL    HW120597   0.924   3.414   3.134  0.0216 -0.7138 -0.9549
 2987SOL    HW220598   0.865   3.536   3.077  0.1248  0.2415 -1.4372
 2988SOL     OW20599   4.452   2.591   3.227 -0.0834 -0.1864 -0.2201
 2988SOL    HW120600   4.418   2.663   3.281  0.6270 -1.4556  1.9435
 2988SOL    HW220601   4.369   2.548   3.205  0.1009 -0.9443  0.5848
 2989SOL     OW20602   0.759   1.065   6.523  0.7365 -0.6497 -0.1918
 2989SOL    HW120603   0.822   1.080   6.453  3.2045  1.0125  2.3612
 2989SOL    HW220604   0.816   1.065   6.601  1.5871 -1.0975 -0.8149
 2990SOL     OW20605   0.609   3.859  16.673 -0.1749  0.0179 -0.3956
 2990SOL    HW120606   0.584   3.944  16.635 -2.2688  0.8785  2.9781
 2990SOL    HW220607   0.562   3.799  16.614 -0.4713 -1.6419  1.5593
 2991SOL     OW20608   0.071   3.021   5.056 -0.3394 -0.9203  0.9074
 2991SOL    HW120609   0.079   2.925   5.059  1.4151 -0.7587  1.8549
 2991SOL    HW220610   0.153   3.042   5.102 -0.5696 -1.0924  1.3967
 2992SOL     OW20611   2.416   0.053   8.203 -0.2108  0.4327  0.2535
 2992SOL    HW120612   2.403   4.717   8.141  0.4069  3.3156 -3.2618
 2992SOL    HW220613   2.437   0.125   8.143  1.7187 -0.5407 -0.2644
 2993SOL     OW20614   2.405   3.779   2.260 -0.1162  0.4159 -0.1167
 2993SOL    HW120615   2.354   3.823   2.328 -1.2226 -1.4337  0.2576
 2993SOL    HW220616   2.447   3.850   2.212  1.4225 -1.9506 -2.2573
 2994SOL     OW20617   1.539   0.617  15.776  0.1162 -0.1174  0.1176
 2994SOL    HW120618   1.503   0.563  15.705 -0.2835 -1.1860  1.1276
 2994SOL    HW220619   1.534   0.703  15.735  1.1561 -1.2095 -2.3169
 2995SOL     OW20620   3.196   3.609   2.312  0.5494  0.8929 -0.4867
 2995SOL    HW120621   3.284   3.642   2.333  0.7656 -1.8699  2.9133
 2995SOL    HW220622   3.204   3.515   2.324  0.3880  0.9876  0.3502
 2996SOL     OW20623   3.705   2.496   4.095  0.1026 -0.4136 -0.2837
 2996SOL    HW120624   3.770   2.453   4.151 -1.9900 -1.7445  1.1460
 2996SOL    HW220625   3.771   2.536   4.039  0.8164 -2.5477 -0.9725
 2997SOL     OW20626   1.568   4.242   2.415  0.3373 -0.4360  0.0351
 2997SOL    HW120627   1.494   4.300   2.395  1.2147 -0.1443 -2.2778
 2997SOL    HW220628   1.571   4.254   2.510 -0.0776 -1.3043  0.1499
 2998SOL     OW20629   1.152   1.047   1.812  0.6826  0.2966  0.0777
 2998SOL    HW120630   1.168   1.113   1.745 -0.0427 -0.6486 -1.0507
 2998SOL    HW220631   1.072   1.001   1.783 -0.8783  0.4933  4.0221
 2999SOL     OW20632   2.906   2.404   2.290  0.1877 -0.1797  0.1999
 2999SOL    HW120633   2.865   2.452   2.362 -0.6940 -1.3209  0.4650
 2999SOL    HW220634   2.826   2.363   2.256 -0.0469  0.3062  0.1629
 3000SOL     OW20635   2.066   0.209   3.828  0.1679 -0.1440 -0.1202
 3000SOL    HW120636   2.087   0.136   3.887 -0.7795 -0.5283 -0.2743
 3000SOL    HW220637   2.079   0.164   3.744  1.2893 -0.3750  0.1772
 3001SOL     OW20638   4.505   0.622  13.838  0.0762 -0.3788 -0.2585
 3001SOL    HW120639   4.422   0.669  13.837  1.2031  1.6362  1.0335
 3001SOL    HW220640   4.539   0.636  13.926 -2.7379  0.7444  0.6277
 3002SOL     OW20641   2.782   4.259  14.545 -0.6097 -0.6677 -0.5382
 3002SOL    HW120642   2.715   4.191  14.557  0.6869 -1.8828 -0.0619
 3002SOL    HW220643   2.725   4.330  14.517  1.0868  0.8632 -0.1501
 3003SOL     OW20644   2.087   4.357   2.533 -0.1138 -0.2460  0.0902
 3003SOL    HW120645   2.145   4.336   2.460 -1.1153 -1.3312 -0.4000
 3003SOL    HW220646   2.139   4.432   2.561 -0.2589  1.0111 -2.9439
 3004SOL     OW20647   3.112   2.555   4.211 -0.7575  0.4448 -0.3047
 3004SOL    HW120648   3.016   2.558   4.202 -0.6448  2.1763 -0.9054
 3004SOL    HW220649   3.137   2.647   4.214  0.7390  0.0039  0.6579
 3005SOL     OW20650   0.269   0.225   7.610 -0.0763 -0.1214 -0.1629
 3005SOL    HW120651   0.351   0.196   7.571  0.2826 -0.0532  0.5377
 3005SOL    HW220652   0.213   0.194   7.539  0.4375  1.8117 -1.4140
 3006SOL     OW20653   2.866   0.194   0.087 -0.3532 -0.2147  0.5368
 3006SOL    HW120654   2.920   0.274   0.083  1.2603 -1.3471 -0.2413
 3006SOL    HW220655   2.804   0.217   0.018  0.3976 -3.6991 -1.2591
 3007SOL     OW20656   4.029   0.914  15.976  0.1664  0.0362 -0.1446
 3007SOL    HW120657   4.116   0.948  16.001  0.3453 -1.4953  1.3421
 3007SOL    HW220658   4.052   0.832  15.933 -0.1430  0.0260 -0.2879
 3008SOL     OW20659   4.320   4.696   9.077  0.0618  0.5504  0.0136
 3008SOL    HW120660   4.415   4.706   9.080  0.0836  0.1551  0.5476
 3008SOL    HW220661   4.292   4.732   9.161 -1.2629  1.0396 -0.6264
 3009SOL     OW20662   2.210   3.565  11.202 -0.4596  0.3346 -0.6424
 3009SOL    HW120663   2.284   3.548  11.261 -1.3125  2.2512  0.9677
 3009SOL    HW220664   2.146   3.498  11.224  0.7533 -1.4200 -2.4150
 3010SOL     OW20665   4.484   4.554   6.379  0.4568  0.3687  0.0634
 3010SOL    HW120666   4.491   4.604   6.297 -0.0990  0.5858  0.1478
 3010SOL    HW220667   4.557   4.494   6.368 -1.2040 -1.5845 -0.1909
 3011SOL     OW20668   2.078   0.674   7.351 -0.1769 -0.3726  0.1881
 3011SOL    HW120669   2.110   0.757   7.316 -1.7590  0.0809 -0.1581
 3011SOL    HW220670   2.004   0.657   7.293 -0.6252  2.8292 -0.1809
 3012SOL     OW20671   0.187   3.199   5.370 -0.4025  0.2185 -0.5042
 3012SOL    HW120672   0.227   3.260   5.309  1.4936 -1.3423 -0.8050
 3012SOL    HW220673   0.266   3.175   5.418  0.4591  2.3831 -0.8411
 3013SOL     OW20674   2.010   4.692   6.834 -0.5118  0.1092 -0.6978
 3013SOL    HW120675   2.065   0.004   6.896  0.8575 -0.8815 -1.1513
 3013SOL    HW220676   2.011   0.002   6.750 -0.5981 -0.4933 -1.0304
 3014SOL     OW20677   4.129   3.879  16.469  0.5583  0.2146  0.6483
 3014SOL    HW120678   4.171   3.793  16.469  2.0028  0.9169  0.5060
 3014SOL    HW220679   4.187   3.944  16.428  0.2223 -0.0786 -0.2938
 3015SOL     OW20680   2.823   2.487   4.652 -0.1238 -0.6442 -0.1504
 3015SOL    HW120681   2.784   2.467   4.737  0.9219  1.5263  0.8269
 3015SOL    HW220682   2.818   2.403   4.606  0.0229  0.1860 -1.7031
 3016SOL     OW20683   2.149   0.926   1.738 -0.0269 -0.1862 -0.0097
 3016SOL    HW120684   2.117   1.016   1.733 -0.3765 -0.4096 -1.7056
 3016SOL    HW220685   2.147   0.909   1.832  0.3805  0.3741  0.0990
 3017SOL     OW20686   4.129   3.826   2.447 -0.1603  0.2287  0.0324
 3017SOL    HW120687   4.154   3.819   2.355 -0.2889 -0.4826  0.0586
 3017SOL    HW220688   4.122   3.921   2.461  2.5934  0.3003  0.8572
 3018SOL     OW20689   1.717   0.553   9.434 -0.1785 -0.0319  0.7375
 3018SOL    HW120690   1.639   0.557   9.489 -1.1650  2.2187 -0.7995
 3018SOL    HW220691   1.701   0.634   9.386  2.1059 -0.5494 -0.8974
 3019SOL     OW20692   1.512   3.523   7.867  0.1183 -0.5652 -0.3061
 3019SOL    HW120693   1.515   3.598   7.926  1.3048 -1.1300  0.3333
 3019SOL    HW220694   1.416   3.521   7.859 -0.1335 -0.1198  2.6067
 3020SOL     OW20695   3.464   1.644   3.532 -0.0882 -0.2307 -0.0481
 3020SOL    HW120696   3.463   1.725   3.481 -1.1043  0.1791  0.6248
 3020SOL    HW220697   3.558   1.628   3.541  0.3045  1.1742 -1.5106
 3021SOL     OW20698   1.936   1.544  15.167  0.0938  0.3637  0.2963
 3021SOL    HW120699   1.845   1.515  15.173  1.1230 -2.6357  1.5198
 3021SOL    HW220700   1.932   1.615  15.103  1.3600  1.2718  1.2250
 3022SOL     OW20701   0.813   2.375   6.999  0.1206  0.4577  0.3667
 3022SOL    HW120702   0.801   2.468   7.019  2.9383  0.4873  2.0031
 3022SOL    HW220703   0.726   2.365   6.962 -0.6965 -1.0659  2.6784
 3023SOL     OW20704   0.354   2.801   8.816  0.5154 -0.4326  0.3932
 3023SOL    HW120705   0.371   2.875   8.757  1.3889 -1.5343 -0.7236
 3023SOL    HW220706   0.261   2.815   8.835  0.5832  0.4449  0.1024
 3024SOL     OW20707   4.320   3.773   0.257 -0.3466 -0.3740 -0.3409
 3024SOL    HW120708   4.337   3.831   0.331  0.0343  0.4308 -1.0635
 3024SOL    HW220709   4.230   3.801   0.238 -0.1549  0.8686  0.5717
 3025SOL     OW20710   1.791   0.630   6.090  0.2022  0.3968  0.6783
 3025SOL    HW120711   1.740   0.553   6.065  0.7451  0.4524 -0.6022
 3025SOL    HW220712   1.732   0.690   6.136  0.5941  0.9865  0.4068
 3026SOL     OW20713   2.592   3.640  14.791 -0.7952 -0.5225  0.2235
 3026SOL    HW120714   2.592   3.679  14.878 -3.2943 -1.2147  0.5288
 3026SOL    HW220715   2.687   3.638  14.782 -0.7926  3.9703 -0.6188
 3027SOL     OW20716   3.793   3.074   4.462 -0.3866  0.1495 -0.2550
 3027SOL    HW120717   3.763   3.058   4.372 -2.9929 -0.5572  0.7521
 3027SOL    HW220718   3.782   3.169   4.461 -2.4634 -0.0932 -0.8593
 3028SOL     OW20719   1.959   4.093   5.222 -0.3121  0.4777  0.5498
 3028SOL    HW120720   1.878   4.046   5.242 -0.2994  0.3319  0.2587
 3028SOL    HW220721   1.948   4.125   5.133 -2.5885 -0.3404  0.5324
 3029SOL     OW20722   0.366   0.850  14.384 -0.1495 -0.7251  0.4009
 3029SOL    HW120723   0.342   0.799  14.307  2.9153 -0.4368 -0.7193
 3029SOL    HW220724   0.456   0.825  14.406  0.9061 -0.5963 -3.7997
 3030SOL     OW20725   0.929   2.871   4.138 -0.0406  0.0117 -0.1410
 3030SOL    HW120726   0.928   2.826   4.222 -0.7896  1.3617  0.5825
 3030SOL    HW220727   0.920   2.961   4.170 -0.1387  0.5567 -1.7051
 3031SOL     OW20728   2.536   2.312   5.844  0.5381  0.3397 -0.1093
 3031SOL    HW120729   2.478   2.361   5.786 -1.9717 -1.0796  1.2014
 3031SOL    HW220730   2.475   2.291   5.915  0.3586 -0.5724 -0.5359
 3032SOL     OW20731   3.659   0.491   4.818  0.1111  0.1618 -0.3666
 3032SOL    HW120732   3.651   0.560   4.753  2.5650 -0.5735 -1.4448
 3032SOL    HW220733   3.712   0.429   4.768 -1.0763 -1.6357  0.6231
 3033SOL     OW20734   3.903   1.188   2.827 -0.3405 -0.1694 -0.3668
 3033SOL    HW120735   3.978   1.142   2.864 -1.3503 -0.3425  1.4493
 3033SOL    HW220736   3.881   1.247   2.899  0.8160  0.4302 -0.4933
 3034SOL     OW20737   3.715   3.391   1.010  0.1497 -0.7237  0.1155
 3034SOL    HW120738   3.756   3.319   0.962 -0.6332 -0.4547 -0.9415
 3034SOL    HW220739   3.744   3.463   0.953  0.5801 -0.6605  0.4108
 3035SOL     OW20740   2.348   3.442   7.417  0.0001 -0.0261  0.2698
 3035SOL    HW120741   2.278   3.402   7.365  1.4830  1.1278 -2.6257
 3035SOL    HW220742   2.403   3.487   7.352  1.4239 -1.6368  0.3458
 3036SOL     OW20743   4.272   1.186   9.701  0.4871  0.1377 -0.2709
 3036SOL    HW120744   4.183   1.163   9.672  0.6014 -0.9158  0.2187
 3036SOL    HW220745   4.304   1.229   9.621  0.3497  0.1752 -0.3054
 3037SOL     OW20746   1.764   0.832  15.776 -0.1740 -0.0507  0.1806
 3037SOL    HW120747   1.779   0.828  15.870  0.5075 -0.8609  0.0448
 3037SOL    HW220748   1.827   0.767  15.743 -1.2961 -0.7340 -0.6076
 3038SOL     OW20749   3.254   3.583  16.237  0.6110  0.2496 -0.2353
 3038SOL    HW120750   3.346   3.569  16.213  0.6372  1.0207 -0.5889
 3038SOL    HW220751   3.264   3.646  16.309  2.0337 -1.9178  1.4704
 3039SOL     OW20752   1.497   0.701   5.251  0.0674 -0.0276  0.2374
 3039SOL    HW120753   1.533   0.662   5.171  1.1696 -1.3265  1.3623
 3039SOL    HW220754   1.473   0.617   5.290 -0.8208  0.1081 -0.0336
 3040SOL     OW20755   2.865   3.143   5.879 -0.0763  0.0711  0.1023
 3040SOL    HW120756   2.918   3.073   5.840 -0.5921 -1.1211  1.5609
 3040SOL    HW220757   2.776   3.113   5.859  0.7563 -1.6794 -1.0471
 3041SOL     OW20758   3.018   1.168   3.340  0.0998 -0.2508 -0.0089
 3041SOL    HW120759   3.089   1.103   3.344 -2.5443 -3.0077  1.9558
 3041SOL    HW220760   2.949   1.127   3.391 -0.8199 -0.0978 -1.1159
 3042SOL     OW20761   1.432   3.878  10.752  0.4123  0.2618 -0.7114
 3042SOL    HW120762   1.389   3.862  10.668 -2.0131 -0.7555  0.7286
 3042SOL    HW220763   1.465   3.968  10.744  0.7856  0.3173  1.4871
 3043SOL     OW20764   2.893   3.465   7.171  0.0464 -0.4540  0.1488
 3043SOL    HW120765   2.922   3.378   7.144  0.5478 -0.4900  0.8030
 3043SOL    HW220766   2.972   3.513   7.147 -0.0068  0.7437  2.3770
 3044SOL     OW20767   0.126   1.499   8.192  0.4113 -0.4384 -0.1979
 3044SOL    HW120768   0.082   1.571   8.237  0.2123 -0.2128 -0.7465
 3044SOL    HW220769   0.158   1.457   8.272 -0.4597 -1.6864 -0.4951
 3045SOL     OW20770   4.408   3.164   1.174  0.3282  0.2292 -0.1383
 3045SOL    HW120771   4.410   3.074   1.141  0.0283 -0.0196  0.5233
 3045SOL    HW220772   4.329   3.195   1.130 -1.1120 -0.1075  2.2069
 3046SOL     OW20773   3.197   1.385  16.978  0.1441 -0.5330 -0.1069
 3046SOL    HW120774   3.179   1.451  16.911 -1.9562  0.1129  1.1083
 3046SOL    HW220775   3.290   1.370  16.959  0.6439 -0.6018  2.2838
 3047SOL     OW20776   0.730   2.661   1.699 -0.2462 -0.1544  0.0182
 3047SOL    HW120777   0.761   2.607   1.772  0.1836 -0.9460 -0.7503
 3047SOL    HW220778   0.720   2.592   1.634 -1.4583  0.0885 -0.0454
 3048SOL     OW20779   3.899   2.594   5.520 -0.2953  0.0360  0.0001
 3048SOL    HW120780   3.817   2.621   5.560  0.0373  0.5865  0.3085
 3048SOL    HW220781   3.906   2.504   5.553 -0.0046  0.3628  0.8437
 3049SOL     OW20782   3.060   4.046   3.772  0.3267 -0.6057 -0.4428
 3049SOL    HW120783   3.090   4.106   3.704  1.1971 -0.6957 -0.1476
 3049SOL    HW220784   2.967   4.064   3.756  0.4407 -0.5632 -1.0937
 3050SOL     OW20785   1.007   1.993   4.273  0.3086  0.4228 -0.2353
 3050SOL    HW120786   1.053   1.909   4.274 -1.2991 -0.4327  1.9155
 3050SOL    HW220787   1.051   2.036   4.347 -1.2584 -2.3265  2.3157
 3051SOL     OW20788   3.892   1.641  11.008  0.0307  1.0397  0.6626
 3051SOL    HW120789   3.980   1.632  11.046 -1.0473 -0.6013  2.7647
 3051SOL    HW220790   3.904   1.708  10.940 -0.6782 -0.6407 -1.1154
 3052SOL     OW20791   2.849   2.451   9.147  0.1749 -0.4904  0.5419
 3052SOL    HW120792   2.813   2.490   9.226 -2.0935 -1.8622  0.2002
 3052SOL    HW220793   2.935   2.421   9.177  1.2134  0.2336 -1.7516
 3053SOL     OW20794   1.706   1.733   5.578 -0.0999 -0.3203 -0.1829
 3053SOL    HW120795   1.775   1.788   5.616 -0.5123  0.7054 -0.9004
 3053SOL    HW220796   1.684   1.686   5.658  0.2154  1.0220  0.6991
 3054SOL     OW20797   1.165   2.347   5.002  0.1161  0.2933 -0.0943
 3054SOL    HW120798   1.190   2.374   5.090 -1.4741  0.1302  0.4062
 3054SOL    HW220799   1.166   2.251   5.013 -1.2920  0.2641 -0.2212
 3055SOL     OW20800   2.205   2.200   7.651  0.4580 -0.0752  0.0824
 3055SOL    HW120801   2.127   2.197   7.597  1.5796  3.4058 -1.7252
 3055SOL    HW220802   2.263   2.158   7.588 -0.1769  0.7506 -1.0658
 3056SOL     OW20803   3.178   1.779  10.844 -0.2396 -0.0990  0.7086
 3056SOL    HW120804   3.193   1.727  10.765 -0.8896  1.7016 -0.5987
 3056SOL    HW220805   3.100   1.829  10.820 -0.6728 -0.6517  0.9631
 3057SOL     OW20806   2.480   4.577   6.560  0.1486 -0.3689  0.0618
 3057SOL    HW120807   2.458   4.485   6.551 -2.1842  0.3733 -1.7613
 3057SOL    HW220808   2.508   4.584   6.651 -1.7996  2.5006  0.4558
 3058SOL     OW20809   2.579   3.792  12.177 -0.0656 -0.0864 -0.0421
 3058SOL    HW120810   2.660   3.832  12.146  0.8452 -2.4484 -0.7417
 3058SOL    HW220811   2.538   3.861  12.230 -2.0907 -1.2155 -0.1437
 3059SOL     OW20812   1.418   0.906   9.100  0.2466  0.1688  0.0091
 3059SOL    HW120813   1.392   0.976   9.041 -0.4828  0.6176  0.8468
 3059SOL    HW220814   1.511   0.897   9.081  0.3461  1.7828 -0.2914
 3060SOL     OW20815   1.087   1.322   3.844  0.6324 -0.6390  0.2300
 3060SOL    HW120816   1.155   1.295   3.783 -0.4329 -1.5591 -0.5242
 3060SOL    HW220817   1.083   1.244   3.899 -0.0474  0.6511  2.0566
 3061SOL     OW20818   2.399   3.242   5.492  0.0605  0.1915  0.1331
 3061SOL    HW120819   2.330   3.277   5.435  0.5756 -1.2048 -1.3571
 3061SOL    HW220820   2.416   3.153   5.461 -0.5206  0.0319  0.2794
 3062SOL     OW20821   1.909   0.417   7.507 -0.3824  0.2139 -0.2777
 3062SOL    HW120822   1.978   0.393   7.445  0.6516 -1.3186  1.4520
 3062SOL    HW220823   1.840   0.352   7.496 -0.4184  0.2658 -0.3622
 3063SOL     OW20824   4.313   1.895   5.682 -0.2358  0.0112  0.0361
 3063SOL    HW120825   4.356   1.820   5.722 -1.2371 -0.6952 -0.2264
 3063SOL    HW220826   4.273   1.930   5.761  0.3795  1.7772 -0.4226
 3064SOL     OW20827   4.361   0.325   7.604  0.5228  0.1702  0.2646
 3064SOL    HW120828   4.318   0.309   7.520  0.6531  1.0548  0.0334
 3064SOL    HW220829   4.326   0.413   7.619  1.6868  0.6396  0.2013
 3065SOL     OW20830   3.289   3.529  10.718  0.1102  0.0051  0.2725
 3065SOL    HW120831   3.283   3.453  10.659  0.5592  1.0673 -1.1343
 3065SOL    HW220832   3.383   3.539  10.735  0.0723  1.2808 -0.3293
 3066SOL     OW20833   2.036   1.626   2.379  0.6361  0.1460 -0.4987
 3066SOL    HW120834   2.059   1.681   2.454 -2.6259  3.1944 -1.6941
 3066SOL    HW220835   2.119   1.615   2.332 -0.3455 -0.0346 -2.2028
 3067SOL     OW20836   1.774   2.657   8.683  0.2082  0.1337  0.4278
 3067SOL    HW120837   1.807   2.578   8.725 -0.0094  0.1399  0.6113
 3067SOL    HW220838   1.712   2.686   8.750  1.5142 -0.2334  1.8005
 3068SOL     OW20839   1.940   1.128   6.275 -0.2804 -0.5461  0.0444
 3068SOL    HW120840   1.947   1.046   6.228  0.2140 -1.0861  1.0561
 3068SOL    HW220841   1.979   1.192   6.215  2.1197 -3.2000 -1.2345
 3069SOL     OW20842   2.625   4.426   8.401 -0.2180 -0.5182 -0.1603
 3069SOL    HW120843   2.625   4.520   8.421  0.3036 -0.3669 -0.8857
 3069SOL    HW220844   2.671   4.424   8.317  1.8739  2.1020  0.9636
 3070SOL     OW20845   1.269   2.763  10.616 -0.2932  0.3187  0.1094
 3070SOL    HW120846   1.192   2.793  10.568  0.3451  0.9522 -0.5329
 3070SOL    HW220847   1.234   2.705  10.683  0.7990 -1.2233 -0.6518
 3071SOL     OW20848   2.263   3.748   7.457  0.2314 -0.0870 -0.4431
 3071SOL    HW120849   2.262   3.656   7.481  1.1005 -0.1936 -0.8381
 3071SOL    HW220850   2.337   3.778   7.510  0.4517  0.3890 -1.0243
 3072SOL     OW20851   2.721   3.288   7.344  0.5037 -0.1283 -0.5286
 3072SOL    HW120852   2.755   3.352   7.281 -1.2548  3.5525  2.2746
 3072SOL    HW220853   2.637   3.270   7.303  0.4732 -0.2640 -0.4024
 3073SOL     OW20854   2.984   2.694   2.150  0.1724  0.4989 -0.1550
 3073SOL    HW120855   2.981   2.781   2.190  0.5588  1.3202 -1.9060
 3073SOL    HW220856   2.903   2.651   2.179  0.6987  0.6120  1.4720
 3074SOL     OW20857   2.839   1.728  17.525  0.2750  0.1352  0.5625
 3074SOL    HW120858   2.922   1.767  17.498  0.5766 -0.0508  1.2256
 3074SOL    HW220859   2.836   1.648  17.472  0.8116 -1.0539  2.3358
 3075SOL     OW20860   1.485   0.959   7.865  0.1940  0.0055  0.3781
 3075SOL    HW120861   1.468   0.866   7.849  1.2265 -0.0642 -0.2802
 3075SOL    HW220862   1.398   0.992   7.888  0.4699 -0.4654  2.1164
 3076SOL     OW20863   4.403   1.245  16.267 -0.1127 -0.1927  0.1499
 3076SOL    HW120864   4.447   1.327  16.249 -0.3692 -0.0376  0.2313
 3076SOL    HW220865   4.375   1.262  16.357 -2.8029  1.9294 -1.1048
 3077SOL     OW20866   0.550   1.653   2.836 -0.0487  0.4951 -0.1962
 3077SOL    HW120867   0.525   1.740   2.804 -2.1526 -0.4749 -1.1951
 3077SOL    HW220868   0.599   1.607   2.768  1.1827 -1.5857  2.0881
 3078SOL     OW20869   4.594   3.190   0.021  0.2539 -0.5515  0.3228
 3078SOL    HW120870   4.548   3.272   0.004 -2.2823 -2.1960 -0.7148
 3078SOL    HW220871   4.554   3.165   0.105  2.0594 -1.6749  0.8470
 3079SOL     OW20872   3.827   1.221  12.375  0.5936  0.0883 -0.3049
 3079SOL    HW120873   3.806   1.308  12.341 -1.0780 -0.0300  0.3770
 3079SOL    HW220874   3.756   1.171  12.333  1.7903 -2.6961  0.9994
 3080SOL     OW20875   2.359   3.248   3.850  0.3524 -0.2601  0.3502
 3080SOL    HW120876   2.394   3.259   3.939  0.4422  1.2302  0.1282
 3080SOL    HW220877   2.421   3.297   3.797  2.2934 -2.3466  0.7198
 3081SOL     OW20878   3.290   2.043   2.418 -0.0878 -0.3959 -0.2557
 3081SOL    HW120879   3.228   2.113   2.438  0.7736 -0.1528  1.5173
 3081SOL    HW220880   3.364   2.091   2.380  0.5791 -1.0789  0.1841
 3082SOL     OW20881   1.135   1.214   4.713 -0.5272 -0.0926  0.2895
 3082SOL    HW120882   1.191   1.209   4.791  2.0539  3.2939 -1.3392
 3082SOL    HW220883   1.082   1.292   4.728 -1.0583 -0.3989 -0.0103
 3083SOL     OW20884   3.115   0.865   2.813  0.0773 -0.4162 -0.2786
 3083SOL    HW120885   3.099   0.771   2.823 -0.2157 -0.4260 -0.8440
 3083SOL    HW220886   3.114   0.886   2.906 -2.2024  0.5836 -0.5270
 3084SOL     OW20887   1.995   4.590   2.214 -0.5301  0.8041 -0.1171
 3084SOL    HW120888   2.037   4.661   2.262  0.3112  0.0291  0.2816
 3084SOL    HW220889   2.062   4.582   2.146 -0.3702  0.9054  0.0300
 3085SOL     OW20890   0.451   3.342   5.637  0.4286 -0.4683 -0.3889
 3085SOL    HW120891   0.416   3.330   5.725 -0.5100 -0.0282 -0.6904
 3085SOL    HW220892   0.545   3.335   5.653  0.4748 -0.5200 -0.6700
 3086SOL     OW20893   2.895   3.967  11.266 -0.0752  0.7265  0.3047
 3086SOL    HW120894   2.982   3.928  11.256 -0.7143  0.7324 -5.0922
 3086SOL    HW220895   2.890   4.003  11.178 -1.1399 -1.9364 -0.7106
 3087SOL     OW20896   1.668   1.946  14.929 -0.2969  0.4329  0.7636
 3087SOL    HW120897   1.747   1.989  14.959  0.4771 -0.0981 -0.4994
 3087SOL    HW220898   1.701   1.861  14.900 -2.4277 -0.3022  0.4612
 3088SOL     OW20899   2.989   3.246   2.496 -0.0805  0.9471 -0.2442
 3088SOL    HW120900   2.929   3.227   2.424 -1.6460  0.6719  1.1378
 3088SOL    HW220901   2.977   3.173   2.557  0.5934  1.5962  0.6666
 3089SOL     OW20902   1.811   3.336  16.257 -0.4443 -0.1045  0.0069
 3089SOL    HW120903   1.841   3.250  16.288  2.8827  0.2692 -2.2107
 3089SOL    HW220904   1.830   3.399  16.326  1.0365 -1.1918  0.6115
 3090SOL     OW20905   1.619   0.774  17.593  0.0711  0.1232 -0.3100
 3090SOL    HW120906   1.574   0.857  17.577  1.9845  1.3770  0.7011
 3090SOL    HW220907   1.699   0.783  17.541  0.4990  0.2011  0.3654
 3091SOL     OW20908   1.795   1.728   6.451  0.1928  0.2132  0.2058
 3091SOL    HW120909   1.808   1.643   6.411 -0.7592 -0.4325  1.2828
 3091SOL    HW220910   1.746   1.703   6.529  0.6227 -0.6783  0.1874
 3092SOL     OW20911   2.988   0.057   1.764  0.4769 -0.7465  0.2439
 3092SOL    HW120912   2.970   0.144   1.728 -0.4584 -0.0810  2.3089
 3092SOL    HW220913   3.076   0.074   1.796  0.7693 -0.6244 -0.6140
 3093SOL     OW20914   4.609   1.271   0.745 -0.8350 -0.3375  0.6744
 3093SOL    HW120915   4.537   1.237   0.798  0.4060  0.1361  2.6265
 3093SOL    HW220916   4.588   1.251   0.653  0.9998  1.0324 -0.0243
 3094SOL     OW20917   2.492   4.036   3.138 -0.0803 -0.4886 -0.2840
 3094SOL    HW120918   2.454   4.105   3.193 -0.0947 -0.4006 -0.4053
 3094SOL    HW220919   2.587   4.039   3.152  0.1842 -1.8082 -1.8272
 3095SOL     OW20920   2.105   2.365   5.069  0.2593 -0.6200  0.5770
 3095SOL    HW120921   2.094   2.454   5.101  0.8576 -0.6014  0.7191
 3095SOL    HW220922   2.013   2.340   5.085  0.4536 -0.2529  2.3143
 3096SOL     OW20923   1.481   1.254   1.328  0.1600  0.4808  0.2864
 3096SOL    HW120924   1.431   1.184   1.369  2.3445 -0.0629  2.0156
 3096SOL    HW220925   1.569   1.215   1.325  0.6861  1.6861 -0.1845
 3097SOL     OW20926   4.262   2.808   8.806  0.5613  0.0231 -0.0468
 3097SOL    HW120927   4.262   2.723   8.761  0.4745  1.7502 -3.3343
 3097SOL    HW220928   4.187   2.799   8.865  1.9326 -1.5576  1.4693
 3098SOL     OW20929   2.891   0.586   4.957  0.6495 -0.3541  0.1869
 3098SOL    HW120930   2.821   0.522   4.946 -0.4334  0.4144  2.7636
 3098SOL    HW220931   2.956   0.553   4.895 -0.4186  0.1397 -1.1814
 3099SOL     OW20932   3.522   1.291  16.969 -0.2513  0.2257 -0.3959
 3099SOL    HW120933   3.446   1.233  16.969 -0.3356  0.3298  0.1122
 3099SOL    HW220934   3.568   1.237  16.905  1.3138 -0.5507  1.3587
 3100SOL     OW20935   1.889   4.330   1.778  0.0159  1.0730 -0.2491
 3100SOL    HW120936   1.807   4.358   1.820  0.0784  1.4290 -0.3668
 3100SOL    HW220937   1.871   4.354   1.687  0.6731  0.9320 -0.4126
 3101SOL     OW20938   3.893   3.659   2.537  0.1084  0.1789  0.0976
 3101SOL    HW120939   3.987   3.675   2.525 -0.4283  2.4536 -1.0027
 3101SOL    HW220940   3.881   3.611   2.456  0.5021  3.6076 -1.9868
 3102SOL     OW20941   0.707   3.919   8.473 -0.2897  0.0287 -0.0126
 3102SOL    HW120942   0.714   3.824   8.478 -0.7123 -0.0210 -0.3902
 3102SOL    HW220943   0.797   3.939   8.450 -0.2698 -0.8490 -0.6677
 3103SOL     OW20944   4.058   1.750   1.964  0.0590 -0.0476 -0.3046
 3103SOL    HW120945   4.119   1.689   1.924 -1.0790 -0.4454 -1.4225
 3103SOL    HW220946   4.104   1.830   1.937 -1.3043  1.0841  0.6884
 3104SOL     OW20947   1.950   3.979   4.447 -0.6262 -0.4446  0.0372
 3104SOL    HW120948   1.898   3.973   4.367 -1.0339 -0.9254  0.3352
 3104SOL    HW220949   1.972   3.888   4.465  0.6574  0.2965  2.2060
 3105SOL     OW20950   2.151   0.170  13.355  0.1796 -0.2916 -0.2941
 3105SOL    HW120951   2.124   0.180  13.263 -2.3912 -1.0735  0.3869
 3105SOL    HW220952   2.111   0.248  13.392 -0.5127 -0.2030 -1.2211
 3106SOL     OW20953   4.034   2.202   2.009 -0.0997  0.4132 -0.1319
 3106SOL    HW120954   3.958   2.248   1.973  0.1460  0.6975 -0.2846
 3106SOL    HW220955   4.055   2.167   1.922 -0.9866 -2.8740  0.9919
 3107SOL     OW20956   1.923   3.119   6.326 -0.0439  0.0222  0.3213
 3107SOL    HW120957   1.842   3.091   6.369 -0.3887 -0.9640 -0.9778
 3107SOL    HW220958   1.942   3.043   6.272 -0.3617  2.4414 -3.2135
 3108SOL     OW20959   0.244   3.611   3.289  0.3957  0.6868  0.3224
 3108SOL    HW120960   0.304   3.603   3.362  1.3644  2.9409 -0.2372
 3108SOL    HW220961   0.168   3.640   3.339 -0.1573 -1.1305  0.5540
 3109SOL     OW20962   0.133   4.328  16.915  0.0587  0.0252  0.0229
 3109SOL    HW120963   0.181   4.252  16.880 -2.0464 -0.8973 -0.9244
 3109SOL    HW220964   0.047   4.296  16.886  0.6116 -1.6750  0.2738
 3110SOL     OW20965   4.541   1.847   1.758 -0.3447  0.3253 -0.1873
 3110SOL    HW120966   4.618   1.875   1.808 -1.5856  0.8525  1.4262
 3110SOL    HW220967   4.489   1.792   1.816 -1.4258  0.9740 -0.5363
 3111SOL     OW20968   4.203   2.349   8.277  0.0895 -0.1242  0.3200
 3111SOL    HW120969   4.290   2.373   8.245  0.7937 -0.9941  1.5724
 3111SOL    HW220970   4.167   2.436   8.294  0.9645  0.2492  0.2734
 3112SOL     OW20971   1.048   4.278   0.143  0.2765 -0.0737  0.3689
 3112SOL    HW120972   0.975   4.271   0.081  1.6745  1.9963 -1.5111
 3112SOL    HW220973   0.997   4.265   0.223 -0.7401 -1.9273 -0.5901
 3113SOL     OW20974   3.049   2.107   8.336  0.6167 -0.4553 -0.2603
 3113SOL    HW120975   3.100   2.187   8.323  0.4945  0.0437  2.4230
 3113SOL    HW220976   3.107   2.033   8.319 -0.3644 -1.3869  0.4301
 3114SOL     OW20977   0.323   3.922  12.544  0.1131 -0.4612  0.3874
 3114SOL    HW120978   0.245   3.876  12.575 -0.3480 -0.8721 -1.3445
 3114SOL    HW220979   0.351   3.963  12.626 -1.2537  0.7521  0.2515
 3115SOL     OW20980   3.080   4.070   2.492 -0.1647 -0.0881  0.4568
 3115SOL    HW120981   3.008   4.097   2.435 -2.0310 -1.5672  2.1019
 3115SOL    HW220982   3.077   3.974   2.483 -1.3566  0.2278 -2.6195
 3116SOL     OW20983   0.367   4.453   6.071  0.0527  0.2932 -0.9061
 3116SOL    HW120984   0.363   4.509   6.149 -1.1335 -2.2234  0.8357
 3116SOL    HW220985   0.401   4.374   6.113  0.6949  0.7194 -0.6318
 3117SOL     OW20986   3.605   1.703   6.847  0.4415 -0.5125  0.3105
 3117SOL    HW120987   3.652   1.622   6.829 -1.5774 -1.4099 -0.9199
 3117SOL    HW220988   3.529   1.668   6.894 -0.8560  0.4329 -1.0357
 3118SOL     OW20989   1.397   4.600   8.622  0.6655 -0.3584 -0.5884
 3118SOL    HW120990   1.315   4.558   8.646 -0.6168  2.2742 -0.4027
 3118SOL    HW220991   1.403   4.600   8.527  0.4152 -4.0668 -0.6034
 3119SOL     OW20992   1.780   1.664   5.277 -0.0642 -0.3623  0.6087
 3119SOL    HW120993   1.777   1.702   5.364 -0.9795  2.0773 -0.4972
 3119SOL    HW220994   1.775   1.569   5.285 -1.0082 -0.2087  1.9239
 3120SOL     OW20995   0.477   1.732   2.522 -0.3556 -0.1376 -0.2290
 3120SOL    HW120996   0.447   1.765   2.438 -0.2847  0.2847 -0.0865
 3120SOL    HW220997   0.481   1.810   2.578  0.8091 -0.0041 -0.4943
 3121SOL     OW20998   3.975   1.025   2.167  0.3848 -0.3441  0.0935
 3121SOL    HW120999   3.885   1.058   2.164  0.6194  0.2816 -0.0381
 3121SOL    HW221000   3.998   0.992   2.254  1.1168  1.5087  0.5934
 3122SOL     OW21001   1.399   3.521  11.840 -0.0544 -0.0346 -0.3132
 3122SOL    HW121002   1.450   3.602  11.829 -0.1859  0.1371  0.3476
 3122SOL    HW221003   1.325   3.536  11.899 -1.4884 -0.1144 -2.0809
 3123SOL     OW21004   0.242   2.943   6.294  0.0217 -0.2076 -0.1114
 3123SOL    HW121005   0.177   2.985   6.349 -0.0802  0.2071 -0.5542
 3123SOL    HW221006   0.303   2.904   6.357 -1.1610 -2.3525 -0.2994
 3124SOL     OW21007   0.715   2.746   7.900  0.3990  0.5367 -0.3938
 3124SOL    HW121008   0.804   2.710   7.907 -0.3303 -1.3421 -0.8427
 3124SOL    HW221009   0.673   2.666   7.868 -2.7027  1.5141  1.2877
 3125SOL     OW21010   0.284   4.210   9.267 -0.3373  0.0790 -0.4441
 3125SOL    HW121011   0.375   4.227   9.293 -0.8472  0.5296  1.0081
 3125SOL    HW221012   0.284   4.255   9.182  2.4338 -2.0698 -1.6144
 3126SOL     OW21013   4.505   1.699   7.380 -0.3556 -0.2944 -0.0769
 3126SOL    HW121014   4.445   1.757   7.426 -2.5789 -0.6720 -2.5344
 3126SOL    HW221015   4.454   1.618   7.386  0.0264 -0.5655 -0.4709
 3127SOL     OW21016   4.345   0.113  14.921 -0.0210  0.1754 -0.3701
 3127SOL    HW121017   4.414   0.055  14.954 -0.0212  0.6630  0.4735
 3127SOL    HW221018   4.297   0.048  14.869  1.1008 -0.9302 -0.0172
 3128SOL     OW21019   1.661   3.186   9.175 -0.2808  0.4812 -0.2229
 3128SOL    HW121020   1.584   3.227   9.137  0.0154  0.3022 -1.0213
 3128SOL    HW221021   1.621   3.146   9.252  2.1225 -0.4801  0.5236
 3129SOL     OW21022   4.614   1.334   7.549  0.4292  0.2856 -0.0655
 3129SOL    HW121023   4.540   1.380   7.589  0.0213  0.2050 -0.7199
 3129SOL    HW221024   4.668   1.408   7.519  0.9058 -0.9180 -2.1831
 3130SOL     OW21025   2.495   1.730   6.000 -0.2401  0.1747 -0.3549
 3130SOL    HW121026   2.483   1.742   6.095 -0.0360 -3.1042  0.1189
 3130SOL    HW221027   2.585   1.753   5.977  1.0984 -3.7185  0.8974
 3131SOL     OW21028   0.592   1.632  10.687  0.1860  0.1125  0.3337
 3131SOL    HW121029   0.557   1.585  10.612 -0.2698  0.9242  0.0332
 3131SOL    HW221030   0.646   1.703  10.651 -1.3067  0.7429 -0.6226
 3132SOL     OW21031   0.245   2.199   7.971 -0.0892  0.4658 -0.3040
 3132SOL    HW121032   0.280   2.192   7.882 -1.6936  0.0329 -0.9001
 3132SOL    HW221033   0.324   2.169   8.017 -0.0659 -0.3275 -0.8542
 3133SOL     OW21034   4.138   2.381   9.195  0.1004  0.7800  0.3351
 3133SOL    HW121035   4.205   2.342   9.251  0.5604 -0.0525 -0.8039
 3133SOL    HW221036   4.069   2.315   9.207  0.4069  0.5428  0.7983
 3134SOL     OW21037   4.342   1.649  16.831 -0.6606 -0.1490  0.0696
 3134SOL    HW121038   4.270   1.597  16.867 -0.9446 -1.2471 -2.0532
 3134SOL    HW221039   4.349   1.718  16.896  0.0017 -0.2256  0.0820
 3135SOL     OW21040   1.855   1.292  15.511  0.3441 -0.0764  0.7374
 3135SOL    HW121041   1.800   1.369  15.499 -1.4765 -1.4420  0.3214
 3135SOL    HW221042   1.923   1.324  15.570  1.0701  1.5013 -0.9826
 3136SOL     OW21043   4.497   4.266   2.252  0.2035  0.4037  0.4428
 3136SOL    HW121044   4.467   4.353   2.227 -0.3793 -0.3564 -1.5352
 3136SOL    HW221045   4.592   4.275   2.242  0.1342  0.6298 -0.0092
 3137SOL     OW21046   2.243   0.483  15.036  0.4246 -0.2461 -0.2664
 3137SOL    HW121047   2.244   0.519  14.947 -3.4123  0.6681  0.0383
 3137SOL    HW221048   2.321   0.524  15.074  0.2784  0.7755 -1.0750
 3138SOL     OW21049   3.879   4.475   5.947  0.4422 -0.2668 -0.6424
 3138SOL    HW121050   3.858   4.485   6.039  0.3119 -1.6362 -0.5183
 3138SOL    HW221051   3.787   4.467   5.920  0.2528 -0.8002  0.1672
 3139SOL     OW21052   3.105   4.167   7.848  0.6160  0.2452  0.2148
 3139SOL    HW121053   3.117   4.185   7.941  0.7661  1.7505 -0.0838
 3139SOL    HW221054   3.015   4.137   7.850 -0.1079  2.4813  1.6209
 3140SOL     OW21055   0.780   2.628   0.940 -0.2004 -0.2485  0.0877
 3140SOL    HW121056   0.806   2.549   0.892 -1.3792 -0.6080  0.0348
 3140SOL    HW221057   0.862   2.662   0.976 -1.5301 -0.7002  3.5078
 3141SOL     OW21058   2.634   1.551  16.544  0.2447 -0.2254  0.2546
 3141SOL    HW121059   2.603   1.527  16.632  2.4715  3.9110  2.1899
 3141SOL    HW221060   2.561   1.600  16.507 -0.5900 -0.8888  1.0327
 3142SOL     OW21061   1.000   0.664  15.369  0.0474  0.3764 -0.1114
 3142SOL    HW121062   0.923   0.718  15.350  0.9283  1.2969 -1.0725
 3142SOL    HW221063   1.004   0.677  15.464  1.8015  1.9519 -0.4174
 3143SOL     OW21064   1.581   1.240  16.481  0.6219  0.2333 -0.2622
 3143SOL    HW121065   1.600   1.324  16.522  1.5211 -0.1126  0.0458
 3143SOL    HW221066   1.665   1.196  16.496 -0.9478 -1.8426  2.3958
 3144SOL     OW21067   2.944   3.844   9.328 -0.2763  0.5647  0.0774
 3144SOL    HW121068   2.896   3.800   9.398  2.4026  1.5968  2.6013
 3144SOL    HW221069   2.895   3.925   9.314 -0.3875  0.7261  1.3726
 3145SOL     OW21070   0.262   3.786  12.295  0.0802  0.3716 -0.2520
 3145SOL    HW121071   0.300   3.764  12.380  1.5363 -0.9898 -1.2580
 3145SOL    HW221072   0.173   3.812  12.320 -0.1137 -1.6397  1.1642
 3146SOL     OW21073   1.085   3.981   7.553  0.3824  0.0567 -0.1399
 3146SOL    HW121074   1.005   4.030   7.533  1.4665  1.5999 -0.6110
 3146SOL    HW221075   1.056   3.891   7.568 -0.1309  0.2474  0.0275
 3147SOL     OW21076   1.792   0.777   6.660  0.0571  0.3413 -0.5785
 3147SOL    HW121077   1.836   0.710   6.607  1.3165  1.8049 -1.3779
 3147SOL    HW221078   1.834   0.856   6.626 -1.1209  1.9840  1.8559
 3148SOL     OW21079   2.859   4.564   5.430 -0.0999  0.7516 -0.0174
 3148SOL    HW121080   2.811   4.503   5.373 -0.4454  1.5379 -0.5767
 3148SOL    HW221081   2.806   4.561   5.509 -0.6455 -2.3694 -0.4858
 3149SOL     OW21082   2.027   1.856   6.425  0.2127  0.4425 -0.4193
 3149SOL    HW121083   1.955   1.794   6.433 -1.1518  1.9036 -1.4604
 3149SOL    HW221084   2.060   1.856   6.515 -2.3354 -1.1311  0.5122
 3150SOL     OW21085   3.253   4.061  16.443 -0.3738 -0.4113  0.1352
 3150SOL    HW121086   3.177   4.009  16.417 -0.6475  0.2292 -0.3302
 3150SOL    HW221087   3.217   4.114  16.515 -1.0382  0.3246 -0.7533
 3151SOL     OW21088   2.821   3.351   7.725 -0.4513 -0.0858  0.1155
 3151SOL    HW121089   2.754   3.289   7.698  1.5381 -2.9152  1.6986
 3151SOL    HW221090   2.773   3.431   7.704 -0.7383 -0.3304 -0.1711
 3152SOL     OW21091   4.412   3.075   2.156 -0.1083 -0.0558  0.2234
 3152SOL    HW121092   4.351   3.146   2.133 -0.0044  0.5228  1.7228
 3152SOL    HW221093   4.482   3.094   2.094  0.4306  0.4617  0.9954
 3153SOL     OW21094   0.181   2.688   1.692  0.3078 -0.0058  0.0267
 3153SOL    HW121095   0.148   2.598   1.683  0.7746 -0.2870  1.2116
 3153SOL    HW221096   0.275   2.683   1.679  0.1947 -1.0745 -0.3859
 3154SOL     OW21097   1.367   3.291  11.266 -0.1361 -0.3410 -0.0869
 3154SOL    HW121098   1.299   3.233  11.230  1.1758 -1.4247 -0.8239
 3154SOL    HW221099   1.443   3.241  11.296  0.7395 -0.6615 -2.7944
 3155SOL     OW21100   2.840   4.241   8.787  0.1395 -0.3179 -0.0777
 3155SOL    HW121101   2.764   4.275   8.834  0.2540  0.7269 -0.6716
 3155SOL    HW221102   2.834   4.292   8.707 -2.0243  1.6290  1.3387
 3156SOL     OW21103   2.792   0.969  12.735 -0.5901 -0.1826 -0.1605
 3156SOL    HW121104   2.722   0.907  12.717 -0.3323  0.0063 -1.8500
 3156SOL    HW221105   2.811   0.991  12.644  2.8003 -0.2270  0.5313
 3157SOL     OW21106   4.141   2.002   9.461 -0.0532 -0.2766  0.3508
 3157SOL    HW121107   4.218   1.950   9.436 -0.9741 -1.1109 -0.7633
 3157SOL    HW221108   4.077   1.935   9.485 -0.8148  0.6140  0.7958
 3158SOL     OW21109   3.474   2.232   8.466  0.2335  0.6897  0.6381
 3158SOL    HW121110   3.475   2.293   8.540 -0.3668 -0.9696  2.0122
 3158SOL    HW221111   3.427   2.154   8.498  0.3849  0.2898 -0.1059
 3159SOL     OW21112   3.260   1.482   4.174 -0.0560  0.3105  0.0693
 3159SOL    HW121113   3.273   1.431   4.254 -1.1936  0.7009  0.5164
 3159SOL    HW221114   3.331   1.540   4.202  0.8891 -1.2821  0.9620
 3160SOL     OW21115   3.672   3.380   6.600  0.3112  0.6021  0.4466
 3160SOL    HW121116   3.643   3.289   6.594 -2.0965  1.4441 -1.0051
 3160SOL    HW221117   3.758   3.365   6.639  0.5908  0.7761 -0.0950
 3161SOL     OW21118   4.074   2.474   6.784  0.3175  0.3192  0.0047
 3161SOL    HW121119   4.091   2.392   6.832 -1.6227 -0.9264 -1.4255
 3161SOL    HW221120   4.080   2.549   6.843  0.9048 -1.3270  2.0637
 3162SOL     OW21121   2.801   0.686   7.945 -0.0937 -0.4523  0.9396
 3162SOL    HW121122   2.727   0.747   7.945  0.3185  0.0548 -0.3371
 3162SOL    HW221123   2.873   0.747   7.928 -1.3009  0.3757 -1.1239
 3163SOL     OW21124   0.024   3.969   6.673 -0.6387 -0.7531 -0.2961
 3163SOL    HW121125   0.107   4.004   6.706  0.9011 -3.1837 -1.5786
 3163SOL    HW221126   4.713   3.956   6.756  0.7686  1.9258  0.9068
 3164SOL     OW21127   2.713   0.230  11.953  0.6688  0.3055 -0.1393
 3164SOL    HW121128   2.722   0.137  11.931  1.8763 -0.1388  2.2755
 3164SOL    HW221129   2.706   0.276  11.869 -0.8981  1.3749  0.5799
 3165SOL     OW21130   3.781   0.134   9.135  0.0418  0.5250  0.4930
 3165SOL    HW121131   3.817   0.076   9.069  0.6543  1.9243 -0.4049
 3165SOL    HW221132   3.711   0.075   9.165  0.1172  0.1590 -0.0610
 3166SOL     OW21133   2.919   3.471   5.550 -0.0898 -0.5201  0.8290
 3166SOL    HW121134   2.943   3.429   5.467 -2.7039  1.1913 -0.8193
 3166SOL    HW221135   2.837   3.509   5.520  1.5145  2.5590  0.3233
 3167SOL     OW21136   1.154   3.588   1.532 -0.1808 -0.2550 -0.2978
 3167SOL    HW121137   1.114   3.518   1.479  1.7184 -0.8345 -0.9411
 3167SOL    HW221138   1.120   3.664   1.486  0.3404  2.6290  4.1111
 3168SOL     OW21139   2.353   0.025   1.753 -0.3197 -0.1473  0.3729
 3168SOL    HW121140   2.265   4.725   1.755 -0.4310  0.2023  1.5044
 3168SOL    HW221141   2.344   0.079   1.674 -0.8814  0.2016  0.6810
 3169SOL     OW21142   2.925   0.528  12.087  0.1181 -0.2898 -0.1363
 3169SOL    HW121143   2.942   0.557  12.176  0.5510  2.5432 -1.1348
 3169SOL    HW221144   2.870   0.601  12.060  0.8434  0.4246  0.3070
 3170SOL     OW21145   4.115   1.321   7.795  0.6303  0.3035  0.6629
 3170SOL    HW121146   4.087   1.412   7.805 -2.0018 -0.4849  0.5590
 3170SOL    HW221147   4.174   1.315   7.870  1.4691  0.4775  0.0104
 3171SOL     OW21148   2.952   3.327   6.811 -0.0102  0.0407  0.7779
 3171SOL    HW121149   3.018   3.349   6.745 -0.3965 -2.3692 -0.4092
 3171SOL    HW221150   3.006   3.304   6.886 -1.3215  0.7920  1.9645
 3172SOL     OW21151   4.235   4.289   5.245  0.4840  0.1727  0.7087
 3172SOL    HW121152   4.143   4.269   5.262  0.1707 -0.3788 -1.5443
 3172SOL    HW221153   4.280   4.219   5.291 -0.6650 -1.0754 -0.0397
 3173SOL     OW21154   2.889   3.498   4.388 -0.7511  0.0144 -0.7641
 3173SOL    HW121155   2.819   3.508   4.452 -0.8727  0.6293 -0.9991
 3173SOL    HW221156   2.860   3.433   4.324  2.5274 -2.0702 -0.1204
 3174SOL     OW21157   3.133   3.687   4.672 -0.3942 -0.6371 -0.4064
 3174SOL    HW121158   3.137   3.783   4.662  1.0041 -0.9283 -2.5117
 3174SOL    HW221159   3.179   3.674   4.755  1.4729  2.6100 -0.9137
 3175SOL     OW21160   3.849   1.978   6.193 -0.4344  0.0287 -0.7162
 3175SOL    HW121161   3.783   1.959   6.260 -0.0200  0.2999 -0.2343
 3175SOL    HW221162   3.891   1.901   6.155 -1.2300 -0.0492 -1.4332
 3176SOL     OW21163   1.235   1.391   9.766 -0.1168 -0.7027 -0.0866
 3176SOL    HW121164   1.145   1.402   9.798 -0.5197  2.4580 -2.2829
 3176SOL    HW221165   1.281   1.376   9.848  2.7208 -1.5190 -1.8288
 3177SOL     OW21166   0.182   0.263  10.178  0.3943  0.0669 -0.0847
 3177SOL    HW121167   0.273   0.290  10.187 -0.8938  4.5001 -0.0850
 3177SOL    HW221168   0.135   0.347  10.184  0.1359  0.1346 -2.8980
 3178SOL     OW21169   1.726   0.627  16.978 -0.1967 -0.1523  0.7063
 3178SOL    HW121170   1.644   0.577  16.985 -0.2520  0.0645  1.6156
 3178SOL    HW221171   1.696   0.705  16.931 -0.1756 -0.0351  0.8843
 3179SOL     OW21172   1.288   4.729  10.056 -0.2512  0.5523  0.2321
 3179SOL    HW121173   1.326   0.078  10.077  0.3557  0.6090 -1.0753
 3179SOL    HW221174   1.274   4.676  10.134  0.8158 -0.4975 -0.2932
 3180SOL     OW21175   0.442   4.253   7.635  0.5452 -0.5599  0.1716
 3180SOL    HW121176   0.505   4.291   7.695  1.4133 -1.5461 -0.1195
 3180SOL    HW221177   0.393   4.193   7.691  2.2614 -0.9880  1.2041
 3181SOL     OW21178   1.741   4.008   6.095  0.2676  0.1993 -0.3519
 3181SOL    HW121179   1.676   4.030   6.028  0.0375 -2.2577 -0.9555
 3181SOL    HW221180   1.711   3.921   6.122 -1.4617  0.7821 -0.3628
 3182SOL     OW21181   1.160   1.188  16.439  0.1437  0.1964  0.4546
 3182SOL    HW121182   1.100   1.239  16.384  0.1073 -0.1049  0.2101
 3182SOL    HW221183   1.185   1.119  16.377 -2.4175  0.3064 -0.7032
 3183SOL     OW21184   3.002   3.794   3.805 -0.1080  0.6157 -0.4651
 3183SOL    HW121185   3.052   3.754   3.734 -1.6554 -2.0907 -0.0206
 3183SOL    HW221186   3.038   3.881   3.788  0.5902 -0.1191 -2.6716
 3184SOL     OW21187   0.603   1.429   4.575  0.4101 -0.0840 -0.1362
 3184SOL    HW121188   0.626   1.516   4.541  0.6809  0.5732  1.7159
 3184SOL    HW221189   0.522   1.432   4.626 -1.4557 -3.4431 -2.9098
 3185SOL     OW21190   0.180   2.807  12.613  0.1464 -0.2491 -0.4462
 3185SOL    HW121191   0.202   2.872  12.680 -1.2851  0.1960 -0.4211
 3185SOL    HW221192   0.213   2.848  12.534  0.6796 -0.5892 -0.4027
 3186SOL     OW21193   1.621   0.797   7.396 -0.2986  0.0995 -0.4970
 3186SOL    HW121194   1.606   0.868   7.459  1.8228  0.0384  0.0756
 3186SOL    HW221195   1.676   0.737   7.447 -0.6425  0.4385  0.2699
 3187SOL     OW21196   3.742   2.523   1.399 -0.5935 -0.3113 -0.1736
 3187SOL    HW121197   3.683   2.598   1.391 -1.1262 -0.8625 -1.4892
 3187SOL    HW221198   3.819   2.543   1.347 -1.7400  1.3252 -1.2535
 3188SOL     OW21199   4.344   3.897   2.615 -0.2868  0.6067 -0.2710
 3188SOL    HW121200   4.334   3.974   2.559 -1.7102  2.2462  2.1838
 3188SOL    HW221201   4.305   3.830   2.560 -0.1596  0.4793 -0.2047
 3189SOL     OW21202   4.373   2.998   2.778  0.0538 -0.6066  0.8178
 3189SOL    HW121203   4.371   2.925   2.716 -0.3244  0.6040 -0.5886
 3189SOL    HW221204   4.333   2.965   2.859 -0.7344 -1.8748 -0.0918
 3190SOL     OW21205   0.262   3.474   7.854  0.2649  0.2219 -0.4457
 3190SOL    HW121206   0.174   3.505   7.833 -0.2512 -0.6185  0.4705
 3190SOL    HW221207   0.255   3.447   7.946 -1.6569 -0.0174 -0.6691
 3191SOL     OW21208   0.441   0.311   8.863  0.4456  0.3719  0.5213
 3191SOL    HW121209   0.459   0.342   8.952  1.9989  2.4631 -0.5035
 3191SOL    HW221210   0.510   0.357   8.814  0.3520  0.1559  0.1911
 3192SOL     OW21211   4.087   0.483   6.828  0.3187 -0.3039 -0.2616
 3192SOL    HW121212   4.106   0.389   6.833 -0.5170 -0.4069  0.8318
 3192SOL    HW221213   4.085   0.492   6.733  0.2299  2.1309 -0.0372
 3193SOL     OW21214   2.888   2.707   3.261  0.4991  0.4234  0.5655
 3193SOL    HW121215   2.983   2.715   3.271  0.2815  2.0689  1.4100
 3193SOL    HW221216   2.854   2.779   3.208  1.3741 -0.5981 -1.3599
 3194SOL     OW21217   3.382   2.316  14.133  0.6201 -0.6054  0.1813
 3194SOL    HW121218   3.441   2.316  14.208 -1.2937  0.9349  1.6515
 3194SOL    HW221219   3.427   2.382  14.079 -1.1731 -1.0485 -1.8682
 3195SOL     OW21220   3.611   0.258   8.028  0.0600  0.0435  0.0789
 3195SOL    HW121221   3.652   0.258   7.941  0.3306 -1.0422  0.1972
 3195SOL    HW221222   3.524   0.293   8.008  1.0909  0.9082 -2.9088
 3196SOL     OW21223   2.970   1.700   6.141 -0.1558  0.0259  0.4659
 3196SOL    HW121224   2.907   1.732   6.206  0.2946 -1.1340  1.4825
 3196SOL    HW221225   3.044   1.762   6.151  0.3465 -0.4744 -0.1843
 3197SOL     OW21226   1.926   3.230  10.535  0.0095 -0.1522 -0.7288
 3197SOL    HW121227   1.849   3.174  10.546 -0.8180  0.5978 -2.5987
 3197SOL    HW221228   1.884   3.288  10.471 -1.2126 -0.2362  0.0035
 3198SOL     OW21229   2.846   0.803   4.533  0.1469 -0.3803  0.4626
 3198SOL    HW121230   2.792   0.728   4.507  1.7643 -0.9673 -1.1937
 3198SOL    HW221231   2.932   0.762   4.531 -0.0916 -0.8788  0.4901
 3199SOL     OW21232   0.637   3.749  16.336 -0.7897 -0.1703 -0.6160
 3199SOL    HW121233   0.610   3.739  16.245  0.9273 -2.6685 -0.8563
 3199SOL    HW221234   0.584   3.816  16.379 -0.1415  0.8193 -1.3477
 3200SOL     OW21235   0.009   2.917  12.031  0.1899  0.1270 -0.6435
 3200SOL    HW121236   0.011   2.903  12.125 -3.0244  3.0641 -0.1288
 3200SOL    HW221237   4.655   2.886  12.022  0.6397 -1.7988  1.4991
 3201SOL     OW21238   2.298   3.461   4.663  0.5859 -0.5559  0.6789
 3201SOL    HW121239   2.211   3.459   4.624  0.1635 -0.9600  1.6335
 3201SOL    HW221240   2.290   3.547   4.705 -2.1289 -0.2801 -0.4048
 3202SOL     OW21241   1.502   1.026   2.565  0.4506  0.3141 -0.1476
 3202SOL    HW121242   1.569   1.039   2.498 -0.0618  1.1092 -0.5169
 3202SOL    HW221243   1.560   1.013   2.640  0.7500 -2.8440 -0.9447
 3203SOL     OW21244   0.190   0.433   8.783  0.3677  0.0996 -0.1030
 3203SOL    HW121245   0.269   0.383   8.805  1.5359  1.7759 -0.4229
 3203SOL    HW221246   0.213   0.523   8.803  0.0039 -0.7768  4.0868
 3204SOL     OW21247   1.555   4.493   5.326 -0.1109 -0.0439  0.4869
 3204SOL    HW121248   1.510   4.577   5.328  0.3738  0.1508  3.6352
 3204SOL    HW221249   1.477   4.439   5.312 -1.2121  1.8132 -0.4779
 3205SOL     OW21250   2.950   2.836   7.798  0.0627 -0.3263  0.4862
 3205SOL    HW121251   2.924   2.924   7.770  0.5501 -0.1089  0.7051
 3205SOL    HW221252   2.869   2.785   7.793 -0.1081 -0.0232  0.2018
 3206SOL     OW21253   2.622   1.632   9.685 -0.0698  0.1678 -0.3796
 3206SOL    HW121254   2.641   1.564   9.621 -1.7429  0.6436 -1.3861
 3206SOL    HW221255   2.575   1.587   9.755 -0.3376  0.0098 -0.6644
 3207SOL     OW21256   3.499   3.023  13.191  0.1276  0.5863  0.3271
 3207SOL    HW121257   3.564   3.093  13.191  0.6842  0.0639 -0.8061
 3207SOL    HW221258   3.481   2.998  13.282  1.1570 -2.1833 -0.2229
 3208SOL     OW21259   2.549   1.893   3.182  0.2765  0.3622  0.0542
 3208SOL    HW121260   2.538   1.964   3.245  1.1535  0.2373  0.3532
 3208SOL    HW221261   2.594   1.826   3.234 -0.4920 -0.2879 -0.1095
 3209SOL     OW21262   2.470   0.270   2.284 -0.1861  0.2243 -0.4569
 3209SOL    HW121263   2.497   0.209   2.215  2.1171 -1.6770  2.1259
 3209SOL    HW221264   2.423   0.201   2.330 -0.7834  1.2769  0.4946
 3210SOL     OW21265   2.877   3.382   6.166  0.4679  0.4763  0.2211
 3210SOL    HW121266   2.912   3.321   6.230  1.5608  1.1970  0.3083
 3210SOL    HW221267   2.953   3.413   6.117 -0.3065  2.2285  0.1103
 3211SOL     OW21268   3.215   0.697   7.654 -0.0154 -0.8652 -0.1765
 3211SOL    HW121269   3.236   0.724   7.564  0.1812 -2.1706 -0.5232
 3211SOL    HW221270   3.258   0.611   7.659 -1.2324 -1.4528  0.3245
 3212SOL     OW21271   0.028   1.035   2.278 -0.7876  0.0813 -0.2801
 3212SOL    HW121272   4.686   1.073   2.319  0.1717  1.6448  0.0849
 3212SOL    HW221273   0.097   1.101   2.276 -0.9388  0.2606  0.2872
 3213SOL     OW21274   2.284   4.057   9.268  0.1252 -0.0102  0.1300
 3213SOL    HW121275   2.344   4.085   9.337  1.2812  0.1952 -0.9639
 3213SOL    HW221276   2.332   3.980   9.239 -1.6447 -0.9716 -0.2266
 3214SOL     OW21277   0.179   3.846  15.199  0.3686 -0.3703  0.4413
 3214SOL    HW121278   0.148   3.824  15.287  0.7481  0.2320  0.7266
 3214SOL    HW221279   0.229   3.927  15.212 -0.4569  0.0272  1.1192
 3215SOL     OW21280   1.490   2.238   1.729  0.1429 -0.0428  0.0689
 3215SOL    HW121281   1.548   2.165   1.708 -0.7335 -0.9487  0.7827
 3215SOL    HW221282   1.483   2.234   1.825  0.6364  1.8513  0.1953
 3216SOL     OW21283   3.742   0.298   2.014 -0.3480  0.2690 -0.6100
 3216SOL    HW121284   3.819   0.263   2.058  0.8491 -0.2018 -3.0671
 3216SOL    HW221285   3.755   0.390   2.038 -1.1073 -0.1269  1.2894
 3217SOL     OW21286   4.565   4.234   1.223  0.5078 -0.2780  0.2981
 3217SOL    HW121287   4.549   4.210   1.314  3.0713 -3.4940 -0.1118
 3217SOL    HW221288   4.599   4.322   1.239  0.3783 -0.3527  0.9671
 3218SOL     OW21289   1.173   1.144  17.384  0.5709  0.5360 -0.2583
 3218SOL    HW121290   1.135   1.058  17.403 -0.7709  1.2915  0.5449
 3218SOL    HW221291   1.203   1.132  17.294  1.3250 -0.1900  0.0888
 3219SOL     OW21292   2.317   1.816   8.723 -0.1877  0.0376  0.1839
 3219SOL    HW121293   2.349   1.877   8.658 -0.6306 -0.0468 -0.1149
 3219SOL    HW221294   2.333   1.871   8.800 -1.6162 -0.1287  0.6053
 3220SOL     OW21295   4.310   0.198   1.992 -0.3336  0.0790 -0.3471
 3220SOL    HW121296   4.238   0.257   1.972 -0.2365  1.1238  2.4086
 3220SOL    HW221297   4.327   0.180   1.899 -0.9126 -0.6193 -0.3169
 3221SOL     OW21298   2.318   0.948   7.770  0.0768  0.6855 -0.2653
 3221SOL    HW121299   2.297   1.010   7.840 -0.5902 -0.6835  0.7766
 3221SOL    HW221300   2.363   1.006   7.709  0.3595  2.5351  1.7100
 3222SOL     OW21301   4.161   1.716  12.810  0.0970  0.1870  0.3273
 3222SOL    HW121302   4.256   1.725  12.816  0.3398 -1.7062 -0.6583
 3222SOL    HW221303   4.141   1.628  12.840 -1.0633  0.9840  1.8640
 3223SOL     OW21304   0.728   1.313  14.863 -0.3524 -0.4162 -0.2902
 3223SOL    HW121305   0.688   1.230  14.838  0.2033 -0.2248 -1.8427
 3223SOL    HW221306   0.693   1.375  14.799  1.1926  1.1936  0.4228
 3224SOL     OW21307   0.728   1.208   2.206 -0.7058 -0.3770  0.1238
 3224SOL    HW121308   0.683   1.194   2.123  1.1139 -0.7216 -0.8028
 3224SOL    HW221309   0.719   1.122   2.249  0.1440  0.5719  2.2101
 3225SOL     OW21310   0.094   0.282   2.450  0.2723  0.0175  0.0236
 3225SOL    HW121311   0.070   0.261   2.360  3.7212 -1.7555 -0.4905
 3225SOL    HW221312   0.027   0.348   2.467 -0.5913 -0.5045 -1.3096
 3226SOL     OW21313   3.684   0.908  10.515  0.2067 -0.4464 -0.2349
 3226SOL    HW121314   3.752   0.920  10.582  1.8878 -3.1258 -1.4245
 3226SOL    HW221315   3.707   0.818  10.489  1.0339 -0.8290  1.8220
 3227SOL     OW21316   0.971   3.379   3.811  0.1371  0.4764 -0.3565
 3227SOL    HW121317   0.959   3.289   3.780 -0.2342  0.5574 -0.4425
 3227SOL    HW221318   1.002   3.415   3.728 -0.3185  2.8621  0.4922
 3228SOL     OW21319   1.564   3.253  15.838 -0.6307  0.0056 -0.1404
 3228SOL    HW121320   1.605   3.325  15.884  2.3327 -1.7302 -0.0716
 3228SOL    HW221321   1.476   3.249  15.876 -0.8645  0.4805 -0.6321
 3229SOL     OW21322   2.268   0.712   7.853  0.0364  0.4043  0.0989
 3229SOL    HW121323   2.260   0.673   7.767 -1.1078  2.3156 -0.6506
 3229SOL    HW221324   2.269   0.805   7.832  0.1895  0.7171  1.4794
 3230SOL     OW21325   4.386   3.997   4.487  0.3167 -0.6147 -0.3104
 3230SOL    HW121326   4.447   4.015   4.559 -0.5612 -0.8876  0.4912
 3230SOL    HW221327   4.335   3.925   4.524  0.2528  0.4172  1.6112
 3231SOL     OW21328   4.603   2.307   8.695 -0.7153  0.2647  0.3986
 3231SOL    HW121329   4.667   2.243   8.663  1.6654  1.5784  2.5132
 3231SOL    HW221330   4.530   2.245   8.692 -1.1240  0.7765 -0.2197
 3232SOL     OW21331   4.084   3.106  12.081 -0.1630 -0.4419  0.8710
 3232SOL    HW121332   4.097   3.017  12.046 -0.6801 -0.5068  0.8455
 3232SOL    HW221333   4.113   3.092  12.171 -1.0413 -1.0034  1.0671
 3233SOL     OW21334   3.736   1.530  12.657  0.2879 -0.4040 -0.4041
 3233SOL    HW121335   3.711   1.573  12.575  1.2941  0.3029 -0.3371
 3233SOL    HW221336   3.655   1.482  12.675  0.4671 -0.2763  0.7176
 3234SOL     OW21337   0.610   4.497   3.081 -0.0169  0.7780 -0.2520
 3234SOL    HW121338   0.538   4.518   3.023 -1.0686  2.3861  1.6230
 3234SOL    HW221339   0.580   4.550   3.155 -2.3879 -0.5771 -0.2657
 3235SOL     OW21340   1.848   3.251  14.824  0.6125 -0.1779 -0.0382
 3235SOL    HW121341   1.910   3.293  14.764  1.7520 -0.9915  0.5720
 3235SOL    HW221342   1.886   3.164  14.832  0.2581 -0.4844 -1.6722
 3236SOL     OW21343   2.671   2.732  16.724  0.1116  0.5684  0.4613
 3236SOL    HW121344   2.710   2.740  16.811 -1.0940 -2.6757  1.3463
 3236SOL    HW221345   2.703   2.801  16.668 -0.8200  0.1037 -0.6479
 3237SOL     OW21346   2.376   3.829   3.253  0.1504 -0.8076  0.1201
 3237SOL    HW121347   2.411   3.895   3.193 -2.8374  0.9116  0.2712
 3237SOL    HW221348   2.353   3.759   3.192 -2.1983  1.3911 -1.4752
 3238SOL     OW21349   0.416   1.862   7.680 -0.2344 -0.4157  0.0710
 3238SOL    HW121350   0.431   1.805   7.605 -0.1817 -2.0305  1.3040
 3238SOL    HW221351   0.321   1.851   7.692 -0.2424 -1.2943 -0.8353
 3239SOL     OW21352   3.635   1.047   5.638 -0.0971  0.0277  0.7408
 3239SOL    HW121353   3.602   0.995   5.565 -0.1992  0.1547  0.6979
 3239SOL    HW221354   3.616   1.137   5.615 -3.0426 -1.2003 -1.5387
 3240SOL     OW21355   2.594   0.433   4.944  0.2021  0.2164  0.3266
 3240SOL    HW121356   2.557   0.375   5.011  0.3632 -3.3094 -2.6362
 3240SOL    HW221357   2.533   0.506   4.931  0.7364  0.5929 -0.0592
 3241SOL     OW21358   1.745   2.660   4.607  0.2283 -0.2862  0.3634
 3241SOL    HW121359   1.796   2.669   4.688  0.6711 -1.1442  0.1808
 3241SOL    HW221360   1.691   2.740   4.607 -0.1764 -0.5760  2.6014
 3242SOL     OW21361   1.297   1.207   2.781  0.6208 -0.3296  0.1619
 3242SOL    HW121362   1.239   1.271   2.738 -1.2805 -1.3686  1.1887
 3242SOL    HW221363   1.373   1.231   2.728 -0.5696  0.0123 -1.3906
 3243SOL     OW21364   0.654   4.556  10.846  0.5716 -0.2999  0.3715
 3243SOL    HW121365   0.736   4.596  10.819 -0.7548  0.6039 -2.2766
 3243SOL    HW221366   0.675   4.529  10.935  1.9521 -2.0194 -0.4657
 3244SOL     OW21367   2.625   3.165   7.623 -0.3589 -0.1882 -0.4338
 3244SOL    HW121368   2.577   3.115   7.557 -1.0946 -0.9932  0.7008
 3244SOL    HW221369   2.561   3.232   7.645  0.8447  1.0027 -0.5591
 3245SOL     OW21370   3.561   2.468   7.827  0.1321 -0.2067 -0.1286
 3245SOL    HW121371   3.600   2.389   7.789  2.6073  1.0788 -0.2422
 3245SOL    HW221372   3.608   2.473   7.910  1.3942 -1.0056 -0.8016
 3246SOL     OW21373   4.116   1.477   4.166 -0.1705  0.1060  0.4288
 3246SOL    HW121374   4.159   1.535   4.228  0.7722 -0.6960  0.5254
 3246SOL    HW221375   4.151   1.509   4.083 -0.1885  2.6338  1.4009
 3247SOL     OW21376   2.954   4.233  15.313 -0.3566  0.2861 -0.0909
 3247SOL    HW121377   3.032   4.264  15.359 -0.8434 -0.3434  1.1577
 3247SOL    HW221378   2.934   4.302  15.250 -2.2011  1.6006  1.9549
 3248SOL     OW21379   1.855   0.251   0.284 -0.4243  0.9886 -0.0812
 3248SOL    HW121380   1.907   0.233   0.206  0.4294 -0.8909  0.9174
 3248SOL    HW221381   1.835   0.344   0.272 -1.9256  0.6132 -0.4892
 3249SOL     OW21382   4.128   4.583  12.353  0.0649  0.0933  0.0434
 3249SOL    HW121383   4.204   4.642  12.361  0.6027 -0.8353  1.6698
 3249SOL    HW221384   4.107   4.565  12.445  2.4282 -0.9536  0.3877
 3250SOL     OW21385   3.645   2.580   8.344  0.1698 -0.2500 -0.7253
 3250SOL    HW121386   3.655   2.675   8.343  2.0284 -0.4487 -0.0082
 3250SOL    HW221387   3.633   2.565   8.438 -0.7054  1.5027 -0.5436
 3251SOL     OW21388   4.406   4.555   1.751  0.3842 -0.1111 -0.5325
 3251SOL    HW121389   4.420   4.588   1.662 -0.9132  2.2118  0.1321
 3251SOL    HW221390   4.425   4.463   1.732  1.3466  0.2529 -1.3070
 3252SOL     OW21391   0.308   4.313   5.243  0.1473 -0.0868 -0.2020
 3252SOL    HW121392   0.318   4.221   5.217  2.8305 -0.4883  2.3175
 3252SOL    HW221393   0.266   4.356   5.169  1.3513  1.4723  0.0290
 3253SOL     OW21394   3.764   0.959   5.057  0.3314  0.1651 -0.0321
 3253SOL    HW121395   3.809   0.886   5.099  3.6051  1.2552 -1.6242
 3253SOL    HW221396   3.797   0.965   4.967  0.5056 -2.8495 -0.1670
 3254SOL     OW21397   0.175   4.605   7.650 -0.0431 -0.2325  0.6494
 3254SOL    HW121398   0.147   4.663   7.720 -1.8858  0.4084 -0.5841
 3254SOL    HW221399   0.267   4.599   7.675 -0.1293 -1.4749  0.6836
 3255SOL     OW21400   1.871   1.517   0.441 -0.1017  0.2038  0.0286
 3255SOL    HW121401   1.860   1.515   0.536 -2.8771  1.1271 -0.2807
 3255SOL    HW221402   1.782   1.543   0.418 -0.0139  0.7086  0.2453
 3256SOL     OW21403   0.785   4.417   1.577 -0.5814 -0.3575 -0.0006
 3256SOL    HW121404   0.699   4.442   1.544 -1.3993 -1.3414  1.3969
 3256SOL    HW221405   0.815   4.484   1.639 -1.6197  0.0192  0.0899
 3257SOL     OW21406   2.651   0.511  12.706 -0.2804  0.0738  0.3188
 3257SOL    HW121407   2.618   0.594  12.673  0.1015  0.0870 -0.0355
 3257SOL    HW221408   2.632   0.519  12.799  3.5969  0.8931  1.0545
 3258SOL     OW21409   3.682   3.331   2.900 -0.4889  0.3169  0.2556
 3258SOL    HW121410   3.735   3.403   2.864  0.1703 -1.1510 -1.6895
 3258SOL    HW221411   3.641   3.387   2.966 -1.7607 -1.7703  1.2146
 3259SOL     OW21412   2.274   2.898   5.086  0.0785  0.0065  0.2171
 3259SOL    HW121413   2.291   2.804   5.085  2.2152  0.3943  2.2263
 3259SOL    HW221414   2.291   2.916   4.993 -1.1982 -0.5240 -0.1268
 3260SOL     OW21415   4.426   3.535   3.052 -0.3847  0.0059 -0.1108
 3260SOL    HW121416   4.394   3.595   3.120  0.2144 -0.0373  0.2134
 3260SOL    HW221417   4.375   3.455   3.068 -0.9131  0.4235  0.3248
 3261SOL     OW21418   3.766   3.985   4.134 -0.6758  0.5193 -0.3764
 3261SOL    HW121419   3.829   3.968   4.064 -0.6684  1.1228 -0.5193
 3261SOL    HW221420   3.787   4.078   4.146  2.6191 -0.3304  0.4734
 3262SOL     OW21421   2.794   1.898   4.803 -0.3835 -0.1163  0.5593
 3262SOL    HW121422   2.770   1.985   4.773 -1.6568  0.3493  2.9281
 3262SOL    HW221423   2.709   1.870   4.837 -0.8448 -0.9759 -1.2941
 3263SOL     OW21424   2.522   3.030   2.302  0.6424 -0.0423 -0.3148
 3263SOL    HW121425   2.565   3.042   2.388  2.1439  0.0748 -1.0780
 3263SOL    HW221426   2.590   2.981   2.255  1.6492  2.2781 -1.2856
 3264SOL     OW21427   1.677   0.181  11.169  0.4012 -0.0970  0.0897
 3264SOL    HW121428   1.654   0.136  11.087 -1.3926  0.5179  0.2521
 3264SOL    HW221429   1.773   0.181  11.165  0.3994  1.0674  0.3206
 3265SOL     OW21430   2.029   1.434   4.020  0.8670 -0.1222 -0.2183
 3265SOL    HW121431   2.109   1.486   4.024  0.2399  0.7913  0.3363
 3265SOL    HW221432   2.025   1.430   4.115  3.1214 -1.8402 -0.1652
 3266SOL     OW21433   4.264   0.327   7.342  0.9730  0.4179  0.2055
 3266SOL    HW121434   4.194   0.387   7.315  0.7329 -0.2754 -0.7307
 3266SOL    HW221435   4.254   0.258   7.276  0.4057  2.1341 -1.5203
 3267SOL     OW21436   4.552   4.442   9.361  0.1775 -0.4826  0.4776
 3267SOL    HW121437   4.618   4.509   9.345 -1.7720  1.0587 -1.2180
 3267SOL    HW221438   4.600   4.371   9.318 -0.0954  1.1408 -2.4971
 3268SOL     OW21439   4.684   3.092  16.382  1.0857 -0.6303  0.0490
 3268SOL    HW121440   4.641   3.149  16.447 -2.2881 -2.6907 -0.3818
 3268SOL    HW221441   0.035   3.078  16.419  1.3843 -0.1725 -0.4757
 3269SOL     OW21442   0.933   4.310   6.769 -0.0942  0.2555  0.3787
 3269SOL    HW121443   1.000   4.275   6.710 -0.3722  0.1090  0.1529
 3269SOL    HW221444   0.930   4.399   6.735 -2.7887  0.2800  0.6737
 3270SOL     OW21445   1.767   1.969  12.461  0.8669 -0.0313 -0.3553
 3270SOL    HW121446   1.794   1.911  12.389 -0.5076  0.5586 -1.3575
 3270SOL    HW221447   1.807   1.919  12.532 -1.0557  0.9759  1.4267
 3271SOL     OW21448   2.628   3.021   5.750  0.0608 -0.2803 -0.6468
 3271SOL    HW121449   2.610   3.115   5.747  0.3830 -0.1891  0.3645
 3271SOL    HW221450   2.595   2.997   5.663  1.5543 -2.3007 -0.6363
 3272SOL     OW21451   1.117   2.514   0.710 -0.3141  0.9073 -0.4446
 3272SOL    HW121452   1.044   2.476   0.758 -0.3274  0.1008 -1.0957
 3272SOL    HW221453   1.087   2.604   0.716  0.0647  0.8870  1.7405
 3273SOL     OW21454   2.671   2.345   4.210 -0.3827  0.1891 -0.5568
 3273SOL    HW121455   2.620   2.359   4.290 -0.9271  0.1339 -0.8964
 3273SOL    HW221456   2.698   2.436   4.193 -1.0528  0.4245 -0.3757
 3274SOL     OW21457   2.279   3.866  11.390  0.3218 -0.2283 -0.2370
 3274SOL    HW121458   2.191   3.837  11.416  0.1148 -0.0742 -0.7716
 3274SOL    HW221459   2.318   3.891  11.474  2.7718  1.5255 -1.9158
 3275SOL     OW21460   2.490   2.905  16.378  0.5068 -0.5598 -0.0226
 3275SOL    HW121461   2.502   2.810  16.373  2.9032 -0.3384  1.5081
 3275SOL    HW221462   2.485   2.929  16.285 -0.3800 -2.2213 -0.4010
 3276SOL     OW21463   2.536   2.408   3.300  0.1453 -0.1675 -0.0471
 3276SOL    HW121464   2.572   2.325   3.329  2.6354  0.7756 -0.4774
 3276SOL    HW221465   2.617   2.449   3.269 -0.9891  0.9665 -1.5536
 3277SOL     OW21466   2.711   2.149   6.040  0.3965  0.0289 -0.0356
 3277SOL    HW121467   2.664   2.189   5.967  1.1808  0.1886 -0.4512
 3277SOL    HW221468   2.764   2.085   5.992 -0.5405 -1.4529  0.8862
 3278SOL     OW21469   0.665   0.009   3.927  0.1491 -0.2359 -0.2071
 3278SOL    HW121470   0.586   0.032   3.879  0.7906  0.0913 -1.1124
 3278SOL    HW221471   0.703   0.096   3.932  2.1687 -1.0054 -2.0380
 3279SOL     OW21472   1.579   1.933   3.935 -0.1306 -0.3847 -0.3620
 3279SOL    HW121473   1.607   2.012   3.981 -0.3612 -1.1055  1.0140
 3279SOL    HW221474   1.504   1.968   3.886 -0.1006  0.9504  0.5404
 3280SOL     OW21475   1.644   3.851   5.600  0.7506  0.0932 -0.2456
 3280SOL    HW121476   1.578   3.824   5.665  0.5771 -0.2540 -0.5627
 3280SOL    HW221477   1.591   3.887   5.528  0.5756 -2.7565 -1.5427
 3281SOL     OW21478   1.252   3.392  11.623  0.4025  0.0310 -0.2277
 3281SOL    HW121479   1.169   3.365  11.661  1.0910 -1.5914  0.1447
 3281SOL    HW221480   1.295   3.413  11.706 -1.1724  1.1790  0.2879
 3282SOL     OW21481   1.357   0.806   0.503  0.9282 -0.5331 -0.0762
 3282SOL    HW121482   1.293   0.768   0.443 -0.2422  0.1368  0.7608
 3282SOL    HW221483   1.430   0.744   0.496  0.6406 -0.7572 -1.0778
 3283SOL     OW21484   0.807   2.378  10.476 -0.3615 -0.1326 -0.3893
 3283SOL    HW121485   0.816   2.283  10.479 -1.1738 -0.1403  2.1987
 3283SOL    HW221486   0.778   2.402  10.564 -1.9758  1.2935 -1.3049
 3284SOL     OW21487   0.068   3.475   3.133  0.0244 -0.3112 -0.7998
 3284SOL    HW121488   0.007   3.424   3.186 -1.6942  0.8971 -1.6102
 3284SOL    HW221489   0.118   3.513   3.206  0.7349  1.2164 -2.1020
 3285SOL     OW21490   3.127   2.535   6.838 -0.2229  0.2745  0.6357
 3285SOL    HW121491   3.183   2.549   6.914 -0.2640 -0.5716  0.8196
 3285SOL    HW221492   3.092   2.446   6.841 -1.3163  0.5341 -4.1080
 3286SOL     OW21493   4.549   3.865   7.569 -0.3495  0.7421  0.0923
 3286SOL    HW121494   4.640   3.896   7.565 -0.4593  1.0986  0.3185
 3286SOL    HW221495   4.505   3.911   7.498 -1.2881  0.7095  0.6581
 3287SOL     OW21496   2.244   1.560   8.667  0.0137 -0.3064  0.4294
 3287SOL    HW121497   2.275   1.648   8.688 -0.8828  0.0952  0.0923
 3287SOL    HW221498   2.205   1.578   8.582  0.7793  1.5666  0.4780
 3288SOL     OW21499   0.891   1.037   3.302  0.2573 -0.1946  0.3312
 3288SOL    HW121500   0.896   1.132   3.308  0.2745 -0.0712 -1.3898
 3288SOL    HW221501   0.810   1.030   3.251  1.4484 -0.1257 -1.5812
 3289SOL     OW21502   4.463   4.325  11.790 -0.0607  0.4156  0.2476
 3289SOL    HW121503   4.552   4.326  11.826  0.5918  4.5308 -1.3915
 3289SOL    HW221504   4.408   4.300  11.864 -1.0584 -1.3877 -1.0962
 3290SOL     OW21505   3.656   3.262   9.145  0.5464 -0.6318 -0.0626
 3290SOL    HW121506   3.635   3.231   9.233 -3.8915 -0.3047 -1.0495
 3290SOL    HW221507   3.609   3.201   9.088 -0.9482  0.4319  0.0633
 3291SOL     OW21508   0.170   2.421  17.531 -0.2836  0.4460  0.3081
 3291SOL    HW121509   0.237   2.359  17.559 -0.7998 -0.9802 -1.6219
 3291SOL    HW221510   0.181   2.495  17.590 -0.6162  1.1255 -0.4792
 3292SOL     OW21511   2.362   4.493   1.242  0.8955  0.0078  0.6268
 3292SOL    HW121512   2.446   4.447   1.235  1.0793  0.6075 -1.1708
 3292SOL    HW221513   2.335   4.446   1.164  1.9368 -1.0624  0.9120
 3293SOL     OW21514   1.421   3.668   4.142  0.2167 -0.1916 -0.4232
 3293SOL    HW121515   1.395   3.587   4.185  0.7262 -0.6381 -0.9540
 3293SOL    HW221516   1.513   3.643   4.129  0.4297  0.8923 -1.0741
 3294SOL     OW21517   2.918   1.158   6.313  0.0786  0.7936  0.1018
 3294SOL    HW121518   2.877   1.199   6.237 -0.0042  0.5216 -0.0007
 3294SOL    HW221519   2.958   1.085   6.266  1.0780 -0.0479  2.2544
 3295SOL     OW21520   2.907   2.118   3.719  0.1687 -0.2351  0.3140
 3295SOL    HW121521   2.878   2.111   3.628  1.9445 -0.0839 -0.2667
 3295SOL    HW221522   2.908   2.023   3.730  0.6640  0.3393  5.1292
 3296SOL     OW21523   2.996   1.105  17.248 -0.0019  0.2212 -0.0651
 3296SOL    HW121524   3.045   1.045  17.191 -0.0678 -0.6473  0.7894
 3296SOL    HW221525   2.906   1.075  17.233 -0.3480  1.4895 -0.5195
 3297SOL     OW21526   4.511   4.326   4.109  0.7521 -0.4039  0.3391
 3297SOL    HW121527   4.418   4.340   4.127 -0.2058 -2.0949 -3.2967
 3297SOL    HW221528   4.517   4.364   4.021  2.3845 -0.2789  0.5088
 3298SOL     OW21529   0.057   0.764   7.676  0.4982  0.0238 -0.0332
 3298SOL    HW121530   0.044   0.671   7.656  3.0798  0.0427 -1.8028
 3298SOL    HW221531   0.030   0.798   7.590  0.5816 -0.0118 -0.0732
 3299SOL     OW21532   4.600   0.097   3.193  0.1422  0.0908  0.8654
 3299SOL    HW121533   4.683   0.075   3.236  0.4749  0.4692  0.4170
 3299SOL    HW221534   4.554   0.143   3.264 -0.9018 -2.2058  1.6759
 3300SOL     OW21535   2.316   2.173  13.406  0.1861  0.1353  0.2226
 3300SOL    HW121536   2.252   2.171  13.336  0.6329 -0.3247 -0.1734
 3300SOL    HW221537   2.394   2.196  13.356  0.2500  0.1741  0.3399
 3301SOL     OW21538   2.455   2.761  12.287  0.3736  0.1007 -0.4375
 3301SOL    HW121539   2.492   2.784  12.372 -0.3738 -0.4398  0.0439
 3301SOL    HW221540   2.532   2.759  12.231  0.2923  0.4318 -0.5617
 3302SOL     OW21541   2.681   1.864   2.597  0.2316  0.2807  0.1492
 3302SOL    HW121542   2.644   1.914   2.670  2.6013 -0.1506  1.6494
 3302SOL    HW221543   2.751   1.917   2.560 -0.3438  1.7247  1.1373
 3303SOL     OW21544   1.802   1.485  17.315  0.3801 -0.1245  0.6293
 3303SOL    HW121545   1.837   1.428  17.383 -1.6959 -0.2149  1.6309
 3303SOL    HW221546   1.883   1.518  17.276 -0.7264  0.8220 -0.8512
 3304SOL     OW21547   4.134   3.471   8.980  0.1888 -0.0027 -0.4283
 3304SOL    HW121548   4.176   3.459   9.066 -0.8364  1.0009  0.2052
 3304SOL    HW221549   4.050   3.429   8.995  0.9513 -1.4289 -0.0890
 3305SOL     OW21550   1.662   3.309   1.977  0.8982  0.2063 -0.0775
 3305SOL    HW121551   1.688   3.312   1.885  1.1799 -0.2624 -0.0133
 3305SOL    HW221552   1.583   3.364   1.973  0.7960  0.0853  0.2510
 3306SOL     OW21553   0.957   3.740   4.896 -0.4324 -0.5698 -0.3867
 3306SOL    HW121554   0.998   3.661   4.932  0.3408  0.6692  1.4596
 3306SOL    HW221555   0.988   3.728   4.806  0.2733  0.7870 -0.3296
 3307SOL     OW21556   3.177   4.335  12.145 -0.2306  0.1412  0.3243
 3307SOL    HW121557   3.269   4.360  12.135  0.1630 -1.0374  1.0816
 3307SOL    HW221558   3.134   4.395  12.206  0.8863  0.6363  0.6190
 3308SOL     OW21559   3.086   2.364  16.992 -0.4264 -0.0019  0.5077
 3308SOL    HW121560   3.073   2.452  16.958  1.1916  0.4751  1.1352
 3308SOL    HW221561   3.158   2.382  17.053  1.8968 -2.6343 -1.4067
 3309SOL     OW21562   3.404   0.544   3.951  0.3233 -0.0330 -0.5959
 3309SOL    HW121563   3.393   0.486   3.876  0.3899 -1.5305  0.5651
 3309SOL    HW221564   3.455   0.486   4.007 -0.2035 -0.2603 -0.3491
 3310SOL     OW21565   4.396   0.247   5.850 -0.1879 -0.3433 -0.5818
 3310SOL    HW121566   4.305   0.227   5.827 -1.0753  1.8766  0.9271
 3310SOL    HW221567   4.436   0.267   5.765 -0.7499  0.0481 -0.7543
 3311SOL     OW21568   1.711   1.665   6.728 -0.5299  0.0971  0.4801
 3311SOL    HW121569   1.805   1.652   6.728 -0.4501  0.6040  2.7594
 3311SOL    HW221570   1.687   1.706   6.811 -1.2889 -1.2055  0.9091
 3312SOL     OW21571   4.057   0.354  10.385  0.2885  0.3292 -1.0355
 3312SOL    HW121572   4.051   0.324  10.294  0.5879 -0.8930 -0.6614
 3312SOL    HW221573   4.075   0.446  10.370  1.2566  0.3130  0.0487
 3313SOL     OW21574   1.998   3.439  14.666  0.1078 -0.3460 -0.1996
 3313SOL    HW121575   1.955   3.389  14.596 -0.8954 -0.4495  0.4851
 3313SOL    HW221576   2.012   3.522  14.621 -0.6165  0.4973  1.1385
 3314SOL     OW21577   4.087   1.185  16.204  0.6147 -0.1308 -0.5855
 3314SOL    HW121578   4.145   1.117  16.169  1.6877  0.6760 -0.3674
 3314SOL    HW221579   4.150   1.231  16.258 -1.8293  0.6253  1.6334
 3315SOL     OW21580   4.140   1.279   2.002  0.0112 -0.5251 -0.0058
 3315SOL    HW121581   4.056   1.259   2.043 -0.4044  0.9470 -0.1434
 3315SOL    HW221582   4.114   1.255   1.913 -1.1888  0.5452  0.0644
 3316SOL     OW21583   1.365   1.126  11.521 -0.3869  0.0519  0.4640
 3316SOL    HW121584   1.392   1.088  11.437  0.3237  0.5601  0.4627
 3316SOL    HW221585   1.281   1.081  11.532  0.6157 -1.3331  2.4978
 3317SOL     OW21586   0.419   3.069   2.663 -0.1563  0.0039 -0.0462
 3317SOL    HW121587   0.369   3.146   2.633 -1.4410 -0.7953  0.0489
 3317SOL    HW221588   0.401   3.073   2.757 -2.2465 -1.4682 -0.3919
 3318SOL     OW21589   0.578   3.971   5.210 -0.3014 -0.1065  0.2144
 3318SOL    HW121590   0.548   3.881   5.194 -3.4232  0.3477  3.5716
 3318SOL    HW221591   0.624   3.962   5.293 -1.1692  3.7845  1.1037
 3319SOL     OW21592   4.086   2.538   8.963 -0.1653 -0.1274 -0.2174
 3319SOL    HW121593   4.111   2.457   8.919  0.1629  1.1660 -2.3988
 3319SOL    HW221594   4.122   2.539   9.052 -1.8388 -1.8230  0.4654
 3320SOL     OW21595   0.882   4.080  17.377  0.5219 -0.1073 -0.4415
 3320SOL    HW121596   0.825   4.003  17.371  0.4094 -0.1080  0.5734
 3320SOL    HW221597   0.899   4.101  17.286  2.3880 -0.4740 -0.1781
 3321SOL     OW21598   3.409   3.214   6.671  0.9705  0.1657  0.4044
 3321SOL    HW121599   3.497   3.182   6.651  1.0788 -0.1382  1.3650
 3321SOL    HW221600   3.395   3.187   6.762 -0.9775 -0.8066 -0.1827
 3322SOL     OW21601   4.378   0.104   1.711  0.0325  0.4886  0.5443
 3322SOL    HW121602   4.460   0.097   1.661  0.2581  0.8785  0.8576
 3322SOL    HW221603   4.309   0.114   1.645  0.9911 -0.9794 -0.6642
 3323SOL     OW21604   2.299   0.926   3.519  0.1421  0.1096  0.0180
 3323SOL    HW121605   2.326   0.901   3.430  1.9553 -0.6886  0.7932
 3323SOL    HW221606   2.205   0.920   3.504  0.2416 -0.8644 -0.2189
 3324SOL     OW21607   3.913   0.372  10.974  0.1848  0.3418 -0.1136
 3324SOL    HW121608   3.961   0.440  11.023  0.9263  0.4663 -1.0002
 3324SOL    HW221609   3.895   0.322  11.053 -0.9761 -2.5393 -2.2003
 3325SOL     OW21610   1.323   2.013   7.661 -0.4963  0.2807  0.0127
 3325SOL    HW121611   1.396   2.067   7.690 -0.1499 -0.3194  0.2606
 3325SOL    HW221612   1.308   1.961   7.740 -1.0991 -1.7914 -1.4685
 3326SOL     OW21613   1.285   4.301   9.234  0.1855  0.2012 -0.4073
 3326SOL    HW121614   1.286   4.239   9.160  2.8788  1.9506 -1.8510
 3326SOL    HW221615   1.337   4.372   9.196 -0.0751  0.1908 -0.7913
 3327SOL     OW21616   4.210   0.981   6.092  0.3402  0.0003  0.1758
 3327SOL    HW121617   4.271   0.925   6.043  0.2795  0.6061 -0.5873
 3327SOL    HW221618   4.127   0.939   6.068 -0.6914  1.2736  1.5113
 3328SOL     OW21619   4.021   2.010  13.123 -0.0892  0.2709 -0.0382
 3328SOL    HW121620   4.064   1.986  13.205 -0.8196  1.6314  0.7329
 3328SOL    HW221621   4.016   2.105  13.136 -0.3510  0.1455  0.7917
 3329SOL     OW21622   2.085   0.110   3.578 -0.1387  0.4939 -0.1588
 3329SOL    HW121623   2.117   0.186   3.529  1.4493 -0.5735 -0.7653
 3329SOL    HW221624   2.150   0.053   3.537 -2.1746 -1.6202 -0.3890
 3330SOL     OW21625   1.708   1.214   5.054 -0.1048  0.3949  0.0596
 3330SOL    HW121626   1.728   1.232   4.962 -1.6444  2.6502  0.1666
 3330SOL    HW221627   1.629   1.266   5.068  0.0331 -0.1890  3.0222
 3331SOL     OW21628   1.005   0.444   7.248  0.6413 -0.5470 -0.6352
 3331SOL    HW121629   1.099   0.426   7.248  1.2280  2.5034 -0.3060
 3331SOL    HW221630   0.978   0.451   7.339 -1.1825 -1.7721 -1.0758
 3332SOL     OW21631   2.468   0.449   4.126  0.0836  0.2343  0.2058
 3332SOL    HW121632   2.531   0.515   4.096  0.0276 -0.0641 -0.5603
 3332SOL    HW221633   2.516   0.373   4.093 -1.5016  0.0604 -1.6964
 3333SOL     OW21634   4.401   1.667   5.788  0.2136  0.1339  0.2453
 3333SOL    HW121635   4.396   1.589   5.733  0.3653 -0.9992  1.8451
 3333SOL    HW221636   4.403   1.620   5.871  0.6538 -2.0276 -1.0016
 3334SOL     OW21637   2.710   2.845   8.407  0.1685  0.1063  0.1863
 3334SOL    HW121638   2.680   2.816   8.493 -0.7351 -2.8180 -1.1201
 3334SOL    HW221639   2.802   2.860   8.428  0.3006  0.2221 -0.4717
 3335SOL     OW21640   4.216   3.709  17.429 -0.4156  0.1400 -0.0125
 3335SOL    HW121641   4.176   3.672  17.351 -3.6071 -1.9505  2.6193
 3335SOL    HW221642   4.184   3.652  17.499 -0.0401 -0.1344 -0.0632
 3336SOL     OW21643   1.955   1.516  12.455  0.5725 -0.0278 -0.2297
 3336SOL    HW121644   2.023   1.449  12.460  0.3892 -0.1386  0.6963
 3336SOL    HW221645   1.876   1.487  12.502  1.5520 -1.3584  0.5938
 3337SOL     OW21646   0.243   1.168   6.876  0.0153 -0.4694  0.1778
 3337SOL    HW121647   0.206   1.136   6.793 -0.2114 -1.2671  0.5912
 3337SOL    HW221648   0.315   1.224   6.846 -0.1298 -0.5053 -0.2363
 3338SOL     OW21649   3.963   3.948   4.838 -0.8693  0.3253 -0.0891
 3338SOL    HW121650   3.901   4.013   4.806 -1.2161  0.5458  1.0419
 3338SOL    HW221651   4.014   3.937   4.758  2.4761 -1.6574  2.2793
 3339SOL     OW21652   4.309   4.264   5.876 -0.3933 -0.1234 -0.2250
 3339SOL    HW121653   4.320   4.343   5.823 -2.2616  0.6436  0.5467
 3339SOL    HW221654   4.233   4.296   5.924  1.7015  2.1738  1.5395
 3340SOL     OW21655   1.176   3.504   5.927 -0.3786  0.3494  0.5599
 3340SOL    HW121656   1.159   3.549   5.844 -0.1781  0.7562  0.7363
 3340SOL    HW221657   1.253   3.448   5.920 -0.1052  0.7395  0.4135
 3341SOL     OW21658   0.170   4.324   4.447 -0.7120  0.3229  0.0437
 3341SOL    HW121659   0.207   4.346   4.361 -2.3128  0.1265 -0.6882
 3341SOL    HW221660   0.079   4.303   4.427 -0.5854 -1.6815  1.6169
 3342SOL     OW21661   3.216   1.375   1.119  0.1477  0.3865 -0.1870
 3342SOL    HW121662   3.194   1.339   1.205 -3.2574  1.6709 -0.5227
 3342SOL    HW221663   3.149   1.329   1.068 -1.1854  0.7242  1.2572
 3343SOL     OW21664   3.984   1.245   4.234 -0.1327  0.5648  0.3885
 3343SOL    HW121665   4.032   1.325   4.215  2.9778 -1.3008  0.5136
 3343SOL    HW221666   3.942   1.268   4.317 -0.9196 -0.3895  0.2626
 3344SOL     OW21667   3.255   1.939   2.918  0.2143 -0.5100 -0.8201
 3344SOL    HW121668   3.285   2.016   2.871 -0.9172  2.5760  3.5773
 3344SOL    HW221669   3.178   1.903   2.874 -1.4282  3.5699 -1.2849
 3345SOL     OW21670   2.096   4.710   3.984 -0.0611 -0.2856  0.5543
 3345SOL    HW121671   2.021   4.658   4.010 -0.1694 -0.5378 -0.2741
 3345SOL    HW221672   2.141   4.697   4.068 -0.9932  0.3390  1.1523
 3346SOL     OW21673   2.523   4.242  11.966  0.2092 -0.4816 -0.1455
 3346SOL    HW121674   2.610   4.207  11.984 -0.0152 -0.8510  0.2214
 3346SOL    HW221675   2.483   4.235  12.052 -2.1137  1.0930 -1.0794
 3347SOL     OW21676   1.095   2.175  10.683  0.0331  0.0828 -0.4721
 3347SOL    HW121677   1.159   2.105  10.672  2.1224  2.2588 -2.1126
 3347SOL    HW221678   1.077   2.199  10.592  0.6822  1.0844 -0.3353
 3348SOL     OW21679   4.466   1.700   8.754 -0.3930 -0.6876  0.7051
 3348SOL    HW121680   4.476   1.614   8.714 -2.5767 -0.2579 -0.7553
 3348SOL    HW221681   4.371   1.709   8.746  0.0403  2.6538 -0.6178
 3349SOL     OW21682   0.490   4.306   9.414  0.2250  0.4058  0.1053
 3349SOL    HW121683   0.429   4.351   9.473 -0.3507 -0.3884  0.1214
 3349SOL    HW221684   0.529   4.244   9.475 -0.8846  0.1172  0.5189
 3350SOL     OW21685   0.249   3.534   5.857 -0.3292 -0.4902  0.4060
 3350SOL    HW121686   0.282   3.491   5.937  1.6751  2.9331  1.4480
 3350SOL    HW221687   0.191   3.599   5.897 -0.8754 -0.0233 -1.1821
 3351SOL     OW21688   3.982   3.248   6.463  0.4930 -0.3692 -0.9956
 3351SOL    HW121689   3.921   3.290   6.402  0.4051 -0.1833 -0.7774
 3351SOL    HW221690   4.066   3.288   6.442 -0.6276  2.1823 -0.5685
 3352SOL     OW21691   2.641   1.529   6.975 -0.1540  0.0574  0.1149
 3352SOL    HW121692   2.549   1.551   6.956  0.4332  0.9311 -1.7395
 3352SOL    HW221693   2.645   1.568   7.062  0.7043 -1.5168  0.7748
 3353SOL     OW21694   0.674   1.118  13.523  0.7414  0.2760  0.0504
 3353SOL    HW121695   0.735   1.046  13.505 -0.1112 -0.3099 -0.5056
 3353SOL    HW221696   0.611   1.074  13.580 -0.7751  0.8938 -1.1603
 3354SOL     OW21697   2.301   1.750   5.791  0.3142  0.2471  0.5626
 3354SOL    HW121698   2.373   1.744   5.853  1.3599  1.9609 -0.4800
 3354SOL    HW221699   2.344   1.794   5.717 -0.7902 -0.9803 -0.8100
 3355SOL     OW21700   0.299   2.965  11.916  0.5684 -0.0087  0.0989
 3355SOL    HW121701   0.234   2.940  11.981  1.9659  2.8859  2.5979
 3355SOL    HW221702   0.290   2.898  11.849  2.6867 -1.4917  1.3207
 3356SOL     OW21703   3.232   1.831  15.966  0.4198 -0.0479 -0.4731
 3356SOL    HW121704   3.162   1.775  16.000 -0.5265  1.9762  0.9129
 3356SOL    HW221705   3.278   1.834  16.050 -1.8646 -0.8486  0.8221
 3357SOL     OW21706   2.654   0.805   1.150  0.2047  0.2233  0.3886
 3357SOL    HW121707   2.748   0.801   1.133  0.0436  0.5431 -0.5208
 3357SOL    HW221708   2.642   0.720   1.194  0.5475  0.5362  1.0866
 3358SOL     OW21709   3.131   0.710   2.489  0.0096 -0.1091 -0.2562
 3358SOL    HW121710   3.100   0.751   2.569 -3.1055 -1.1838 -0.9340
 3358SOL    HW221711   3.064   0.643   2.479 -0.7584  0.5938  0.1756
 3359SOL     OW21712   1.960   1.802  15.435  0.4910  0.3896 -0.4212
 3359SOL    HW121713   1.924   1.874  15.384 -1.8939 -1.1573 -0.9561
 3359SOL    HW221714   1.991   1.838  15.518 -1.2471  0.5912  0.1336
 3360SOL     OW21715   0.082   1.733   4.203 -0.1978 -0.1197  0.5549
 3360SOL    HW121716   0.043   1.763   4.286  1.5400  0.8097  1.0342
 3360SOL    HW221717   0.173   1.741   4.233 -0.5647  3.8873  0.5249
 3361SOL     OW21718   3.859   1.838   4.667  0.0126 -0.1826 -0.0410
 3361SOL    HW121719   3.942   1.874   4.698 -1.7811  0.6139  3.8449
 3361SOL    HW221720   3.819   1.814   4.750  0.3143  2.5896  0.8842
 3362SOL     OW21721   2.637   3.423   5.913  0.1942 -0.4711 -0.8532
 3362SOL    HW121722   2.616   3.385   5.827 -0.2055  0.7262 -1.2865
 3362SOL    HW221723   2.657   3.514   5.892  2.4871 -0.5380  1.0647
 3363SOL     OW21724   3.968   2.066   2.218  0.3347 -0.2166  0.2522
 3363SOL    HW121725   4.022   1.990   2.240 -1.2699 -1.3858  0.1645
 3363SOL    HW221726   4.000   2.115   2.143 -1.2081  0.0310 -0.2309
 3364SOL     OW21727   2.637   4.603  16.647  0.0286  0.0121 -0.1447
 3364SOL    HW121728   2.600   4.677  16.695  1.2684  1.0784 -0.8350
 3364SOL    HW221729   2.645   4.649  16.564 -1.0971 -2.6258 -1.7097
 3365SOL     OW21730   3.734   0.056   4.879 -0.0073 -0.1573 -0.6788
 3365SOL    HW121731   3.734   0.122   4.809  1.4663 -0.2876 -0.8070
 3365SOL    HW221732   3.827   0.035   4.870 -0.0079 -1.3369  2.1935
 3366SOL     OW21733   0.779   0.495  15.537  0.1734 -0.7161  0.3523
 3366SOL    HW121734   0.851   0.542  15.579  2.2025 -2.1449 -1.5074
 3366SOL    HW221735   0.702   0.544  15.565  1.9871  1.5386  1.4581
 3367SOL     OW21736   3.902   2.641   5.029  0.9875  0.0517  0.3853
 3367SOL    HW121737   3.826   2.680   5.071  0.9526  0.6053 -0.1839
 3367SOL    HW221738   3.952   2.721   5.012  0.0991  0.2074 -1.5109
 3368SOL     OW21739   2.639   4.098   7.431 -0.2911 -0.3332  0.0846
 3368SOL    HW121740   2.655   4.076   7.523  3.2889  0.4159 -0.3907
 3368SOL    HW221741   2.579   4.031   7.396  0.3454 -0.7657 -0.1712
 3369SOL     OW21742   1.194   1.048   0.822 -0.1775 -0.7555  0.4828
 3369SOL    HW121743   1.211   1.078   0.911 -0.1256  0.5174  0.0366
 3369SOL    HW221744   1.152   1.126   0.786 -1.4034 -1.3946  0.5100
 3370SOL     OW21745   3.032   3.330   1.793  0.0916  0.3463 -0.1735
 3370SOL    HW121746   2.981   3.252   1.770 -0.2519  0.4826  0.1296
 3370SOL    HW221747   3.106   3.302   1.739 -0.7303 -0.3531 -0.9553
 3371SOL     OW21748   2.381   0.732   6.418  0.4429  0.1685 -0.4717
 3371SOL    HW121749   2.332   0.747   6.499  0.3794  2.0419 -0.8484
 3371SOL    HW221750   2.384   0.821   6.382  0.5882  0.0741 -0.6849
 3372SOL     OW21751   3.723   1.081   5.982  0.4959 -0.9330 -0.3561
 3372SOL    HW121752   3.640   1.130   5.988  1.0495  0.0575 -0.9485
 3372SOL    HW221753   3.697   1.020   6.051 -1.9026 -0.8828 -1.1905
 3373SOL     OW21754   4.089   0.362   4.921 -0.0721  0.5692 -0.7464
 3373SOL    HW121755   4.058   0.277   4.892  1.5499 -0.7068  1.2483
 3373SOL    HW221756   4.181   0.336   4.931 -0.7527 -2.1057 -1.6523
 3374SOL     OW21757   2.371   1.437   5.311 -0.1470  0.0317 -0.1103
 3374SOL    HW121758   2.332   1.399   5.233  1.0083 -0.9750 -0.1943
 3374SOL    HW221759   2.462   1.450   5.284  0.7956 -1.8850  2.2258
 3375SOL     OW21760   0.945   1.170  14.967  0.2430  0.4582  0.3724
 3375SOL    HW121761   0.912   1.196  15.053  1.0921  1.5071  0.3779
 3375SOL    HW221762   0.890   1.228  14.915  0.5272  0.5247  0.1481
 3376SOL     OW21763   0.470   2.139   3.308 -0.8229 -0.1230 -0.2087
 3376SOL    HW121764   0.393   2.195   3.316 -1.6394 -1.1355 -0.9920
 3376SOL    HW221765   0.425   2.055   3.316 -3.5808  1.4139  0.4063
 3377SOL     OW21766   1.414   0.158   7.515  0.6092 -0.0624  0.1492
 3377SOL    HW121767   1.345   0.101   7.550  0.3476 -1.0175 -1.8864
 3377SOL    HW221768   1.416   0.220   7.587 -2.0289  0.1938  0.0019
 3378SOL     OW21769   3.896   3.538  14.705  0.1629  0.1492  0.5856
 3378SOL    HW121770   3.900   3.490  14.623  1.3488 -0.0130  0.7394
 3378SOL    HW221771   3.911   3.473  14.774 -1.0963  0.2265  0.9391
 3379SOL     OW21772   0.727   2.236   2.241  0.1344  0.3703 -0.1764
 3379SOL    HW121773   0.777   2.300   2.191 -0.6250  2.0725  1.2066
 3379SOL    HW221774   0.785   2.176   2.287  1.1470 -0.7336 -2.9267
 3380SOL     OW21775   2.053   2.490  14.645 -0.7103 -0.1284 -0.6934
 3380SOL    HW121776   2.126   2.431  14.628 -0.1421  0.7540 -1.2891
 3380SOL    HW221777   1.984   2.448  14.593 -1.6913 -0.7329  1.1082
 3381SOL     OW21778   3.135   3.013   4.820 -0.4857  0.2886 -0.0777
 3381SOL    HW121779   3.051   2.978   4.792 -0.1268  0.3740 -1.2689
 3381SOL    HW221780   3.185   3.001   4.739 -0.1425  1.3225 -0.0107
 3382SOL     OW21781   1.816   1.866   0.464  0.0201 -0.2236 -0.0119
 3382SOL    HW121782   1.733   1.853   0.418 -0.9001  3.0366  0.6948
 3382SOL    HW221783   1.879   1.849   0.394 -0.4921 -0.6179 -0.3757
 3383SOL     OW21784   1.084   3.187   8.815 -0.3916  0.3776  0.1046
 3383SOL    HW121785   1.077   3.093   8.799  1.1641  0.2970 -0.1641
 3383SOL    HW221786   1.157   3.198   8.753  1.0183  0.5421  1.7964
 3384SOL     OW21787   4.259   1.784  10.948  0.8974 -1.0422  0.4358
 3384SOL    HW121788   4.234   1.697  10.918  1.5342 -1.3762  0.8777
 3384SOL    HW221789   4.217   1.800  11.032  0.4469  1.3194 -0.2255
 3385SOL     OW21790   3.299   4.706   5.028 -0.2522 -0.6221 -0.0690
 3385SOL    HW121791   3.345   4.622   5.025  0.4853 -0.3079  2.1092
 3385SOL    HW221792   3.262   4.704   4.940  0.0910  2.3727 -0.2791
 3386SOL     OW21793   0.971   0.276   9.210  0.1578  0.1703  0.3992
 3386SOL    HW121794   1.054   0.323   9.204 -1.5098  2.9176 -0.9433
 3386SOL    HW221795   0.994   0.188   9.181  1.0100  0.7711 -0.7568
 3387SOL     OW21796   2.613   1.783   4.422 -0.3707  0.0265 -0.2221
 3387SOL    HW121797   2.645   1.857   4.371 -1.1679 -0.1180 -0.9404
 3387SOL    HW221798   2.570   1.833   4.491  1.6533  1.1534  0.2293
 3388SOL     OW21799   0.615   4.689   1.910 -1.2626  0.6998 -0.4131
 3388SOL    HW121800   0.566   4.631   1.968  2.7957 -1.2902  1.0398
 3388SOL    HW221801   0.558   4.693   1.833 -1.2705  2.2148 -0.3169
 3389SOL     OW21802   3.080   0.361   1.967  0.2601  0.2333 -0.6887
 3389SOL    HW121803   3.139   0.340   2.039  0.4679  0.9000 -0.6677
 3389SOL    HW221804   3.131   0.431   1.925  2.0828 -1.7004 -1.7096
 3390SOL     OW21805   0.911   3.986   4.976 -0.5115 -0.5968 -0.0594
 3390SOL    HW121806   0.930   3.901   4.937  0.1678 -0.8131  0.7532
 3390SOL    HW221807   0.920   3.974   5.070 -0.1553 -3.0424 -0.4135
 3391SOL     OW21808   4.442   0.541   1.688 -0.2075 -0.2920  0.1172
 3391SOL    HW121809   4.471   0.460   1.732  2.5272  1.6642  1.9513
 3391SOL    HW221810   4.506   0.565   1.621 -3.3378  0.5877 -2.5290
 3392SOL     OW21811   2.868   3.251   3.889  0.0873 -0.3539 -0.0772
 3392SOL    HW121812   2.858   3.327   3.832  1.0999 -0.0834  0.1026
 3392SOL    HW221813   2.804   3.190   3.853  0.2287 -0.1215 -0.7263
 3393SOL     OW21814   3.859   3.526   9.394 -0.2422  0.0061  0.6344
 3393SOL    HW121815   3.888   3.582   9.467 -1.8190 -0.1056  1.3582
 3393SOL    HW221816   3.862   3.587   9.321  1.5765 -0.4521  0.3132
 3394SOL     OW21817   0.087   4.211   8.616 -0.0333 -0.2253  0.5747
 3394SOL    HW121818   0.152   4.273   8.583 -0.3550 -0.3630 -0.3101
 3394SOL    HW221819   0.005   4.259   8.604  1.2758  1.4937 -1.4199
 3395SOL     OW21820   0.772   3.524   3.915 -0.2752  0.4252 -0.3516
 3395SOL    HW121821   0.853   3.482   3.885 -0.1245 -0.4671  1.3350
 3395SOL    HW221822   0.797   3.561   3.999 -0.7645 -2.7239  1.1627
 3396SOL     OW21823   0.402   3.457   7.162  0.2744 -0.6904 -0.4370
 3396SOL    HW121824   0.325   3.418   7.203  0.0689 -0.3483 -0.5051
 3396SOL    HW221825   0.375   3.453   7.071 -0.7516  0.4885 -0.1872
 3397SOL     OW21826   0.345   0.679   7.916 -0.3493 -0.2807 -0.5295
 3397SOL    HW121827   0.328   0.623   7.991 -0.6887 -0.5147 -0.7820
 3397SOL    HW221828   0.429   0.648   7.882 -0.0494  2.1170 -1.9878
 3398SOL     OW21829   1.316   4.283  13.849  0.3106 -0.0352  0.1701
 3398SOL    HW121830   1.227   4.278  13.815  0.5069 -2.5408  0.0717
 3398SOL    HW221831   1.303   4.223  13.922 -2.4085 -1.7663 -1.7490
 3399SOL     OW21832   1.756   4.675   1.921  0.4355 -0.2392  0.0657
 3399SOL    HW121833   1.804   4.706   1.844 -1.7920  1.0890 -0.8047
 3399SOL    HW221834   1.714   4.591   1.903 -0.6436 -0.0471  1.6943
 3400SOL     OW21835   2.870   1.823  16.575 -0.6461 -0.0177  0.9519
 3400SOL    HW121836   2.919   1.896  16.537 -1.3332 -0.4625 -0.8073
 3400SOL    HW221837   2.926   1.771  16.632 -0.1879 -0.2657  0.2735
 3401SOL     OW21838   1.952   3.246   1.869 -0.2781  0.2587 -0.1971
 3401SOL    HW121839   1.970   3.319   1.928 -4.0896  0.0975  1.2157
 3401SOL    HW221840   1.928   3.293   1.789  1.2932  1.3388 -0.0230
 3402SOL     OW21841   1.729   2.294   6.207  0.0340  0.0636 -0.2244
 3402SOL    HW121842   1.719   2.389   6.210  1.6035  0.2862 -1.7107
 3402SOL    HW221843   1.735   2.270   6.300  0.8450  2.0272  0.2300
 3403SOL     OW21844   0.991   3.638   8.344 -0.8466 -0.4427  0.2301
 3403SOL    HW121845   0.980   3.732   8.327 -2.3700 -0.3209  1.9950
 3403SOL    HW221846   0.912   3.600   8.306 -0.1510 -0.4827 -1.2198
 3404SOL     OW21847   2.362   1.284   6.937 -0.4333  0.2410 -0.2433
 3404SOL    HW121848   2.410   1.247   6.862  1.3853  0.7596  0.6703
 3404SOL    HW221849   2.304   1.213   6.965 -1.5261  1.3725  0.3404
 3405SOL     OW21850   1.949   3.815   0.558 -0.6251  0.6108  0.2980
 3405SOL    HW121851   1.859   3.791   0.535 -0.7313  0.5480  0.7717
 3405SOL    HW221852   1.992   3.806   0.473  1.6515  0.4704  1.4804
 3406SOL     OW21853   0.902   1.387   7.065 -0.6661 -0.1144 -0.8565
 3406SOL    HW121854   0.908   1.353   7.154 -1.9056  0.2732 -0.6383
 3406SOL    HW221855   0.961   1.462   7.064  0.2384 -0.7967  1.4778
 3407SOL     OW21856   3.524   0.964   9.033  0.3541  0.0395  0.1071
 3407SOL    HW121857   3.472   0.926   8.962 -1.0114  0.7925  0.6964
 3407SOL    HW221858   3.527   1.054   8.999 -0.0645  0.4424  1.1447
 3408SOL     OW21859   0.900   0.349   3.741  0.6099 -0.3601  0.2138
 3408SOL    HW121860   0.838   0.285   3.706 -1.3923  1.0770  1.1674
 3408SOL    HW221861   0.874   0.343   3.833 -0.6211 -2.4866 -0.2653
 3409SOL     OW21862   2.687   4.145  15.251 -0.0905  0.6977 -0.1403
 3409SOL    HW121863   2.658   4.211  15.187  2.3534  1.8489 -0.0664
 3409SOL    HW221864   2.782   4.155  15.254 -0.2119  1.8178 -0.0168
 3410SOL     OW21865   1.001   1.626   3.219 -0.0327 -0.6873  0.4225
 3410SOL    HW121866   1.080   1.621   3.165  0.5377  0.0805  1.1889
 3410SOL    HW221867   1.027   1.586   3.302 -1.2864  0.4856  1.3728
 3411SOL     OW21868   4.233   3.574   8.661 -0.0466 -0.2894  0.4458
 3411SOL    HW121869   4.161   3.543   8.606  0.3849  0.3922 -0.5015
 3411SOL    HW221870   4.188   3.561   8.745 -1.1468  2.2890  0.2556
 3412SOL     OW21871   3.795   2.863   2.358  0.1254 -0.2169  0.0333
 3412SOL    HW121872   3.846   2.786   2.383 -1.7391 -1.0301  1.3215
 3412SOL    HW221873   3.717   2.865   2.414 -0.1097 -2.1254 -0.2111
 3413SOL     OW21874   1.044   0.536   5.531 -0.5469  0.3546 -0.5583
 3413SOL    HW121875   1.009   0.614   5.489  0.7169  1.7644  1.0157
 3413SOL    HW221876   0.967   0.485   5.509  0.2482 -1.1051  0.0172
 3414SOL     OW21877   3.191   2.606   8.040  0.0887  0.2074 -0.0450
 3414SOL    HW121878   3.260   2.585   8.103  0.0596  0.5282  0.0936
 3414SOL    HW221879   3.181   2.696   8.068  0.0743  0.2099 -0.0582
 3415SOL     OW21880   4.703   3.773   7.949  0.1318  0.5993 -0.3117
 3415SOL    HW121881   4.675   3.864   7.960  0.0053  0.3054  1.6683
 3415SOL    HW221882   0.054   3.780   7.990 -0.9203  0.5659  1.8882
 3416SOL     OW21883   2.692   1.707   2.362  0.1881 -0.1286  0.1646
 3416SOL    HW121884   2.729   1.632   2.409 -0.3066 -1.0465 -0.8999
 3416SOL    HW221885   2.697   1.768   2.435 -1.2535 -0.9587  0.9617
 3417SOL     OW21886   3.369   0.989   3.989 -0.2881 -0.1338  0.5888
 3417SOL    HW121887   3.359   1.084   3.994  1.2973  0.0739 -0.1271
 3417SOL    HW221888   3.404   0.985   3.900 -1.4405 -0.9005  0.1732
 3418SOL     OW21889   4.329   0.592   6.974 -0.2473 -0.5724 -0.1290
 3418SOL    HW121890   4.246   0.606   6.928 -0.0491 -1.9522 -0.8758
 3418SOL    HW221891   4.346   0.498   6.971 -0.5811 -0.6464  0.2418
 3419SOL     OW21892   4.601   0.289   5.650 -0.6259  0.1345  0.3173
 3419SOL    HW121893   4.669   0.263   5.713  0.3690  1.7686 -0.0862
 3419SOL    HW221894   4.640   0.368   5.613  0.6855 -0.9987 -0.6898
 3420SOL     OW21895   4.469   0.230   2.737  0.0194  0.0767 -0.1244
 3420SOL    HW121896   4.535   0.227   2.806 -1.3266  1.0019  1.2090
 3420SOL    HW221897   4.445   0.323   2.742 -1.6313 -0.3563  0.1903
 3421SOL     OW21898   3.052   0.378   0.039  0.2702  0.1235 -0.1151
 3421SOL    HW121899   3.072   0.413   0.126  1.7290  1.1340 -0.8493
 3421SOL    HW221900   3.035   0.456  17.727 -2.1567  0.4166  1.0550
 3422SOL     OW21901   1.925   0.580   2.063  0.2926  0.1698  0.2408
 3422SOL    HW121902   1.910   0.666   2.101 -1.4782 -0.0310 -0.0054
 3422SOL    HW221903   1.840   0.542   2.087 -0.0063 -0.0923 -1.2130
 3423SOL     OW21904   3.420   0.380   1.621 -0.9005 -0.1092  0.4249
 3423SOL    HW121905   3.376   0.334   1.549  0.8555 -0.7682 -0.2211
 3423SOL    HW221906   3.463   0.452   1.574 -0.3081 -1.0252 -0.4333
 3424SOL     OW21907   2.993   0.257   7.429  0.4353 -0.0460  0.1706
 3424SOL    HW121908   2.963   0.174   7.391  0.2706  0.4746 -0.8391
 3424SOL    HW221909   2.918   0.315   7.434 -0.4482 -1.1045 -0.8408
 3425SOL     OW21910   2.489   0.642   7.610  0.8600  0.4306 -0.0560
 3425SOL    HW121911   2.396   0.662   7.598  1.0214  1.1411 -0.1075
 3425SOL    HW221912   2.504   0.606   7.523 -0.4380 -1.4840  0.5118
 3426SOL     OW21913   0.059   3.204   6.705 -0.4485 -0.1419 -0.0905
 3426SOL    HW121914   0.101   3.269   6.762  1.0956 -1.8023  0.6617
 3426SOL    HW221915   4.709   3.245   6.718  0.3827  1.5205  0.1728
 3427SOL     OW21916   4.381   2.383   6.330  0.2763  0.1801  0.0985
 3427SOL    HW121917   4.307   2.380   6.391 -0.7413 -1.6315 -1.2626
 3427SOL    HW221918   4.361   2.454   6.269  0.2969 -0.4349 -0.6272
 3428SOL     OW21919   3.961   1.454   2.474 -0.1424 -0.0064 -0.0382
 3428SOL    HW121920   4.055   1.467   2.465  0.1228 -1.0259  1.1793
 3428SOL    HW221921   3.951   1.474   2.567  0.7578 -2.5503  0.6038
 3429SOL     OW21922   1.233   0.499  14.681 -0.1855 -0.0152 -0.3358
 3429SOL    HW121923   1.298   0.481  14.612 -0.4924  1.5106 -1.0065
 3429SOL    HW221924   1.154   0.525  14.635 -1.5121 -1.8365  0.9071
 3430SOL     OW21925   2.067   3.450   2.001  0.2838 -0.0729  0.0900
 3430SOL    HW121926   2.065   3.504   1.923 -2.5062  0.3121  0.4331
 3430SOL    HW221927   2.139   3.489   2.051  0.5862  0.9884 -1.1809
 3431SOL     OW21928   2.614   2.036  12.616 -0.2347  0.0793  0.1585
 3431SOL    HW121929   2.557   1.990  12.554 -0.7883 -0.1809  0.8493
 3431SOL    HW221930   2.613   2.126  12.585  1.3545 -0.0379 -0.2423
 3432SOL     OW21931   2.939   0.377   9.103  0.4487  0.1510  0.8112
 3432SOL    HW121932   2.955   0.465   9.070 -1.6084 -0.1796 -1.0646
 3432SOL    HW221933   3.023   0.334   9.085 -0.4318 -2.1828  2.2375
 3433SOL     OW21934   2.228   1.895   2.107 -0.0978 -0.8410  0.2056
 3433SOL    HW121935   2.213   1.979   2.150  0.2935 -0.0862 -1.1500
 3433SOL    HW221936   2.141   1.856   2.113 -0.8754  0.6666 -1.1201
 3434SOL     OW21937   2.081   2.225  17.054  0.2310 -0.0946 -0.8770
 3434SOL    HW121938   1.993   2.217  17.091  0.0331  0.7694 -1.1517
 3434SOL    HW221939   2.133   2.239  17.133  0.0663 -1.1385 -0.5785
 3435SOL     OW21940   3.333   4.389   7.468  0.4325  0.5620  0.0916
 3435SOL    HW121941   3.266   4.401   7.535  2.9546 -0.5210  2.8290
 3435SOL    HW221942   3.311   4.306   7.426  1.0814  0.5988 -0.3137
 3436SOL     OW21943   0.309   4.520   1.483 -0.1796 -0.0300 -0.0912
 3436SOL    HW121944   0.282   4.516   1.391 -0.5548  0.9443 -0.0288
 3436SOL    HW221945   0.231   4.564   1.516  1.4340  0.9781  2.3857
 3437SOL     OW21946   1.544   1.774   7.637 -0.3244 -0.3847 -0.2976
 3437SOL    HW121947   1.475   1.806   7.695  0.7496 -0.9031  1.2398
 3437SOL    HW221948   1.607   1.731   7.694 -1.1024 -0.1992  0.6991
 3438SOL     OW21949   4.403   2.064  12.844  0.1898 -0.3193  0.2809
 3438SOL    HW121950   4.309   2.046  12.847 -0.0881  0.8169 -1.1824
 3438SOL    HW221951   4.408   2.060  12.748 -0.1314 -0.8805  0.2896
 3439SOL     OW21952   1.142   2.199   7.435 -0.0913  0.3385  0.1218
 3439SOL    HW121953   1.235   2.211   7.452 -0.3984  1.5258  0.9930
 3439SOL    HW221954   1.100   2.208   7.521  0.4345  2.0127  0.2115
 3440SOL     OW21955   3.632   2.070   4.770  0.0562  0.3259 -0.3786
 3440SOL    HW121956   3.721   2.046   4.746  0.2894  0.5133  0.3185
 3440SOL    HW221957   3.648   2.138   4.834 -1.3359  0.2158  0.0813
 3441SOL     OW21958   4.257   0.486  15.641 -0.5319  0.2550 -0.1166
 3441SOL    HW121959   4.348   0.513  15.631 -0.3889  0.4633  1.6679
 3441SOL    HW221960   4.218   0.521  15.562  0.3667 -0.1151 -0.7223
 3442SOL     OW21961   1.412   4.296  10.431  0.5212 -0.0710  0.1496
 3442SOL    HW121962   1.453   4.288  10.517  0.7572 -3.5191 -0.3111
 3442SOL    HW221963   1.412   4.205  10.404 -0.2264 -0.1932  0.5439
 3443SOL     OW21964   3.789   0.840   6.672 -0.3805  0.2149  0.3860
 3443SOL    HW121965   3.796   0.927   6.632  0.6473 -0.2223 -0.3810
 3443SOL    HW221966   3.720   0.804   6.617 -0.1794  2.2802 -1.2015
 3444SOL     OW21967   2.275   1.912   2.800 -0.1267 -0.3827  0.4600
 3444SOL    HW121968   2.252   1.977   2.866 -4.2476 -1.4729  0.0847
 3444SOL    HW221969   2.349   1.953   2.755  0.7462 -0.7524  1.5526
 3445SOL     OW21970   2.146   4.428   3.203  0.0286  0.1990  0.3216
 3445SOL    HW121971   2.116   4.388   3.285  0.9765  0.0839  0.6162
 3445SOL    HW221972   2.074   4.484   3.177 -2.3137 -1.0955  3.9969
 3446SOL     OW21973   2.090   0.273  15.127 -0.1416 -0.2928 -0.2488
 3446SOL    HW121974   2.147   0.200  15.148  2.2501  1.1002 -1.9747
 3446SOL    HW221975   2.146   0.344  15.096 -0.1639 -0.0260  0.3157
 3447SOL     OW21976   0.528   4.072   4.964 -0.0798 -0.3220  0.6022
 3447SOL    HW121977   0.521   4.167   4.969  2.2737 -0.1091 -0.0051
 3447SOL    HW221978   0.534   4.065   5.060 -1.1609 -2.8757  0.4891
 3448SOL     OW21979   3.518   0.236   1.858  0.0850 -0.3144 -0.4740
 3448SOL    HW121980   3.502   0.324   1.823  0.9046 -0.0812 -0.2620
 3448SOL    HW221981   3.584   0.264   1.921  1.0826 -1.9147 -0.8051
 3449SOL     OW21982   1.142   3.965  13.846  0.3384 -0.2563 -0.3776
 3449SOL    HW121983   1.054   3.977  13.810  1.8241  1.8526 -3.2920
 3449SOL    HW221984   1.196   3.956  13.768  0.6422  2.4175 -0.4663
 3450SOL     OW21985   4.590   3.836   8.528 -0.3263 -0.5045  0.0624
 3450SOL    HW121986   4.538   3.908   8.564  0.0224 -0.6899  0.9459
 3450SOL    HW221987   4.587   3.765   8.592 -0.1336 -0.6623 -0.1072
 3451SOL     OW21988   3.134   3.264  12.996 -0.6211  1.0016 -0.9113
 3451SOL    HW121989   3.131   3.344  13.048  1.9911  1.0669 -0.8915
 3451SOL    HW221990   3.080   3.286  12.920  1.4521  3.2789 -1.6987
 3452SOL     OW21991   4.435   0.751   2.032 -0.2530 -0.5821 -0.2197
 3452SOL    HW121992   4.431   0.799   1.950  3.2973  1.6243  0.9124
 3452SOL    HW221993   4.525   0.778   2.050 -0.7116  0.5236  0.3620
 3453SOL     OW21994   4.515   1.094   2.401  0.4486  0.3777  0.5325
 3453SOL    HW121995   4.468   1.017   2.369  0.2135  1.4586 -1.6981
 3453SOL    HW221996   4.493   1.092   2.495  2.7368 -1.9204  1.0357
 3454SOL     OW21997   2.496   4.223   0.777 -0.2198  1.0083 -0.1412
 3454SOL    HW121998   2.403   4.236   0.761 -0.1512  0.4807 -1.0021
 3454SOL    HW221999   2.504   4.262   0.864  1.0389  1.1443 -0.3059
 3455SOL     OW22000   3.660   0.957   3.276  0.2011  0.8334  0.0462
 3455SOL    HW122001   3.749   0.938   3.247 -1.1402  0.6949 -3.9392
 3455SOL    HW222002   3.626   0.867   3.278  2.7292 -0.1323 -1.5446
 3456SOL     OW22003   3.275   1.191   7.518 -0.1788 -0.9578 -0.2263
 3456SOL    HW122004   3.192   1.146   7.537 -2.2478  2.4489 -1.2208
 3456SOL    HW222005   3.272   1.265   7.578  1.1060  0.4342 -1.8770
 3457SOL     OW22006   2.866   0.923   6.769 -0.0398 -0.3933 -0.0480
 3457SOL    HW122007   2.922   0.949   6.697 -0.5798  0.0896 -0.2949
 3457SOL    HW222008   2.881   0.992   6.834  0.0576  0.0773 -0.5687
 3458SOL     OW22009   4.480   1.163  10.545 -0.4031  0.1775  0.1559
 3458SOL    HW122010   4.437   1.120  10.471  1.0648 -0.0441 -0.5723
 3458SOL    HW222011   4.509   1.243  10.502 -0.0819 -0.0757 -0.0953
 3459SOL     OW22012   1.748   1.016  13.865  0.0141  0.2801  0.2878
 3459SOL    HW122013   1.691   1.038  13.791 -0.9961 -3.0293  0.0888
 3459SOL    HW222014   1.721   0.924  13.872 -0.7466  0.5830  1.5305
 3460SOL     OW22015   0.025   2.802   6.534  0.1110 -0.1374  0.4123
 3460SOL    HW122016   4.678   2.753   6.533 -0.7899  1.4071 -1.3893
 3460SOL    HW222017   0.063   2.788   6.447  0.0933  2.1539  0.0346
 3461SOL     OW22018   2.428   0.141   6.315  0.1445 -0.0252  0.3373
 3461SOL    HW122019   2.412   0.099   6.230 -0.0872  3.8500 -1.5279
 3461SOL    HW222020   2.506   0.091   6.335  1.2099  1.2284 -0.7005
 3462SOL     OW22021   1.403   1.618   9.097 -0.2185 -0.2894 -0.3878
 3462SOL    HW122022   1.436   1.666   9.021  1.4726 -1.3857 -0.3490
 3462SOL    HW222023   1.311   1.627   9.071 -0.5957 -3.6727 -0.2026
 3463SOL     OW22024   1.758   2.983  10.344 -0.0958  0.0698  0.3852
 3463SOL    HW122025   1.823   2.987  10.274  2.7369  2.1140  3.1201
 3463SOL    HW222026   1.697   3.055  10.326 -0.0283  0.4043  1.4526
 3464SOL     OW22027   2.500   3.926   6.206  0.0512  0.1808 -0.7111
 3464SOL    HW122028   2.520   3.990   6.274  0.9937 -2.0361  1.0951
 3464SOL    HW222029   2.412   3.959   6.187  0.7578  2.2727 -0.4264
 3465SOL     OW22030   3.357   0.458   7.608 -0.5468 -0.4876  0.0282
 3465SOL    HW122031   3.341   0.379   7.556  0.0095  0.2713 -1.2990
 3465SOL    HW222032   3.437   0.433   7.653 -1.0694 -0.6455  0.8760
 3466SOL     OW22033   2.727   2.984  13.103  0.5062  0.3941  0.2293
 3466SOL    HW122034   2.764   3.069  13.127 -0.6780  1.2656 -1.0703
 3466SOL    HW222035   2.807   2.935  13.084  0.6901  1.0985 -0.8084
 3467SOL     OW22036   1.479   0.615   0.771 -0.1448 -0.6196 -0.4765
 3467SOL    HW122037   1.490   0.575   0.685 -0.2750 -0.1716 -0.6966
 3467SOL    HW222038   1.419   0.688   0.758 -3.1281 -2.6537  1.8075
 3468SOL     OW22039   3.902   3.613   3.935 -0.0257  0.6337  0.2880
 3468SOL    HW122040   3.954   3.533   3.944 -1.6818 -0.3154  1.5481
 3468SOL    HW222041   3.840   3.607   4.008 -1.5771 -1.5472 -1.2295
 3469SOL     OW22042   2.717   1.698   7.202 -0.7854 -0.4673  0.4698
 3469SOL    HW122043   2.739   1.705   7.295  2.5831  2.9419 -0.5940
 3469SOL    HW222044   2.733   1.784   7.163 -2.3075 -0.5333 -0.2980
 3470SOL     OW22045   4.153   1.198   5.588  0.0902 -0.4296  0.0310
 3470SOL    HW122046   4.191   1.200   5.676  1.2487  1.5097 -0.4940
 3470SOL    HW222047   4.138   1.290   5.567  0.8581 -0.5475 -1.0536
 3471SOL     OW22048   1.747   2.119   7.643  0.3466 -0.2869  0.0769
 3471SOL    HW122049   1.714   2.072   7.566  1.0663 -0.9646  0.1889
 3471SOL    HW222050   1.670   2.158   7.685  0.1170  0.1651 -0.7461
 3472SOL     OW22051   4.491   1.479  16.160 -0.2868  0.5127  0.3431
 3472SOL    HW122052   4.451   1.548  16.214 -2.0918 -0.2998  0.0537
 3472SOL    HW222053   4.417   1.464  16.100 -0.7088 -1.1537  1.2667
 3473SOL     OW22054   4.064   4.188   1.337  0.0877 -0.1737 -0.0424
 3473SOL    HW122055   4.013   4.129   1.393  0.2829  0.7385  1.0893
 3473SOL    HW222056   3.998   4.224   1.278 -0.2480  1.6449  1.4421
 3474SOL     OW22057   2.792   2.170   7.610  0.5446  0.6991 -0.5251
 3474SOL    HW122058   2.887   2.163   7.620  0.2103 -2.6801  0.2880
 3474SOL    HW222059   2.787   2.229   7.535 -0.1426  1.0944 -0.1654
 3475SOL     OW22060   4.095   4.538   8.073 -0.0194  0.8473 -0.1548
 3475SOL    HW122061   4.037   4.490   8.014 -1.2530  0.8474  1.0547
 3475SOL    HW222062   4.045   4.620   8.079 -0.2182  0.8557 -1.9671
 3476SOL     OW22063   2.795   2.845   8.137  0.8843  0.2933  0.0808
 3476SOL    HW122064   2.736   2.824   8.210 -0.5279 -1.7187 -1.6407
 3476SOL    HW222065   2.822   2.934   8.162 -1.0108  1.2510 -1.2869
 3477SOL     OW22066   0.670   1.555   8.395  0.2236  0.1275  0.7516
 3477SOL    HW122067   0.756   1.529   8.428  0.6107  0.5325  0.0542
 3477SOL    HW222068   0.692   1.545   8.303 -1.5295  1.0326  0.2487
 3478SOL     OW22069   3.018   3.617   9.201  0.4757  0.4665 -0.1528
 3478SOL    HW122070   2.980   3.695   9.242 -0.1663 -0.9132  1.8571
 3478SOL    HW222071   2.939   3.568   9.182 -1.4603  3.9691 -1.1296
 3479SOL     OW22072   3.518   4.178   4.362 -0.2444 -0.3735 -0.3464
 3479SOL    HW122073   3.606   4.169   4.400 -0.5031 -2.3314 -0.1872
 3479SOL    HW222074   3.470   4.104   4.399 -3.5991  1.5658 -0.9004
 3480SOL     OW22075   4.420   2.943   3.284 -0.5078 -0.0497 -0.1535
 3480SOL    HW122076   4.461   3.029   3.287  2.8753 -1.6512 -0.9042
 3480SOL    HW222077   4.463   2.903   3.359 -0.1713 -0.5378 -0.6075
 3481SOL     OW22078   4.258   4.376   2.921 -0.0768 -0.6535  0.4114
 3481SOL    HW122079   4.347   4.370   2.957  0.7408  0.7155 -1.3901
 3481SOL    HW222080   4.257   4.319   2.844 -1.9526 -1.6586  1.1920
 3482SOL     OW22081   1.710   1.015  10.570  0.2959 -0.3028  0.1462
 3482SOL    HW122082   1.651   0.997  10.497 -0.2695 -0.0395  0.5334
 3482SOL    HW222083   1.765   1.081  10.529  0.6826 -0.6024  0.1823
 3483SOL     OW22084   1.740   0.098   0.621  0.3581  0.3023 -0.4894
 3483SOL    HW122085   1.815   0.105   0.680 -0.1198  0.7372  0.0628
 3483SOL    HW222086   1.680   0.159   0.665 -0.1105 -1.1976  0.9475
 3484SOL     OW22087   2.588   3.208   1.720  0.0295  0.5307  0.3154
 3484SOL    HW122088   2.534   3.150   1.665 -1.6344  3.2565 -0.9360
 3484SOL    HW222089   2.546   3.293   1.709 -1.3780 -0.1991 -0.0266
 3485SOL     OW22090   4.718   0.091   8.285  0.4741  0.1741 -0.4367
 3485SOL    HW122091   0.059   0.096   8.342  1.6413  2.8542 -2.2105
 3485SOL    HW222092   4.706   0.184   8.265  0.7303  0.4563  0.7609
 3486SOL     OW22093   0.681   0.840   7.151  0.5333 -0.3048 -0.0158
 3486SOL    HW122094   0.679   0.874   7.061 -0.5110 -0.1878  0.0577
 3486SOL    HW222095   0.714   0.751   7.136  1.6808  0.2942 -1.1129
 3487SOL     OW22096   2.534   3.024   3.524 -0.2244 -0.0424 -0.1011
 3487SOL    HW122097   2.459   3.050   3.470 -0.2510  1.8734  0.8259
 3487SOL    HW222098   2.487   3.025   3.608 -1.5588 -2.0317 -0.8384
 3488SOL     OW22099   3.677   4.429   9.960 -0.0472  0.0488 -0.0265
 3488SOL    HW122100   3.758   4.380   9.946  1.4242  2.4838  0.0611
 3488SOL    HW222101   3.648   4.448   9.871 -0.2279 -2.0631 -0.4142
 3489SOL     OW22102   0.467   0.049   5.779  0.2129 -0.4366 -0.2019
 3489SOL    HW122103   0.454   0.096   5.697 -2.0677  0.6431  0.7542
 3489SOL    HW222104   0.474   4.693   5.754 -1.7474 -0.6888  0.1332
 3490SOL     OW22105   2.742   2.611  15.890 -0.3347  0.1681 -0.1784
 3490SOL    HW122106   2.654   2.631  15.923 -0.8083  1.2807 -2.1638
 3490SOL    HW222107   2.740   2.658  15.807 -2.2929  0.5095  0.0675
 3491SOL     OW22108   4.386   4.065   5.399 -0.2222 -0.2951 -0.1594
 3491SOL    HW122109   4.481   4.069   5.392 -0.1055 -1.8370  0.5146
 3491SOL    HW222110   4.387   4.003   5.473 -0.1062  0.6418  0.6285
 3492SOL     OW22111   1.498   0.843   4.359  0.1605 -0.4882 -0.0154
 3492SOL    HW122112   1.542   0.926   4.377 -1.4738 -0.0768  2.0489
 3492SOL    HW222113   1.546   0.794   4.425 -0.7643  1.6104  2.2089
 3493SOL     OW22114   0.054   4.066   9.205  0.0514 -0.4012  1.0302
 3493SOL    HW122115   4.710   4.120   9.203  3.1207  3.9427 -2.1520
 3493SOL    HW222116   0.118   4.128   9.239 -1.0707  0.0415  2.3316
 3494SOL     OW22117   3.447   3.257  13.880  0.2105 -0.6788  0.1279
 3494SOL    HW122118   3.474   3.168  13.857  0.9205 -0.3619 -0.2613
 3494SOL    HW222119   3.388   3.241  13.954  0.6137 -0.2895  0.5409
 3495SOL     OW22120   1.494   3.622   3.157 -0.3784 -0.6053 -0.1063
 3495SOL    HW122121   1.406   3.623   3.122 -0.3534 -3.0845 -0.2169
 3495SOL    HW222122   1.530   3.565   3.089  1.3310 -0.5342  0.7172
 3496SOL     OW22123   0.631   0.812   1.903  0.1452 -0.3365 -0.0582
 3496SOL    HW122124   0.620   0.768   1.987 -0.7899 -0.3619 -0.1874
 3496SOL    HW222125   0.606   0.737   1.850 -0.2949  0.7825 -1.4274
 3497SOL     OW22126   1.093   1.706  10.264  0.1711  0.4272 -0.1764
 3497SOL    HW122127   1.052   1.700  10.350  0.0573  2.5053 -0.0686
 3497SOL    HW222128   1.164   1.769  10.277 -1.5372  2.4989 -0.6775
 3498SOL     OW22129   3.059   2.333   1.830  0.3672 -0.1481  0.0094
 3498SOL    HW122130   3.128   2.268   1.816  1.1706  0.7786 -0.3230
 3498SOL    HW222131   3.012   2.306   1.909  0.3331 -1.3731 -0.4271
 3499SOL     OW22132   4.517   0.320  12.874  0.0589  0.7246  0.1819
 3499SOL    HW122133   4.453   0.343  12.807  0.2838 -0.5534 -0.4681
 3499SOL    HW222134   4.534   0.228  12.852  1.1052  1.4292 -1.8337
 3500SOL     OW22135   1.079   1.844   7.629 -0.4568  0.2258 -0.1835
 3500SOL    HW122136   1.004   1.903   7.641 -0.4127  0.2689 -0.1175
 3500SOL    HW222137   1.154   1.903   7.619 -1.0015  0.9052 -0.3206
 3501SOL     OW22138   0.801   4.487   5.958 -0.1897 -0.2686  0.1571
 3501SOL    HW122139   0.786   4.527   6.044  0.6862 -0.7499  0.5311
 3501SOL    HW222140   0.777   4.561   5.902  0.5423 -0.0256  0.1653
 3502SOL     OW22141   0.089   0.873   1.609 -0.3015 -0.5399  0.3455
 3502SOL    HW122142   0.053   0.897   1.695 -1.0184 -0.0609 -0.0990
 3502SOL    HW222143   0.171   0.828   1.632  1.0763  0.9758 -1.6245
 3503SOL     OW22144   1.256   0.323   9.978  0.6423  0.3190 -0.0858
 3503SOL    HW122145   1.329   0.281   9.932  1.1925  0.7562  0.3785
 3503SOL    HW222146   1.278   0.341  10.070 -1.6031  0.7937  0.3435
 3504SOL     OW22147   2.771   3.400   2.857  0.0730 -0.5213  0.1357
 3504SOL    HW122148   2.757   3.397   2.952  1.3807  2.4651  0.4126
 3504SOL    HW222149   2.742   3.486   2.829 -2.4869 -1.7002 -0.8634
 3505SOL     OW22150   1.726   3.353   1.700  0.7150  0.1534 -0.0766
 3505SOL    HW122151   1.649   3.301   1.676 -1.2988  2.5267  1.2288
 3505SOL    HW222152   1.731   3.401   1.617  0.9522  0.6122  0.2048
 3506SOL     OW22153   4.167   2.547   1.529 -0.2077  0.2073 -0.3238
 3506SOL    HW122154   4.165   2.491   1.607 -3.8754  0.1655 -0.4128
 3506SOL    HW222155   4.143   2.630   1.570  0.3133  0.7940 -1.2028
 3507SOL     OW22156   4.626   2.304  10.576 -0.1907  0.2101  0.2902
 3507SOL    HW122157   4.575   2.226  10.599 -0.4521  0.3430  0.1661
 3507SOL    HW222158   4.717   2.278  10.591 -0.8882 -1.7809  1.0152
 3508SOL     OW22159   1.085   2.020  11.069  0.2475  0.3450 -1.4030
 3508SOL    HW122160   1.143   2.055  11.137 -0.3327 -1.0961 -0.1637
 3508SOL    HW222161   1.132   1.940  11.048 -0.3493 -0.3605  0.0034
 3509SOL     OW22162   0.991   1.115   2.101 -0.0136 -0.1198  0.1389
 3509SOL    HW122163   0.955   1.027   2.086 -1.1046 -0.1912  3.0626
 3509SOL    HW222164   0.930   1.157   2.162  1.0947  3.0779 -0.9973
 3510SOL     OW22165   2.149   2.738  13.909  0.4284  0.4718  0.1918
 3510SOL    HW122166   2.213   2.687  13.958  0.7391 -0.3319 -1.0661
 3510SOL    HW222167   2.158   2.709  13.819  1.1979  1.2042  0.0284
 3511SOL     OW22168   2.644   2.344   2.723  0.2293  0.1143  0.8726
 3511SOL    HW122169   2.728   2.323   2.682  0.1933 -2.0089  1.8818
 3511SOL    HW222170   2.608   2.424   2.685 -2.5215 -1.1931  0.6890
 3512SOL     OW22171   2.732   1.499  16.278  0.4583 -0.3446 -0.0454
 3512SOL    HW122172   2.690   1.435  16.334  0.5294  0.0917  0.5059
 3512SOL    HW222173   2.660   1.524  16.219 -0.3604 -1.0829  0.6499
 3513SOL     OW22174   1.485   3.434   1.188  0.0888 -0.1710 -0.5247
 3513SOL    HW122175   1.568   3.387   1.177  1.1504  1.2706  1.4447
 3513SOL    HW222176   1.495   3.513   1.136  0.7224  1.9878  2.9120
 3514SOL     OW22177   0.585   0.240  16.227 -0.2474 -0.2185  0.6229
 3514SOL    HW122178   0.600   0.260  16.135 -1.9321  1.1782  0.6378
 3514SOL    HW222179   0.491   0.259  16.235 -0.0000  0.5973  1.6606
 3515SOL     OW22180   3.297   4.532   1.713 -0.1208  0.1844 -0.1111
 3515SOL    HW122181   3.343   4.456   1.748 -0.5180 -0.2505 -0.5341
 3515SOL    HW222182   3.209   4.496   1.703  0.0273 -0.1419 -0.2155
 3516SOL     OW22183   2.074   4.087  10.161  0.5409 -0.5215  0.0738
 3516SOL    HW122184   2.159   4.083  10.118 -0.2541  0.7481 -1.6308
 3516SOL    HW222185   2.069   4.181  10.180  0.0803 -0.4467 -0.3756
 3517SOL     OW22186   0.019   0.766  12.747 -0.1328  0.1616  0.3969
 3517SOL    HW122187   0.073   0.708  12.693 -0.4628  0.1024  0.1305
 3517SOL    HW222188   4.685   0.706  12.773 -2.3471  3.0324  0.9826
 3518SOL     OW22189   3.357   2.865  17.638  0.3354  0.3027 -0.0535
 3518SOL    HW122190   3.366   2.777  17.602 -3.5216  0.1632 -0.6383
 3518SOL    HW222191   3.279   2.843  17.690 -0.2755 -0.1768 -1.1732
 3519SOL     OW22192   1.652   1.235   7.471 -0.3342  0.0116  0.6153
 3519SOL    HW122193   1.745   1.241   7.451 -1.2261  0.9389 -3.3556
 3519SOL    HW222194   1.646   1.152   7.519 -1.3835  0.1608  0.7413
 3520SOL     OW22195   2.043   2.506   8.329 -0.0050 -0.3244 -0.0321
 3520SOL    HW122196   1.964   2.486   8.378  0.3735  1.2680  1.2124
 3520SOL    HW222197   2.033   2.436   8.264 -0.6854  1.6827 -2.0880
 3521SOL     OW22198   1.814   4.022   6.687 -0.4396 -0.0469 -0.2969
 3521SOL    HW122199   1.897   3.975   6.694  0.9382  2.4035 -0.0743
 3521SOL    HW222200   1.787   4.013   6.779  1.1517  0.5833  0.2381
 3522SOL     OW22201   1.596   0.951  15.051  0.2597  0.3716 -0.1221
 3522SOL    HW122202   1.505   0.920  15.050 -0.6391  3.0383 -1.2177
 3522SOL    HW222203   1.573   1.044  15.057  1.8894  0.6003  2.4125
 3523SOL     OW22204   0.516   2.392   5.512 -0.4378 -0.7733 -0.3744
 3523SOL    HW122205   0.533   2.370   5.603  0.8802 -1.1447 -0.7138
 3523SOL    HW222206   0.422   2.413   5.514 -0.6560 -2.0069  1.4994
 3524SOL     OW22207   2.638   1.041   0.497  0.7798  0.5536 -0.4071
 3524SOL    HW122208   2.635   1.133   0.522  0.8283  0.9646 -1.8789
 3524SOL    HW222209   2.544   1.028   0.487  0.6838  0.4661  0.6306
 3525SOL     OW22210   1.032   4.238   4.328 -0.1625 -0.2199 -0.1861
 3525SOL    HW122211   1.073   4.172   4.272 -0.0928  1.1479 -1.7283
 3525SOL    HW222212   1.078   4.223   4.411 -0.0025  0.4220 -0.1620
 3526SOL     OW22213   2.879   0.611   2.229  0.3765 -0.6049  0.5389
 3526SOL    HW122214   2.832   0.528   2.240  1.1341 -0.8993  1.6052
 3526SOL    HW222215   2.944   0.574   2.169  0.5521  1.1291 -0.3317
 3527SOL     OW22216   4.095   1.065   3.023 -0.1884 -0.7926 -0.2767
 3527SOL    HW122217   4.034   1.094   3.091 -2.6708  0.4614 -3.0509
 3527SOL    HW222218   4.160   1.009   3.066 -0.4620 -0.3219  0.7372
 3528SOL     OW22219   2.148   1.722   6.064 -0.0338 -0.6878  0.2766
 3528SOL    HW122220   2.151   1.812   6.095  0.0138 -0.1469 -1.3196
 3528SOL    HW222221   2.201   1.738   5.986 -0.9555  0.0687 -0.1867
 3529SOL     OW22222   2.708   1.552   3.098  0.2186  0.3571  0.2414
 3529SOL    HW122223   2.764   1.475   3.108 -0.1516  0.4697  3.1192
 3529SOL    HW222224   2.621   1.515   3.084  0.7334 -1.2920  1.4163
 3530SOL     OW22225   4.155   0.469   6.158  0.2315  0.0730 -0.5223
 3530SOL    HW122226   4.087   0.528   6.190 -0.3453 -2.0018  2.0702
 3530SOL    HW222227   4.117   0.453   6.072 -1.5704 -0.6369  0.3909
 3531SOL     OW22228   4.362   1.378   3.463 -0.3183  0.1604 -0.6096
 3531SOL    HW122229   4.438   1.374   3.405  0.7603  3.4702  0.6285
 3531SOL    HW222230   4.293   1.361   3.399 -1.4731 -2.6870  1.3661
 3532SOL     OW22231   3.717   1.885  15.238 -0.0181  0.1687 -0.3397
 3532SOL    HW122232   3.774   1.960  15.221 -0.3768  0.8028  1.3427
 3532SOL    HW222233   3.667   1.909  15.316 -2.3262  0.5544 -1.9284
 3533SOL     OW22234   0.403   1.012   4.612 -0.0007 -0.1889  0.1549
 3533SOL    HW122235   0.321   0.974   4.642 -1.7205  1.9804 -1.7697
 3533SOL    HW222236   0.379   1.056   4.530 -0.4433  1.0163  0.9387
 3534SOL     OW22237   0.966   0.319  15.450  0.1398 -0.0529  0.3596
 3534SOL    HW122238   0.900   0.363  15.504 -0.9246 -0.3313 -0.7168
 3534SOL    HW222239   0.959   0.390  15.385 -0.6917  0.1576  0.6822
 3535SOL     OW22240   1.647   4.714   2.948 -0.4197 -0.2949  0.5735
 3535SOL    HW122241   1.583   4.710   2.878 -0.4606 -1.4825  0.6668
 3535SOL    HW222242   1.666   4.620   2.954 -2.5010 -1.0632 -4.7720
 3536SOL     OW22243   1.873   2.132   5.051  0.4291 -0.0839  0.2016
 3536SOL    HW122244   1.817   2.210   5.046 -1.8133 -1.7803 -1.1962
 3536SOL    HW222245   1.812   2.062   5.028 -0.1752  0.3290  0.5369
 3537SOL     OW22246   1.929   1.034   9.663 -0.0160 -0.3977 -0.2808
 3537SOL    HW122247   1.906   1.034   9.571  0.2954  0.0840 -0.3544
 3537SOL    HW222248   1.868   0.965   9.689 -1.6031  1.8400  1.8534
 3538SOL     OW22249   1.132   1.903   5.907  0.0801 -0.5666 -0.0594
 3538SOL    HW122250   1.188   1.902   5.829 -1.2760 -1.3362 -1.0146
 3538SOL    HW222251   1.179   1.957   5.970  1.2045 -1.1295 -0.4117
 3539SOL     OW22252   0.084   0.201   2.813  0.5464  0.0526 -1.1229
 3539SOL    HW122253   0.104   0.274   2.754  2.4979  0.6526  0.2426
 3539SOL    HW222254   0.007   0.238   2.854 -0.3476 -1.0533 -1.8049
 3540SOL     OW22255   3.005   4.700   3.770  0.0008  0.1601 -0.4278
 3540SOL    HW122256   2.954   0.013   3.835  0.3175 -1.0972  0.7595
 3540SOL    HW222257   2.993   0.021   3.694 -0.2154  0.1337 -0.4112
 3541SOL     OW22258   0.772   3.249   8.863 -0.3559 -0.3124 -0.3084
 3541SOL    HW122259   0.855   3.205   8.848 -0.9643 -1.4084 -0.4796
 3541SOL    HW222260   0.713   3.174   8.874 -0.6141  0.1856  1.6529
 3542SOL     OW22261   0.898   0.890   4.524 -0.1364  0.1977  0.2114
 3542SOL    HW122262   0.818   0.938   4.544 -0.4806 -0.1043 -0.4327
 3542SOL    HW222263   0.897   0.882   4.429  1.9303 -3.6009  0.4999
 3543SOL     OW22264   3.558   1.818   3.282 -0.1908 -0.5350  0.5989
 3543SOL    HW122265   3.497   1.816   3.209 -1.3490  2.0427  1.5115
 3543SOL    HW222266   3.606   1.736   3.266  0.0259 -1.1663  4.5674
 3544SOL     OW22267   1.765   4.166   3.681  0.0389  0.2397 -0.3506
 3544SOL    HW122268   1.795   4.190   3.593 -3.3249  0.1318 -1.5233
 3544SOL    HW222269   1.836   4.202   3.734 -0.7513  1.2315  0.0393
 3545SOL     OW22270   4.479   0.450   4.776 -0.3365  0.3859  0.2132
 3545SOL    HW122271   4.418   0.523   4.764 -0.1593  0.8591  2.2280
 3545SOL    HW222272   4.524   0.489   4.851 -0.8494  2.2985 -0.4898
 3546SOL     OW22273   4.175   3.243  12.329 -0.3396 -0.2188 -0.2631
 3546SOL    HW122274   4.158   3.302  12.402 -0.7903  0.2978 -0.7876
 3546SOL    HW222275   4.134   3.300  12.264 -0.6449  2.3803  2.2369
 3547SOL     OW22276   3.783   3.579  13.053  0.5313  0.5374 -0.0798
 3547SOL    HW122277   3.809   3.671  13.047  0.2893  0.4656 -2.3068
 3547SOL    HW222278   3.814   3.555  12.966  1.5706 -0.6926  0.6262
 3548SOL     OW22279   0.739   0.200  14.453 -0.0122  0.9487  0.3132
 3548SOL    HW122280   0.741   0.134  14.384 -1.1091  0.6911  0.5267
 3548SOL    HW222281   0.803   0.156  14.509 -1.0027 -2.1593 -0.9803
 3549SOL     OW22282   0.153   3.531  11.795  0.0890  0.0863  0.5478
 3549SOL    HW122283   0.096   3.472  11.846  0.3148  1.8895  2.8984
 3549SOL    HW222284   0.178   3.600  11.857 -0.0375 -0.2059  0.9275
 3550SOL     OW22285   1.616   1.794   1.728 -0.7704 -0.1165 -0.0951
 3550SOL    HW122286   1.658   1.867   1.773  1.2277 -1.5525  0.4039
 3550SOL    HW222287   1.669   1.787   1.648  0.0666 -0.5118  0.4901
 3551SOL     OW22288   0.924   3.470   6.586 -0.1039 -0.2015 -0.5470
 3551SOL    HW122289   0.915   3.489   6.679  0.3201  1.8796 -0.9486
 3551SOL    HW222290   0.960   3.556   6.566 -1.0319  0.1101 -0.8712
 3552SOL     OW22291   0.431   1.882   2.771  0.3581 -0.2916 -0.1812
 3552SOL    HW122292   0.337   1.898   2.770  0.4272  0.1434  0.1052
 3552SOL    HW222293   0.455   1.949   2.835 -0.7011  0.6509 -0.7653
 3553SOL     OW22294   4.480   2.050   5.124  0.3419 -0.5100 -0.1173
 3553SOL    HW122295   4.459   2.090   5.039  1.6286  0.0657 -0.1529
 3553SOL    HW222296   4.574   2.054   5.135  0.2127 -3.9454  2.1059
 3554SOL     OW22297   1.451   1.125   1.998 -0.0987 -0.0985  0.3128
 3554SOL    HW122298   1.507   1.053   2.027 -1.6336 -1.9070 -1.1432
 3554SOL    HW222299   1.381   1.070   1.962 -2.0097  1.9838  0.8375
 3555SOL     OW22300   3.193   3.505   3.944 -0.3645 -0.1653 -0.4451
 3555SOL    HW122301   3.237   3.453   4.011 -0.0481 -1.3530 -1.5950
 3555SOL    HW222302   3.180   3.439   3.877 -1.8424 -0.0989 -0.2325
 3556SOL     OW22303   1.272   0.621   5.646 -0.5729  0.4151  0.2025
 3556SOL    HW122304   1.201   0.577   5.599 -1.1998  0.9694  0.6269
 3556SOL    HW222305   1.266   0.707   5.604  1.0287  0.2947 -0.2753
 3557SOL     OW22306   3.929   2.793   7.429 -0.1552 -0.0082  0.0325
 3557SOL    HW122307   4.002   2.763   7.484  1.1535  0.3978 -1.4632
 3557SOL    HW222308   3.953   2.886   7.430  0.2835 -0.1028 -1.1856
 3558SOL     OW22309   2.042   1.847   8.879  0.0266  0.4893  0.1732
 3558SOL    HW122310   2.107   1.869   8.945  1.1177 -0.0087 -0.7303
 3558SOL    HW222311   2.082   1.769   8.839  0.6086  2.2108 -2.6320
 3559SOL     OW22312   4.726   4.034   4.773 -1.1647 -0.7344  0.2237
 3559SOL    HW122313   4.667   4.096   4.729  1.9307  1.0377 -1.3619
 3559SOL    HW222314   4.733   4.066   4.863 -0.3951 -0.7717  0.1743
 3560SOL     OW22315   4.700   4.478   3.564 -0.0042 -0.6009  0.4860
 3560SOL    HW122316   4.616   4.505   3.528  0.2827 -0.1795  0.1388
 3560SOL    HW222317   4.718   4.407   3.503  1.3733 -0.2865  0.5212
 3561SOL     OW22318   1.657   1.026   7.635  0.3472  0.0945  0.0116
 3561SOL    HW122319   1.611   1.030   7.719  2.0693  0.9269  0.8979
 3561SOL    HW222320   1.737   0.982   7.665  2.0179  2.4962 -0.9774
 3562SOL     OW22321   1.911   2.555  10.000 -0.3804  0.0177  0.6332
 3562SOL    HW122322   1.995   2.509  10.003  0.3427  1.4134  1.6961
 3562SOL    HW222323   1.863   2.518  10.074 -1.0034  0.8730  0.6623
 3563SOL     OW22324   1.174   4.141  12.572  0.3149  0.2634  0.1064
 3563SOL    HW122325   1.085   4.172  12.556  0.3859  1.0083  1.1496
 3563SOL    HW222326   1.167   4.061  12.520 -1.2083  0.7621 -0.4340
 3564SOL     OW22327   4.359   2.749   0.750 -0.1673  0.3583 -0.4232
 3564SOL    HW122328   4.317   2.826   0.788 -0.9545 -0.7135  0.8955
 3564SOL    HW222329   4.306   2.707   0.681 -1.6787  2.2449 -0.4037
 3565SOL     OW22330   1.596   2.467   3.311 -0.5302 -0.0000  0.1682
 3565SOL    HW122331   1.613   2.493   3.401 -1.3886 -3.0647  1.2095
 3565SOL    HW222332   1.618   2.544   3.258 -0.3581 -1.4544 -1.8789
 3566SOL     OW22333   2.366   3.007   9.080 -0.0458 -0.1201  0.2363
 3566SOL    HW122334   2.431   3.037   9.143 -0.3483 -1.1679  1.0465
 3566SOL    HW222335   2.327   2.934   9.128  0.3347 -0.9407 -0.6846
 3567SOL     OW22336   4.032   3.652   2.870  0.4268 -0.0973  0.0938
 3567SOL    HW122337   4.056   3.581   2.811  2.2006  2.1033 -1.8527
 3567SOL    HW222338   3.937   3.662   2.860  0.2454 -1.2234  0.7445
 3568SOL     OW22339   0.825   3.948   1.905  0.0842 -0.2853 -0.1074
 3568SOL    HW122340   0.786   3.878   1.854 -1.0298  1.2595 -1.3810
 3568SOL    HW222341   0.805   4.017   1.842 -2.0766 -1.2375 -0.4507
 3569SOL     OW22342   3.638   1.499   4.777  0.2318  0.0200 -0.6233
 3569SOL    HW122343   3.585   1.573   4.747 -0.9166 -1.2458 -1.6707
 3569SOL    HW222344   3.699   1.553   4.829 -2.6846  0.7210  2.0291
 3570SOL     OW22345   1.785   0.996   3.425 -0.1474 -0.3626  0.0110
 3570SOL    HW122346   1.814   0.918   3.377 -1.4381 -1.5208  1.1206
 3570SOL    HW222347   1.691   0.982   3.415  0.2206 -0.7556 -3.0069
 3571SOL     OW22348   2.803   1.022   3.449  0.0724 -0.4230 -0.2309
 3571SOL    HW122349   2.835   0.993   3.534  1.1814 -1.6546 -1.0661
 3571SOL    HW222350   2.709   1.026   3.465  0.3093  0.3870  0.9202
 3572SOL     OW22351   0.832   3.701   1.240 -0.1714  0.3753 -0.1064
 3572SOL    HW122352   0.807   3.729   1.152  2.9835  0.0910 -1.0977
 3572SOL    HW222353   0.902   3.761   1.267 -1.1481  2.4224 -2.0791
 3573SOL     OW22354   3.977   0.217   2.134 -0.0628  0.4873 -0.3730
 3573SOL    HW122355   4.055   0.162   2.137 -0.1929  0.2539 -1.0954
 3573SOL    HW222356   3.938   0.171   2.208 -3.3396  0.3609 -2.1487
 3574SOL     OW22357   3.017   4.051   8.701  0.1888  0.0323 -0.0273
 3574SOL    HW122358   2.963   4.123   8.732  0.8504  1.0200 -1.2074
 3574SOL    HW222359   2.982   3.984   8.761  2.2407 -0.5001  0.5755
 3575SOL     OW22360   1.879   0.936  14.999 -0.0435  0.3697  0.2669
 3575SOL    HW122361   1.936   0.888  15.059  0.9068  1.1896  0.0040
 3575SOL    HW222362   1.795   0.892  15.015  0.2053 -0.9612 -2.1421
 3576SOL     OW22363   3.274   4.230  17.236  0.3072  0.5953 -0.1202
 3576SOL    HW122364   3.238   4.299  17.180 -1.6254 -1.2081 -1.1272
 3576SOL    HW222365   3.257   4.278  17.317  0.4866 -3.1419  2.1287
 3577SOL     OW22366   2.829   4.204  10.020  0.3221 -0.3018 -0.2528
 3577SOL    HW122367   2.888   4.130  10.008  0.3551 -0.3546  0.2504
 3577SOL    HW222368   2.829   4.239   9.930 -1.0963 -1.1824 -0.5937
 3578SOL     OW22369   3.421   2.013  17.125  0.6444  0.0792 -0.2331
 3578SOL    HW122370   3.448   1.930  17.086 -1.7891 -0.7940 -0.0631
 3578SOL    HW222371   3.445   2.080  17.061 -0.0808  1.4253  0.9140
 3579SOL     OW22372   4.664   3.537   5.954 -0.2869  0.5458 -0.1476
 3579SOL    HW122373   4.588   3.490   5.987 -0.9286  0.9423 -1.0573
 3579SOL    HW222374   4.689   3.603   6.019  0.5388 -0.4624  0.5585
 3580SOL     OW22375   0.351   1.225  12.372 -0.6099  0.1864  0.6182
 3580SOL    HW122376   0.368   1.199  12.281  1.2645 -1.2632  1.3815
 3580SOL    HW222377   0.411   1.300  12.379 -0.6775  0.3109 -0.1199
 3581SOL     OW22378   2.778   1.223  16.819 -0.3860  0.3893  0.7885
 3581SOL    HW122379   2.866   1.210  16.855 -0.2106  1.1643  0.6253
 3581SOL    HW222380   2.779   1.164  16.743  2.4067 -0.6161  1.6160
 3582SOL     OW22381   3.937   1.711  16.268 -0.0282  0.0344 -0.0709
 3582SOL    HW122382   3.977   1.678  16.188  0.3025  2.3892 -0.8695
 3582SOL    HW222383   3.878   1.637  16.287 -0.2641  0.0867 -0.6083
 3583SOL     OW22384   2.282   0.037   5.347 -0.0013 -0.0778 -0.4130
 3583SOL    HW122385   2.275   0.129   5.372 -0.5464  0.1497 -1.4110
 3583SOL    HW222386   2.204   0.000   5.389  1.3399  2.1334  4.0347
 3584SOL     OW22387   2.141   0.115  10.773 -0.1308 -0.7203  0.0109
 3584SOL    HW122388   2.230   0.116  10.738  0.0543 -0.3190  0.5006
 3584SOL    HW222389   2.151   0.115  10.868 -1.2680  0.4849  0.1191
 3585SOL     OW22390   3.851   2.764   7.179 -0.2673  0.4159 -0.2914
 3585SOL    HW122391   3.904   2.692   7.145  0.0206  1.3431 -1.7876
 3585SOL    HW222392   3.877   2.783   7.270 -1.9163  2.6344 -0.2601
 3586SOL     OW22393   1.738   4.475   9.456 -0.4284 -0.4825  0.1118
 3586SOL    HW122394   1.775   4.548   9.506 -1.6415 -1.1269  1.9581
 3586SOL    HW222395   1.664   4.447   9.511  0.6225  0.2795  1.9119
 3587SOL     OW22396   0.121   3.671  11.551 -0.8710  0.7111 -0.2475
 3587SOL    HW122397   0.032   3.676  11.586 -1.2129 -0.9342 -0.8775
 3587SOL    HW222398   0.156   3.604  11.610 -1.6134  0.6392  0.1109
 3588SOL     OW22399   4.017   1.606   3.127  0.0156  0.1328 -0.2150
 3588SOL    HW122400   3.986   1.694   3.107 -3.0937 -0.5639  1.5382
 3588SOL    HW222401   4.095   1.617   3.180 -0.4529  0.6343  0.3684
 3589SOL     OW22402   1.066   3.506   8.748 -0.3420  0.9845  0.0285
 3589SOL    HW122403   1.050   3.426   8.799 -0.3636  0.3685 -0.9339
 3589SOL    HW222404   1.079   3.563   8.823 -2.3257  1.7138 -0.1832
 3590SOL     OW22405   3.334   1.924   4.290 -0.1458 -0.3445 -0.2291
 3590SOL    HW122406   3.255   1.910   4.237 -2.4288  3.7331  2.1276
 3590SOL    HW222407   3.341   2.017   4.311  0.3065 -0.2325 -0.8776
 3591SOL     OW22408   2.933   0.205   5.178 -0.0309 -0.1429  0.4741
 3591SOL    HW122409   3.013   0.204   5.126  0.3138  0.9399  0.9807
 3591SOL    HW222410   2.958   0.162   5.260 -0.9854 -2.1982 -0.3259
 3592SOL     OW22411   2.002   0.525   4.089  0.3699 -0.0238 -0.1532
 3592SOL    HW122412   1.948   0.603   4.099 -0.5587 -0.6234 -0.4729
 3592SOL    HW222413   1.939   0.453   4.086  1.9856 -1.4917  1.3463
 3593SOL     OW22414   2.872   2.509   0.094  0.0134 -0.1465  0.2761
 3593SOL    HW122415   2.893   2.554   0.176  1.7970 -0.6925  0.1226
 3593SOL    HW222416   2.823   2.579   0.050 -0.4012 -0.9538 -0.5342
 3594SOL     OW22417   0.215   1.178  13.575  0.0775  0.1970 -0.0909
 3594SOL    HW122418   0.204   1.208  13.485 -0.8940 -0.3864 -0.1727
 3594SOL    HW222419   0.291   1.228  13.605 -1.4649  2.6393 -0.2720
 3595SOL     OW22420   3.190   0.499   2.253  0.3361  0.1572  0.0951
 3595SOL    HW122421   3.284   0.490   2.270  0.5073  0.4530 -0.7085
 3595SOL    HW222422   3.158   0.523   2.340  0.0641  0.2134 -0.0218
 3596SOL     OW22423   0.185   2.426  15.120 -0.7552 -0.0839 -0.0566
 3596SOL    HW122424   0.229   2.493  15.172  0.3550 -2.6079  2.2753
 3596SOL    HW222425   0.095   2.450  15.141 -0.6773  1.1738 -1.1330
 3597SOL     OW22426   1.606   0.639   1.842  0.0950  0.4573 -0.1798
 3597SOL    HW122427   1.622   0.733   1.834 -1.2582  0.5330 -2.0701
 3597SOL    HW222428   1.513   0.627   1.825  0.3904  0.1840 -1.5762
 3598SOL     OW22429   2.407   4.451  15.675  0.1896  0.0501  0.2078
 3598SOL    HW122430   2.486   4.397  15.675 -1.6209 -2.5845  0.2562
 3598SOL    HW222431   2.332   4.393  15.664  0.3237 -0.3791  1.6233
 3599SOL     OW22432   0.331   3.341  11.704 -0.6984 -0.0348 -0.9038
 3599SOL    HW122433   0.332   3.437  11.702  1.9482 -0.0877 -1.7187
 3599SOL    HW222434   0.252   3.329  11.757 -3.0543  0.7335 -4.1664
 3600SOL     OW22435   4.430   4.729   8.500  0.8902  0.5372 -0.3839
 3600SOL    HW122436   4.433   0.088   8.485 -0.2002  0.7431  0.7534
 3600SOL    HW222437   4.456   4.719   8.591  0.6717  2.2430 -0.1332
 3601SOL     OW22438   3.796   2.449   5.982  0.6132 -0.3355 -0.4854
 3601SOL    HW122439   3.722   2.507   5.964 -0.8280 -1.7712  0.9219
 3601SOL    HW222440   3.765   2.381   5.922  1.1224 -1.2234  0.2640
 3602SOL     OW22441   2.196   2.429   4.450  0.4541 -0.1704  0.4387
 3602SOL    HW122442   2.141   2.505   4.429 -0.0123 -0.7411 -0.4115
 3602SOL    HW222443   2.267   2.469   4.500 -0.6584 -1.3561  2.9636
 3603SOL     OW22444   0.168   3.305   3.928  0.4858 -0.0494  0.2864
 3603SOL    HW122445   0.120   3.327   4.008  2.6596  1.3853  1.2115
 3603SOL    HW222446   0.219   3.386   3.919 -0.1164 -0.0917 -3.2395
 3604SOL     OW22447   4.513   4.670  15.061  0.0454  0.2131  0.4892
 3604SOL    HW122448   4.520   4.587  15.013 -1.3343  0.5876 -0.3654
 3604SOL    HW222449   4.537   4.646  15.151  3.1602  2.1575  0.1903
 3605SOL     OW22450   1.327   1.972   0.422  0.3251  0.1239 -0.6964
 3605SOL    HW122451   1.239   2.003   0.404 -0.5231 -1.3442  1.0275
 3605SOL    HW222452   1.363   2.050   0.464  0.7927 -0.0540 -0.7613
 3606SOL     OW22453   0.982   1.067  17.123 -0.4827  0.0773 -0.7492
 3606SOL    HW122454   0.940   0.998  17.174  0.2221  0.8288  0.8526
 3606SOL    HW222455   0.898   1.105  17.097 -0.5521  2.3715  2.7382
 3607SOL     OW22456   2.464   3.884   7.026 -0.0758 -0.3948  0.0376
 3607SOL    HW122457   2.384   3.913   7.070 -0.9225 -2.2336 -0.2740
 3607SOL    HW222458   2.439   3.794   7.003 -0.0845 -0.4111  0.1083
 3608SOL     OW22459   0.367   4.100   7.423  0.2350  0.6958 -0.5069
 3608SOL    HW122460   0.401   4.157   7.492  0.7121 -1.9805  1.4958
 3608SOL    HW222461   0.388   4.012   7.456 -1.1718  1.5281  2.6674
 3609SOL     OW22462   4.231   1.654  15.651  0.5327  0.3676  0.0379
 3609SOL    HW122463   4.145   1.612  15.651  0.7878 -0.1547 -0.0801
 3609SOL    HW222464   4.280   1.586  15.699  0.4957 -1.4118 -2.4263
 3610SOL     OW22465   0.744   2.227   7.786  0.6256 -0.4638 -0.4514
 3610SOL    HW122466   0.660   2.185   7.806  0.0747  0.7097 -0.3205
 3610SOL    HW222467   0.785   2.220   7.872 -1.6298  1.9642  0.8293
 3611SOL     OW22468   4.517   3.547   1.373 -0.6247 -0.2545 -0.3102
 3611SOL    HW122469   4.446   3.576   1.431  0.1455  0.3082  0.3455
 3611SOL    HW222470   4.574   3.623   1.382 -2.2248  0.6790  2.0470
 3612SOL     OW22471   1.570   0.724   8.724 -0.2959  0.1592 -0.2537
 3612SOL    HW122472   1.599   0.633   8.729 -1.1008 -0.1363 -0.9956
 3612SOL    HW222473   1.647   0.769   8.759 -2.1398  2.9014  0.2861
 3613SOL     OW22474   1.273   2.329   0.545 -0.5284 -0.9907  0.2012
 3613SOL    HW122475   1.255   2.390   0.617  1.0882  1.1183 -1.2034
 3613SOL    HW222476   1.194   2.338   0.491 -0.3716  0.3509  0.1976
 3614SOL     OW22477   0.904   0.910   1.864 -0.4869  0.5022 -0.0477
 3614SOL    HW122478   0.905   0.854   1.942  1.5639  3.2043  1.8319
 3614SOL    HW222479   0.814   0.897   1.834 -0.6197 -1.6590  1.2286
 3615SOL     OW22480   1.415   2.773   3.872 -0.0904 -0.3612  0.2046
 3615SOL    HW122481   1.322   2.787   3.893  0.2793  0.5366  1.2287
 3615SOL    HW222482   1.415   2.813   3.784  1.2931  0.7177  0.7007
 3616SOL     OW22483   1.692   2.810  15.603 -0.0829 -0.2438 -0.5297
 3616SOL    HW122484   1.610   2.762  15.589 -0.3448 -0.5629  2.0893
 3616SOL    HW222485   1.676   2.856  15.685  2.0775  0.1829 -0.3428
 3617SOL     OW22486   1.827   2.869   7.628  0.4631 -0.1186  0.0366
 3617SOL    HW122487   1.787   2.826   7.704  0.7676 -0.1253  0.1920
 3617SOL    HW222488   1.844   2.790   7.577  1.1359  0.7601 -1.0733
 3618SOL     OW22489   0.401   1.005   4.125 -0.2117 -0.3398  0.0864
 3618SOL    HW122490   0.332   1.051   4.172 -0.3122 -0.7579  0.3473
 3618SOL    HW222491   0.430   1.078   4.070 -1.0467 -2.3241 -2.9667
 3619SOL     OW22492   4.605   1.152  10.138  0.4142  0.2621 -0.4505
 3619SOL    HW122493   4.678   1.202  10.173 -0.0293  1.3412 -1.0731
 3619SOL    HW222494   4.583   1.224  10.079  0.9592  0.4917 -0.3735
 3620SOL     OW22495   0.472   0.272  10.688  0.5523 -0.5051  0.4138
 3620SOL    HW122496   0.385   0.279  10.649 -0.4835 -0.7287  2.6617
 3620SOL    HW222497   0.487   0.364  10.709 -1.8390  0.1646 -0.8413
 3621SOL     OW22498   1.656   3.881   2.701 -0.6506 -0.2985  0.3557
 3621SOL    HW122499   1.564   3.857   2.693 -1.4485  3.0438 -0.7083
 3621SOL    HW222500   1.652   3.977   2.703  0.1775 -0.2382 -0.8073
 3622SOL     OW22501   3.307   2.184   2.802  0.0033  0.0098  0.1595
 3622SOL    HW122502   3.403   2.181   2.803 -0.0110 -0.0507  1.2834
 3622SOL    HW222503   3.280   2.229   2.881  3.5419 -0.7862  1.8248
 3623SOL     OW22504   2.493   2.261   8.307 -0.3321 -0.2315 -0.5643
 3623SOL    HW122505   2.450   2.267   8.222  0.4150  0.7718 -0.8710
 3623SOL    HW222506   2.459   2.338   8.352  1.9005  1.5051 -1.8783
 3624SOL     OW22507   4.724   1.000   2.739 -0.0091  0.2162 -0.4259
 3624SOL    HW122508   4.675   0.967   2.663 -0.0272  1.7189 -1.0709
 3624SOL    HW222509   0.021   1.077   2.693  0.5977 -0.3630 -0.9575
 3625SOL     OW22510   3.866   3.567   2.260 -0.2996  0.3278  0.3325
 3625SOL    HW122511   3.803   3.636   2.243 -2.3075 -1.1461  1.7184
 3625SOL    HW222512   3.819   3.493   2.222  0.7234 -0.1121 -0.0923
 3626SOL     OW22513   2.599   0.362  12.144 -0.6841  0.5956 -0.2095
 3626SOL    HW122514   2.638   0.297  12.085 -0.2604 -1.3070  2.1505
 3626SOL    HW222515   2.582   0.308  12.221  0.0821 -0.2106 -0.6063
 3627SOL     OW22516   2.058   0.762   8.860 -0.3352  0.1270  0.0941
 3627SOL    HW122517   2.095   0.674   8.874 -2.3826 -0.9654 -1.5523
 3627SOL    HW222518   2.138   0.814   8.869 -0.7618  0.6649  0.7868
 3628SOL     OW22519   0.670   4.436  11.957 -0.1455 -0.2938  0.1508
 3628SOL    HW122520   0.738   4.443  11.891  0.2113  0.4244  0.5909
 3628SOL    HW222521   0.624   4.356  11.932  2.3444 -1.4558 -0.6929
 3629SOL     OW22522   3.669   2.617   5.653 -0.3097  0.2284  0.3192
 3629SOL    HW122523   3.613   2.679   5.608  0.8450  0.2469 -1.1329
 3629SOL    HW222524   3.638   2.615   5.743  1.9962 -1.4561  1.1117
 3630SOL     OW22525   0.836   2.196   8.032  0.0700 -0.0274 -0.6184
 3630SOL    HW122526   0.790   2.138   8.092  0.3225  0.4410  0.0296
 3630SOL    HW222527   0.908   2.223   8.089  0.2121  0.4809 -1.0384
 3631SOL     OW22528   0.189   2.146   1.905 -0.8025  0.1045  0.3812
 3631SOL    HW122529   0.224   2.131   1.818  0.2315 -0.9735  0.9833
 3631SOL    HW222530   0.269   2.157   1.956 -0.0699  0.8157 -0.9298
 3632SOL     OW22531   2.465   4.000  12.301 -0.0146 -0.2354 -0.3421
 3632SOL    HW122532   2.477   4.093  12.286 -2.6079  0.0603 -0.4474
 3632SOL    HW222533   2.373   3.992  12.326  0.0580 -1.2049 -0.3557
 3633SOL     OW22534   0.480   3.179  16.333 -0.2978 -0.2607  0.2988
 3633SOL    HW122535   0.543   3.203  16.265 -0.3093 -3.1665 -0.7378
 3633SOL    HW222536   0.526   3.128  16.400  0.1434 -0.9063 -0.4987
 3634SOL     OW22537   2.009   1.678   6.714 -0.3793  0.1613 -0.0013
 3634SOL    HW122538   2.079   1.614   6.719 -1.7671 -1.2452  1.2139
 3634SOL    HW222539   2.057   1.760   6.703  0.3711 -0.3512 -0.4656
 3635SOL     OW22540   1.390   1.681   0.838 -0.4026  0.2582  0.2501
 3635SOL    HW122541   1.394   1.587   0.823  0.6934  0.0468  1.8507
 3635SOL    HW222542   1.407   1.728   0.756  2.9145  0.0518  0.8128
 3636SOL     OW22543   3.428   4.450  12.098  0.4119 -0.8437  0.2990
 3636SOL    HW122544   3.499   4.390  12.122  0.1329 -0.3338  2.4155
 3636SOL    HW222545   3.438   4.523  12.159  1.4618 -0.3882 -0.4137
 3637SOL     OW22546   4.730   0.516   5.579  0.1648  0.0284  0.1518
 3637SOL    HW122547   4.680   0.587   5.619 -2.0217 -1.4571  0.0705
 3637SOL    HW222548   0.087   0.540   5.590  0.2250  0.6811 -1.9449
 3638SOL     OW22549   2.051   1.034   3.445 -0.3038  0.1730 -0.9366
 3638SOL    HW122550   1.957   1.021   3.435 -0.3853  0.1718 -0.1498
 3638SOL    HW222551   2.046   1.118   3.489 -1.7554 -0.1416 -0.5064
 3639SOL     OW22552   0.330   2.042   8.477 -0.0645  0.4766  0.1201
 3639SOL    HW122553   0.293   2.129   8.487 -1.1916  0.1473 -1.2854
 3639SOL    HW222554   0.395   2.037   8.548  0.8412 -1.7265 -0.8720
 3640SOL     OW22555   2.399   0.978   0.275  0.4927 -0.4386  0.1355
 3640SOL    HW122556   2.363   0.893   0.300 -1.2197  1.0750  2.7726
 3640SOL    HW222557   2.379   1.040   0.346  2.2579  2.1901 -1.6317
 3641SOL     OW22558   2.579   2.863   6.182 -0.1347  0.1605  0.1057
 3641SOL    HW122559   2.663   2.855   6.136 -1.0283 -0.0717 -1.4928
 3641SOL    HW222560   2.603   2.888   6.271  0.6598 -1.9000  0.4827
 3642SOL     OW22561   0.019   0.674  17.285  0.4428  0.0682  0.2127
 3642SOL    HW122562   0.056   0.701  17.369 -2.8775  3.4573  0.5903
 3642SOL    HW222563   0.094   0.641  17.237 -1.2210 -2.3942 -0.6759
 3643SOL     OW22564   1.025   1.105   8.328 -0.0780 -0.2777  0.1024
 3643SOL    HW122565   1.025   1.190   8.284 -1.8381 -1.2130 -1.6622
 3643SOL    HW222566   0.944   1.066   8.294  0.0342 -1.3757  1.0898
 3644SOL     OW22567   2.703   0.173   5.977  0.2778 -0.3868 -0.1455
 3644SOL    HW122568   2.775   0.153   5.918  0.1206  1.3751 -0.9163
 3644SOL    HW222569   2.631   0.146   5.921 -0.5445  3.0577 -0.7226
 3645SOL     OW22570   4.439   2.850   9.859 -0.1325 -0.0397 -0.4305
 3645SOL    HW122571   4.483   2.886   9.936  0.3982 -0.0435 -0.7361
 3645SOL    HW222572   4.452   2.758   9.884 -0.9488 -0.5931 -2.0577
 3646SOL     OW22573   0.755   4.202  16.393 -0.1009  0.1097  0.1559
 3646SOL    HW122574   0.812   4.252  16.335  1.3891  0.4075  1.8835
 3646SOL    HW222575   0.777   4.114  16.362  0.5033 -0.1393  1.2944
 3647SOL     OW22576   0.733   0.505  13.150 -0.0001  0.3387 -0.1606
 3647SOL    HW122577   0.741   0.593  13.186  2.3678  0.1932 -0.2980
 3647SOL    HW222578   0.723   0.538  13.061  0.3824  1.3944  0.1949
 3648SOL     OW22579   4.255   3.755  12.020  0.2346  0.2727 -0.1605
 3648SOL    HW122580   4.310   3.679  12.000 -0.0101  0.0011  0.1901
 3648SOL    HW222581   4.323   3.819  12.040 -1.6521  1.7398  1.6195
 3649SOL     OW22582   1.325   4.127   4.805  0.6744  0.6955  0.4481
 3649SOL    HW122583   1.253   4.151   4.864  1.6965  2.1478  1.1128
 3649SOL    HW222584   1.366   4.062   4.862  0.5708  0.2843  0.0550
 3650SOL     OW22585   1.540   1.448  17.334 -0.1617  0.2064 -0.1341
 3650SOL    HW122586   1.636   1.451  17.336 -0.0961 -1.6899  0.0793
 3650SOL    HW222587   1.525   1.461  17.241 -1.6279  2.3334  0.3961
 3651SOL     OW22588   2.792   1.701  10.620 -0.1195  0.5633 -0.5183
 3651SOL    HW122589   2.863   1.733  10.564  1.3844 -1.0125  0.4922
 3651SOL    HW222590   2.829   1.682  10.706  0.3678 -0.3926 -0.9388
 3652SOL     OW22591   0.206   2.814   6.967  0.1771  0.1150 -0.1028
 3652SOL    HW122592   0.189   2.878   6.898 -2.2009 -0.4180 -0.0253
 3652SOL    HW222593   0.207   2.738   6.909  1.4895  0.7881 -0.9604
 3653SOL     OW22594   3.508   4.143   2.880 -0.1675  0.0784  0.0196
 3653SOL    HW122595   3.468   4.230   2.868  0.7365  0.5923  0.7460
 3653SOL    HW222596   3.554   4.122   2.799  1.1613  1.0276  0.5163
 3654SOL     OW22597   1.397   2.149   3.438 -0.0410 -0.2836  0.4948
 3654SOL    HW122598   1.439   2.071   3.474  2.4318  1.4748  1.4162
 3654SOL    HW222599   1.303   2.138   3.451  0.2980 -0.8107  2.4099
 3655SOL     OW22600   3.593   4.712   1.833  0.7316 -0.5111  0.7602
 3655SOL    HW122601   3.526   4.649   1.859 -0.8660  1.1450  0.6704
 3655SOL    HW222602   3.545   0.059   1.838  0.5723 -0.5033 -0.7746
 3656SOL     OW22603   0.965   0.732   4.736 -0.0170  0.4659  0.2201
 3656SOL    HW122604   0.925   0.654   4.697  0.4475  0.8515 -1.0060
 3656SOL    HW222605   0.934   0.803   4.680 -0.1288 -0.3232 -0.7307
 3657SOL     OW22606   1.039   1.798   2.675 -0.2395  0.6966 -0.1852
 3657SOL    HW122607   1.002   1.730   2.618 -0.8573  0.9704 -0.0971
 3657SOL    HW222608   1.130   1.768   2.668 -0.3163  0.7279 -1.3836
 3658SOL     OW22609   0.057   3.760  15.414 -0.3941 -0.5301  0.7621
 3658SOL    HW122610   0.112   3.687  15.443 -1.8561 -2.2940 -0.8805
 3658SOL    HW222611   0.052   3.816  15.491  1.0276 -0.2067  0.6246
 3659SOL     OW22612   3.423   2.647   6.156 -0.4749  0.5101  0.5698
 3659SOL    HW122613   3.448   2.555   6.168 -1.3452  0.2752  0.6158
 3659SOL    HW222614   3.352   2.665   6.217 -0.1102  0.5981  0.9648
 3660SOL     OW22615   1.148   3.742   1.173 -0.3851  0.1387  0.0661
 3660SOL    HW122616   1.122   3.775   1.259 -2.2558  2.8247 -1.5280
 3660SOL    HW222617   1.239   3.772   1.173 -0.0313 -0.9701 -2.2527
 3661SOL     OW22618   1.019   2.922   6.744 -0.6535 -0.0951 -0.2457
 3661SOL    HW122619   1.084   2.884   6.685 -1.3696 -0.5329 -0.7704
 3661SOL    HW222620   0.995   3.004   6.700  2.0899  0.6991 -0.2318
 3662SOL     OW22621   2.821   1.373   9.131 -0.3899 -0.4863 -0.1540
 3662SOL    HW122622   2.840   1.306   9.066  2.0706 -0.1863  0.2420
 3662SOL    HW222623   2.743   1.344   9.177 -1.6245  0.7008 -1.4892
 3663SOL     OW22624   3.294   2.044  17.558  0.4501  0.2288  0.1838
 3663SOL    HW122625   3.201   2.059  17.543  0.6016  1.1253  0.1530
 3663SOL    HW222626   3.289   1.952  17.585 -0.2777  0.6737  1.5627
 3664SOL     OW22627   2.260   0.922  14.570  0.1230  0.1523 -0.0557
 3664SOL    HW122628   2.260   0.875  14.486 -0.0239 -0.8099  0.4815
 3664SOL    HW222629   2.324   0.890  14.633  0.1297  1.4215  0.5707
 3665SOL     OW22630   2.399   3.498  14.943  0.2260 -0.7028 -0.0552
 3665SOL    HW122631   2.328   3.457  14.894  0.4399 -1.0498 -0.0756
 3665SOL    HW222632   2.481   3.481  14.897  1.0621 -0.4983  1.3386
 3666SOL     OW22633   3.796   1.676  17.678 -0.6399 -0.1031 -0.2404
 3666SOL    HW122634   3.757   1.754  17.639  0.0557 -0.0007 -0.7278
 3666SOL    HW222635   3.768   1.692   0.026  2.2128 -3.9268  1.3347
 3667SOL     OW22636   2.552   3.123   4.346 -0.3144  0.5229  0.0791
 3667SOL    HW122637   2.636   3.108   4.390 -0.4770 -0.1132  0.1611
 3667SOL    HW222638   2.524   3.197   4.400 -1.0135  0.4810 -0.2253
 3668SOL     OW22639   3.168   4.625   8.154 -0.6558  0.1227  0.3877
 3668SOL    HW122640   3.172   4.635   8.058  1.2612  0.8473  0.5457
 3668SOL    HW222641   3.148   4.717   8.170  2.1184  0.5710  1.1808
 3669SOL     OW22642   1.075   4.575   8.192  0.0475 -0.2611  0.4975
 3669SOL    HW122643   1.141   4.566   8.260 -0.3482  1.2812  1.0853
 3669SOL    HW222644   1.057   4.482   8.178 -0.6538  0.1687 -1.4507
 3670SOL     OW22645   4.567   1.271  13.049 -0.3911 -0.6375  0.1250
 3670SOL    HW122646   4.636   1.269  12.983  0.9381  1.4153  1.4228
 3670SOL    HW222647   4.549   1.178  13.056 -1.3905 -0.4250  0.3917
 3671SOL     OW22648   0.094   2.430   4.094 -0.2663  0.0177 -0.1129
 3671SOL    HW122649   0.059   2.515   4.121  1.9007  0.4251  1.3889
 3671SOL    HW222650   0.021   2.384   4.137 -0.2905 -2.4829 -2.8530
 3672SOL     OW22651   0.436   0.842   2.254  0.3114  0.4177 -0.3771
 3672SOL    HW122652   0.399   0.879   2.335  0.2348  0.8321 -0.6009
 3672SOL    HW222653   0.361   0.860   2.197  0.3660 -1.7477 -1.1205
 3673SOL     OW22654   1.000   1.657  15.407  0.2958 -0.4320  0.1884
 3673SOL    HW122655   0.937   1.691  15.471  0.7608  0.4814  0.1716
 3673SOL    HW222656   1.055   1.607  15.466  1.0399 -0.8487 -0.8645
 3674SOL     OW22657   1.396   4.535   4.090  0.7320 -0.2407  0.0318
 3674SOL    HW122658   1.359   4.485   4.018  0.0447 -0.2855  0.4164
 3674SOL    HW222659   1.316   4.549   4.140 -0.8234 -2.9214 -1.7079
 3675SOL     OW22660   3.355   3.477   7.460  0.0319 -0.5344 -0.3782
 3675SOL    HW122661   3.289   3.410   7.480  0.5086 -0.4672  1.4228
 3675SOL    HW222662   3.300   3.555   7.460  0.1446 -0.4549 -1.4632
 3676SOL     OW22663   2.480   1.966  11.847  0.5469  0.1710 -0.0285
 3676SOL    HW122664   2.448   1.876  11.859 -1.5368  0.7865 -1.0243
 3676SOL    HW222665   2.424   1.989  11.773  2.2835 -0.9998 -1.6940
 3677SOL     OW22666   2.711   4.353   2.105 -1.2641 -0.1460 -0.7540
 3677SOL    HW122667   2.745   4.303   2.032  0.4886 -0.5113  0.3286
 3677SOL    HW222668   2.660   4.287   2.152  0.6665 -1.6006 -0.7206
 3678SOL     OW22669   4.074   0.993   8.019  0.2711 -0.6150  0.1001
 3678SOL    HW122670   4.057   0.904   8.052 -1.4593 -0.1721  0.3898
 3678SOL    HW222671   4.103   1.040   8.097 -1.3441  1.8037 -0.7869
 3679SOL     OW22672   0.921   1.588   6.218 -0.4263  0.2708  1.0200
 3679SOL    HW122673   0.844   1.614   6.168  0.9816  3.2924  0.4232
 3679SOL    HW222674   0.962   1.674   6.228 -0.4765  0.8488 -3.5338
 3680SOL     OW22675   3.165   1.489   6.188  0.0826 -0.0132  0.3378
 3680SOL    HW122676   3.100   1.557   6.204  0.1298  0.8680 -3.3058
 3680SOL    HW222677   3.187   1.455   6.275  1.2803  1.8706  0.7566
 3681SOL     OW22678   2.733   3.844   6.765 -0.5199 -0.2003  0.5562
 3681SOL    HW122679   2.811   3.821   6.816  0.4929  0.5146 -0.6441
 3681SOL    HW222680   2.698   3.898   6.835 -0.3980 -0.9515  1.1963
 3682SOL     OW22681   0.449   3.014   4.926  0.6821  0.4421 -0.3285
 3682SOL    HW122682   0.398   3.007   5.007 -0.9933 -1.1845 -1.5191
 3682SOL    HW222683   0.392   3.074   4.879 -2.4331  0.3560  3.3173
 3683SOL     OW22684   1.318   2.511   6.053  0.1534  0.3589  0.2387
 3683SOL    HW122685   1.372   2.462   6.115 -0.8756  0.7077  1.4039
 3683SOL    HW222686   1.251   2.537   6.117  1.8566  3.3507  0.7962
 3684SOL     OW22687   3.011   3.450  11.660 -0.0658  0.6332  0.1841
 3684SOL    HW122688   2.985   3.358  11.648  1.5149  0.1334  0.5564
 3684SOL    HW222689   3.092   3.435  11.709  0.7975  4.1989 -0.1978
 3685SOL     OW22690   1.029   0.048  16.337 -0.3073 -0.2189  0.0364
 3685SOL    HW122691   1.122   0.022  16.336 -1.0946 -2.9487 -1.7616
 3685SOL    HW222692   0.983   4.700  16.333 -1.9186  0.7215 -0.6820
 3686SOL     OW22693   2.665   0.909   8.490 -0.1886  0.6145 -0.4711
 3686SOL    HW122694   2.604   0.983   8.485  0.6898  1.4332  0.8582
 3686SOL    HW222695   2.664   0.873   8.402  0.3876  0.9502 -0.6148
 3687SOL     OW22696   3.984   1.727   2.232  0.1512  0.4206 -0.1982
 3687SOL    HW122697   4.011   1.749   2.143 -0.2951  0.0020 -0.4390
 3687SOL    HW222698   3.970   1.633   2.217 -3.1499  0.7443  0.8084
 3688SOL     OW22699   2.832   0.955   4.755  0.0332  0.2424 -0.2778
 3688SOL    HW122700   2.827   0.893   4.683 -0.8995 -1.2776  1.1054
 3688SOL    HW222701   2.746   0.994   4.739 -0.4447  0.3271  2.3958
 3689SOL     OW22702   0.687   2.760  15.037  0.0551  0.0355 -0.3922
 3689SOL    HW122703   0.707   2.852  15.055  2.9503 -0.2350 -2.1255
 3689SOL    HW222704   0.775   2.726  15.057  0.9706  1.9516 -1.1704
 3690SOL     OW22705   1.521   2.340   0.790  0.1500 -0.1256  0.7612
 3690SOL    HW122706   1.492   2.431   0.794  2.0918  0.5444  0.1097
 3690SOL    HW222707   1.615   2.340   0.809  0.6219  0.9313 -1.4863
 3691SOL     OW22708   3.423   0.523   5.962  0.0708  0.0401  0.3536
 3691SOL    HW122709   3.401   0.535   6.054  1.2280 -0.0199  0.6429
 3691SOL    HW222710   3.517   0.541   5.969  0.2874 -0.7110 -0.5041
 3692SOL     OW22711   3.543   0.691   7.604  0.3396 -0.1257  0.1033
 3692SOL    HW122712   3.487   0.667   7.678 -2.2105  1.2316 -1.3957
 3692SOL    HW222713   3.496   0.640   7.538 -0.3653 -0.4972  0.9022
 3693SOL     OW22714   3.143   4.334   6.848 -0.1510 -0.0317 -0.4095
 3693SOL    HW122715   3.212   4.380   6.896  0.5316 -0.4504 -0.9787
 3693SOL    HW222716   3.072   4.355   6.908 -2.1414 -1.3538 -2.3136
 3694SOL     OW22717   2.506   3.258   6.803 -0.5922 -0.2995  0.2788
 3694SOL    HW122718   2.482   3.322   6.736 -0.9278  0.0257  0.7097
 3694SOL    HW222719   2.420   3.217   6.817 -0.7126  0.3240  1.3723
 3695SOL     OW22720   3.562   3.471   7.664 -0.0556  0.1279 -0.2241
 3695SOL    HW122721   3.521   3.512   7.588  2.6192  2.2557 -0.4993
 3695SOL    HW222722   3.528   3.527   7.734  0.7387  0.3264  0.0107
 3696SOL     OW22723   0.349   3.211  11.959  0.0437  0.6604  0.0502
 3696SOL    HW122724   0.384   3.256  11.882 -2.9038 -0.4566 -1.9632
 3696SOL    HW222725   0.337   3.120  11.932  1.7981 -0.3277  2.5478
 3697SOL     OW22726   4.719   4.281   3.391 -0.5635  0.0424 -0.1294
 3697SOL    HW122727   4.672   4.325   3.319 -0.8300 -0.5013 -0.2915
 3697SOL    HW222728   4.671   4.199   3.398  1.5799 -1.3260 -1.5772
 3698SOL     OW22729   3.766   2.933   3.997 -0.7005  0.5675  0.1849
 3698SOL    HW122730   3.676   2.953   4.021 -1.0398 -1.9771  1.0318
 3698SOL    HW222731   3.799   2.897   4.080 -1.1384  0.8899  0.4960
 3699SOL     OW22732   3.037   1.490   1.714  0.2206  0.2893  0.2369
 3699SOL    HW122733   3.089   1.524   1.787 -0.8408 -0.3011  1.2482
 3699SOL    HW222734   3.067   1.399   1.709 -2.5308 -0.5929 -0.1358
 3700SOL     OW22735   4.334   3.566  13.772  0.3807  0.2493  0.1572
 3700SOL    HW122736   4.312   3.649  13.729  0.3321  0.9556  1.5394
 3700SOL    HW222737   4.249   3.546  13.812  0.3448  1.8609  0.8918
 3701SOL     OW22738   0.899   3.298   0.716 -0.3561 -0.0352 -0.8584
 3701SOL    HW122739   0.906   3.392   0.699 -2.8281 -0.1829 -2.6542
 3701SOL    HW222740   0.837   3.308   0.789 -0.3882  0.0015 -0.8908
 3702SOL     OW22741   3.344   2.885   3.147  0.1411  0.7591  0.0025
 3702SOL    HW122742   3.409   2.900   3.215 -0.3434  4.1625 -0.2732
 3702SOL    HW222743   3.336   2.972   3.107 -1.9812 -0.2801 -1.8672
 3703SOL     OW22744   2.484   2.470   1.026 -0.1833  0.2220  0.4690
 3703SOL    HW122745   2.546   2.429   0.966  2.2497  0.9327  2.5086
 3703SOL    HW222746   2.450   2.545   0.977 -0.4661  2.0348  3.4309
 3704SOL     OW22747   2.589   3.448   4.133  0.2730 -0.5576  0.6376
 3704SOL    HW122748   2.669   3.404   4.162  1.5007  0.7449 -0.7609
 3704SOL    HW222749   2.541   3.367   4.114 -0.5427  0.2348 -0.6709
 3705SOL     OW22750   4.029   0.572   8.312  0.8409  0.0794 -0.0155
 3705SOL    HW122751   4.048   0.664   8.326  3.4188 -0.3801 -0.5440
 3705SOL    HW222752   4.106   0.540   8.360  0.4465  3.8880  3.0865
 3706SOL     OW22753   2.744   2.747   6.562 -0.1325 -0.0924  0.2011
 3706SOL    HW122754   2.817   2.707   6.514 -0.2310 -1.3112  1.0387
 3706SOL    HW222755   2.670   2.688   6.550  1.6025 -2.5080  1.2845
 3707SOL     OW22756   0.217   3.567  10.710 -0.8462  0.0574 -0.1363
 3707SOL    HW122757   0.211   3.529  10.623 -0.5254  0.1504 -0.1987
 3707SOL    HW222758   0.128   3.553  10.741 -1.0304  1.2726 -0.0988
 3708SOL     OW22759   3.722   3.585   4.142  0.3959 -0.1935  0.1811
 3708SOL    HW122760   3.762   3.619   4.223  2.1231  0.6618 -1.0382
 3708SOL    HW222761   3.666   3.515   4.174 -0.6057  0.1870 -0.7573
 3709SOL     OW22762   0.031   2.126   7.777 -0.4775  0.0279  0.1092
 3709SOL    HW122763   4.696   2.078   7.818  0.0766 -1.0550 -0.1960
 3709SOL    HW222764   0.093   2.134   7.849 -1.6471 -0.0061  1.1144
 3710SOL     OW22765   3.494   2.035  13.891 -0.9385  0.5077 -0.1995
 3710SOL    HW122766   3.547   2.075  13.822 -1.8806 -1.3209 -1.9484
 3710SOL    HW222767   3.566   2.005  13.947 -1.3443  0.4308  0.2855
 3711SOL     OW22768   2.724   0.329   3.095 -0.3426  0.4288  0.1797
 3711SOL    HW122769   2.765   0.406   3.054 -0.2697 -0.3894 -1.2885
 3711SOL    HW222770   2.662   0.301   3.027 -2.1796  1.7981  1.3177
 3712SOL     OW22771   3.142   0.692   4.460 -0.0448  0.6698 -0.2376
 3712SOL    HW122772   3.227   0.649   4.473 -1.1351 -0.4510  3.1877
 3712SOL    HW222773   3.101   0.616   4.419  0.2738  0.5159 -0.2684
 3713SOL     OW22774   0.764   0.254   9.043  0.4483  0.3481 -0.7715
 3713SOL    HW122775   0.827   0.265   9.115 -1.2563  2.5006  0.3920
 3713SOL    HW222776   0.791   0.334   8.998 -0.3951  0.6149 -0.7957
 3714SOL     OW22777   2.095   0.768   1.469  0.5770 -0.0931 -0.2613
 3714SOL    HW122778   2.090   0.784   1.564  0.6214  2.3345 -0.6653
 3714SOL    HW222779   2.125   0.678   1.457 -0.5332 -0.3341 -1.2220
 3715SOL     OW22780   2.664   2.979   7.402  0.7232  0.1025  0.4191
 3715SOL    HW122781   2.742   3.026   7.373  1.8639 -0.8107  1.9717
 3715SOL    HW222782   2.606   2.994   7.327  1.1378  1.6878  0.4066
 3716SOL     OW22783   3.731   3.047  13.993  0.1626 -0.1231 -0.0717
 3716SOL    HW122784   3.674   3.004  13.928 -0.5178  0.4557  0.1417
 3716SOL    HW222785   3.796   3.078  13.930 -0.9499  2.4642  0.0642
 3717SOL     OW22786   4.707   0.951   4.220 -0.0018  0.0083  0.5064
 3717SOL    HW122787   4.665   1.007   4.155  0.2923  1.1552  1.2996
 3717SOL    HW222788   0.061   0.982   4.205 -0.4911  1.5763  0.7881
 3718SOL     OW22789   3.305   0.673  13.182  0.2808  0.1502 -0.4296
 3718SOL    HW122790   3.376   0.703  13.124  0.5673 -0.7471 -0.5432
 3718SOL    HW222791   3.323   0.734  13.253 -1.2550 -0.5003  0.5247
 3719SOL     OW22792   0.169   1.778   7.308 -0.5850 -0.6312 -0.0105
 3719SOL    HW122793   0.102   1.807   7.246  0.5771  0.9916 -0.4940
 3719SOL    HW222794   0.238   1.746   7.251 -1.1237 -1.5068 -0.1768
 3720SOL     OW22795   4.673   1.317   2.029 -0.5119  0.1340  0.8846
 3720SOL    HW122796   4.578   1.324   2.030 -0.5594 -0.4469  0.4919
 3720SOL    HW222797   4.699   1.335   2.120 -0.6633 -0.1029  0.9735
 3721SOL     OW22798   4.187   1.452   2.905  0.3892 -0.2765 -0.3431
 3721SOL    HW122799   4.202   1.520   2.970  1.4594  0.1907 -1.0715
 3721SOL    HW222800   4.247   1.395   2.952 -1.3157 -0.4051  1.6476
 3722SOL     OW22801   2.850   1.980  13.267 -0.8717 -0.3139 -0.1023
 3722SOL    HW122802   2.889   1.909  13.215  1.2171 -0.0228  1.0668
 3722SOL    HW222803   2.786   2.009  13.202 -0.4230  2.3015  0.5851
 3723SOL     OW22804   0.804   3.291   2.457 -0.5611 -0.1541  0.1550
 3723SOL    HW122805   0.771   3.231   2.524 -1.3104 -0.5683 -0.5749
 3723SOL    HW222806   0.789   3.245   2.374  1.1341  0.8914 -0.7298
 3724SOL     OW22807   2.282   2.257   8.912  0.0469 -0.0064  0.1826
 3724SOL    HW122808   2.298   2.163   8.899 -1.2859 -0.1501 -0.4375
 3724SOL    HW222809   2.241   2.263   8.826  1.1464 -0.1679 -0.3539
 3725SOL     OW22810   4.004   2.451   9.476  0.6679 -0.1762 -0.4143
 3725SOL    HW122811   4.006   2.398   9.555 -4.6964 -1.0321 -0.8884
 3725SOL    HW222812   4.087   2.497   9.484  0.2570  0.6778 -1.1285
 3726SOL     OW22813   1.291   2.121  10.032 -0.2196 -0.8710  0.2964
 3726SOL    HW122814   1.327   2.060   9.967  1.7715 -1.5283  2.0171
 3726SOL    HW222815   1.197   2.112  10.016 -0.6754  1.4901  1.7504
 3727SOL     OW22816   4.091   2.525   1.878 -0.5356  0.1291  0.4924
 3727SOL    HW122817   4.177   2.541   1.917  0.6006  0.0575 -1.9938
 3727SOL    HW222818   4.030   2.542   1.950  0.4729  1.2538  1.0821
 3728SOL     OW22819   1.059   1.377   3.047  0.5229  0.0514 -0.1727
 3728SOL    HW122820   0.986   1.426   3.010  0.9437  0.5775 -0.3038
 3728SOL    HW222821   1.132   1.437   3.032  0.1921  0.8318  1.3587
 3729SOL     OW22822   3.614   3.082   5.363  0.2720  0.6233 -0.0990
 3729SOL    HW122823   3.529   3.071   5.322 -1.1872 -0.2083  3.1890
 3729SOL    HW222824   3.603   3.158   5.420  1.7571  2.3748 -2.1443
 3730SOL     OW22825   4.312   4.389   7.185 -0.0631  0.2451  0.5991
 3730SOL    HW122826   4.218   4.383   7.202 -0.3245  0.9316 -0.5620
 3730SOL    HW222827   4.351   4.349   7.262  0.7445  1.8470  1.0075
 3731SOL     OW22828   0.659   1.684   5.711 -0.5072 -0.4173  0.1558
 3731SOL    HW122829   0.665   1.655   5.620  0.8504  0.5504 -0.0526
 3731SOL    HW222830   0.749   1.712   5.724 -0.4970  0.2892 -1.4935
 3732SOL     OW22831   3.190   4.074   6.767  0.4866 -0.0449  0.1287
 3732SOL    HW122832   3.101   4.041   6.754  0.5596 -0.4869  0.7504
 3732SOL    HW222833   3.169   4.166   6.787 -1.5017 -0.8910  1.9608
 3733SOL     OW22834   0.765   3.683  12.994  0.1647  0.3020 -0.6798
 3733SOL    HW122835   0.851   3.716  12.967  0.3489  0.6955  0.3802
 3733SOL    HW222836   0.704   3.702  12.922  0.2361  0.3506 -0.7272
 3734SOL     OW22837   1.765   4.606  16.885  0.1701  0.1095 -0.2251
 3734SOL    HW122838   1.726   4.644  16.963  0.0933  0.4483 -0.4313
 3734SOL    HW222839   1.740   4.514  16.894 -0.6722  0.4347  0.7498
 3735SOL     OW22840   1.174   1.627  15.905  0.0788 -0.2873 -0.6354
 3735SOL    HW122841   1.195   1.569  15.978  2.2283 -0.0388 -1.0500
 3735SOL    HW222842   1.241   1.693  15.925 -0.0482 -0.8297  1.5551
 3736SOL     OW22843   1.023   0.084   2.715  0.2836  0.8347 -0.7885
 3736SOL    HW122844   1.108   0.041   2.708  0.4055  1.1198 -1.0498
 3736SOL    HW222845   0.996   0.079   2.807  2.3381  2.5949 -0.0989
 3737SOL     OW22846   3.613   3.209  10.978  0.1031  0.0140 -0.4947
 3737SOL    HW122847   3.526   3.174  10.999 -0.1504  0.8404 -0.1544
 3737SOL    HW222848   3.600   3.223  10.885 -0.4812  0.4507 -0.3513
 3738SOL     OW22849   0.136   0.697   6.191 -0.0819 -0.0549  0.2452
 3738SOL    HW122850   0.145   0.704   6.286  1.7320 -0.5131  0.1006
 3738SOL    HW222851   0.146   0.602   6.193  0.2321 -0.0078  0.7605
 3739SOL     OW22852   2.478   1.521   6.498 -0.0965  0.0935  0.6974
 3739SOL    HW122853   2.523   1.478   6.570 -1.9358 -0.1988  1.6701
 3739SOL    HW222854   2.529   1.502   6.419  0.1484  1.0085  0.6332
 3740SOL     OW22855   4.510   1.457   8.636 -0.3996 -0.1391  0.2511
 3740SOL    HW122856   4.572   1.385   8.619 -0.0485  0.1887  0.1559
 3740SOL    HW222857   4.457   1.474   8.558  1.9034 -0.2032 -1.3390
 3741SOL     OW22858   2.312   2.700   6.867 -0.1690 -0.1963  0.8378
 3741SOL    HW122859   2.339   2.616   6.828 -0.2827  0.4531 -0.6311
 3741SOL    HW222860   2.401   2.734   6.876 -0.2476  0.3153 -0.3715
 3742SOL     OW22861   0.517   0.607   0.996 -0.2546  0.4126  0.1882
 3742SOL    HW122862   0.433   0.589   0.952 -1.3086  1.4921  1.7611
 3742SOL    HW222863   0.507   0.697   1.025  0.7683  0.3180  0.8129
 3743SOL     OW22864   0.373   3.171   4.202  0.4970  0.8328 -0.2054
 3743SOL    HW122865   0.359   3.077   4.187  0.5103  0.9705 -1.1039
 3743SOL    HW222866   0.284   3.200   4.184 -0.7746 -2.4320  0.7342
 3744SOL     OW22867   3.643   1.882   5.160 -0.2539  0.7318 -0.3502
 3744SOL    HW122868   3.714   1.945   5.177  0.5923 -0.8289  1.8084
 3744SOL    HW222869   3.572   1.912   5.217  0.1191  0.3659  0.2998
 3745SOL     OW22870   3.592   4.397   7.395  0.3059 -0.2009 -0.3639
 3745SOL    HW122871   3.590   4.303   7.407 -1.6189 -0.2984 -1.3646
 3745SOL    HW222872   3.518   4.423   7.451  1.0828  2.5349 -0.5698
 3746SOL     OW22873   2.195   0.344   7.110  0.1585 -0.1682  0.0440
 3746SOL    HW122874   2.265   0.304   7.058 -1.6789 -1.2713 -1.5770
 3746SOL    HW222875   2.144   0.399   7.050 -0.3071  0.8723  1.4085
 3747SOL     OW22876   0.086   3.836   2.030 -0.0396 -0.3061 -0.6046
 3747SOL    HW122877   0.143   3.893   1.979  1.1199 -0.2455  0.7419
 3747SOL    HW222878   0.077   3.890   2.108 -2.5320  0.0076 -1.1093
 3748SOL     OW22879   2.655   0.981   2.243 -0.0786  0.2292  0.1408
 3748SOL    HW122880   2.728   1.027   2.284 -0.0622  1.2547 -1.0556
 3748SOL    HW222881   2.710   0.939   2.178  0.2812  0.2218  0.4508
 3749SOL     OW22882   2.620   0.421   2.042 -0.0652 -0.2102 -0.0080
 3749SOL    HW122883   2.555   0.353   2.058  0.1080 -0.6345 -1.1612
 3749SOL    HW222884   2.638   0.443   2.134 -1.4945 -1.4244  0.5615
 3750SOL     OW22885   3.914   3.307   9.033 -0.3052  0.2958  0.3080
 3750SOL    HW122886   3.829   3.308   9.078  0.1379  2.3777  1.1014
 3750SOL    HW222887   3.961   3.253   9.097  0.1567 -0.4461 -0.6586
 3751SOL     OW22888   2.950   0.161   4.720 -0.4270  0.2588  0.3555
 3751SOL    HW122889   2.860   0.189   4.735 -0.9179 -1.0837 -0.1018
 3751SOL    HW222890   2.965   0.070   4.745  1.5450 -0.2320 -2.6318
 3752SOL     OW22891   2.663   1.278   8.755  0.3765 -0.3933 -0.7743
 3752SOL    HW122892   2.725   1.349   8.738 -1.3802  1.0869 -0.9625
 3752SOL    HW222893   2.648   1.235   8.671  0.3326  0.1877 -1.0619
 3753SOL     OW22894   0.040   2.418  11.447  0.0869  0.1450  0.1765
 3753SOL    HW122895   4.707   2.409  11.513 -1.6558 -1.9774 -1.9719
 3753SOL    HW222896   0.071   2.329  11.465  2.7948  1.6233  2.8900
 3754SOL     OW22897   3.182   2.692   3.207  0.3259  0.4664 -0.0706
 3754SOL    HW122898   3.195   2.707   3.301  1.2486 -4.6712  0.6504
 3754SOL    HW222899   3.216   2.773   3.169  1.0351  0.2018 -0.0074
 3755SOL     OW22900   0.927   3.663   4.600  0.7522  0.2937 -0.4299
 3755SOL    HW122901   0.838   3.651   4.569 -0.0407  0.5237  1.7184
 3755SOL    HW222902   0.981   3.617   4.536  1.2777 -1.1917  1.0595
 3756SOL     OW22903   0.200   3.578  15.537  0.3609  0.2112  0.2435
 3756SOL    HW122904   0.279   3.627  15.560  1.3019 -0.1316 -2.3434
 3756SOL    HW222905   0.174   3.552  15.626 -0.8452  1.1410  0.1693
 3757SOL     OW22906   3.428   3.564   5.302  0.0339 -0.4015 -0.0680
 3757SOL    HW122907   3.391   3.580   5.389 -1.4522 -0.5704 -0.6679
 3757SOL    HW222908   3.520   3.549   5.323 -0.5218 -2.4356  0.9357
 3758SOL     OW22909   3.642   1.447   7.193  0.8534  0.0519  0.6451
 3758SOL    HW122910   3.559   1.428   7.148  1.1578 -0.7114  0.4030
 3758SOL    HW222911   3.706   1.420   7.127  0.0945  0.4341 -0.2515
 3759SOL     OW22912   2.783   3.809  16.333 -0.8663  0.0792  0.2208
 3759SOL    HW122913   2.689   3.806  16.317 -1.2287 -1.6631  2.6103
 3759SOL    HW222914   2.791   3.749  16.408 -1.0037  1.0742  1.0385
 3760SOL     OW22915   2.376   1.650   4.664  0.1401  0.5645  0.4573
 3760SOL    HW122916   2.289   1.652   4.703 -0.1623  0.5790 -0.2193
 3760SOL    HW222917   2.391   1.741   4.638  1.9884  0.1326 -0.0251
 3761SOL     OW22918   3.551   0.187   2.380 -0.2701  0.2200  0.0498
 3761SOL    HW122919   3.504   0.151   2.455  0.9734  0.3083  0.8792
 3761SOL    HW222920   3.517   0.134   2.308  1.1936 -1.5059  0.6271
 3762SOL     OW22921   0.854   0.472   7.507  0.4642  0.6070  0.0464
 3762SOL    HW122922   0.763   0.444   7.516  0.8761 -1.3218 -1.6757
 3762SOL    HW222923   0.875   0.447   7.597  0.8590  0.0790 -0.1893
 3763SOL     OW22924   2.570   0.739  12.600 -0.4590 -0.0885  0.1913
 3763SOL    HW122925   2.588   0.712  12.510 -0.3042 -0.8781  0.4603
 3763SOL    HW222926   2.497   0.800  12.596 -0.7703 -0.4734  0.0821
 3764SOL     OW22927   1.694   0.158  15.777 -0.6208  0.0903  0.3832
 3764SOL    HW122928   1.707   0.107  15.698  1.0956 -0.6111  1.1124
 3764SOL    HW222929   1.753   0.228  15.750 -0.7251 -0.2184 -0.6317
 3765SOL     OW22930   2.639   3.654   2.351 -0.0319 -0.0178 -0.1965
 3765SOL    HW122931   2.549   3.667   2.320 -0.4359 -1.2586  0.4692
 3765SOL    HW222932   2.678   3.619   2.271 -1.9864 -2.5402 -0.0297
 3766SOL     OW22933   4.331   0.929   5.013  0.4588 -0.2654  0.1584
 3766SOL    HW122934   4.335   1.023   4.994 -1.8499 -0.3832 -0.8162
 3766SOL    HW222935   4.409   0.914   5.067  0.0821  0.9306  1.0304
 3767SOL     OW22936   4.082   2.198  17.625  0.0800  0.0426  0.1112
 3767SOL    HW122937   4.110   2.174  17.713 -2.5027 -0.0446  0.9143
 3767SOL    HW222938   4.006   2.251  17.647 -1.0314 -0.9320 -1.3512
 3768SOL     OW22939   1.233   1.461   1.575  0.4562 -0.3571  0.0177
 3768SOL    HW122940   1.157   1.490   1.627  1.0517 -1.9514  1.7664
 3768SOL    HW222941   1.302   1.437   1.637 -0.8257 -0.4747  1.4042
 3769SOL     OW22942   0.926   1.767   3.948 -0.0829 -0.2365  0.3858
 3769SOL    HW122943   0.969   1.753   3.864 -0.6405 -1.1253  0.2515
 3769SOL    HW222944   0.967   1.850   3.973  1.6302 -1.4215  1.5862
 3770SOL     OW22945   0.935   3.333   6.182  0.3912  0.0983  0.0938
 3770SOL    HW122946   0.979   3.407   6.225  1.0569  0.4889 -1.2513
 3770SOL    HW222947   0.869   3.335   6.251  0.0609  1.2595 -0.2430
 3771SOL     OW22948   2.652   3.214   9.117  0.0082  0.3257 -0.3071
 3771SOL    HW122949   2.678   3.180   9.032 -0.5227 -1.2993  0.1628
 3771SOL    HW222950   2.644   3.133   9.168 -0.7246  1.4054  1.3067
 3772SOL     OW22951   3.803   2.975   9.259  0.2149 -0.2764 -0.2548
 3772SOL    HW122952   3.733   2.980   9.194  1.5268 -0.7508 -1.7058
 3772SOL    HW222953   3.803   2.884   9.288 -0.4662 -0.2404 -0.1437
 3773SOL     OW22954   1.804   2.174   8.245 -0.9331  0.3422  0.1830
 3773SOL    HW122955   1.762   2.235   8.305 -2.8073 -1.1525  0.3997
 3773SOL    HW222956   1.873   2.230   8.210 -1.4842 -1.2743 -3.5504
 3774SOL     OW22957   2.289   4.142   5.140  0.4868  0.3750 -0.7581
 3774SOL    HW122958   2.270   4.051   5.119 -2.6057  1.4642 -2.7050
 3774SOL    HW222959   2.243   4.152   5.224  2.8993  1.3027  0.4538
 3775SOL     OW22960   4.573   0.145  13.495 -0.1647  0.8010  0.0373
 3775SOL    HW122961   4.624   0.219  13.527 -0.1731  0.8222  0.0018
 3775SOL    HW222962   4.588   0.077  13.560  1.6374  1.6935  0.5321
 3776SOL     OW22963   3.786   1.586   3.324  1.0112  0.3347  0.1717
 3776SOL    HW122964   3.859   1.551   3.375 -0.5799 -2.0549  0.8447
 3776SOL    HW222965   3.766   1.651   3.391 -0.5558 -1.8112  1.8116
 3777SOL     OW22966   4.481   0.754  12.563 -0.4903 -0.2868 -0.2360
 3777SOL    HW122967   4.493   0.723  12.653 -1.0453 -1.5041 -0.5801
 3777SOL    HW222968   4.522   0.687  12.507  0.4423  0.4362 -0.4185
 3778SOL     OW22969   1.717   2.477   1.915  0.0217 -0.1380  0.0473
 3778SOL    HW122970   1.710   2.489   2.010 -1.4776  2.4931 -0.4221
 3778SOL    HW222971   1.764   2.393   1.916 -1.3222 -0.8936  0.2667
 3779SOL     OW22972   3.092   2.225  11.194  0.0929  0.3173  0.0082
 3779SOL    HW122973   3.137   2.141  11.205  1.0990  0.8998  0.3037
 3779SOL    HW222974   3.064   2.214  11.103  0.9108  3.5768 -0.6192
 3780SOL     OW22975   1.449   1.417   3.565  0.1111  0.3602 -0.4627
 3780SOL    HW122976   1.472   1.498   3.610  0.7901  0.9593 -1.8665
 3780SOL    HW222977   1.516   1.353   3.588  0.0694  0.0755 -1.1494
 3781SOL     OW22978   1.750   1.194   2.598 -0.1789 -0.0331  0.1856
 3781SOL    HW122979   1.844   1.179   2.601 -0.3433 -1.4022 -1.1148
 3781SOL    HW222980   1.730   1.164   2.509  0.3395 -0.7958  0.3271
 3782SOL     OW22981   0.796   0.821   7.690 -0.3553 -0.3969 -0.2578
 3782SOL    HW122982   0.795   0.780   7.603 -0.5498  0.8537 -0.8482
 3782SOL    HW222983   0.736   0.895   7.680  0.5344  0.5688  1.4821
 3783SOL     OW22984   0.596   2.696   5.754  0.3143  0.0915 -0.2648
 3783SOL    HW122985   0.560   2.607   5.758  1.3514 -0.3581 -0.8286
 3783SOL    HW222986   0.668   2.690   5.692  0.6051 -1.5223  0.2374
 3784SOL     OW22987   1.519   1.174  17.309  0.5388  0.4256 -1.0717
 3784SOL    HW122988   1.425   1.156  17.315  0.5888  0.7506  0.6845
 3784SOL    HW222989   1.513   1.268  17.329  3.1975  0.0347  1.4902
 3785SOL     OW22990   3.938   3.301  17.539  0.2311  0.6181  0.1532
 3785SOL    HW122991   3.932   3.360  17.464  1.2040 -1.5970 -1.6450
 3785SOL    HW222992   3.999   3.240  17.498 -0.8384 -1.3450  1.4706
 3786SOL     OW22993   0.568   3.494   4.735 -0.1180  0.1834  0.2275
 3786SOL    HW122994   0.572   3.562   4.668 -0.4857  1.4405  1.4860
 3786SOL    HW222995   0.520   3.551   4.795 -0.8129  0.0985 -0.2523
 3787SOL     OW22996   3.676   4.186   5.561  0.1575 -0.2909 -0.2195
 3787SOL    HW122997   3.727   4.267   5.552  0.9593 -0.8765 -0.9053
 3787SOL    HW222998   3.743   4.145   5.616 -0.3704 -1.1631 -0.2360
 3788SOL     OW22999   0.582   4.566   8.768  0.0033 -0.3950  0.8361
 3788SOL    HW123000   0.643   4.636   8.791  2.8456 -2.6719  0.2008
 3788SOL    HW223001   0.619   4.488   8.809  2.2485  0.0418 -0.4275
 3789SOL     OW23002   0.881   2.056   2.399 -0.3586  0.5212 -0.0475
 3789SOL    HW123003   0.865   2.116   2.471  2.6414  0.9037  0.2867
 3789SOL    HW223004   0.977   2.060   2.399 -0.2546 -1.6092 -0.0362
 3790SOL     OW23005   0.282   2.244   0.139  0.5419 -0.0447  0.1573
 3790SOL    HW123006   0.216   2.250   0.070  0.4684  3.8834  0.5780
 3790SOL    HW223007   0.355   2.302   0.118  0.2442 -0.0137 -0.7949
 3791SOL     OW23008   4.001   1.938  17.508  0.2754  0.1174 -0.3380
 3791SOL    HW123009   4.013   2.033  17.501 -0.7762  0.2023 -1.0510
 3791SOL    HW223010   3.920   1.929  17.558 -0.4974 -0.6960 -1.7417
 3792SOL     OW23011   0.959   1.211   5.549  0.5406 -0.5168  0.4552
 3792SOL    HW123012   1.022   1.279   5.572  0.1860  0.4161 -1.4001
 3792SOL    HW223013   0.881   1.250   5.588 -0.0234 -0.9999 -0.1893
 3793SOL     OW23014   4.647   2.659   4.912 -0.5540  0.5491  0.1744
 3793SOL    HW123015   4.611   2.656   4.824 -1.6450  1.7765  0.5755
 3793SOL    HW223016   4.579   2.717   4.948 -1.1719 -0.1554  0.1465
 3794SOL     OW23017   4.029   2.204   8.713 -0.3127 -0.3936 -0.5623
 3794SOL    HW123018   4.071   2.119   8.701  0.5253 -0.1162  0.3618
 3794SOL    HW223019   4.106   2.261   8.720 -1.3717  1.2656 -2.3092
 3795SOL     OW23020   2.743   1.532   2.135  0.2060 -0.3104 -0.2869
 3795SOL    HW123021   2.681   1.593   2.176  2.7873  1.0421  1.6529
 3795SOL    HW223022   2.705   1.478   2.067  0.6073 -2.7349  1.4239
 3796SOL     OW23023   2.841   0.106   5.754  0.4142  0.3171 -0.2121
 3796SOL    HW123024   2.907   0.045   5.786 -1.1558 -0.1089  2.2426
 3796SOL    HW223025   2.790   0.054   5.692  2.0993  1.1145 -2.2773
 3797SOL     OW23026   1.199   1.877   8.289 -0.0943 -0.1097 -0.3320
 3797SOL    HW123027   1.219   1.950   8.347 -0.6726  0.8474 -1.3352
 3797SOL    HW223028   1.170   1.822   8.362  0.9734 -0.1355  0.0576
 3798SOL     OW23029   2.768   3.172   5.499 -0.1863  0.6353  0.2140
 3798SOL    HW123030   2.737   3.205   5.583  0.4371  0.3475  0.5529
 3798SOL    HW223031   2.743   3.081   5.512  0.4790  0.3084 -0.7775
 3799SOL     OW23032   4.137   1.908  15.679  0.5773 -0.5139 -0.1558
 3799SOL    HW123033   4.083   1.868  15.748  0.1052 -1.2589 -0.9592
 3799SOL    HW223034   4.198   1.837  15.659 -0.3409 -1.3504  0.0220
 3800SOL     OW23035   0.847   3.450  13.319  0.1528  0.0810 -0.0869
 3800SOL    HW123036   0.904   3.374  13.309 -0.2263 -0.1783 -0.2916
 3800SOL    HW223037   0.897   3.508  13.376 -2.3600  2.3576 -0.2163
 3801SOL     OW23038   2.186   3.832   5.155  0.0236  0.2856 -0.8621
 3801SOL    HW123039   2.152   3.845   5.067 -2.3024 -2.5625 -0.3860
 3801SOL    HW223040   2.239   3.754   5.141 -2.5162 -1.1934 -2.2433
 3802SOL     OW23041   3.301   3.046   9.853  0.0910 -0.3989 -0.2876
 3802SOL    HW123042   3.293   3.103   9.776 -0.5145 -1.6175 -1.1140
 3802SOL    HW223043   3.209   3.040   9.877 -0.1428 -1.1807 -1.3901
 3803SOL     OW23044   1.040   3.868   1.386  0.1323  0.1579 -0.0361
 3803SOL    HW123045   0.973   3.866   1.454 -1.1401  1.1628 -1.2467
 3803SOL    HW223046   1.107   3.928   1.420 -0.5453  0.0682  1.4325
 3804SOL     OW23047   1.467   1.275   7.834 -0.4713 -0.1785  0.4834
 3804SOL    HW123048   1.469   1.319   7.749  1.4639  2.1093  1.6980
 3804SOL    HW223049   1.453   1.345   7.898  0.3004  0.5840 -0.1744
 3805SOL     OW23050   4.680   1.900  15.091  0.2623 -0.6271 -0.3523
 3805SOL    HW123051   4.682   1.812  15.053 -2.3720 -1.2697  1.0242
 3805SOL    HW223052   4.605   1.893  15.151  1.5145 -3.3199  0.9313
 3806SOL     OW23053   0.009   4.084   8.836  0.5708 -0.0280 -0.6660
 3806SOL    HW123054   4.716   4.155   8.894 -1.4937 -1.3944 -0.0230
 3806SOL    HW223055   0.049   4.136   8.766  1.6553 -3.4096 -2.5419
 3807SOL     OW23056   4.311   3.159   9.396  0.4286 -0.2242 -0.1617
 3807SOL    HW123057   4.288   3.231   9.455 -0.2890 -1.1296  0.6714
 3807SOL    HW223058   4.391   3.125   9.437  0.0825  0.6243  1.2076
 3808SOL     OW23059   1.557   0.592   8.017  0.0441  0.3753  0.2471
 3808SOL    HW123060   1.520   0.670   8.059 -1.5102 -1.2104  1.8441
 3808SOL    HW223061   1.573   0.623   7.928 -1.3513 -2.3386 -0.9423
 3809SOL     OW23062   3.770   1.779  10.568  0.1156  0.8051 -0.3938
 3809SOL    HW123063   3.846   1.801  10.621 -0.3531  1.2804  0.0851
 3809SOL    HW223064   3.773   1.847  10.501  0.7759 -0.1820 -1.3795
 3810SOL     OW23065   1.462   0.247   7.834  0.6816 -0.0083 -0.4051
 3810SOL    HW123066   1.382   0.246   7.886  0.1709 -0.5539 -1.2025
 3810SOL    HW223067   1.526   0.265   7.903 -0.0829 -0.7050  0.4824
 3811SOL     OW23068   4.359   3.410  10.925 -0.1705  0.6430  0.2028
 3811SOL    HW123069   4.372   3.323  10.963 -1.2049  0.0423 -0.8492
 3811SOL    HW223070   4.421   3.460  10.980  0.0073  0.6246  0.0191
 3812SOL     OW23071   3.063   4.638  10.257 -0.4861  0.0757  0.5260
 3812SOL    HW123072   3.009   4.677  10.326  0.1988  0.2279  0.9709
 3812SOL    HW223073   3.065   4.545  10.279  1.4635  0.0677  0.2919
 3813SOL     OW23074   2.446   1.330   2.146 -0.6636  0.2898 -0.3425
 3813SOL    HW123075   2.512   1.289   2.090 -2.3243  0.0249 -2.0798
 3813SOL    HW223076   2.404   1.251   2.181  1.3343  0.0397  1.5565
 3814SOL     OW23077   4.171   2.440   0.397 -0.0428  0.0032  0.4903
 3814SOL    HW123078   4.097   2.380   0.404 -0.5838  0.8014  1.6136
 3814SOL    HW223079   4.206   2.408   0.314 -0.5748  0.3197  0.1443
 3815SOL     OW23080   1.312   3.083   4.632 -0.4674  0.0460 -0.7109
 3815SOL    HW123081   1.343   3.010   4.685  0.2968  1.0096  0.1678
 3815SOL    HW223082   1.253   3.119   4.699 -0.4990  1.2236 -1.3758
 3816SOL     OW23083   3.158   1.833   5.702  0.4259  0.3046  0.1710
 3816SOL    HW123084   3.122   1.746   5.687 -0.7989  0.6125  1.4021
 3816SOL    HW223085   3.213   1.827   5.780  2.1687  1.0522 -1.0014
 3817SOL     OW23086   1.303   2.968   4.381  0.7194 -0.1530 -0.1665
 3817SOL    HW123087   1.231   3.008   4.331 -1.7093 -2.1983  1.6862
 3817SOL    HW223088   1.291   3.016   4.463 -0.8449 -0.1483 -0.3999
 3818SOL     OW23089   3.525   0.677   3.263  0.5589 -0.2409 -0.3287
 3818SOL    HW123090   3.552   0.593   3.301  1.3625 -0.8220 -2.1848
 3818SOL    HW223091   3.483   0.641   3.184 -0.0737 -0.4182  0.0889
 3819SOL     OW23092   1.848   1.137   1.646 -0.7180  0.3877  0.0685
 3819SOL    HW123093   1.806   1.055   1.620 -1.7712  1.2231 -0.9198
 3819SOL    HW223094   1.836   1.194   1.570  0.2838  0.5346  0.0197
 3820SOL     OW23095   3.085   1.505  13.763  0.1811 -0.0094  0.1930
 3820SOL    HW123096   3.004   1.517  13.713  0.2380  0.7322  0.2810
 3820SOL    HW223097   3.150   1.566  13.729 -0.0472  1.2461  1.9961
 3821SOL     OW23098   1.795   0.406   8.830 -0.0621 -0.2960  0.3084
 3821SOL    HW123099   1.841   0.435   8.750 -1.6370  2.6264  0.4771
 3821SOL    HW223100   1.797   0.312   8.813 -0.3531 -0.5326  1.6563
 3822SOL     OW23101   1.858   3.540  16.438  0.0218  0.3195  0.9830
 3822SOL    HW123102   1.867   3.573  16.349  3.3503  1.8671  1.8642
 3822SOL    HW223103   1.895   3.615  16.485 -0.7328  0.7495  0.8850
 3823SOL     OW23104   3.380   1.249   4.055  0.1164 -0.0134  0.1514
 3823SOL    HW123105   3.453   1.310   4.047  0.6453 -0.8000 -0.9815
 3823SOL    HW223106   3.300   1.301   4.054 -1.1771 -2.0876 -2.7742
 3824SOL     OW23107   1.139   1.565  14.297 -0.2916 -0.0209 -0.2507
 3824SOL    HW123108   1.227   1.548  14.266  0.4230 -1.8687  2.8142
 3824SOL    HW223109   1.147   1.638  14.359 -0.1362 -0.3165  0.0782
 3825SOL     OW23110   2.933   4.615  10.807  0.1063 -0.4300  0.1181
 3825SOL    HW123111   2.960   4.526  10.827 -0.3347 -0.2481  1.5076
 3825SOL    HW223112   2.893   4.651  10.886 -0.3147  1.4731 -0.9474
 3826SOL     OW23113   1.627   0.550   9.045  0.3194  0.3149 -0.5700
 3826SOL    HW123114   1.569   0.477   9.024  1.8779 -1.0743 -0.1040
 3826SOL    HW223115   1.704   0.511   9.002  1.2464  0.3675  1.0049
 3827SOL     OW23116   1.696   1.884  11.031 -0.1136  0.0274  0.6066
 3827SOL    HW123117   1.683   1.875  11.126 -3.3724  2.3783  0.4120
 3827SOL    HW223118   1.725   1.794  11.015 -2.9701 -0.7162 -0.3881
 3828SOL     OW23119   2.995   2.999   5.219 -0.1179 -0.0440 -0.3161
 3828SOL    HW123120   3.049   2.920   5.229  1.2363  0.8889 -0.3205
 3828SOL    HW223121   2.920   2.970   5.272 -0.1640  2.1048  0.7773
 3829SOL     OW23122   1.568   3.880   9.529 -0.2122 -0.7165  0.9836
 3829SOL    HW123123   1.553   3.811   9.464  2.2356 -0.5080  0.1877
 3829SOL    HW223124   1.589   3.829   9.607  0.5997 -1.6888  0.1265
 3830SOL     OW23125   3.803   2.929   3.068 -0.6033  0.1361  0.1817
 3830SOL    HW123126   3.870   2.970   3.013 -0.3714 -1.5800 -0.8039
 3830SOL    HW223127   3.721   2.955   3.025 -1.5829 -1.0309  1.3369
 3831SOL     OW23128   4.351   3.776   9.477  0.3040 -0.3766 -0.0134
 3831SOL    HW123129   4.446   3.785   9.488 -0.0446  1.4306  1.5068
 3831SOL    HW223130   4.323   3.797   9.566  1.9464  0.8265  0.2294
 3832SOL     OW23131   2.924   4.606   2.010 -0.3313 -0.0334 -0.0487
 3832SOL    HW123132   2.973   4.597   1.929  0.9021  3.5175  0.2757
 3832SOL    HW223133   2.862   4.533   2.004 -1.4335  0.9520 -0.8668
 3833SOL     OW23134   2.780   0.241  13.280  0.4200 -0.3435 -0.1003
 3833SOL    HW123135   2.829   0.318  13.311 -0.4548  0.0992  0.1978
 3833SOL    HW223136   2.749   0.270  13.194 -2.3910  1.1242  1.4070
 3834SOL     OW23137   3.444   0.847   8.081 -0.4305  0.4324  0.2951
 3834SOL    HW123138   3.416   0.931   8.118  1.3761  1.6725 -1.1158
 3834SOL    HW223139   3.404   0.858   7.995 -2.2461  0.1844  1.1163
 3835SOL     OW23140   0.916   0.809  12.209  0.1164 -0.2061  0.2091
 3835SOL    HW123141   0.955   0.769  12.286 -0.4144  1.6153  1.4164
 3835SOL    HW223142   0.824   0.799  12.231 -0.1995 -2.1130 -1.9443
 3836SOL     OW23143   4.032   3.713  12.796 -0.4250  0.0226  0.7350
 3836SOL    HW123144   4.001   3.777  12.860  0.9185 -0.0838  1.4771
 3836SOL    HW223145   4.120   3.748  12.783  0.2901 -0.7329  3.6933
 3837SOL     OW23146   0.268   1.396   0.591 -0.0987 -0.5669 -0.1874
 3837SOL    HW123147   0.301   1.402   0.501  2.6098  1.0556  0.9228
 3837SOL    HW223148   0.294   1.480   0.628  0.4270 -0.7209 -0.2061
 3838SOL     OW23149   0.792   1.849   4.997  0.4404 -0.9503 -0.7690
 3838SOL    HW123150   0.828   1.764   4.972  0.1476 -1.4401  0.4747
 3838SOL    HW223151   0.830   1.902   4.927  1.5289 -0.5635  0.1098
 3839SOL     OW23152   2.388   0.028   6.071  0.0152  0.2720  0.0371
 3839SOL    HW123153   2.450   4.725   6.009 -0.4664 -0.1258 -0.1981
 3839SOL    HW223154   2.332   0.069   6.005 -0.7262  0.9314  1.0740
 3840SOL     OW23155   0.427   1.448  11.267 -0.3061  0.5767 -0.7129
 3840SOL    HW123156   0.349   1.394  11.251 -2.0465  2.9611 -0.3834
 3840SOL    HW223157   0.498   1.386  11.249 -0.6011 -0.2576  1.0138
 3841SOL     OW23158   0.562   0.747   5.075  1.1845 -0.0080  0.3233
 3841SOL    HW123159   0.552   0.831   5.030 -0.8218 -1.7636 -2.4756
 3841SOL    HW223160   0.602   0.700   5.003 -2.4725 -1.3249 -0.8333
 3842SOL     OW23161   0.836   3.870   2.168  0.1934  0.5148  0.2175
 3842SOL    HW123162   0.818   3.902   2.079  2.5620 -1.7675 -1.0863
 3842SOL    HW223163   0.844   3.779   2.140 -0.6818 -0.3986  3.0282
 3843SOL     OW23164   2.752   3.954  15.796 -0.3392  0.6213  0.2915
 3843SOL    HW123165   2.762   3.940  15.890  2.1856 -0.2871 -0.1276
 3843SOL    HW223166   2.815   3.888  15.766 -2.6059 -1.1803 -0.5553
 3844SOL     OW23167   1.841   3.113  15.888 -0.0872 -0.2223  0.1064
 3844SOL    HW123168   1.867   3.191  15.937  1.1822  0.3513 -1.4856
 3844SOL    HW223169   1.896   3.105  15.810 -1.1326  0.9752 -0.7336
 3845SOL     OW23170   2.979   1.862   9.223  0.3358  0.0416  0.1823
 3845SOL    HW123171   2.948   1.939   9.174  2.2386 -0.9168 -2.5327
 3845SOL    HW223172   2.921   1.791   9.195  0.0826  0.0607  0.6535
 3846SOL     OW23173   1.597   0.397   1.719 -0.2304  0.6873 -0.3429
 3846SOL    HW123174   1.687   0.379   1.747 -0.8339 -0.1166  1.0832
 3846SOL    HW223175   1.599   0.493   1.720 -2.5343  0.7083  1.4283
 3847SOL     OW23176   4.147   1.969   5.893 -0.0150 -1.3481 -0.3815
 3847SOL    HW123177   4.101   2.050   5.915  3.8109  0.8395 -0.5320
 3847SOL    HW223178   4.156   1.928   5.979  2.0948  1.4052  0.6905
 3848SOL     OW23179   3.004   1.746  16.318 -0.2677 -0.3628 -0.4426
 3848SOL    HW123180   3.097   1.764  16.330 -0.2668 -2.2022  2.3660
 3848SOL    HW223181   3.001   1.713  16.228 -1.8559  1.0827 -0.9290
 3849SOL     OW23182   1.941   3.961   8.472 -0.5372 -0.7068 -0.1012
 3849SOL    HW123183   1.955   3.918   8.556 -0.8401 -0.0130  0.3118
 3849SOL    HW223184   2.025   3.937   8.433 -1.0295 -0.9043 -1.0273
 3850SOL     OW23185   1.539   0.024   5.570  0.2704  0.0687 -0.1305
 3850SOL    HW123186   1.598   4.731   5.500 -0.3811 -2.1351  0.2013
 3850SOL    HW223187   1.537   4.684   5.629  0.5952  0.3145  0.1963
 3851SOL     OW23188   1.952   3.148  16.358  0.4502 -0.0905 -0.6423
 3851SOL    HW123189   2.028   3.141  16.416  0.3674 -0.7428 -0.6189
 3851SOL    HW223190   1.888   3.087  16.394 -0.0322  1.3296  0.9521
 3852SOL     OW23191   1.889   4.029   4.190 -0.1548 -0.1313 -0.0811
 3852SOL    HW123192   1.980   4.032   4.160 -0.0340  1.2244  0.4040
 3852SOL    HW223193   1.852   4.117   4.177 -3.1103 -1.3429  0.2233
 3853SOL     OW23194   4.245   1.604  10.603 -0.2618 -0.1540  0.2546
 3853SOL    HW123195   4.326   1.582  10.649 -1.7449 -0.2184  2.8458
 3853SOL    HW223196   4.198   1.523  10.621 -1.2028 -0.2576 -2.6524
 3854SOL     OW23197   4.179   0.807  15.628  0.0347 -0.4088  0.0375
 3854SOL    HW123198   4.250   0.777  15.571 -0.9911 -1.2152 -0.8303
 3854SOL    HW223199   4.218   0.857  15.700  0.3555 -1.0546  0.3165
 3855SOL     OW23200   1.296   4.535   5.514  0.3477  0.1490  0.5440
 3855SOL    HW123201   1.382   4.522   5.552  0.8134 -1.2860 -1.0469
 3855SOL    HW223202   1.266   4.608   5.569 -1.8544 -0.2093 -0.1681
 3856SOL     OW23203   2.073   1.071   3.978 -0.3226 -0.7483  0.3436
 3856SOL    HW123204   2.146   1.070   4.040 -0.4510  2.5479  0.5557
 3856SOL    HW223205   2.109   0.997   3.929  0.3534  0.1437 -0.5075
 3857SOL     OW23206   4.642   4.015   2.971 -0.1249  0.0136  0.0038
 3857SOL    HW123207   4.618   3.943   3.029  0.0719 -0.9987 -1.1699
 3857SOL    HW223208   4.733   3.991   2.957  0.0889  1.4048 -1.0391
 3858SOL     OW23209   2.782   2.751  10.772 -0.2121  0.0246  0.2717
 3858SOL    HW123210   2.795   2.796  10.689  0.7797 -0.7544  0.0087
 3858SOL    HW223211   2.821   2.825  10.818 -0.8825  1.6555 -1.7829
 3859SOL     OW23212   2.005   0.821  14.413 -0.0878 -0.1280  0.6779
 3859SOL    HW123213   2.091   0.820  14.370  0.3725  1.8925  1.5930
 3859SOL    HW223214   2.013   0.754  14.481  0.4344  1.4320  2.1535
 3860SOL     OW23215   1.319   1.855  10.283 -0.0705  0.2514  1.0737
 3860SOL    HW123216   1.334   1.899  10.199  1.2313 -2.2763 -0.0506
 3860SOL    HW223217   1.377   1.915  10.328  0.9318  1.1491 -1.4085
 3861SOL     OW23218   3.620   2.088  12.383 -0.6399  0.6353 -0.0926
 3861SOL    HW123219   3.572   2.011  12.351 -0.4355  0.7627 -0.7203
 3861SOL    HW223220   3.708   2.057  12.361  0.1210  1.0478  2.3817
 3862SOL     OW23221   1.861   1.587   4.695 -0.1387  0.5785  0.3930
 3862SOL    HW123222   1.833   1.679   4.692 -1.1773  0.3426  2.5711
 3862SOL    HW223223   1.893   1.576   4.605  0.7972 -2.6829  1.1243
 3863SOL     OW23224   1.164   1.234   7.513 -0.7959  0.2134 -0.5190
 3863SOL    HW123225   1.202   1.210   7.597  0.9109 -0.6519 -1.5374
 3863SOL    HW223226   1.097   1.166   7.509 -0.9706  0.2290  2.2314
 3864SOL     OW23227   3.225   1.885  13.305  0.2763 -0.0892 -0.0156
 3864SOL    HW123228   3.165   1.914  13.374  0.7513  0.1699  0.2990
 3864SOL    HW223229   3.261   1.802  13.337  0.1749  0.3686  1.3088
 3865SOL     OW23230   2.744   2.078   9.250 -0.0197  0.5392  0.2135
 3865SOL    HW123231   2.779   2.159   9.287 -0.0046  0.9911 -0.7929
 3865SOL    HW223232   2.695   2.049   9.327 -1.8053  1.7640 -0.4839
 3866SOL     OW23233   4.178   3.255   7.938 -0.9173  0.0593  0.1056
 3866SOL    HW123234   4.227   3.330   7.971  1.9752 -2.7633  2.2219
 3866SOL    HW223235   4.136   3.300   7.864  1.1604  2.4857  0.3943
 3867SOL     OW23236   3.835   0.408   8.440 -0.0851 -0.7195 -0.7368
 3867SOL    HW123237   3.823   0.342   8.371  3.0475 -0.4072 -1.5679
 3867SOL    HW223238   3.910   0.460   8.411 -0.2965  0.1930  0.3652
 3868SOL     OW23239   1.122   0.804  15.136 -0.0992  0.1571  0.1463
 3868SOL    HW123240   1.069   0.768  15.208  0.6164 -1.4240 -0.1249
 3868SOL    HW223241   1.130   0.729  15.077  1.7492  0.9122 -0.5237
 3869SOL     OW23242   4.373   2.829   9.594  0.8411 -0.1686  0.5609
 3869SOL    HW123243   4.365   2.836   9.689  3.5394 -0.9792  0.8462
 3869SOL    HW223244   4.466   2.809   9.584  0.1591 -3.6383  1.2641
 3870SOL     OW23245   0.549   1.519   2.281  0.5945  0.4342 -0.0096
 3870SOL    HW123246   0.519   1.605   2.309 -0.1885  0.2049 -0.1519
 3870SOL    HW223247   0.535   1.465   2.359 -2.4370 -1.5091 -1.8997
 3871SOL     OW23248   0.187   0.192   1.762 -0.5819 -0.0639  0.4740
 3871SOL    HW123249   0.206   0.178   1.855 -2.5991  2.5813  1.2971
 3871SOL    HW223250   0.251   0.131   1.725  0.5414  1.6915 -0.5351
 3872SOL     OW23251   2.754   1.068  12.116 -0.7101 -0.4063  0.7606
 3872SOL    HW123252   2.772   0.992  12.171  0.1915 -1.0450 -0.4217
 3872SOL    HW223253   2.676   1.091  12.166 -1.3896 -0.3676 -0.3138
 3873SOL     OW23254   4.193   1.383  11.644  0.1915 -0.3012  0.0247
 3873SOL    HW123255   4.174   1.456  11.702  0.7960 -0.7382  0.7664
 3873SOL    HW223256   4.247   1.331  11.703 -1.2326  3.0043  4.1779
 3874SOL     OW23257   3.671   3.884   1.832 -0.2451  0.4220 -0.7560
 3874SOL    HW123258   3.578   3.897   1.811 -0.2831 -0.0520 -0.8748
 3874SOL    HW223259   3.679   3.803   1.781  0.3714  0.7695 -1.2132
 3875SOL     OW23260   3.771   1.459   0.280 -0.2719  0.1688 -0.0845
 3875SOL    HW123261   3.730   1.542   0.255  0.2465 -0.3652 -2.6742
 3875SOL    HW223262   3.790   1.432   0.190  0.0533 -0.5077  0.1860
 3876SOL     OW23263   3.380   4.566   7.277 -0.7204 -0.4728  0.1259
 3876SOL    HW123264   3.367   4.508   7.352  0.9869 -0.3240  0.5190
 3876SOL    HW223265   3.412   4.648   7.314 -0.2446 -0.3610 -0.5333
 3877SOL     OW23266   3.423   4.290   7.847 -0.4115 -0.0343  0.4318
 3877SOL    HW123267   3.396   4.233   7.775 -2.2294  0.7815  0.4674
 3877SOL    HW223268   3.347   4.347   7.852  0.1259  0.4368  3.1515
 3878SOL     OW23269   4.487   3.223  15.109 -0.0059 -0.3499  0.7128
 3878SOL    HW123270   4.581   3.205  15.108  0.1156  0.3352 -0.3005
 3878SOL    HW223271   4.462   3.149  15.165  0.1277 -0.4385  0.6578
 3879SOL     OW23272   1.816   2.302  17.124 -0.1599 -0.3701 -0.0240
 3879SOL    HW123273   1.729   2.314  17.087  0.5041 -2.5615 -2.3420
 3879SOL    HW223274   1.853   2.383  17.159 -1.1231 -0.2617  0.7394
 3880SOL     OW23275   2.701   1.487   8.256  0.4094 -0.4426  0.4645
 3880SOL    HW123276   2.652   1.483   8.337 -1.9109  2.1916 -0.8360
 3880SOL    HW223277   2.644   1.544   8.205 -0.0471 -2.4085 -1.2665
 3881SOL     OW23278   0.330   1.848   8.258 -0.0687  0.2749 -0.5391
 3881SOL    HW123279   0.381   1.779   8.216 -0.5770 -0.5727  0.2625
 3881SOL    HW223280   0.388   1.887   8.324 -0.5696 -0.6610  0.4397
 3882SOL     OW23281   4.604   0.876  14.684  0.3615  0.0021  0.3637
 3882SOL    HW123282   4.698   0.867  14.667  0.2863  0.9926 -0.6110
 3882SOL    HW223283   4.575   0.935  14.613  2.9447 -0.9419 -1.4719
 3883SOL     OW23284   2.996   0.756  17.346 -0.8308 -0.3917 -0.1039
 3883SOL    HW123285   2.977   0.801  17.428 -0.6691  0.4478 -0.5272
 3883SOL    HW223286   3.088   0.781  17.337 -1.3820  0.8628 -2.2489
 3884SOL     OW23287   0.664   1.688   3.880  0.0029 -0.4061  0.1589
 3884SOL    HW123288   0.756   1.710   3.891  0.8700 -3.4290 -1.0309
 3884SOL    HW223289   0.671   1.620   3.813 -0.6484  0.8005 -1.1378
 3885SOL     OW23290   0.197   4.112   5.898  0.2307  0.3723 -0.3091
 3885SOL    HW123291   0.210   4.205   5.876 -0.5135 -0.2367 -3.3242
 3885SOL    HW223292   0.268   4.066   5.854 -1.6103 -0.9527 -1.8550
 3886SOL     OW23293   0.132   4.095  13.666 -0.4432 -0.3216  0.1122
 3886SOL    HW123294   0.045   4.110  13.629 -0.7132 -1.8942  0.1030
 3886SOL    HW223295   0.156   4.022  13.608 -1.0702 -0.8829  0.5602
 3887SOL     OW23296   2.953   3.167  11.622 -0.1822 -0.1864  0.0197
 3887SOL    HW123297   2.963   3.111  11.699  2.0688 -0.1138 -0.2282
 3887SOL    HW223298   3.014   3.129  11.559  0.5364  1.5248 -0.3252
 3888SOL     OW23299   0.471   2.261   2.226  0.0858  0.0223 -0.2932
 3888SOL    HW123300   0.430   2.181   2.257  0.8648  0.0802  0.8838
 3888SOL    HW223301   0.566   2.244   2.230  0.2294  0.8897  0.0230
 3889SOL     OW23302   4.224   3.030  15.547 -0.2735  0.0759  0.6494
 3889SOL    HW123303   4.162   2.961  15.569  0.9666 -1.0336  0.5943
 3889SOL    HW223304   4.309   2.990  15.561  0.4562  0.0947 -3.8064
 3890SOL     OW23305   1.770   1.377   3.820 -0.1683 -0.4654  0.4030
 3890SOL    HW123306   1.855   1.395   3.860  0.3856  0.4716 -1.2385
 3890SOL    HW223307   1.716   1.442   3.866  3.6192  2.0696  1.2659
 3891SOL     OW23308   1.697   0.601   5.080  0.6169 -0.3391 -0.4374
 3891SOL    HW123309   1.756   0.675   5.065  1.6992 -1.1381 -0.0580
 3891SOL    HW223310   1.666   0.576   4.993  1.3283 -0.6749 -0.5854
 3892SOL     OW23311   2.699   2.239   5.633  0.3445 -0.0260 -0.4486
 3892SOL    HW123312   2.649   2.283   5.565 -1.3428 -0.1585  0.6963
 3892SOL    HW223313   2.649   2.255   5.713  1.8630 -0.3792  0.5832
 3893SOL     OW23314   2.022   2.354   3.447 -0.4239  0.1467  0.0293
 3893SOL    HW123315   2.003   2.412   3.521 -2.2908 -0.6974  0.2272
 3893SOL    HW223316   2.109   2.387   3.424 -0.4336 -1.8597 -2.8364
 3894SOL     OW23317   2.476   3.055  13.605 -0.1805  0.2776  0.3755
 3894SOL    HW123318   2.483   3.046  13.700  0.5285 -0.5380  0.2434
 3894SOL    HW223319   2.503   2.967  13.579 -0.9779 -0.1260  0.9108
 3895SOL     OW23320   0.584   2.506  12.966 -0.2068 -0.0611 -0.0557
 3895SOL    HW123321   0.553   2.429  12.918 -1.3559  0.8766 -0.8230
 3895SOL    HW223322   0.603   2.464  13.050  0.9946 -2.7039 -1.6537
 3896SOL     OW23323   2.845   1.805   4.156  0.0038 -0.5274  0.1940
 3896SOL    HW123324   2.838   1.848   4.241 -1.5760  1.3459 -0.8975
 3896SOL    HW223325   2.935   1.774   4.162  0.4781  0.5528 -1.3265
 3897SOL     OW23326   3.308   0.760   8.948  0.2932 -0.0187  0.0512
 3897SOL    HW123327   3.394   0.752   8.906  0.2136 -0.6698  0.0093
 3897SOL    HW223328   3.309   0.678   8.997  1.7248  0.4886  0.8795
 3898SOL     OW23329   0.849   3.776   1.590  0.0453  0.4223  0.0504
 3898SOL    HW123330   0.810   3.692   1.610  0.9730 -0.3176 -1.2196
 3898SOL    HW223331   0.778   3.818   1.540 -0.6354 -0.9984 -0.1734
 3899SOL     OW23332   3.781   4.729  16.791  0.0950  0.3250 -0.5051
 3899SOL    HW123333   3.840   0.067  16.773  1.7339 -0.7051  0.6001
 3899SOL    HW223334   3.693   0.029  16.799  0.1409  0.2009  0.5655
 3900SOL     OW23335   3.260   2.124   2.015 -0.8130  0.1021 -0.1148
 3900SOL    HW123336   3.171   2.144   2.044 -1.6228  1.8880 -3.8642
 3900SOL    HW223337   3.258   2.031   1.992  3.1744 -0.6955  2.9174
 3901SOL     OW23338   3.800   1.605   2.010  0.0042 -0.7124  0.2378
 3901SOL    HW123339   3.766   1.694   2.018 -0.7519 -1.2432  3.1255
 3901SOL    HW223340   3.776   1.555   2.089 -2.9074  1.8203  0.9687
 3902SOL     OW23341   0.997   0.737  11.950  0.2075  0.1413 -0.0194
 3902SOL    HW123342   0.967   0.750  12.040  1.5274  0.5477  0.3506
 3902SOL    HW223343   0.992   0.641  11.941  0.2203  0.0766  0.6608
 3903SOL     OW23344   1.191   3.141   2.185  0.5005 -0.1650  0.2250
 3903SOL    HW123345   1.252   3.204   2.223 -1.6136  1.0395  1.6347
 3903SOL    HW223346   1.187   3.174   2.096  0.6028  1.3173  0.7732
 3904SOL     OW23347   4.424   0.314   1.466 -0.1178  0.1292 -0.8837
 3904SOL    HW123348   4.423   0.224   1.436 -1.4504 -0.2563  0.3198
 3904SOL    HW223349   4.493   0.313   1.533 -0.8805  1.6550 -0.0740
 3905SOL     OW23350   3.010   4.453   9.290  0.3624 -0.0431  0.1561
 3905SOL    HW123351   3.017   4.376   9.347 -0.7426  0.6021  1.1669
 3905SOL    HW223352   3.043   4.403   9.215  2.5537 -0.9541  1.7199
 3906SOL     OW23353   0.440   3.366  13.140  0.0528 -0.3989 -0.6562
 3906SOL    HW123354   0.530   3.398  13.130 -0.6701  1.8425 -0.1784
 3906SOL    HW223355   0.438   3.294  13.078 -0.2535  0.5471 -1.7452
 3907SOL     OW23356   4.476   2.452   7.797 -0.0822  0.1253 -0.1083
 3907SOL    HW123357   4.567   2.481   7.798  0.3257 -1.2288  1.7458
 3907SOL    HW223358   4.442   2.482   7.712 -1.9054 -0.1348  0.5249
 3908SOL     OW23359   3.503   0.148   3.362 -0.7287  0.0785 -0.3608
 3908SOL    HW123360   3.520   0.085   3.431 -0.7750  0.4357 -0.0248
 3908SOL    HW223361   3.571   0.122   3.300 -0.4210  1.1038 -0.4485
 3909SOL     OW23362   1.044   0.258   2.194  0.3450 -0.3840  0.3248
 3909SOL    HW123363   1.016   0.348   2.210 -1.7380 -1.0642  0.4795
 3909SOL    HW223364   0.996   0.209   2.261 -0.8108  1.8508  1.1472
 3910SOL     OW23365   3.895   2.810   1.849  0.1819  0.0557 -0.0379
 3910SOL    HW123366   3.969   2.809   1.911 -0.1707  1.6069  0.3914
 3910SOL    HW223367   3.841   2.740   1.887  1.9435 -1.6954 -0.7310
 3911SOL     OW23368   3.528   2.443   9.399  0.4812 -0.0820 -0.7155
 3911SOL    HW123369   3.616   2.408   9.379  0.3077 -1.0246  0.1362
 3911SOL    HW223370   3.510   2.511   9.334 -1.7025  1.3007  1.3649
 3912SOL     OW23371   4.090   0.478   7.212  0.3998 -0.6249 -0.2971
 3912SOL    HW123372   4.134   0.434   7.139 -0.1873 -0.2047 -0.9037
 3912SOL    HW223373   4.070   0.567   7.185 -3.5373 -1.6246 -0.6745
 3913SOL     OW23374   2.742   0.015   8.727  0.0837 -0.2119 -0.7890
 3913SOL    HW123375   2.802   0.075   8.770  0.1988  0.3817 -1.7753
 3913SOL    HW223376   2.746   4.671   8.780  0.2380  0.5790  0.3972
 3914SOL     OW23377   4.099   2.476  11.165 -0.2763  0.1117  0.1230
 3914SOL    HW123378   4.126   2.459  11.255  0.5560 -1.0586 -0.3510
 3914SOL    HW223379   4.051   2.559  11.161  1.2044  1.0764  2.0677
 3915SOL     OW23380   4.188   2.805   4.755 -0.3800  1.0241 -0.1753
 3915SOL    HW123381   4.240   2.743   4.703 -0.7113 -0.3722  1.1577
 3915SOL    HW223382   4.132   2.837   4.684 -1.0756  2.3675  0.9833
 3916SOL     OW23383   2.701   3.975   4.462  0.3472  0.5211  0.3781
 3916SOL    HW123384   2.685   3.955   4.369 -0.0980  2.8875 -0.0379
 3916SOL    HW223385   2.618   4.012   4.493  0.9849  1.2145  1.2320
 3917SOL     OW23386   1.885   4.484  12.075 -0.3561 -0.7872  0.7017
 3917SOL    HW123387   1.916   4.422  12.008 -0.3684  0.5846 -0.5693
 3917SOL    HW223388   1.967   4.512  12.116 -0.1010  0.7391 -0.8540
 3918SOL     OW23389   1.088   2.869  12.943 -0.4601  0.2976  0.1188
 3918SOL    HW123390   1.024   2.799  12.934  2.2439 -2.0046 -1.5141
 3918SOL    HW223391   1.030   2.936  12.906  1.6896  1.6401 -0.8656
 3919SOL     OW23392   4.075   1.997   3.128 -0.1224  0.8038 -0.0138
 3919SOL    HW123393   4.140   1.948   3.077 -1.0463 -0.6511  0.2091
 3919SOL    HW223394   4.013   1.929   3.154  1.4573 -0.6304 -0.0280
 3920SOL     OW23395   2.114   3.792   2.960  0.7200  0.0029  0.0323
 3920SOL    HW123396   2.057   3.759   3.030  1.7555 -1.2350  0.2892
 3920SOL    HW223397   2.088   3.884   2.956  1.0019  0.1250  0.9438
 3921SOL     OW23398   1.954   2.867   8.701  0.1638 -0.6888 -0.1657
 3921SOL    HW123399   1.897   2.793   8.681 -2.3338  1.9942 -2.9438
 3921SOL    HW223400   1.895   2.943   8.699 -2.0350 -2.4356 -1.3026
 3922SOL     OW23401   4.536   1.076  15.640 -0.3111 -0.0212  0.4378
 3922SOL    HW123402   4.533   1.162  15.597  2.4972 -0.3425 -0.4237
 3922SOL    HW223403   4.625   1.048  15.618 -0.4539  0.3718 -0.6616
 3923SOL     OW23404   3.502   1.940   9.344  0.0601  0.4141 -0.2638
 3923SOL    HW123405   3.442   1.889   9.290 -0.4020  1.4195 -0.6879
 3923SOL    HW223406   3.533   1.867   9.398  1.2406  0.4435 -0.9108
 3924SOL     OW23407   3.079   0.973   3.060 -0.3572 -0.4078 -0.5248
 3924SOL    HW123408   3.128   1.043   3.104 -1.4969  1.3530 -2.0807
 3924SOL    HW223409   3.038   0.926   3.133  0.3732 -3.5766 -2.1279
 3925SOL     OW23410   1.152   2.728  14.567 -0.6102 -0.2444 -0.5325
 3925SOL    HW123411   1.217   2.797  14.567 -2.7194  1.7577  0.0203
 3925SOL    HW223412   1.081   2.773  14.613 -0.8505 -0.4905 -0.6602
 3926SOL     OW23413   0.799   3.085   3.990  0.9665 -0.3700 -0.3731
 3926SOL    HW123414   0.817   3.066   4.082 -0.7586  0.8147  0.2154
 3926SOL    HW223415   0.712   3.046   3.983  0.9266 -0.4665  0.6598
 3927SOL     OW23416   4.596   2.787   9.397  0.1259  0.5272  0.0504
 3927SOL    HW123417   4.525   2.743   9.351  1.4048 -0.0889 -1.3498
 3927SOL    HW223418   4.584   2.881   9.381 -0.9248  0.4805  0.6062
 3928SOL     OW23419   4.656   1.098   6.583  0.3845  0.6734  0.4906
 3928SOL    HW123420   4.605   1.040   6.527  2.1562 -0.3904 -0.0197
 3928SOL    HW223421   4.586   1.162   6.598  0.5382  0.7919  0.7062
 3929SOL     OW23422   0.580   1.206   5.773  0.7234  0.2720 -0.2725
 3929SOL    HW123423   0.582   1.301   5.789 -1.3782  0.1720  0.6961
 3929SOL    HW223424   0.578   1.169   5.861 -1.5119  1.3440  0.1399
 3930SOL     OW23425   1.972   0.078   1.402  0.4544 -0.0260 -0.5369
 3930SOL    HW123426   1.945   0.146   1.341  0.2758  1.0720  0.7792
 3930SOL    HW223427   2.005   0.007   1.345  0.4913 -0.9651  0.6563
 3931SOL     OW23428   2.021   1.198  14.940  0.7623 -0.0863 -0.3754
 3931SOL    HW123429   2.041   1.237  15.025 -0.3249 -0.4036  0.0238
 3931SOL    HW223430   2.017   1.105  14.965  2.1855 -0.0727 -0.0862
 3932SOL     OW23431   4.222   3.914   0.799  0.8241 -0.0541 -0.1845
 3932SOL    HW123432   4.260   3.999   0.823  0.9943  0.5685 -2.6478
 3932SOL    HW223433   4.298   3.874   0.757  0.3246  0.8498 -1.9637
 3933SOL     OW23434   4.274   0.417   8.123 -0.3986  0.2546 -0.0547
 3933SOL    HW123435   4.292   0.324   8.136 -1.4904 -0.0722 -0.8880
 3933SOL    HW223436   4.265   0.440   8.215  0.2326  1.4088 -0.2804
 3934SOL     OW23437   2.224   2.300   4.079 -0.2698  0.2632  0.1101
 3934SOL    HW123438   2.270   2.272   4.159  1.0388  0.2024 -0.6596
 3934SOL    HW223439   2.306   2.306   4.029  0.6132 -0.0048  1.5168
 3935SOL     OW23440   0.203   2.390   1.654 -0.2396  0.5241  0.3963
 3935SOL    HW123441   0.150   2.366   1.578  1.0748  2.5471 -1.1723
 3935SOL    HW223442   0.228   2.303   1.683  0.0973  0.5243  0.1031
 3936SOL     OW23443   1.084   0.741   7.475 -0.2215 -0.6864 -0.2183
 3936SOL    HW123444   1.101   0.653   7.507 -0.4300 -0.3990  0.6917
 3936SOL    HW223445   0.993   0.732   7.447  1.1011 -0.6833 -4.4974
 3937SOL     OW23446   2.484   2.419  16.895 -0.0528  0.5727 -0.1465
 3937SOL    HW123447   2.447   2.354  16.835  0.6109  0.5469 -0.5322
 3937SOL    HW223448   2.501   2.357  16.966  1.5208 -0.1024 -1.1176
 3938SOL     OW23449   1.726   0.412   2.330  0.0245 -0.5427  0.3164
 3938SOL    HW123450   1.810   0.403   2.377  0.0590 -1.1214  0.1446
 3938SOL    HW223451   1.746   0.370   2.246 -0.5784  0.1060 -0.1547
 3939SOL     OW23452   0.447   1.603   9.532  0.4313 -0.1089 -0.3854
 3939SOL    HW123453   0.540   1.582   9.524  0.7062  0.1995  2.1805
 3939SOL    HW223454   0.457   1.648   9.615  3.3549 -0.2193 -0.6637
 3940SOL     OW23455   4.531   3.644   0.133 -0.0868  0.5764 -0.0444
 3940SOL    HW123456   4.456   3.662   0.189 -0.0193  1.6910 -0.3196
 3940SOL    HW223457   4.564   3.733   0.116  0.2349  0.5760  0.5700
 3941SOL     OW23458   4.120   0.468   9.435 -0.4240 -0.3761  0.2495
 3941SOL    HW123459   4.132   0.374   9.424  0.1369 -0.6869  3.6870
 3941SOL    HW223460   4.025   0.471   9.427 -0.3184 -0.3376 -1.0999
 3942SOL     OW23461   3.975   2.805  15.337 -0.0953  0.0674 -0.7962
 3942SOL    HW123462   3.995   2.827  15.428  0.4369  0.8468 -1.1081
 3942SOL    HW223463   3.949   2.713  15.346  0.7588 -0.2340 -1.4365
 3943SOL     OW23464   3.111   1.929   5.323 -0.5212 -0.1902 -0.8195
 3943SOL    HW123465   3.164   1.873   5.379 -0.5898  0.1745 -0.3878
 3943SOL    HW223466   3.163   1.963   5.249 -1.6580  2.1637 -0.5485
 3944SOL     OW23467   0.305   1.617   3.490  0.1589 -0.1341 -0.5107
 3944SOL    HW123468   0.337   1.702   3.519 -2.5103  1.4807 -2.2630
 3944SOL    HW223469   0.273   1.582   3.573  0.8731  0.0840 -0.1479
 3945SOL     OW23470   0.046   2.581   1.028  0.4181  0.0600 -0.0230
 3945SOL    HW123471   0.036   2.562   1.121  1.4419  0.7951  0.2303
 3945SOL    HW223472   0.099   2.506   1.000 -1.4735 -0.7194 -1.5306
 3946SOL     OW23473   2.215   0.760   9.590 -0.2015 -0.0215  0.1515
 3946SOL    HW123474   2.172   0.814   9.655 -1.0873 -1.5068  0.8092
 3946SOL    HW223475   2.163   0.679   9.585 -1.0304  0.4542  1.1382
 3947SOL     OW23476   2.406   0.616   4.931  0.2723 -0.5367  0.0455
 3947SOL    HW123477   2.320   0.603   4.971  0.5248  2.9772  1.7222
 3947SOL    HW223478   2.379   0.638   4.843 -2.5835 -0.5098  0.9432
 3948SOL     OW23479   1.348   1.899  11.194  0.6386 -0.4259 -0.5948
 3948SOL    HW123480   1.325   1.944  11.275  2.6978 -1.2898  0.4566
 3948SOL    HW223481   1.443   1.893  11.201  0.7646  0.9842 -1.0756
 3949SOL     OW23482   2.403   3.388   9.470  0.5315  0.0380  0.1830
 3949SOL    HW123483   2.374   3.398   9.561 -1.1912  1.6299 -0.5370
 3949SOL    HW223484   2.326   3.342   9.437  0.3940  0.5479 -0.2100
 3950SOL     OW23485   1.752   1.816   1.488  0.2165  0.1247 -0.2295
 3950SOL    HW123486   1.831   1.862   1.459 -1.3273  2.3652 -0.9115
 3950SOL    HW223487   1.747   1.738   1.432  2.8641 -0.7605  0.7899
 3951SOL     OW23488   2.790   0.430   7.442  0.0073 -0.6264  0.1641
 3951SOL    HW123489   2.708   0.465   7.406  0.1951  1.1047  1.4478
 3951SOL    HW223490   2.787   0.451   7.535 -1.9644  0.5377 -0.1600
 3952SOL     OW23491   2.428   3.783   5.359  0.2900 -0.2902  0.4663
 3952SOL    HW123492   2.354   3.837   5.330 -1.7290 -1.5701  3.2629
 3952SOL    HW223493   2.446   3.825   5.443 -0.6111 -0.0150  0.5226
 3953SOL     OW23494   0.821   1.780  12.171 -0.4095 -0.1434  0.6200
 3953SOL    HW123495   0.740   1.819  12.202 -0.5837  0.2364 -0.3041
 3953SOL    HW223496   0.811   1.766  12.077 -0.0235  0.4504  0.4876
 3954SOL     OW23497   2.659   2.062  17.683  0.1316  0.0616  0.8920
 3954SOL    HW123498   2.593   2.076   0.010  0.9292  0.7614  1.5256
 3954SOL    HW223499   2.742   2.084  17.724  0.2791  0.5526  0.3343
 3955SOL     OW23500   1.152   0.167   5.884 -0.5737  0.6170 -0.1115
 3955SOL    HW123501   1.070   0.216   5.875 -1.4442 -0.4581  1.7813
 3955SOL    HW223502   1.208   0.243   5.899 -0.0116  0.0432  0.7344
 3956SOL     OW23503   1.829   1.039  15.441 -0.5306 -0.3283 -0.1346
 3956SOL    HW123504   1.823   1.052  15.346  0.9107 -1.3472 -0.3694
 3956SOL    HW223505   1.841   1.128  15.474  1.1312 -0.9319  0.8680
 3957SOL     OW23506   3.909   0.845   6.943  0.5024 -0.5762  0.2339
 3957SOL    HW123507   3.987   0.874   6.897 -1.3669  0.6732 -2.1190
 3957SOL    HW223508   3.856   0.812   6.870 -0.2271  2.2830 -0.5300
 3958SOL     OW23509   1.335   1.875  15.975 -0.0833 -0.1602 -0.0440
 3958SOL    HW123510   1.365   1.872  15.884  1.9391  0.5703  0.6008
 3958SOL    HW223511   1.372   1.956  16.010  0.1553  0.2268 -1.1906
 3959SOL     OW23512   0.182   1.623   9.498  0.3819 -0.4420 -0.2825
 3959SOL    HW123513   0.161   1.533   9.474  1.3867 -1.1323  1.4837
 3959SOL    HW223514   0.276   1.613   9.511  0.1029 -1.8847  0.6620
 3960SOL     OW23515   4.655   2.115   8.465 -0.1642 -0.2703 -0.0505
 3960SOL    HW123516   4.637   2.035   8.514 -0.5200 -0.2258 -0.1085
 3960SOL    HW223517   4.566   2.141   8.440 -0.2529 -2.1524 -1.7008
 3961SOL     OW23518   0.281   1.170   5.368  0.3954  0.5802  0.0475
 3961SOL    HW123519   0.237   1.233   5.310  2.1951  1.4551 -0.3623
 3961SOL    HW223520   0.354   1.226   5.393  2.0767 -0.8333 -1.7277
 3962SOL     OW23521   3.676   2.442   8.085  0.0975  0.1447 -0.0218
 3962SOL    HW123522   3.630   2.369   8.127  1.7069 -1.8370 -1.7168
 3962SOL    HW223523   3.682   2.501   8.160  1.3616  0.0036 -0.0116
 3963SOL     OW23524   2.294   0.900   8.513  0.1079  0.1801  0.2646
 3963SOL    HW123525   2.256   0.815   8.493  1.7208 -0.0729 -1.7105
 3963SOL    HW223526   2.359   0.905   8.443  0.4214 -1.0627  0.4642
 3964SOL     OW23527   0.863   2.482  14.445  0.2156 -0.0462  0.2800
 3964SOL    HW123528   0.882   2.479  14.539 -0.1170  1.8702  0.3979
 3964SOL    HW223529   0.946   2.459  14.405  0.5417  1.4303  0.1198
 3965SOL     OW23530   0.264   0.837   5.024  0.1754 -0.3539 -0.7069
 3965SOL    HW123531   0.293   0.929   5.026 -2.9410  0.5984  0.1259
 3965SOL    HW223532   0.336   0.784   5.057 -1.6311 -1.2324  1.7651
 3966SOL     OW23533   2.297   2.643   3.122  0.3809 -0.2504  0.0910
 3966SOL    HW123534   2.343   2.588   3.058  2.1337 -1.3899  2.3556
 3966SOL    HW223535   2.350   2.722   3.126 -0.7692  0.5298  0.0362
 3967SOL     OW23536   1.655   0.421   7.717  0.2669  0.7847 -0.1873
 3967SOL    HW123537   1.733   0.391   7.765  0.0083  0.1824 -0.1422
 3967SOL    HW223538   1.599   0.345   7.732  2.0127 -0.6066 -0.6227
 3968SOL     OW23539   0.712   2.077  13.270  0.4197 -0.2527 -0.1292
 3968SOL    HW123540   0.783   2.135  13.298 -0.3470  0.0271  1.2457
 3968SOL    HW223541   0.655   2.082  13.347 -0.5261 -0.8060 -0.7968
 3969SOL     OW23542   0.606   3.206   8.374 -0.1078  0.0405 -0.2829
 3969SOL    HW123543   0.587   3.270   8.304  0.1459  2.2958  1.7077
 3969SOL    HW223544   0.584   3.247   8.457 -0.8517  0.3372 -0.6244
 3970SOL     OW23545   4.265   0.955  10.658  0.0374 -0.0066 -0.4298
 3970SOL    HW123546   4.350   0.986  10.688  0.3140 -0.6629 -0.5245
 3970SOL    HW223547   4.206   1.030  10.656  0.6448  0.5067  0.7527
 3971SOL     OW23548   0.223   0.483   9.876 -0.1845  0.0727  0.0469
 3971SOL    HW123549   0.186   0.562   9.914  1.2707  1.6350 -1.8013
 3971SOL    HW223550   0.262   0.434   9.949  0.2427 -0.0970 -0.3001
 3972SOL     OW23551   1.161   0.504   6.681  0.2957  0.2381  0.1091
 3972SOL    HW123552   1.174   0.585   6.731 -1.1007  0.6676 -0.2401
 3972SOL    HW223553   1.244   0.459   6.698  0.5138  0.9760  1.0363
 3973SOL     OW23554   4.381   2.423   0.625 -0.1868 -0.0581 -0.7535
 3973SOL    HW123555   4.321   2.354   0.653  2.1543 -1.0637  1.8547
 3973SOL    HW223556   4.325   2.452   0.553  2.5983  1.2028 -2.3932
 3974SOL     OW23557   2.743   0.127   3.767  0.4461  0.3714  0.0343
 3974SOL    HW123558   2.800   0.132   3.691  0.2822 -0.8219 -0.1539
 3974SOL    HW223559   2.679   0.061   3.742 -0.0908  1.0411 -0.3731
 3975SOL     OW23560   1.002   3.075   3.814  0.2125 -0.0510 -0.9054
 3975SOL    HW123561   0.944   3.033   3.751  0.7481  0.8932 -2.0106
 3975SOL    HW223562   0.940   3.071   3.887  2.0562 -0.3621  0.6681
 3976SOL     OW23563   3.325   3.637   8.377 -0.4243  0.0063 -0.3953
 3976SOL    HW123564   3.349   3.725   8.407  1.2842  0.0267 -1.8437
 3976SOL    HW223565   3.230   3.642   8.388 -0.2040  3.6641 -0.2492
 3977SOL     OW23566   3.535   4.300  14.697 -0.2524  0.1468  0.4092
 3977SOL    HW123567   3.440   4.296  14.686  0.0888 -2.2077 -1.6772
 3977SOL    HW223568   3.554   4.222  14.748 -0.2677 -0.9421 -1.2695
 3978SOL     OW23569   4.002   0.104   5.962 -0.0532  0.0311 -0.5189
 3978SOL    HW123570   4.054   0.039   6.009  0.3238  1.0681  0.5117
 3978SOL    HW223571   3.982   0.061   5.880  1.2523 -0.8415 -0.3788
 3979SOL     OW23572   3.204   3.689   8.139 -0.1404 -0.2285 -0.0173
 3979SOL    HW123573   3.212   3.608   8.089 -0.5542  0.0312 -0.5091
 3979SOL    HW223574   3.263   3.670   8.212 -0.5760  2.4773  1.0369
 3980SOL     OW23575   4.147   3.783   9.693 -0.0304  0.2729 -0.4653
 3980SOL    HW123576   4.066   3.801   9.645 -0.6277  1.7628  1.0730
 3980SOL    HW223577   4.117   3.722   9.760  0.3037 -1.3045 -1.7778
 3981SOL     OW23578   4.337   4.502   8.314 -0.2919  1.1370  0.2610
 3981SOL    HW123579   4.304   4.542   8.233  1.8042 -0.1962 -1.2652
 3981SOL    HW223580   4.338   4.574   8.376 -0.7347 -0.6240  2.3051
 3982SOL     OW23581   3.443   1.623   8.385  0.4174  0.1329  0.2176
 3982SOL    HW123582   3.512   1.561   8.408 -0.2477  0.5999  3.4352
 3982SOL    HW223583   3.480   1.707   8.411 -1.7743  1.2860 -0.3681
 3983SOL     OW23584   2.274   0.698  11.556 -0.1257 -0.5846  0.4498
 3983SOL    HW123585   2.334   0.626  11.534  0.5698  0.8997 -2.4653
 3983SOL    HW223586   2.305   0.707  11.646 -0.2904  1.8737  0.2495
 3984SOL     OW23587   1.384   2.626  17.116 -0.5112  0.4917  0.1471
 3984SOL    HW123588   1.405   2.604  17.207  3.7327 -0.3474 -1.0525
 3984SOL    HW223589   1.469   2.665  17.098 -1.1110  0.9015 -1.7960
 3985SOL     OW23590   2.440   3.060   8.117 -0.2160 -0.4373 -0.3270
 3985SOL    HW123591   2.351   3.084   8.094  0.1907  0.9170 -0.5141
 3985SOL    HW223592   2.464   3.025   8.031  1.1311 -0.9628  0.2533
 3986SOL     OW23593   0.029   2.910   1.620  0.5375  0.0488 -0.1245
 3986SOL    HW123594   4.710   2.867   1.555  0.8445 -0.5033 -0.0197
 3986SOL    HW223595   0.060   2.829   1.662  2.5214 -0.1861 -2.0164
 3987SOL     OW23596   0.826   3.855  16.048 -0.4805 -0.2881  0.1806
 3987SOL    HW123597   0.911   3.824  16.017 -1.5391 -3.2060  0.1626
 3987SOL    HW223598   0.779   3.816  15.974 -1.5593  0.1609  0.6246
 3988SOL     OW23599   0.794   2.490   1.901  0.4255  0.2034 -0.1799
 3988SOL    HW123600   0.828   2.492   1.990 -1.4189 -3.0881  0.5618
 3988SOL    HW223601   0.834   2.412   1.862  0.4074  0.0442  0.1248
 3989SOL     OW23602   3.446   1.069  15.928 -0.1215 -0.3398 -0.4331
 3989SOL    HW123603   3.480   0.984  15.898  1.8471  0.0734  0.6973
 3989SOL    HW223604   3.500   1.127  15.875 -1.7676  1.3583 -0.2535
 3990SOL     OW23605   0.242   0.292   3.651  0.0242 -0.4896  0.7213
 3990SOL    HW123606   0.194   0.217   3.685  0.7742 -0.3484  2.0782
 3990SOL    HW223607   0.161   0.338   3.627  1.4632  2.0514  0.6964
 3991SOL     OW23608   1.564   0.943   6.639  0.2127 -0.0435 -0.6005
 3991SOL    HW123609   1.571   1.025   6.590 -0.2945  0.2431 -0.1880
 3991SOL    HW223610   1.655   0.915   6.625 -0.0988 -1.3218 -0.0451
 3992SOL     OW23611   0.212   4.474   4.045 -0.0568  0.2261 -0.3246
 3992SOL    HW123612   0.127   4.516   4.041 -0.8385 -1.1807  1.8717
 3992SOL    HW223613   0.218   4.426   3.962 -0.9090 -1.2719  0.4872
 3993SOL     OW23614   1.104   3.231   3.998  0.4390 -0.1678 -0.0862
 3993SOL    HW123615   1.076   3.305   3.945  2.5022 -0.6946 -1.9342
 3993SOL    HW223616   1.095   3.159   3.936 -0.4727 -0.8231  0.8143
 3994SOL     OW23617   1.652   0.599  14.630 -0.5044 -0.2664  0.2257
 3994SOL    HW123618   1.688   0.604  14.719  2.0494 -1.3279 -0.7540
 3994SOL    HW223619   1.562   0.570  14.645 -0.7373 -0.1279 -0.8867
 3995SOL     OW23620   0.683   0.799   2.978  0.0563  0.5748  0.2783
 3995SOL    HW123621   0.771   0.823   2.949  0.3091  1.3206  1.6808
 3995SOL    HW223622   0.699   0.707   2.999 -0.5522  0.2707 -0.5974
 3996SOL     OW23623   1.344   1.692  17.178  0.2689  0.3134  0.1436
 3996SOL    HW123624   1.305   1.772  17.143 -1.9113 -1.2737 -1.0636
 3996SOL    HW223625   1.408   1.668  17.110 -0.2688  0.2188 -0.3301
 3997SOL     OW23626   1.671   1.906   8.198  0.0706  0.0430  0.6132
 3997SOL    HW123627   1.691   1.915   8.105 -1.6286 -0.2845  0.2337
 3997SOL    HW223628   1.736   1.966   8.235  0.8599 -0.4364  0.0047
 3998SOL     OW23629   2.996   0.941   1.739  0.0807  0.7937  0.1906
 3998SOL    HW123630   3.082   0.912   1.711 -0.7347 -0.9413 -0.4847
 3998SOL    HW223631   2.959   0.988   1.664  0.2891  0.6743  0.0127
 3999SOL     OW23632   0.227   4.426   7.441  0.0052 -0.4876 -0.3067
 3999SOL    HW123633   0.223   4.512   7.483  1.1258  0.6421 -2.4793
 3999SOL    HW223634   0.257   4.373   7.515  2.0689 -0.3055 -0.9936
 4000SOL     OW23635   0.660   2.498   2.448  0.2932 -0.1022 -0.2231
 4000SOL    HW123636   0.641   2.416   2.493 -3.0998  0.5586 -0.4719
 4000SOL    HW223637   0.749   2.504   2.483  0.1597  2.6817 -0.3720
 4001SOL     OW23638   0.740   1.240   4.418 -0.3740  0.5289 -0.5688
 4001SOL    HW123639   0.693   1.312   4.458 -1.7869 -0.1946 -0.9357
 4001SOL    HW223640   0.685   1.162   4.424 -0.6331  0.6191 -1.7096
 4002SOL     OW23641   4.112   3.824  14.718  0.4327  0.1487 -1.7310
 4002SOL    HW123642   4.073   3.868  14.642 -0.1536  2.4013 -0.1231
 4002SOL    HW223643   4.113   3.896  14.782 -0.4314  0.2846 -1.8711
 4003SOL     OW23644   0.234   2.655  16.689 -0.6665 -0.3804 -0.4771
 4003SOL    HW123645   0.312   2.709  16.697  0.2569 -2.0447  1.8820
 4003SOL    HW223646   0.176   2.717  16.645 -0.9060 -0.8291 -0.7944
 4004SOL     OW23647   4.159   3.263   2.223  0.6435  0.3468  0.4516
 4004SOL    HW123648   4.088   3.199   2.217  0.8618  0.0901  0.5939
 4004SOL    HW223649   4.190   3.264   2.132  1.9837  0.6298  0.9087
 4005SOL     OW23650   0.793   0.826  15.249  0.0925  0.3012  0.1722
 4005SOL    HW123651   0.807   0.791  15.161  0.0121  0.6923  0.0036
 4005SOL    HW223652   0.822   0.917  15.247 -0.6147  0.5508  1.1707
 4006SOL     OW23653   3.277   3.019   3.632  0.4504  0.3740  0.2277
 4006SOL    HW123654   3.193   2.990   3.597 -0.2783  1.1959  1.3197
 4006SOL    HW223655   3.311   2.931   3.652 -2.3894 -1.4527 -2.9485
 4007SOL     OW23656   0.984   2.543   7.825  0.4066 -0.0876  0.5181
 4007SOL    HW123657   0.946   2.466   7.782  0.8788 -0.3393  0.5603
 4007SOL    HW223658   1.024   2.584   7.748  0.5555  3.2032  2.3620
 4008SOL     OW23659   2.995   0.099   8.451  0.3374 -0.3987 -0.5623
 4008SOL    HW123660   2.927   0.166   8.461  0.1671 -0.2854 -2.3817
 4008SOL    HW223661   3.065   0.142   8.500  0.7718  1.5030 -2.8300
 4009SOL     OW23662   2.365   2.985  14.947  0.6655  0.2725  0.1874
 4009SOL    HW123663   2.405   3.071  14.962 -2.5271  1.7510  0.1500
 4009SOL    HW223664   2.380   2.944  15.032  0.5601  2.5888  1.3146
 4010SOL     OW23665   0.518   2.437   8.135  0.3090 -0.0145  0.1659
 4010SOL    HW123666   0.566   2.471   8.210 -1.0952 -0.5312  1.3038
 4010SOL    HW223667   0.502   2.347   8.163 -0.5548  0.4503  1.1905
 4011SOL     OW23668   3.459   1.682   4.264 -0.0737  0.1787  0.4331
 4011SOL    HW123669   3.552   1.702   4.277  0.1636 -0.9677  0.5127
 4011SOL    HW223670   3.422   1.770   4.271 -0.5516 -0.1067  1.5251
 4012SOL     OW23671   2.637   0.771   3.071 -0.1702  0.4444 -0.1990
 4012SOL    HW123672   2.627   0.742   3.162 -0.8282 -0.6379 -0.6162
 4012SOL    HW223673   2.663   0.863   3.076  0.4849  0.0838  3.6590
 4013SOL     OW23674   4.286   0.012   8.801 -0.7538 -0.4286  0.2115
 4013SOL    HW123675   4.282   0.011   8.897 -0.9983  0.3139  0.2095
 4013SOL    HW223676   4.196   4.720   8.785 -1.8734  3.3333  0.1082
 4014SOL     OW23677   4.619   2.873  10.091 -0.3915  0.5418  0.5258
 4014SOL    HW123678   4.694   2.815  10.101 -0.9226 -0.5424 -1.6845
 4014SOL    HW223679   4.659   2.946  10.045 -0.1905 -0.1401 -0.3654
 4015SOL     OW23680   3.083   4.613   7.273  0.2703  0.3818 -0.4004
 4015SOL    HW123681   3.170   4.614   7.233  1.0167 -1.0554  1.1522
 4015SOL    HW223682   3.085   4.534   7.328  0.6649  0.2896 -0.5469
 4016SOL     OW23683   2.156   0.948   6.492 -0.0086  0.4159 -0.4529
 4016SOL    HW123684   2.172   0.876   6.552 -1.0449  0.5544 -0.0085
 4016SOL    HW223685   2.114   1.015   6.545  0.1788  0.8824 -0.8962
 4017SOL     OW23686   3.661   3.466  11.064  0.1759  0.1919 -0.1384
 4017SOL    HW123687   3.576   3.485  11.104 -0.7410 -3.5613 -0.2851
 4017SOL    HW223688   3.652   3.371  11.056 -0.7974  0.2828 -0.1476
 4018SOL     OW23689   2.229   4.584  10.155  0.1184 -0.0329  0.2163
 4018SOL    HW123690   2.271   4.629  10.229  0.3104 -1.2233  0.8446
 4018SOL    HW223691   2.183   4.651  10.104  0.5806  0.6870  0.7472
 4019SOL     OW23692   2.236   1.283  16.023 -0.5080 -0.3376  0.3337
 4019SOL    HW123693   2.326   1.283  16.057 -0.3457  0.8033 -0.0901
 4019SOL    HW223694   2.259   1.226  15.950 -2.4497  0.0187 -0.5405
 4020SOL     OW23695   1.021   0.187  17.498 -0.0283 -0.3559  0.3191
 4020SOL    HW123696   0.953   0.241  17.457 -0.5888 -0.0565  1.6404
 4020SOL    HW223697   1.000   0.219  17.586  1.5188  0.7276  0.3073
 4021SOL     OW23698   2.279   1.532  16.628  0.5743  0.1721  0.0015
 4021SOL    HW123699   2.272   1.456  16.686  1.5554  0.4080  0.4343
 4021SOL    HW223700   2.241   1.604  16.677 -0.5854 -1.5171  1.5668
 4022SOL     OW23701   2.812   2.865   9.804  0.2024 -0.5544 -1.0055
 4022SOL    HW123702   2.898   2.850   9.766 -0.1183  1.6954 -2.5727
 4022SOL    HW223703   2.809   2.797   9.872 -0.0483  1.2086  0.7510
 4023SOL     OW23704   4.603   2.359   5.545  0.2474 -0.2832  0.8326
 4023SOL    HW123705   4.599   2.380   5.638 -0.3727  3.1412  0.0135
 4023SOL    HW223706   4.662   2.284   5.535 -0.3395 -0.7808  1.0508
 4024SOL     OW23707   4.204   4.579   6.747  0.2327 -0.2336 -0.4153
 4024SOL    HW123708   4.293   4.615   6.752 -0.0134  0.3305 -0.1543
 4024SOL    HW223709   4.207   4.519   6.672  0.0163 -0.1655 -0.4790
 4025SOL     OW23710   3.074   1.808  17.412 -0.1701 -0.2811  0.7960
 4025SOL    HW123711   3.110   1.721  17.394  1.4529  0.1025  2.1360
 4025SOL    HW223712   3.103   1.846  17.329 -1.1406 -1.2348  0.0163
 4026SOL     OW23713   1.097   0.911  10.631  0.3847  0.6958  0.2993
 4026SOL    HW123714   1.017   0.959  10.612  0.1438 -0.1322 -0.8357
 4026SOL    HW223715   1.161   0.979  10.653 -0.9459  2.0619 -0.1317
 4027SOL     OW23716   3.768   2.356  13.786 -0.0412 -0.5999  0.1178
 4027SOL    HW123717   3.711   2.407  13.728  1.5026 -0.7305 -1.5066
 4027SOL    HW223718   3.747   2.271  13.749 -0.5263  0.0679 -1.1692
 4028SOL     OW23719   0.664   3.638   4.429  0.4211 -0.0931  0.1494
 4028SOL    HW123720   0.680   3.729   4.405 -2.2121 -0.0242 -1.3538
 4028SOL    HW223721   0.581   3.612   4.389  0.7256  0.9308 -1.1754
 4029SOL     OW23722   2.425   0.361  10.118  0.0735 -0.1870  0.1913
 4029SOL    HW123723   2.391   0.276  10.145 -0.1414 -0.8654 -2.1425
 4029SOL    HW223724   2.487   0.342  10.047  0.3958  2.1004 -0.1362
 4030SOL     OW23725   2.557   2.151   1.424  0.1380  0.1410 -0.5763
 4030SOL    HW123726   2.628   2.200   1.466  0.7543  0.3088 -1.8365
 4030SOL    HW223727   2.480   2.203   1.448  0.4941  0.3489  0.1113
 4031SOL     OW23728   2.856   3.281  10.982 -0.2820 -0.0600 -0.0541
 4031SOL    HW123729   2.780   3.291  10.925 -0.6189  0.0616  0.4253
 4031SOL    HW223730   2.851   3.353  11.045 -1.4971 -0.0356 -0.1863
 4032SOL     OW23731   2.266   1.828   3.162 -0.2207 -0.5388 -1.1187
 4032SOL    HW123732   2.245   1.921   3.149  1.5782  0.3656  2.1244
 4032SOL    HW223733   2.334   1.809   3.097  1.8636 -0.5394  1.0195
 4033SOL     OW23734   3.533   4.624  14.579  0.1607 -0.1960  0.3809
 4033SOL    HW123735   3.532   4.668  14.494  0.8307 -1.1872 -0.1326
 4033SOL    HW223736   3.462   4.562  14.562 -1.6894  1.7971  0.7721
 4034SOL     OW23737   1.572   4.037   9.223 -0.5388  0.3809 -0.1629
 4034SOL    HW123738   1.601   4.080   9.304  1.2479 -0.6742 -0.2417
 4034SOL    HW223739   1.593   4.111   9.166  2.7021 -0.7529 -0.4138
 4035SOL     OW23740   3.985   3.762   7.851  0.1607 -0.2122  0.0211
 4035SOL    HW123741   3.988   3.756   7.947  4.1857  2.2016  0.0398
 4035SOL    HW223742   3.976   3.857   7.845 -1.1278 -0.2519  1.1518
 4036SOL     OW23743   2.999   3.060  10.231  0.4316 -0.0689 -0.5391
 4036SOL    HW123744   2.944   3.114  10.289 -0.3167  0.5816 -1.8668
 4036SOL    HW223745   2.993   2.974  10.274 -2.1269  0.1791 -0.3820
 4037SOL     OW23746   0.462   2.129   6.099 -0.0124 -0.0640  0.2947
 4037SOL    HW123747   0.553   2.140   6.073  0.4975 -1.9189  1.3424
 4037SOL    HW223748   0.427   2.215   6.076 -1.2513 -1.3211 -2.5594
 4038SOL     OW23749   2.753   2.844   3.861  0.2255  0.3219  0.3385
 4038SOL    HW123750   2.723   2.885   3.942  0.7074  0.3127  0.5210
 4038SOL    HW223751   2.700   2.764   3.859  0.4000  0.2352 -0.9066
 4039SOL     OW23752   2.668   2.527  12.354 -0.1198 -0.7094 -0.6565
 4039SOL    HW123753   2.638   2.610  12.390  0.2254 -1.0664  0.4599
 4039SOL    HW223754   2.595   2.503  12.298  0.3564  1.0137 -1.9964
 4040SOL     OW23755   2.541   4.671  12.343 -0.0430 -0.5333 -0.7887
 4040SOL    HW123756   2.609   4.606  12.326  1.7138  1.3561 -1.0286
 4040SOL    HW223757   2.474   4.631  12.287 -0.4525  0.4838 -1.0344
 4041SOL     OW23758   2.879   4.711   2.618  0.0546 -0.2866 -0.2534
 4041SOL    HW123759   2.830   4.633   2.595  0.4870 -0.3814 -0.8559
 4041SOL    HW223760   2.888   4.687   2.710  1.7570 -0.1474 -0.3770
 4042SOL     OW23761   2.857   2.662  15.455 -0.4650 -0.9042  0.4464
 4042SOL    HW123762   2.885   2.753  15.463 -1.8939 -0.3228 -1.2031
 4042SOL    HW223763   2.773   2.664  15.501  0.4057 -0.9660  2.0563
 4043SOL     OW23764   1.164   4.261   6.613 -0.0965 -0.4510 -0.1131
 4043SOL    HW123765   1.185   4.296   6.699  1.4022 -1.7784  0.0552
 4043SOL    HW223766   1.217   4.315   6.556 -0.6971  1.3381  1.0387
 4044SOL     OW23767   4.507   4.492   0.901  0.0695 -0.0229 -0.2891
 4044SOL    HW123768   4.443   4.470   0.968  1.0901  2.1241  1.4197
 4044SOL    HW223769   4.550   4.407   0.893  1.5617  0.7497 -0.5097
 4045SOL     OW23770   0.505   3.630   4.954 -0.0386  0.0180 -0.4829
 4045SOL    HW123771   0.431   3.668   5.001 -1.6005  0.0697 -2.9983
 4045SOL    HW223772   0.577   3.657   5.012 -1.6340  0.3440  1.3270
 4046SOL     OW23773   2.266   0.795   5.553 -0.2724  0.6545 -0.1687
 4046SOL    HW123774   2.184   0.757   5.521  1.1526 -1.7875 -0.9488
 4046SOL    HW223775   2.325   0.720   5.543 -0.1316  0.6601  0.6804
 4047SOL     OW23776   1.265   4.034  10.294  0.4993  0.2201  0.2618
 4047SOL    HW123777   1.337   3.993  10.246  0.4027  2.1452 -1.5269
 4047SOL    HW223778   1.202   4.061  10.227  1.5349 -0.5503 -1.0231
 4048SOL     OW23779   3.972   4.654   6.909 -0.1414 -0.2583  0.8819
 4048SOL    HW123780   4.051   4.601   6.913  0.7657  0.9021 -1.2650
 4048SOL    HW223781   3.939   4.645   6.998 -0.6835 -0.1873  0.6886
 4049SOL     OW23782   4.672   0.276   7.227  0.1880 -0.0411 -0.1341
 4049SOL    HW123783   0.002   0.312   7.286  0.8170 -1.5278  0.0652
 4049SOL    HW223784   4.619   0.355   7.211 -1.1064 -0.7254  0.7488
 4050SOL     OW23785   4.254   0.533  10.201 -0.1687 -0.4673  0.3039
 4050SOL    HW123786   4.284   0.470  10.266  3.7759  1.2972  0.1703
 4050SOL    HW223787   4.241   0.474  10.127  0.6340 -0.5324  0.2126
 4051SOL     OW23788   0.293   3.994  16.238  0.0036  0.4375  0.4953
 4051SOL    HW123789   0.284   3.934  16.164  1.1153  1.9883 -0.9001
 4051SOL    HW223790   0.306   4.084  16.207  0.2769  0.4756  0.7155
 4052SOL     OW23791   2.483   0.293  11.766 -0.4220 -0.3044  0.2669
 4052SOL    HW123792   2.511   0.215  11.815 -0.7798 -1.6467 -1.6792
 4052SOL    HW223793   2.399   0.319  11.803 -1.1824  0.7511 -2.2111
 4053SOL     OW23794   3.990   3.056   2.275  0.2480 -0.1811 -0.0151
 4053SOL    HW123795   3.940   2.992   2.326 -0.2201 -0.2237 -0.5353
 4053SOL    HW223796   4.044   2.997   2.223  0.0658 -1.3935  1.1747
 4054SOL     OW23797   2.922   3.016   4.135  0.1287  0.3278 -0.4530
 4054SOL    HW123798   2.955   2.940   4.086  0.8913  0.7619 -0.6122
 4054SOL    HW223799   2.830   2.996   4.117  0.7241 -1.6229 -1.3886
 4055SOL     OW23800   1.622   0.294   6.225  0.3477  0.3103 -0.0401
 4055SOL    HW123801   1.715   0.282   6.247  0.4013 -0.1020 -0.4936
 4055SOL    HW223802   1.628   0.356   6.152 -0.5097 -2.9081 -2.8403
 4056SOL     OW23803   3.817   0.230   8.217 -0.4379  0.1798 -0.8005
 4056SOL    HW123804   3.867   0.294   8.166 -1.5012  1.7957  0.2112
 4056SOL    HW223805   3.735   0.232   8.169 -0.7941 -2.9730 -0.3190
 4057SOL     OW23806   4.423   1.532  14.976 -0.1133  0.0704  0.8122
 4057SOL    HW123807   4.382   1.477  15.043 -1.4311  1.1806  0.9347
 4057SOL    HW223808   4.371   1.613  14.979  1.9323  1.4819 -1.5370
 4058SOL     OW23809   2.557   0.129  11.496  0.9528 -0.1109 -0.3684
 4058SOL    HW123810   2.590   0.176  11.420  0.7027 -1.0040 -1.0282
 4058SOL    HW223811   2.524   0.203  11.548  0.4773  0.2612 -1.2006
 4059SOL     OW23812   2.667   1.657   4.055 -0.4927  0.2269  0.1987
 4059SOL    HW123813   2.741   1.708   4.086  0.5591 -0.7870 -0.6748
 4059SOL    HW223814   2.590   1.702   4.090  0.1056 -0.3682  2.3022
 4060SOL     OW23815   1.747   0.209   3.005 -0.0748 -0.1292 -0.4493
 4060SOL    HW123816   1.825   0.164   3.036 -0.8849 -1.2194 -0.0045
 4060SOL    HW223817   1.700   0.130   2.979 -0.2510 -0.7681  1.7856
 4061SOL     OW23818   1.323   0.242   2.318 -0.3266  0.1057 -0.2013
 4061SOL    HW123819   1.294   0.265   2.406  2.8194  1.6863  0.4026
 4061SOL    HW223820   1.286   0.318   2.273  0.2856 -0.1416 -1.1203
 4062SOL     OW23821   4.296   4.162  11.332 -0.1489  0.2442 -0.1514
 4062SOL    HW123822   4.285   4.221  11.406  0.7007  1.5096 -1.0275
 4062SOL    HW223823   4.211   4.162  11.287 -0.4040  0.6755  0.3439
 4063SOL     OW23824   4.608   3.756   3.734 -0.0544 -0.2780  0.1382
 4063SOL    HW123825   4.561   3.690   3.683 -1.4123 -0.2451  1.3119
 4063SOL    HW223826   4.681   3.706   3.770  0.2514 -0.1939 -0.3638
 4064SOL     OW23827   4.474   1.567  10.758 -0.0317  0.1057 -0.0815
 4064SOL    HW123828   4.537   1.638  10.770  0.1986  0.1642 -1.5758
 4064SOL    HW223829   4.461   1.520  10.841  0.8663  0.1768  0.0950
 4065SOL     OW23830   4.077   4.582   9.467  0.6618  0.9815 -0.1342
 4065SOL    HW123831   4.002   4.610   9.415  0.0182  0.3216  0.4359
 4065SOL    HW223832   4.132   4.533   9.406  0.7107  0.6728  0.1628
 4066SOL     OW23833   2.026   3.475   7.054  0.0940  0.2954  0.3264
 4066SOL    HW123834   2.045   3.553   7.107 -1.5376 -0.1894  1.6247
 4066SOL    HW223835   1.955   3.513   7.002  0.8764  0.5558 -0.5608
 4067SOL     OW23836   1.940   4.316   7.331 -0.1560  0.0508  0.2363
 4067SOL    HW123837   1.990   4.397   7.330  0.4568 -0.3205  0.8542
 4067SOL    HW223838   1.978   4.264   7.260 -1.3783 -1.2222  0.4947
 4068SOL     OW23839   1.983   0.317  15.802  0.0825 -0.3008  0.5300
 4068SOL    HW123840   2.056   0.378  15.815  0.2238 -0.9302  2.7151
 4068SOL    HW223841   1.902   0.369  15.804 -0.9306 -1.8402 -0.3318
 4069SOL     OW23842   1.670   4.658   4.382 -0.2105 -0.6569 -0.1056
 4069SOL    HW123843   1.621   0.001   4.403  2.0996  0.7333  0.0848
 4069SOL    HW223844   1.643   4.594   4.447 -2.1430  0.2686 -0.0096
 4070SOL     OW23845   2.824   2.639   4.149  0.0178  0.2169 -0.0440
 4070SOL    HW123846   2.753   2.703   4.154  0.4895  0.7942 -0.7581
 4070SOL    HW223847   2.875   2.675   4.077 -0.0064 -1.0430 -0.6886
 4071SOL     OW23848   1.718   3.916   8.343 -0.1696 -0.0715  0.4062
 4071SOL    HW123849   1.751   3.861   8.273  1.8385 -1.4079  2.3761
 4071SOL    HW223850   1.796   3.921   8.399  0.1282 -0.1009 -0.0090
 4072SOL     OW23851   3.620   1.771   2.274 -0.2573 -0.3574  0.3950
 4072SOL    HW123852   3.651   1.848   2.321  0.7565 -0.7623  0.3914
 4072SOL    HW223853   3.671   1.785   2.195 -0.7418  0.9571  0.3264
 4073SOL     OW23854   0.531   0.566  14.740  0.1315 -0.2410  0.0113
 4073SOL    HW123855   0.478   0.565  14.660 -0.6683 -1.5143  0.5625
 4073SOL    HW223856   0.599   0.508  14.706  0.0790  0.1716 -0.7933
 4074SOL     OW23857   0.327   2.253   6.621  0.1429  0.4048 -0.2872
 4074SOL    HW123858   0.381   2.196   6.676 -1.1087 -0.5572 -0.0194
 4074SOL    HW223859   0.334   2.207   6.538  0.8379 -2.0311  1.1153
 4075SOL     OW23860   4.562   3.472   9.247 -0.0438  0.0235 -0.6788
 4075SOL    HW123861   4.586   3.534   9.178  1.7500 -0.2243 -0.2901
 4075SOL    HW223862   4.528   3.402   9.191  0.2761 -0.2811 -0.4922
 4076SOL     OW23863   1.213   1.547  13.918  0.0349  0.3676 -0.2722
 4076SOL    HW123864   1.159   1.522  13.842 -0.2441  1.0878 -0.3154
 4076SOL    HW223865   1.290   1.491  13.923 -0.7093 -0.6042  0.3280
 4077SOL     OW23866   2.197   2.150  12.455  0.1699  0.2433  0.0915
 4077SOL    HW123867   2.142   2.177  12.382 -0.2399 -0.3869  0.1682
 4077SOL    HW223868   2.126   2.145  12.519  1.2226  0.1785  1.2653
 4078SOL     OW23869   1.813   3.467  10.095  0.1995  1.0987  0.8600
 4078SOL    HW123870   1.774   3.553  10.109 -1.5964  0.3092  0.6648
 4078SOL    HW223871   1.892   3.482  10.042 -1.5158  3.2593 -1.1170
 4079SOL     OW23872   2.688   2.997   4.729  0.0632  0.1911  0.1492
 4079SOL    HW123873   2.692   3.085   4.765  2.4135 -1.1202  3.0938
 4079SOL    HW223874   2.757   2.953   4.779  1.3308  1.4860 -0.4988
 4080SOL     OW23875   0.299   1.067  12.139  0.4443  0.5554  0.0432
 4080SOL    HW123876   0.224   1.048  12.196  0.6273 -0.0781  0.0744
 4080SOL    HW223877   0.357   0.991  12.141 -1.0887 -0.6370 -0.7628
 4081SOL     OW23878   4.063   2.130  12.651 -0.3457  0.9239  0.0419
 4081SOL    HW123879   4.036   2.087  12.732  0.6219 -0.5654 -0.4149
 4081SOL    HW223880   4.112   2.058  12.611 -0.9630  1.4558 -1.6625
 4082SOL     OW23881   4.354   1.805   2.669  0.3071  0.4292 -0.2256
 4082SOL    HW123882   4.370   1.890   2.627 -0.8491 -0.0591 -1.6451
 4082SOL    HW223883   4.425   1.805   2.734  1.7776 -2.4139 -1.7910
 4083SOL     OW23884   2.665   1.912   8.690  0.0025 -0.0227 -0.3568
 4083SOL    HW123885   2.752   1.935   8.658  0.5200 -1.1385  0.2439
 4083SOL    HW223886   2.611   1.984   8.655  0.5458 -0.2431 -1.6555
 4084SOL     OW23887   0.473   3.772  15.390 -0.2444 -0.4255  0.2914
 4084SOL    HW123888   0.525   3.743  15.315 -1.2809 -0.1152 -0.5524
 4084SOL    HW223889   0.434   3.853  15.357  0.9102  0.2105  0.4896
 4085SOL     OW23890   2.294   0.070   9.524 -0.0803  0.1338  0.5462
 4085SOL    HW123891   2.306   0.054   9.431 -1.9905 -2.5735  0.7588
 4085SOL    HW223892   2.344   0.151   9.533  0.2207 -0.1497  1.4389
 4086SOL     OW23893   1.024   1.233  12.353 -0.2823  0.3671 -0.1112
 4086SOL    HW123894   1.096   1.192  12.401 -2.2001  0.8550  3.1662
 4086SOL    HW223895   1.030   1.177  12.276 -2.4039 -1.3487  0.9799
 4087SOL     OW23896   3.007   4.133   2.090 -0.1481 -0.0971  0.9980
 4087SOL    HW123897   2.942   4.142   2.020  1.1002 -2.2412 -0.4103
 4087SOL    HW223898   3.046   4.050   2.064 -0.2439  0.3710 -0.6230
 4088SOL     OW23899   1.772   2.968   5.489  0.1859  0.1766  0.1739
 4088SOL    HW123900   1.745   2.877   5.502 -2.3570  0.7497 -1.1542
 4088SOL    HW223901   1.856   2.949   5.531 -0.1790  0.1760  0.9159
 4089SOL     OW23902   1.662   3.100   0.127 -0.3326  0.6794  0.0150
 4089SOL    HW123903   1.749   3.079   0.162  0.2525  0.8125 -1.3527
 4089SOL    HW223904   1.622   3.014   0.113  0.8931  0.2434 -0.8100
 4090SOL     OW23905   0.969   2.905   8.240 -0.5682  0.2211 -0.2777
 4090SOL    HW123906   0.918   2.936   8.316 -0.3558 -2.8373  1.1024
 4090SOL    HW223907   0.909   2.923   8.167 -1.1678  0.8514  0.3660
 4091SOL     OW23908   2.013   1.880   3.395 -0.2669  0.4119  0.9037
 4091SOL    HW123909   2.089   1.825   3.413  0.1008  0.6787  0.1765
 4091SOL    HW223910   1.948   1.861   3.463 -1.3970 -0.6605 -0.4625
 4092SOL     OW23911   3.532   3.477  13.762 -0.4428  0.3421 -0.4928
 4092SOL    HW123912   3.475   3.553  13.775  0.7356  0.7461  2.3561
 4092SOL    HW223913   3.499   3.412  13.824 -1.3118 -0.7891 -2.1598
 4093SOL     OW23914   4.443   2.063   2.806 -0.1195 -0.3889 -0.9791
 4093SOL    HW123915   4.348   2.071   2.816 -0.1328 -0.9482 -0.6965
 4093SOL    HW223916   4.470   2.155   2.812  2.4128 -1.1085 -1.4093
 4094SOL     OW23917   4.554   1.922   3.117  0.2650 -0.2847 -0.9898
 4094SOL    HW123918   4.622   1.965   3.065 -0.7794 -0.4968 -2.5251
 4094SOL    HW223919   4.521   1.873   3.042 -0.0455  0.8092 -1.5648
 4095SOL     OW23920   1.610   4.111   1.805 -0.0429 -0.0974 -0.6288
 4095SOL    HW123921   1.538   4.156   1.762  2.7599  3.2618 -1.8477
 4095SOL    HW223922   1.561   4.041   1.847  0.8949 -0.7588 -0.6413
 4096SOL     OW23923   2.619   0.963   5.659 -0.1920 -0.1892 -0.1145
 4096SOL    HW123924   2.664   0.883   5.633  0.6927  1.1816 -2.7370
 4096SOL    HW223925   2.565   0.937   5.734 -0.7064 -0.3656 -0.5421
 4097SOL     OW23926   0.373   4.429  14.994 -0.0620 -0.2438  0.2389
 4097SOL    HW123927   0.443   4.493  14.985  0.5187 -1.0642 -1.0731
 4097SOL    HW223928   0.299   4.476  15.034 -0.1850 -0.2620  0.0333
 4098SOL     OW23929   0.127   2.691  14.117 -0.3585 -0.2129  0.3740
 4098SOL    HW123930   0.220   2.689  14.094 -0.7518  0.9410 -1.3336
 4098SOL    HW223931   0.137   2.671  14.210  4.1536 -3.0310 -0.7269
 4099SOL     OW23932   1.751   0.769  17.348  0.7419  0.5543 -0.1390
 4099SOL    HW123933   1.685   0.825  17.306 -1.1114 -1.4682  0.0707
 4099SOL    HW223934   1.699   0.689  17.349  2.3173 -0.4519  1.3862
 4100SOL     OW23935   2.058   3.629   6.422 -0.6305 -0.1715 -0.3357
 4100SOL    HW123936   2.154   3.626   6.426 -0.6053  1.9078  0.2331
 4100SOL    HW223937   2.040   3.585   6.339 -2.5401 -0.8275  0.4350
 4101SOL     OW23938   1.588   0.553   4.425 -0.2265  0.1220  0.2007
 4101SOL    HW123939   1.575   0.503   4.505  1.1435 -0.9549 -0.2553
 4101SOL    HW223940   1.676   0.525   4.399 -0.3020 -1.8327  2.0353
 4102SOL     OW23941   1.932   0.115  10.322  0.0484 -0.0067  0.0524
 4102SOL    HW123942   2.027   0.117  10.329 -0.1893  1.3821  2.7363
 4102SOL    HW223943   1.911   0.141  10.412  1.0727  1.1098 -0.0247
 4103SOL     OW23944   4.558   4.099   7.355 -0.1895  0.4153 -0.1208
 4103SOL    HW123945   4.625   4.163   7.333  0.7218 -0.5005 -0.0024
 4103SOL    HW223946   4.490   4.156   7.392 -1.1764 -1.5985  1.2312
 4104SOL     OW23947   0.201   2.118  12.851 -0.0714  0.2528 -0.1939
 4104SOL    HW123948   0.227   2.148  12.764  1.0621 -3.0780 -0.9861
 4104SOL    HW223949   0.173   2.203  12.886  3.2967  1.2543  0.0817
 4105SOL     OW23950   2.216   0.540  16.957 -0.1648 -0.4225 -0.0599
 4105SOL    HW123951   2.208   0.586  16.873 -0.5298  1.0952  0.8130
 4105SOL    HW223952   2.237   0.451  16.928  1.3987  0.1764 -0.7662
 4106SOL     OW23953   2.057   4.719  11.930  0.3089  0.4965  0.1180
 4106SOL    HW123954   2.059   0.018  11.841 -0.6033 -0.8021 -0.4083
 4106SOL    HW223955   2.126   0.032  11.976 -1.7479  2.3184  1.2579
 4107SOL     OW23956   1.914   0.017   8.124 -0.6177  0.3434 -0.6150
 4107SOL    HW123957   1.945   0.100   8.089 -0.3080  0.4487 -0.0977
 4107SOL    HW223958   1.936   0.033   8.216 -1.8209  0.6561 -0.3807
 4108SOL     OW23959   3.277   1.696   3.936 -0.0448 -0.2348 -0.2367
 4108SOL    HW123960   3.251   1.610   3.905 -0.6974  0.1504 -0.7441
 4108SOL    HW223961   3.369   1.687   3.911 -0.5752 -1.8794 -1.5540
 4109SOL     OW23962   4.147   3.680  15.784  0.0653  0.7741  0.6722
 4109SOL    HW123963   4.113   3.747  15.844 -0.0603  0.1741  1.2673
 4109SOL    HW223964   4.124   3.724  15.702  0.5696  0.9036  0.6007
 4110SOL     OW23965   1.943   0.658  15.649 -0.1476 -0.4648  0.4742
 4110SOL    HW123966   2.028   0.620  15.671  0.5479  1.0571  0.4344
 4110SOL    HW223967   1.906   0.576  15.618 -0.5748  0.6144 -1.8740
 4111SOL     OW23968   0.053   0.769   5.329 -0.1430 -0.3042 -0.1546
 4111SOL    HW123969   0.133   0.805   5.367 -0.6943  0.6084  0.1553
 4111SOL    HW223970   0.077   0.677   5.318 -0.5686 -0.4288 -0.0356
 4112SOL     OW23971   0.143   0.468   6.386 -0.6679  0.5083  0.3209
 4112SOL    HW123972   0.229   0.437   6.413 -0.3345 -2.2263 -3.8072
 4112SOL    HW223973   0.101   0.382   6.373  1.7026 -0.9691  2.5720
 4113SOL     OW23974   0.779   4.673   4.212  0.0118 -0.1050  0.0116
 4113SOL    HW123975   0.822   0.016   4.177 -2.3760  0.5219 -1.5211
 4113SOL    HW223976   0.855   4.626   4.246  1.9681  2.0917 -1.3005
 4114SOL     OW23977   2.411   0.878   8.153  0.0578 -0.1801  0.0419
 4114SOL    HW123978   2.326   0.848   8.120  0.5017 -0.8173 -0.4944
 4114SOL    HW223979   2.461   0.878   8.072 -2.1739 -0.1472 -1.3342
 4115SOL     OW23980   3.237   0.166   3.162  0.3281 -0.0682 -0.2743
 4115SOL    HW123981   3.324   0.158   3.122  1.3501  1.9151  1.5057
 4115SOL    HW223982   3.212   0.074   3.164  1.7389 -0.4732 -1.6736
 4116SOL     OW23983   4.629   3.435   8.847 -0.2711 -0.2343  0.4859
 4116SOL    HW123984   4.724   3.432   8.852 -0.1374  1.9379 -0.4726
 4116SOL    HW223985   4.607   3.498   8.915  0.2231 -0.3680  0.7643
 4117SOL     OW23986   0.064   4.298   1.693  0.6573  0.8374 -0.4384
 4117SOL    HW123987   0.059   4.393   1.677  1.5407  1.1182  0.9521
 4117SOL    HW223988   0.158   4.287   1.680  0.1278 -1.2916 -2.4081
 4118SOL     OW23989   2.280   0.037   6.537 -0.3237 -0.3887  0.1361
 4118SOL    HW123990   2.332   0.111   6.507  0.6534 -0.8214  0.7748
 4118SOL    HW223991   2.351   4.710   6.541 -1.2742 -1.3928  1.1209
 4119SOL     OW23992   1.122   0.641   6.447  0.7366  0.0605  0.9594
 4119SOL    HW123993   1.080   0.606   6.526 -2.6963  0.7555 -0.5638
 4119SOL    HW223994   1.116   0.564   6.392  0.5584  0.5290  0.3283
 4120SOL     OW23995   4.266   0.116   7.155 -0.6285  0.1310  0.2860
 4120SOL    HW123996   4.293   0.047   7.216  1.6816  2.6182  2.1124
 4120SOL    HW223997   4.170   0.121   7.163 -0.5642  3.7890 -1.0954
 4121SOL     OW23998   0.152   1.694   3.862  0.0767  0.4165  0.7074
 4121SOL    HW123999   0.232   1.642   3.857  0.0959  0.5127 -0.0375
 4121SOL    HW224000   0.168   1.748   3.940  2.0347  1.8485 -0.6716
 4122SOL     OW24001   3.300   3.556   5.566  0.2630  0.2301 -0.1184
 4122SOL    HW124002   3.249   3.484   5.604  1.4972  0.3745  1.8250
 4122SOL    HW224003   3.245   3.631   5.587  0.9987  0.8274 -0.3134
 4123SOL     OW24004   1.329   1.209  16.647  0.3363  0.4942 -0.2332
 4123SOL    HW124005   1.270   1.204  16.572 -2.0522 -0.0671  1.6686
 4123SOL    HW224006   1.411   1.217  16.599  0.6261 -2.2321 -0.1539
 4124SOL     OW24007   2.052   4.255   4.089  0.8565 -0.7211 -0.4394
 4124SOL    HW124008   2.081   4.324   4.150 -3.6086  1.3766 -0.6718
 4124SOL    HW224009   2.035   4.305   4.009  1.5118 -1.0516 -0.7805
 4125SOL     OW24010   1.751   4.048   2.352 -0.7692 -0.0543 -0.1263
 4125SOL    HW124011   1.682   4.002   2.304  1.1371  0.9841 -3.7751
 4125SOL    HW224012   1.697   4.119   2.389 -1.6490 -2.1786  2.6857
 4126SOL     OW24013   0.966   0.673   0.881  0.0353  0.1655  0.2770
 4126SOL    HW124014   0.975   0.764   0.908 -0.7578  0.4239 -0.3175
 4126SOL    HW224015   0.993   0.632   0.963  2.1772  2.2981  0.6107
 4127SOL     OW24016   0.156   4.717   6.956  0.2445 -0.5583 -0.1776
 4127SOL    HW124017   0.175   0.004   6.865  2.6530  1.1333  0.7512
 4127SOL    HW224018   0.152   4.621   6.957  0.6058 -0.5654  0.6915
 4128SOL     OW24019   4.068   1.336  14.513 -0.4981 -0.6250  0.3983
 4128SOL    HW124020   4.018   1.411  14.479  0.0007 -0.8077 -0.7328
 4128SOL    HW224021   4.118   1.373  14.586 -2.9086  2.0998  0.6745
 4129SOL     OW24022   0.602   3.343   7.817 -0.0476  0.3530  0.2309
 4129SOL    HW124023   0.616   3.264   7.869  1.0087  0.2189 -0.2584
 4129SOL    HW224024   0.676   3.339   7.757  1.1327 -0.6538  1.7377
 4130SOL     OW24025   2.181   4.186   5.388 -0.4719  0.0587 -0.3260
 4130SOL    HW124026   2.153   4.175   5.479 -0.4070  2.8784  0.0466
 4130SOL    HW224027   2.099   4.174   5.340 -0.3415  1.0788 -0.8192
 4131SOL     OW24028   2.903   1.018  16.326 -0.1221 -0.7191 -0.4605
 4131SOL    HW124029   2.894   0.925  16.305 -1.3626 -0.5853 -0.5357
 4131SOL    HW224030   2.983   1.033  16.375 -1.3746 -0.0661  1.3938
 4132SOL     OW24031   1.563   4.692   7.639 -0.4370 -0.3682 -0.7033
 4132SOL    HW124032   1.501   0.027   7.621 -0.4962 -0.1882  0.2118
 4132SOL    HW224033   1.633   0.017   7.663 -0.2133 -0.7538 -0.3799
 4133SOL     OW24034   1.423   3.673   5.745 -0.6924 -0.0279  0.1724
 4133SOL    HW124035   1.453   3.605   5.806 -0.0484  1.0787  1.0837
 4133SOL    HW224036   1.352   3.630   5.698 -0.4848 -0.6911  0.4663
 4134SOL     OW24037   0.607   3.527  10.830  0.3994  0.3574  0.0600
 4134SOL    HW124038   0.538   3.583  10.863 -1.7042 -2.8195  1.0632
 4134SOL    HW224039   0.562   3.442  10.830 -0.9682  1.0830 -0.3235
 4135SOL     OW24040   0.289   3.870  16.005 -0.1618 -0.5474  0.7052
 4135SOL    HW124041   0.280   3.780  15.973 -0.8988  0.1932 -1.2008
 4135SOL    HW224042   0.222   3.917  15.956  2.0984  1.9619 -0.0095
 4136SOL     OW24043   4.530   2.418   2.993 -0.3621 -0.2845  0.2516
 4136SOL    HW124044   4.507   2.349   3.056  0.2921 -0.6865  0.0575
 4136SOL    HW224045   4.540   2.486   3.059  0.5614  2.3333 -2.5674
 4137SOL     OW24046   4.206   4.593   3.071 -0.1087  0.3329  0.1975
 4137SOL    HW124047   4.286   4.632   3.035 -0.4470 -0.0552 -0.9861
 4137SOL    HW224048   4.207   4.512   3.020  1.6080  0.0676  0.6658
 4138SOL     OW24049   1.658   2.108   4.108 -0.9844  0.2673 -0.0130
 4138SOL    HW124050   1.628   2.172   4.173  1.6304  1.3814  0.0951
 4138SOL    HW224051   1.746   2.084   4.140 -0.9531  0.5021  0.0767
 4139SOL     OW24052   3.917   4.063   1.958  0.0643  0.1670 -0.2128
 4139SOL    HW124053   3.843   4.124   1.967 -0.2102  0.0182 -1.4790
 4139SOL    HW224054   3.862   3.991   1.929 -1.0832  0.2378  1.7496
 4140SOL     OW24055   3.531   4.313  17.352  0.4185 -0.1558  0.5188
 4140SOL    HW124056   3.513   4.229  17.310  1.2312  0.7409 -1.6505
 4140SOL    HW224057   3.514   4.372  17.278 -0.1357 -0.0159  0.7570
 4141SOL     OW24058   3.017   1.618   2.058 -0.3293 -0.6819 -0.0565
 4141SOL    HW124059   2.939   1.618   2.113 -2.0080 -2.0187 -2.4479
 4141SOL    HW224060   3.092   1.596   2.114 -0.4624  2.5388  1.4077
 4142SOL     OW24061   0.225   2.402   5.332  0.3731 -0.5374 -0.4563
 4142SOL    HW124062   0.157   2.432   5.272  0.9293 -0.0300 -0.8336
 4142SOL    HW224063   0.204   2.444   5.415 -0.4283 -0.0779 -0.8980
 4143SOL     OW24064   1.515   2.023   1.330 -0.5330  0.6991 -0.3711
 4143SOL    HW124065   1.447   2.080   1.366 -0.6272 -1.1718  2.4303
 4143SOL    HW224066   1.484   1.934   1.347  2.2414  0.5408  3.8973
 4144SOL     OW24067   2.094   2.065   1.155 -0.1843  0.0314 -0.2493
 4144SOL    HW124068   2.173   2.104   1.116  1.3696 -1.1005  1.7572
 4144SOL    HW224069   2.034   2.135   1.131 -0.1287 -0.6163 -2.3482
 4145SOL     OW24070   2.001   1.917   1.370 -0.2983 -0.2658  0.0732
 4145SOL    HW124071   2.029   1.961   1.290  1.2006  0.6685  1.1108
 4145SOL    HW224072   2.079   1.930   1.424 -1.8839  0.0435  2.2744
 4146SOL     OW24073   1.495   1.467  13.997 -0.4210 -1.0323 -0.1950
 4146SOL    HW124074   1.501   1.506  14.084 -0.8265 -3.4293  0.9133
 4146SOL    HW224075   1.570   1.406  13.998  0.2522 -0.1670  1.5541
 4147SOL     OW24076   1.242   1.257   3.626  0.4756 -0.1779  0.4008
 4147SOL    HW124077   1.289   1.175   3.611  1.0324  0.3387 -0.6767
 4147SOL    HW224078   1.304   1.323   3.598 -0.5409  0.9261  0.7643
 4148SOL     OW24079   1.146   0.705   2.707  0.0940 -0.3279  0.1465
 4148SOL    HW124080   1.171   0.646   2.637 -2.7080  0.4894 -1.5270
 4148SOL    HW224081   1.064   0.751   2.688 -0.0922 -0.9798 -0.6418
 4149SOL     OW24082   1.405   3.706  13.142  0.5083 -0.1645 -0.1516
 4149SOL    HW124083   1.428   3.634  13.084  0.8921 -0.4125  0.3038
 4149SOL    HW224084   1.485   3.756  13.126  0.5904  0.3103  1.6796
 4150SOL     OW24085   3.751   2.864   8.365  0.2365  0.3043 -0.2890
 4150SOL    HW124086   3.724   2.952   8.391  3.2064  0.7462  1.3213
 4150SOL    HW224087   3.830   2.855   8.418 -1.4630 -2.7323  1.7486
 4151SOL     OW24088   0.203   4.341  10.116 -0.1615 -0.4382  0.1633
 4151SOL    HW124089   0.183   4.433  10.132 -0.6063 -0.5261  0.1156
 4151SOL    HW224090   0.235   4.312  10.202  1.8321  0.0714 -0.4182
 4152SOL     OW24091   4.389   2.174   7.851  0.2206 -0.3921 -0.4102
 4152SOL    HW124092   4.307   2.205   7.889  0.9958  1.0615  0.0933
 4152SOL    HW224093   4.411   2.261   7.818 -0.6251  0.2020  0.5787
 4153SOL     OW24094   0.006   3.834  11.890  0.7670  0.1003 -0.6074
 4153SOL    HW124095   0.010   3.779  11.968  0.0723 -1.6741 -1.8317
 4153SOL    HW224096   0.077   3.895  11.911  0.7165 -0.1159  0.1827
 4154SOL     OW24097   0.367   2.370   3.163  0.0377 -0.0140  0.1297
 4154SOL    HW124098   0.401   2.445   3.212 -2.6213  2.3596 -1.6621
 4154SOL    HW224099   0.435   2.357   3.097 -0.8696 -0.0453 -0.7967
 4155SOL     OW24100   3.638   3.289   5.528 -0.0030  0.2086 -0.0802
 4155SOL    HW124101   3.732   3.281   5.513  0.0252 -0.7607  0.6542
 4155SOL    HW224102   3.622   3.383   5.519  0.8533  0.4068  0.4579
 4156SOL     OW24103   1.150   1.254  11.386  0.6820  0.1986  0.5650
 4156SOL    HW124104   1.236   1.216  11.404 -0.1617 -2.2113 -0.3952
 4156SOL    HW224105   1.096   1.190  11.433  2.1650  0.3228  2.4015
 4157SOL     OW24106   1.896   2.589   0.677  0.3868 -0.4584 -0.8971
 4157SOL    HW124107   1.870   2.508   0.721 -0.3855  0.3933  0.2125
 4157SOL    HW224108   1.935   2.639   0.748  0.3316 -2.3618  0.4698
 4158SOL     OW24109   0.963   1.735  12.386  0.0665  0.2603  0.5939
 4158SOL    HW124110   1.025   1.800  12.353  0.2338  0.3419  1.0591
 4158SOL    HW224111   0.896   1.746  12.319  0.1857  1.7485  0.7042
 4159SOL     OW24112   0.441   3.919   8.398  0.0632 -0.0337  0.4136
 4159SOL    HW124113   0.414   3.965   8.478 -0.8788 -1.4941  0.9423
 4159SOL    HW224114   0.535   3.908   8.414  0.2265  0.3017 -0.3034
 4160SOL     OW24115   4.062   2.294   2.491  1.0190 -0.5943  0.3692
 4160SOL    HW124116   3.968   2.312   2.487  0.9046 -1.0663  0.9480
 4160SOL    HW224117   4.087   2.309   2.399 -0.4331  1.4765  0.3393
 4161SOL     OW24118   3.039   4.074  12.130 -0.0297 -0.3946 -0.3900
 4161SOL    HW124119   3.019   4.163  12.102  2.7372  0.0773 -0.8621
 4161SOL    HW224120   3.134   4.080  12.144 -0.3286 -0.6232  1.7482
 4162SOL     OW24121   4.565   4.228   9.166 -0.3855 -0.0426  0.3645
 4162SOL    HW124122   4.487   4.189   9.126 -3.1487  1.9728  3.7668
 4162SOL    HW224123   4.600   4.262   9.083  0.0198 -1.2101  0.0669
 4163SOL     OW24124   4.070   4.615   8.590 -0.0359  0.1994 -0.0320
 4163SOL    HW124125   4.030   4.700   8.608  1.4591  0.7079  0.9199
 4163SOL    HW224126   4.025   4.576   8.515  2.8060  1.2030 -2.2250
 4164SOL     OW24127   2.750   1.245  17.453 -0.1676 -0.2382  0.3429
 4164SOL    HW124128   2.656   1.259  17.450  0.0637  1.1348 -0.6616
 4164SOL    HW224129   2.749   1.156  17.418  1.8073  0.0636 -0.5212
 4165SOL     OW24130   1.141   4.582  14.966  0.4450  0.0957 -0.0936
 4165SOL    HW124131   1.112   4.673  14.957  0.4336  0.2452  1.4111
 4165SOL    HW224132   1.233   4.601  14.983  0.9322 -0.5630 -2.0107
 4166SOL     OW24133   4.387   1.953   4.650  0.6033  0.0529  0.1716
 4166SOL    HW124134   4.384   2.033   4.597 -0.7891  0.5564  1.0311
 4166SOL    HW224135   4.428   1.886   4.595  0.1787  1.7409 -2.1923
 4167SOL     OW24136   1.355   0.803   6.370  0.4959 -0.1969  0.1139
 4167SOL    HW124137   1.350   0.738   6.301  0.1501  0.9181 -0.9115
 4167SOL    HW224138   1.279   0.763   6.412 -0.7627  0.1001 -1.8921
 4168SOL     OW24139   2.833   1.808   6.609 -0.0008 -0.4008 -0.5036
 4168SOL    HW124140   2.881   1.725   6.609  0.1664 -0.3078 -2.4978
 4168SOL    HW224141   2.900   1.868   6.644 -1.1185 -0.6929  2.1083
 4169SOL     OW24142   3.740   4.529   5.266  0.4719 -0.0729 -0.2607
 4169SOL    HW124143   3.668   4.469   5.283 -2.4190  3.4904 -0.0022
 4169SOL    HW224144   3.756   4.558   5.356  1.2647 -0.5294 -0.2503
 4170SOL     OW24145   1.192   0.762   6.812  0.4715  0.5097 -0.2918
 4170SOL    HW124146   1.162   0.760   6.903  1.9285 -1.5729  0.1609
 4170SOL    HW224147   1.284   0.745   6.831  0.1765  0.3384  0.9799
 4171SOL     OW24148   2.754   4.074   4.780 -0.5264  0.3495  0.6335
 4171SOL    HW124149   2.734   4.167   4.765 -3.4690 -0.4828 -0.4619
 4171SOL    HW224150   2.675   4.030   4.750 -0.2607 -1.0758  2.0515
 4172SOL     OW24151   3.369   2.810   6.605 -0.6310 -0.5847  0.9298
 4172SOL    HW124152   3.412   2.815   6.690  1.1502  2.4122 -0.1236
 4172SOL    HW224153   3.448   2.800   6.552 -0.8916 -0.8406  0.5914
 4173SOL     OW24154   3.196   1.069   2.392  0.3231 -0.1715 -1.0641
 4173SOL    HW124155   3.129   1.130   2.362 -0.7108 -0.1291  1.3428
 4173SOL    HW224156   3.212   1.103   2.480  1.5883 -0.8297 -1.0427
 4174SOL     OW24157   1.581   2.344   8.015 -0.0813 -0.0503 -0.2281
 4174SOL    HW124158   1.618   2.421   8.057  0.1806  0.0805 -0.6985
 4174SOL    HW224159   1.662   2.293   8.007  1.4868  2.7065 -2.0411
 4175SOL     OW24160   0.303   4.640   7.251 -0.4591 -0.0936  0.1265
 4175SOL    HW124161   0.256   4.560   7.274  0.8780 -0.5863  1.1468
 4175SOL    HW224162   0.259   4.652   7.167  1.1736  0.2832 -0.6905
 4176SOL     OW24163   2.570   1.721   6.641 -0.0087  0.0318 -0.4146
 4176SOL    HW124164   2.574   1.658   6.569 -0.9641 -1.2212  0.6345
 4176SOL    HW224165   2.657   1.759   6.632 -0.8138  2.2776  1.1610
 4177SOL     OW24166   0.021   0.259   6.283 -0.3105 -0.0563 -0.2226
 4177SOL    HW124167   0.085   0.192   6.261 -2.0507 -1.4287 -1.1218
 4177SOL    HW224168   4.693   0.253   6.212  1.8549 -1.0997 -2.0626
 4178SOL     OW24169   2.568   1.569   0.953  0.2918  0.0067 -0.4144
 4178SOL    HW124170   2.624   1.637   0.991 -0.1466 -1.2438  2.5023
 4178SOL    HW224171   2.513   1.552   1.030 -1.5278 -1.6702 -2.0848
 4179SOL     OW24172   4.384   3.994   6.520  0.5541 -0.2269  0.6345
 4179SOL    HW124173   4.396   4.085   6.547 -1.9930  0.8738 -1.9430
 4179SOL    HW224174   4.303   3.971   6.566  0.9945  0.8742  1.9602
 4180SOL     OW24175   1.952   0.108   8.366  0.7245 -0.1640  0.2988
 4180SOL    HW124176   1.949   0.043   8.436  0.0877 -0.0165  0.4071
 4180SOL    HW224177   1.898   0.176   8.404  1.2830  1.6441 -2.1433
 4181SOL     OW24178   0.116   0.894   5.714 -0.1144 -0.2338 -0.0512
 4181SOL    HW124179   0.097   0.928   5.802 -1.3146 -1.2008  0.0730
 4181SOL    HW224180   0.116   0.980   5.674  1.1556  0.4489  1.4232
 4182SOL     OW24181   1.349   0.219   3.540  0.7806  0.0166  0.1760
 4182SOL    HW124182   1.440   0.246   3.552  0.1467  1.7109  1.2079
 4182SOL    HW224183   1.305   0.260   3.615  1.7040 -2.8608  2.3072
 4183SOL     OW24184   0.210   3.989  10.839  0.2372 -0.0977  0.0692
 4183SOL    HW124185   0.168   4.072  10.820  1.1570  0.1200 -1.0531
 4183SOL    HW224186   0.249   4.015  10.923 -0.1689 -0.2425  0.2976
 4184SOL     OW24187   3.866   2.257   7.483 -0.2047  0.7047 -0.1891
 4184SOL    HW124188   3.960   2.273   7.476 -0.0583 -0.1951 -0.2251
 4184SOL    HW224189   3.838   2.306   7.405  2.6069  1.4276 -0.7492
 4185SOL     OW24190   0.271   3.791   0.658  0.5670  0.1321  0.6380
 4185SOL    HW124191   0.263   3.740   0.578  2.3611  1.3356 -0.3087
 4185SOL    HW224192   0.184   3.789   0.698 -0.9344 -0.1801 -2.7197
 4186SOL     OW24193   1.127   4.331  11.479  0.0542 -0.3693 -0.1273
 4186SOL    HW124194   1.144   4.350  11.387  1.4087 -0.8887  0.0148
 4186SOL    HW224195   1.213   4.335  11.521  0.3074 -0.3053 -0.6485
 4187SOL     OW24196   4.108   4.017   5.943  0.3003  0.2795  0.0827
 4187SOL    HW124197   4.135   4.106   5.923 -0.3154  0.7498  1.3256
 4187SOL    HW224198   4.070   3.983   5.862 -0.9753  0.7372  0.4815
 4188SOL     OW24199   1.648   1.935   6.383  0.9907  0.2085 -0.3994
 4188SOL    HW124200   1.701   1.862   6.415 -1.5924 -0.9702  1.2628
 4188SOL    HW224201   1.571   1.885   6.357 -0.1266  2.2290 -0.9979
 4189SOL     OW24202   4.042   1.588   7.803  0.3468  0.4483  0.9794
 4189SOL    HW124203   4.047   1.682   7.788 -1.0512  0.1217 -1.4670
 4189SOL    HW224204   3.983   1.589   7.879 -0.8023 -2.3233  0.0985
 4190SOL     OW24205   3.953   4.004   8.925 -0.3137  0.1649  0.3086
 4190SOL    HW124206   3.884   4.012   8.991 -0.0820  3.7959  0.0912
 4190SOL    HW224207   3.973   3.911   8.939 -0.9681  0.1208  0.9799
 4191SOL     OW24208   3.865   1.541   7.584  0.1245 -0.1550  0.3215
 4191SOL    HW124209   3.861   1.631   7.617  1.7628  0.9868 -2.5395
 4191SOL    HW224210   3.857   1.550   7.489 -0.3652  1.9903  0.5443
 4192SOL     OW24211   1.364   1.592  14.553  0.1449 -0.0072 -0.2748
 4192SOL    HW124212   1.368   1.508  14.508 -1.2836  1.3700 -2.9889
 4192SOL    HW224213   1.284   1.636  14.524  0.6561 -0.6468 -2.6022
 4193SOL     OW24214   3.573   2.504  16.184  0.0933 -0.8566 -0.8403
 4193SOL    HW124215   3.654   2.545  16.155 -0.3682  0.6284 -0.0584
 4193SOL    HW224216   3.570   2.422  16.136 -0.0269 -0.5421 -1.3645
 4194SOL     OW24217   1.322   2.316   3.974 -0.2349 -0.5134 -0.1953
 4194SOL    HW124218   1.237   2.332   4.015  0.4332  0.1884  0.9059
 4194SOL    HW224219   1.366   2.255   4.033 -1.2571 -1.3370 -0.2854
 4195SOL     OW24220   3.619   2.732   3.497  0.5782 -0.5552  0.2045
 4195SOL    HW124221   3.604   2.649   3.542 -0.4294 -0.8120 -0.5957
 4195SOL    HW224222   3.665   2.776   3.569  0.3598  1.3818 -0.8424
 4196SOL     OW24223   3.038   4.073   6.118  0.2504 -0.1418  0.2650
 4196SOL    HW124224   3.019   3.999   6.175 -0.2028 -0.3994 -0.2216
 4196SOL    HW224225   3.117   4.049   6.069  1.1159  0.5750  1.3020
 4197SOL     OW24226   0.540   3.248   5.036  0.2267 -0.1774 -0.1454
 4197SOL    HW124227   0.455   3.280   5.064  0.9406  0.4552  1.2639
 4197SOL    HW224228   0.511   3.168   4.990  0.5248  0.2041 -0.9987
 4198SOL     OW24229   1.216   4.192   8.501  0.4003  0.5421  0.7497
 4198SOL    HW124230   1.234   4.126   8.567 -1.3908  0.0436  0.7419
 4198SOL    HW224231   1.120   4.196   8.506  0.3509  0.4287 -0.0316
 4199SOL     OW24232   2.951   0.631   8.988 -0.2228  0.2210 -0.1712
 4199SOL    HW124233   2.880   0.691   9.013 -0.2455 -0.2116  0.8150
 4199SOL    HW224234   3.008   0.691   8.940  0.8417 -1.4946 -1.0495
 4200SOL     OW24235   3.365   0.250   8.308  0.6234 -0.6184 -0.0055
 4200SOL    HW124236   3.412   0.290   8.235 -0.5644  1.0403  0.1427
 4200SOL    HW224237   3.442   0.203   8.341  0.1313 -1.6041 -0.2754
 4201SOL     OW24238   3.082   2.664   6.077 -0.1178  0.6185  0.0829
 4201SOL    HW124239   3.142   2.652   6.003  0.0751 -1.0057  0.4898
 4201SOL    HW224240   3.143   2.710   6.134  2.6020 -1.8373 -0.8437
 4202SOL     OW24241   2.270   2.893   2.240  0.1930  0.2412 -0.1101
 4202SOL    HW124242   2.298   2.803   2.223  0.6244  0.6740 -1.6781
 4202SOL    HW224243   2.354   2.938   2.249  0.0789 -0.1453  2.7959
 4203SOL     OW24244   1.722   2.505   9.811 -0.4731 -0.1837 -0.1737
 4203SOL    HW124245   1.728   2.409   9.807  0.8113 -0.0671 -1.1560
 4203SOL    HW224246   1.791   2.528   9.873  0.9633 -0.7959 -1.5523
 4204SOL     OW24247   2.355   3.779   8.785  0.2608  0.0836  0.6204
 4204SOL    HW124248   2.268   3.808   8.815  0.2547 -0.9656  1.6126
 4204SOL    HW224249   2.365   3.702   8.840  1.0697  0.1243  0.5284
 4205SOL     OW24250   4.004   2.957   4.573  0.4627 -0.4208  0.0034
 4205SOL    HW124251   4.059   3.035   4.583 -0.8584  0.5771 -0.4562
 4205SOL    HW224252   3.933   2.997   4.523 -0.4650 -1.0844  0.7942
 4206SOL     OW24253   2.098   4.532   7.203  0.2420 -0.4552 -0.6644
 4206SOL    HW124254   2.115   4.551   7.111 -3.2592  1.3620 -0.9302
 4206SOL    HW224255   2.187   4.556   7.228 -0.4900  1.2977  0.2776
 4207SOL     OW24256   0.219   3.819   8.029 -0.3181 -0.2431 -0.4838
 4207SOL    HW124257   0.279   3.888   8.056 -3.1212  1.3536  1.6263
 4207SOL    HW224258   0.278   3.758   7.984 -0.0165  0.7950 -1.4938
 4208SOL     OW24259   0.929   0.426   1.977 -0.0605  0.3726 -0.8657
 4208SOL    HW124260   0.882   0.360   2.028 -0.6209 -0.6210 -2.6803
 4208SOL    HW224261   0.958   0.474   2.055  1.9709  0.6763 -1.8118
 4209SOL     OW24262   4.502   1.173   7.332  0.2574  0.1353  0.3657
 4209SOL    HW124263   4.577   1.188   7.389 -1.1906  0.0592  2.2865
 4209SOL    HW224264   4.447   1.241   7.370 -0.0033 -0.0566  0.3328
 4210SOL     OW24265   0.821   0.157   8.566 -0.0108 -0.6189 -0.0742
 4210SOL    HW124266   0.730   0.138   8.541 -0.3857  1.8793 -0.5846
 4210SOL    HW224267   0.805   0.235   8.619 -0.1419  0.8171 -2.1957
 4211SOL     OW24268   1.837   3.367   2.368 -0.1211  0.0329  0.3447
 4211SOL    HW124269   1.839   3.458   2.399  0.8500  0.5728 -1.2501
 4211SOL    HW224270   1.890   3.335   2.441 -0.7850 -1.4916  0.1530
 4212SOL     OW24271   4.682   3.816   4.509 -0.3231 -0.1264  0.1080
 4212SOL    HW124272   4.653   3.749   4.447  0.7830  1.3330 -2.0010
 4212SOL    HW224273   4.595   3.831   4.546 -0.8977 -2.9322 -0.1013
 4213SOL     OW24274   0.016   4.008  12.986  0.5276  0.1711  0.3082
 4213SOL    HW124275   0.065   4.073  13.036  0.3573  1.7296 -1.5584
 4213SOL    HW224276   0.074   3.987  12.913 -0.4582  0.3244 -0.5089
 4214SOL     OW24277   3.944   2.763   9.511 -0.2985 -0.5943 -0.2367
 4214SOL    HW124278   4.023   2.807   9.480 -2.0712  1.6457 -1.5582
 4214SOL    HW224279   3.913   2.831   9.570 -0.2600 -0.8656  0.1009
 4215SOL     OW24280   3.643   4.023   6.151 -0.2567 -0.3168  0.2859
 4215SOL    HW124281   3.676   3.935   6.169  2.0580  0.8276  1.6139
 4215SOL    HW224282   3.677   4.055   6.234 -0.6878  0.4684  0.1628
 4216SOL     OW24283   2.063   4.487   2.915 -0.2150  0.1383 -0.0979
 4216SOL    HW124284   2.014   4.503   2.996  0.2905  1.1848 -0.0045
 4216SOL    HW224285   1.991   4.450   2.863 -1.2762  0.6754  0.9836
 4217SOL     OW24286   3.863   0.227   5.234  0.0346 -0.2660 -0.1391
 4217SOL    HW124287   3.770   0.239   5.218  0.6887  3.2378 -1.2400
 4217SOL    HW224288   3.858   0.174   5.314  2.2029 -0.7132 -0.2811
 4218SOL     OW24289   2.416   2.190  15.826 -0.6681  0.2340 -0.1806
 4218SOL    HW124290   2.327   2.170  15.855 -0.2262  0.0970  1.0855
 4218SOL    HW224291   2.459   2.209  15.909 -1.5891  2.4758 -0.2040
 4219SOL     OW24292   1.945   0.080  14.057 -0.0494  0.0554 -0.1183
 4219SOL    HW124293   1.853   0.082  14.033  0.5090  0.0273 -2.2576
 4219SOL    HW224294   1.937   0.008  14.119 -1.8828  1.4741  1.2938
 4220SOL     OW24295   4.579   4.391   8.233  0.0789 -0.3567  0.3661
 4220SOL    HW124296   4.530   4.433   8.163 -0.7355  0.9844  1.7225
 4220SOL    HW224297   4.501   4.358   8.278 -0.5841  0.0674 -0.4833
 4221SOL     OW24298   1.583   0.623   0.490  0.6469  0.2994  0.1783
 4221SOL    HW124299   1.595   0.528   0.489  0.4613  0.2733  0.3826
 4221SOL    HW224300   1.642   0.651   0.420  1.3881 -0.5297  0.4649
 4222SOL     OW24301   1.626   3.701   7.191 -0.4675  0.1043  0.4579
 4222SOL    HW124302   1.606   3.784   7.233 -0.8062 -0.7941  2.0847
 4222SOL    HW224303   1.690   3.676   7.258  0.3999  1.7552  0.2432
 4223SOL     OW24304   1.495   2.479   2.352  0.0908 -0.1818 -0.0420
 4223SOL    HW124305   1.441   2.535   2.298 -0.7316 -1.6608 -0.7658
 4223SOL    HW224306   1.517   2.546   2.417  2.5479  0.4898 -1.5737
 4224SOL     OW24307   3.140   4.092   3.481  0.2751  0.9220 -0.1690
 4224SOL    HW124308   3.126   4.084   3.386 -0.2710 -0.7933  0.0547
 4224SOL    HW224309   3.191   4.012   3.491 -1.4573 -0.0737  0.5633
 4225SOL     OW24310   1.208   0.112   5.005 -0.2468  0.4199 -0.0533
 4225SOL    HW124311   1.185   0.195   4.964  1.1768  0.6245 -0.4263
 4225SOL    HW224312   1.240   0.065   4.928 -1.1826 -0.2296 -0.0511
 4226SOL     OW24313   3.960   4.317   8.554 -0.2142  0.2739 -0.2951
 4226SOL    HW124314   3.972   4.348   8.465  2.3766  0.0979 -0.0180
 4226SOL    HW224315   3.971   4.224   8.539 -0.2310  0.0729  0.9310
 4227SOL     OW24316   1.149   1.011   1.143  0.4109 -0.2295  0.1149
 4227SOL    HW124317   1.135   1.105   1.157  0.6972 -0.1563 -0.1067
 4227SOL    HW224318   1.185   0.991   1.230 -3.5522  0.3582  1.9110
 4228SOL     OW24319   3.818   0.419   9.848  0.4906  0.1391  0.1307
 4228SOL    HW124320   3.897   0.442   9.799  0.5006 -0.0362  0.0647
 4228SOL    HW224321   3.854   0.336   9.880  0.3418  1.2612  3.1566
 4229SOL     OW24322   0.385   2.227  10.001  0.0241  0.0938  0.1003
 4229SOL    HW124323   0.333   2.190   9.929 -1.2682 -1.8067  2.0163
 4229SOL    HW224324   0.312   2.266  10.049 -1.2924 -1.5157 -0.5722
 4230SOL     OW24325   3.820   4.400   5.555 -0.2362 -0.3576 -0.7718
 4230SOL    HW124326   3.913   4.422   5.563 -0.9771  1.3859  3.0951
 4230SOL    HW224327   3.779   4.486   5.547  1.6156  0.4638 -1.6234
 4231SOL     OW24328   1.269   3.758   7.849  0.1757 -0.1328 -0.0977
 4231SOL    HW124329   1.214   3.684   7.823 -0.7630 -0.2562  2.2296
 4231SOL    HW224330   1.243   3.772   7.940  1.1098  2.6429 -0.2529
 4232SOL     OW24331   2.708   2.558  12.015 -0.0906  0.1933  0.0163
 4232SOL    HW124332   2.627   2.519  12.049  1.1858 -2.1610  0.3172
 4232SOL    HW224333   2.720   2.637  12.068  0.7231 -1.2992  2.0363
 4233SOL     OW24334   4.728   2.432  13.440  0.1194  0.0934  0.4412
 4233SOL    HW124335   4.716   2.424  13.346 -0.0874  1.0625  0.3916
 4233SOL    HW224336   4.643   2.466  13.469 -0.3963 -0.7282 -0.1026
 4234SOL     OW24337   3.671   3.996   9.470 -0.3391 -0.4528  0.5711
 4234SOL    HW124338   3.594   3.974   9.417 -1.1126  2.4189  0.5321
 4234SOL    HW224339   3.651   3.944   9.548 -0.8998  0.6359  1.1568
 4235SOL     OW24340   0.515   2.086   6.752 -0.2166  0.5515 -0.7335
 4235SOL    HW124341   0.556   2.015   6.702  1.9056  1.4648 -0.2780
 4235SOL    HW224342   0.482   2.036   6.827 -2.9856  1.0031 -1.6272
 4236SOL     OW24343   4.337   4.656   7.311 -0.3717 -0.6911 -0.3337
 4236SOL    HW124344   4.289   4.622   7.387 -1.1665  1.1179 -0.0293
 4236SOL    HW224345   4.327   4.582   7.251  0.0087 -0.6252 -0.4765
 4237SOL     OW24346   4.433   3.295   4.120 -0.5423  0.2413  0.2437
 4237SOL    HW124347   4.425   3.217   4.066  1.2995 -0.6909  1.3324
 4237SOL    HW224348   4.426   3.370   4.060  0.8881  0.6922  0.6505
 4238SOL     OW24349   2.625   4.478   1.470  0.3223  0.1683 -0.2071
 4238SOL    HW124350   2.602   4.440   1.385  0.7674 -0.4212 -0.0576
 4238SOL    HW224351   2.663   4.564   1.450  0.3905 -0.3348 -2.2138
 4239SOL     OW24352   0.991   2.681  10.102 -0.3304 -0.2744 -0.8008
 4239SOL    HW124353   0.931   2.730  10.158 -1.0702  0.1710 -1.9873
 4239SOL    HW224354   1.014   2.607  10.157  0.8687  1.2120  0.6897
 4240SOL     OW24355   3.876   3.084   6.911 -0.4636  0.1304  0.3743
 4240SOL    HW124356   3.869   3.164   6.859 -0.9848 -0.3051 -0.2254
 4240SOL    HW224357   3.942   3.108   6.976  0.2058  1.1775 -0.6935
 4241SOL     OW24358   0.633   0.549   5.733  0.2968 -1.3931  0.5987
 4241SOL    HW124359   0.610   0.471   5.683  0.8095 -0.3595 -1.2896
 4241SOL    HW224360   0.619   0.628   5.680  1.2821 -2.6551 -1.5672
 4242SOL     OW24361   0.334   0.956   2.498 -0.2048 -0.0596 -0.7373
 4242SOL    HW124362   0.368   0.977   2.585  1.1199  0.6214 -1.4130
 4242SOL    HW224363   0.330   1.043   2.460  1.0356  0.4647  0.3316
 4243SOL     OW24364   0.785   0.827  14.965 -0.3550  0.9796  0.4000
 4243SOL    HW124365   0.851   0.774  14.922 -1.1382  0.5379 -0.2510
 4243SOL    HW224366   0.748   0.877  14.892  2.3325 -1.6536 -2.7784
 4244SOL     OW24367   4.533   0.219  13.858 -0.0533 -0.3090  0.2018
 4244SOL    HW124368   4.545   0.220  13.953  0.0071 -0.8469  0.2021
 4244SOL    HW224369   4.615   0.262  13.833 -0.2336  1.2078  2.1958
 4245SOL     OW24370   1.962   4.337   9.487  0.0811  0.3057  0.0539
 4245SOL    HW124371   1.876   4.368   9.458 -0.7070 -1.7712  0.1568
 4245SOL    HW224372   1.955   4.250   9.449  2.3060  0.8375 -1.5529
 4246SOL     OW24373   0.573   3.552   8.002 -0.2210 -0.2992  0.0144
 4246SOL    HW124374   0.544   3.640   7.978  1.1189 -0.3499 -1.8015
 4246SOL    HW224375   0.547   3.505   7.922 -0.9971  0.9001 -0.4383
 4247SOL     OW24376   2.956   3.234   4.549  0.1199 -0.0447 -0.0747
 4247SOL    HW124377   3.036   3.287   4.550  1.5147 -2.1788  1.0764
 4247SOL    HW224378   2.903   3.264   4.622  2.6180  0.2298  1.6376
 4248SOL     OW24379   2.548   3.512   8.540  0.1831  0.1221 -0.3539
 4248SOL    HW124380   2.599   3.497   8.460  0.5015 -1.0552  0.0736
 4248SOL    HW224381   2.563   3.424   8.576 -1.6144  0.2584  0.7383
 4249SOL     OW24382   3.745   0.057  17.687 -0.4310  0.6420  0.3701
 4249SOL    HW124383   3.828   0.067  17.639 -0.0275 -0.1405  0.8974
 4249SOL    HW224384   3.677   0.075  17.622 -0.3618 -0.7730 -0.0853
 4250SOL     OW24385   0.385   4.262   8.252  0.1729 -0.4820  0.2575
 4250SOL    HW124386   0.301   4.285   8.291  0.1716 -1.0829  0.6090
 4250SOL    HW224387   0.429   4.347   8.256  1.3130 -1.0569 -0.1637
 4251SOL     OW24388   2.648   1.674  12.550 -0.0320  0.1331  0.6283
 4251SOL    HW124389   2.608   1.640  12.470  1.3132 -1.5727  0.6782
 4251SOL    HW224390   2.578   1.669  12.615 -0.0729  0.5131  0.6169
 4252SOL     OW24391   3.856   2.619   6.698 -1.0499 -0.1059  0.2034
 4252SOL    HW124392   3.938   2.583   6.731 -0.3816  1.5883  0.4012
 4252SOL    HW224393   3.840   2.564   6.622  0.7940 -0.1367 -0.1572
 4253SOL     OW24394   3.650   1.139  16.755  0.0149 -0.0045  0.5392
 4253SOL    HW124395   3.688   1.052  16.744  0.3557  0.0350  1.4063
 4253SOL    HW224396   3.726   1.189  16.724  0.1774 -0.3673  0.3536
 4254SOL     OW24397   1.576   3.091  15.565 -0.4180  0.4552 -1.1487
 4254SOL    HW124398   1.635   3.024  15.602  0.2557  1.2157 -0.8572
 4254SOL    HW224399   1.576   3.148  15.641 -0.6770 -2.4446  1.0524
 4255SOL     OW24400   2.126   4.236   5.715 -0.2660 -0.2775 -0.7333
 4255SOL    HW124401   2.057   4.178   5.748  1.2770 -0.9270  1.3389
 4255SOL    HW224402   2.067   4.308   5.694  0.0520  0.1320 -0.2267
 4256SOL     OW24403   0.028   1.122  10.506  0.5011 -0.2270  0.1068
 4256SOL    HW124404   4.692   1.183  10.523  2.0812  1.2590  1.4598
 4256SOL    HW224405   0.105   1.178  10.516  0.2790 -0.0653  0.9353
 4257SOL     OW24406   0.467   4.538   9.217 -0.0288  0.5739 -0.0308
 4257SOL    HW124407   0.469   4.470   9.284 -1.4913  0.4372 -0.1142
 4257SOL    HW224408   0.392   4.510   9.165 -0.5086  2.2718 -0.2468
 4258SOL     OW24409   2.601   4.185   4.199  1.0478  0.3113  0.3843
 4258SOL    HW124410   2.620   4.197   4.106 -0.9651  0.6783  0.0223
 4258SOL    HW224411   2.595   4.089   4.193  0.0275  0.4072 -0.1935
 4259SOL     OW24412   0.077   3.355   4.185 -0.0042 -0.2312 -0.2147
 4259SOL    HW124413   4.717   3.355   4.187  0.0118 -3.6601  0.3321
 4259SOL    HW224414   0.097   3.447   4.202 -0.4541  0.4734 -3.4294
 4260SOL     OW24415   3.111   3.118   3.901 -1.1105  0.1362  0.1528
 4260SOL    HW124416   3.085   3.107   3.809  0.8378  2.9661 -0.7508
 4260SOL    HW224417   3.032   3.163   3.931 -1.7492  0.1707 -1.5782
 4261SOL     OW24418   4.289   1.165   4.325  0.3413  0.1386  1.0676
 4261SOL    HW124419   4.316   1.090   4.378  2.0742  1.3081  1.8028
 4261SOL    HW224420   4.206   1.196   4.363  0.6656  1.4141  0.7172
 4262SOL     OW24421   2.865   1.094  16.599 -0.3200  0.9138  0.0875
 4262SOL    HW124422   2.929   1.023  16.598  0.4733  1.6393 -1.0161
 4262SOL    HW224423   2.826   1.093  16.512 -0.1349 -1.1188  0.0269
 4263SOL     OW24424   1.944   3.801   5.897 -0.3422  0.2990  0.4349
 4263SOL    HW124425   1.945   3.730   5.961  1.9313 -0.2189 -0.1814
 4263SOL    HW224426   1.848   3.803   5.891 -0.3937  1.6895  1.6007
 4264SOL     OW24427   0.422   3.727   5.776  0.5704 -0.3282 -0.7690
 4264SOL    HW124428   0.450   3.709   5.865 -1.4458 -0.1233 -0.0860
 4264SOL    HW224429   0.367   3.650   5.765  1.7029 -1.3394  0.7359
 4265SOL     OW24430   2.996   3.044   1.973 -0.3447  0.2331  0.3517
 4265SOL    HW124431   3.033   2.960   1.947  0.7507 -0.2994  3.6549
 4265SOL    HW224432   2.940   3.062   1.898  1.1029 -3.1247 -1.5143
 4266SOL     OW24433   1.057   2.007   0.377  0.0434 -0.0520  0.1820
 4266SOL    HW124434   0.970   1.971   0.397 -0.1378  1.3452  1.9446
 4266SOL    HW224435   1.048   2.094   0.416  1.9403  1.9240 -3.7625
 4267SOL     OW24436   4.057   2.123  14.941 -0.6137  0.2847  0.6833
 4267SOL    HW124437   4.137   2.139  14.891 -1.3149  0.8197 -0.2696
 4267SOL    HW224438   3.996   2.189  14.907 -1.2630 -1.3193 -1.2366
 4268SOL     OW24439   2.229   0.020   7.068  0.4099  0.3987  0.1259
 4268SOL    HW124440   2.299   0.029   7.133  1.8929 -0.1039 -1.4109
 4268SOL    HW224441   2.257   0.091   7.010  0.6011  1.3859  1.4174
 4269SOL     OW24442   3.478   0.071   3.027 -0.1189  0.1194  0.1133
 4269SOL    HW124443   3.465   4.716   3.056 -1.1986 -0.2028 -1.3608
 4269SOL    HW224444   3.568   0.085   3.054  0.0342  0.8183 -0.7536
 4270SOL     OW24445   0.146   1.201   3.569  0.0724 -0.0713 -0.3665
 4270SOL    HW124446   0.211   1.251   3.518  1.7219 -2.1646 -0.3218
 4270SOL    HW224447   0.103   1.146   3.504 -0.3700  0.7628 -0.7728
 4271SOL     OW24448   4.263   3.203   1.972 -0.3137  0.1313  0.4188
 4271SOL    HW124449   4.230   3.262   1.903  0.5634 -0.4520 -0.4959
 4271SOL    HW224450   4.302   3.137   1.915  0.4081  1.6443 -0.8708
 4272SOL     OW24451   4.458   3.650   4.736  0.0527  0.1840 -0.5403
 4272SOL    HW124452   4.429   3.642   4.827  0.0002  2.3503 -0.3692
 4272SOL    HW224453   4.454   3.743   4.715  1.0612  1.0009  2.9552
 4273SOL     OW24454   2.303   1.021   4.131 -0.4908 -0.1111  0.6450
 4273SOL    HW124455   2.355   1.028   4.051  1.0086  0.7219  1.6970
 4273SOL    HW224456   2.302   0.933   4.167 -1.2560 -1.6679 -3.1752
 4274SOL     OW24457   3.633   0.547   5.070 -0.0422 -0.2511  0.0993
 4274SOL    HW124458   3.711   0.601   5.086  0.4786 -1.2940  1.0281
 4274SOL    HW224459   3.655   0.523   4.980  1.5257 -1.4279  0.8073
 4275SOL     OW24460   0.688   3.370   2.828 -0.4507  0.3378  0.0937
 4275SOL    HW124461   0.594   3.357   2.823  0.1028 -1.8451 -4.6434
 4275SOL    HW224462   0.715   3.288   2.870  0.6115  1.1228  0.9498
 4276SOL     OW24463   2.490   2.221   6.415  0.4176  0.1794 -0.5539
 4276SOL    HW124464   2.568   2.252   6.460  1.4103 -0.6692 -1.6769
 4276SOL    HW224465   2.420   2.285   6.428  2.7965  2.5242  0.6539
 4277SOL     OW24466   3.854   2.573   3.061  0.4331 -1.0757  0.4496
 4277SOL    HW124467   3.925   2.638   3.058  0.4121 -1.1373 -1.2704
 4277SOL    HW224468   3.836   2.564   3.155 -1.7452 -0.4558  0.0750
 4278SOL     OW24469   1.008   0.116   2.437  0.4200 -0.2415  0.3361
 4278SOL    HW124470   1.064   0.189   2.463  0.4760 -0.8169  1.8141
 4278SOL    HW224471   0.990   0.074   2.521  0.1099 -0.9777 -0.1030
 4279SOL     OW24472   0.848   0.416  12.140 -0.0582 -0.2096 -0.2473
 4279SOL    HW124473   0.849   0.512  12.146  2.0669 -0.2162 -0.5016
 4279SOL    HW224474   0.850   0.402  12.045  2.1802 -0.1734 -0.1924
 4280SOL     OW24475   0.173   0.434   7.821 -0.5553  0.1258 -0.0337
 4280SOL    HW124476   0.233   0.386   7.765 -0.1749 -0.7390  1.1163
 4280SOL    HW224477   0.098   0.433   7.760 -1.0096  0.3376  0.5145
 4281SOL     OW24478   2.281   1.545   2.225  0.4057 -0.3030  0.1518
 4281SOL    HW124479   2.333   1.472   2.192 -0.1685  0.0108 -1.4185
 4281SOL    HW224480   2.314   1.627   2.190  0.1030  0.4077  1.5137
 4282SOL     OW24481   3.638   4.627   6.849 -0.5273  0.2602  0.4492
 4282SOL    HW124482   3.733   4.636   6.841 -0.6979  0.4840 -1.2278
 4282SOL    HW224483   3.643   4.567   6.924 -0.1351 -1.7507 -1.1713
 4283SOL     OW24484   1.856   0.142   8.711 -0.6001 -0.1843  0.0299
 4283SOL    HW124485   1.900   0.060   8.690  0.2237  0.1740  0.3366
 4283SOL    HW224486   1.765   0.129   8.685 -1.4450  0.1323  2.8294
 4284SOL     OW24487   2.105   3.709   5.684 -0.1579 -0.1707 -0.1140
 4284SOL    HW124488   2.068   3.730   5.770 -0.1356  0.6275 -0.2954
 4284SOL    HW224489   2.043   3.752   5.624 -1.0772  0.0976  1.0229
 4285SOL     OW24490   0.219   0.188   4.074  0.0293  0.2477 -0.0664
 4285SOL    HW124491   0.147   0.243   4.044  1.0862  0.3081 -2.5428
 4285SOL    HW224492   0.168   0.126   4.125  1.5797 -0.3955  0.6853
 4286SOL     OW24493   2.063   3.421   4.554  0.2448  0.2453  0.2506
 4286SOL    HW124494   2.040   3.384   4.469 -0.4548  1.6145 -0.1542
 4286SOL    HW224495   2.015   3.370   4.620 -0.3365 -0.4906 -0.7455
 4287SOL     OW24496   4.614   3.831   6.461 -0.5486 -0.0858  0.0572
 4287SOL    HW124497   4.683   3.870   6.514 -0.0293 -3.5094  1.9072
 4287SOL    HW224498   4.536   3.882   6.483 -1.4826 -0.6161 -2.0323
 4288SOL     OW24499   2.295   2.414   6.392  0.0343  0.4791  0.4881
 4288SOL    HW124500   2.298   2.505   6.362 -3.7044  0.3248 -0.2834
 4288SOL    HW224501   2.218   2.388   6.342  1.3671  0.0601 -1.3599
 4289SOL     OW24502   0.785   4.220   4.530 -0.1028  0.0069  0.0734
 4289SOL    HW124503   0.705   4.179   4.496 -1.7402  0.2672  3.6437
 4289SOL    HW224504   0.780   4.202   4.624  0.0036  0.1593  0.1074
 4290SOL     OW24505   4.271   2.139   3.827 -0.3274  0.1547 -0.5263
 4290SOL    HW124506   4.332   2.213   3.817  0.2223 -0.1451  0.6691
 4290SOL    HW224507   4.307   2.082   3.759  0.1828 -1.7188  1.3242
 4291SOL     OW24508   3.279   0.019   4.601 -0.3382  0.0011  0.2149
 4291SOL    HW124509   3.257   4.713   4.518  0.4099  0.0990 -0.0297
 4291SOL    HW224510   3.209   4.721   4.657 -1.5017  3.5016  0.9030
 4292SOL     OW24511   2.842   3.107   1.759 -0.4353  0.2410 -0.0952
 4292SOL    HW124512   2.858   3.090   1.666  0.7635  1.1967 -0.0661
 4292SOL    HW224513   2.748   3.120   1.745 -0.3376 -0.1374 -1.1358
 4293SOL     OW24514   1.018   0.324   9.856 -0.0866 -0.5312 -0.5920
 4293SOL    HW124515   1.102   0.311   9.901  0.7730  1.5216 -1.5791
 4293SOL    HW224516   1.011   0.418   9.873 -3.9900 -0.6582 -1.6281
 4294SOL     OW24517   4.600   1.265   3.332 -0.0261  0.1455 -0.1513
 4294SOL    HW124518   4.569   1.236   3.246 -1.9081  1.3918  0.1097
 4294SOL    HW224519   4.675   1.208   3.348  0.9761  1.2928 -0.8340
 4295SOL     OW24520   3.368   0.539  11.153 -0.0302  0.2360  0.1674
 4295SOL    HW124521   3.336   0.623  11.120 -0.2654  0.6005  1.3123
 4295SOL    HW224522   3.330   0.537  11.241 -0.0127  0.6087  0.1849
 4296SOL     OW24523   3.799   2.295   1.920  0.1467  0.0059 -0.4338
 4296SOL    HW124524   3.720   2.263   1.963  0.4959  1.8841  1.6007
 4296SOL    HW224525   3.767   2.321   1.834 -1.6952  2.1455  0.9222
 4297SOL     OW24526   3.802   0.958  15.670 -0.3087 -0.2700 -0.4376
 4297SOL    HW124527   3.853   0.877  15.661 -2.1427 -1.3508 -1.1926
 4297SOL    HW224528   3.734   0.943  15.605 -0.0182  0.1677 -0.8354
 4298SOL     OW24529   0.944   3.017   2.232  0.3513  0.7380  0.7662
 4298SOL    HW124530   0.869   3.073   2.212  1.7214  1.3405 -2.7349
 4298SOL    HW224531   1.003   3.091   2.214  1.8994 -0.5219  0.6617
 4299SOL     OW24532   3.319   1.102   6.181  0.2985  0.1018 -0.2006
 4299SOL    HW124533   3.392   1.165   6.184  2.0662 -1.9676 -0.0241
 4299SOL    HW224534   3.272   1.129   6.102  0.1564 -0.3473 -0.2656
 4300SOL     OW24535   2.612   3.795   9.010 -0.3340  0.3117 -0.2488
 4300SOL    HW124536   2.605   3.738   8.933 -0.4250  2.0865 -1.5401
 4300SOL    HW224537   2.554   3.747   9.068 -1.6400  1.5510 -0.5453
 4301SOL     OW24538   1.685   4.266   5.582  0.5821  0.6008  0.3227
 4301SOL    HW124539   1.616   4.212   5.620  1.1645 -0.2693  0.1307
 4301SOL    HW224540   1.748   4.196   5.562  0.3124  0.7439 -0.9927
 4302SOL     OW24541   1.533   1.245   6.832 -0.1298 -0.3606  0.5961
 4302SOL    HW124542   1.620   1.205   6.828  0.1037  0.0880  1.0723
 4302SOL    HW224543   1.498   1.177   6.890 -0.9049 -1.7877 -1.5757
 4303SOL     OW24544   0.784   1.088  11.396 -0.3827 -0.4600 -0.0092
 4303SOL    HW124545   0.831   1.013  11.361 -0.3094 -2.0191  3.4199
 4303SOL    HW224546   0.859   1.111  11.450 -0.4279  1.1157 -0.6300
 4304SOL     OW24547   0.275   1.785   6.674 -0.5723 -0.0240  0.2552
 4304SOL    HW124548   0.274   1.853   6.742  1.7530  0.0039  0.2911
 4304SOL    HW224549   0.337   1.725   6.716  2.7096  1.8385 -1.9489
 4305SOL     OW24550   3.210   3.337   2.989  0.0518  0.3241  0.4976
 4305SOL    HW124551   3.211   3.421   3.036  2.0098  0.3215  0.4375
 4305SOL    HW224552   3.169   3.369   2.909  0.2692  0.2163  0.3448
 4306SOL     OW24553   0.594   2.773   6.866 -0.6682 -0.5905 -0.0314
 4306SOL    HW124554   0.642   2.811   6.793  0.8383  2.1480  2.3304
 4306SOL    HW224555   0.562   2.692   6.828 -0.4775 -1.3849  1.4966
 4307SOL     OW24556   4.180   4.463  16.655 -0.6677 -0.3885  0.3324
 4307SOL    HW124557   4.176   4.477  16.750 -1.5122 -0.8171  0.3624
 4307SOL    HW224558   4.115   4.392  16.651  0.6640 -1.6473  1.1699
 4308SOL     OW24559   2.805   4.575  13.809  0.0496  0.3785 -0.0684
 4308SOL    HW124560   2.780   4.663  13.780  2.0165  1.0266  0.2247
 4308SOL    HW224561   2.865   4.549  13.739  0.9263 -1.1856  1.2798
 4309SOL     OW24562   0.975   4.346  15.167  0.0003  0.1310  0.7796
 4309SOL    HW124563   1.026   4.421  15.195 -0.0414  0.8193 -1.0434
 4309SOL    HW224564   1.041   4.284  15.137  0.7544  2.1150 -1.6279
 4310SOL     OW24565   0.257   2.500  13.440  0.2464 -0.5133  0.0401
 4310SOL    HW124566   0.270   2.422  13.386  0.4996 -0.3082 -0.1966
 4310SOL    HW224567   0.166   2.485  13.464  0.2343 -0.8944 -0.2516
 4311SOL     OW24568   0.326   3.938   6.135  0.1276 -0.2938 -0.0697
 4311SOL    HW124569   0.253   3.998   6.155 -0.3092 -1.1082  0.8152
 4311SOL    HW224570   0.404   3.989   6.117  0.5011 -0.7476  0.2667
 4312SOL     OW24571   0.003   2.292   2.856 -0.0766 -0.2985  0.0699
 4312SOL    HW124572   4.688   2.334   2.926 -0.1089 -0.9953  0.4715
 4312SOL    HW224573   4.671   2.277   2.790  1.3041  0.3736 -1.4832
 4313SOL     OW24574   1.640   2.187  12.556 -0.3917  0.2790 -0.0179
 4313SOL    HW124575   1.695   2.115  12.526  1.1612  2.3005 -1.9932
 4313SOL    HW224576   1.555   2.145  12.568  1.1908 -2.9480 -0.1985
 4314SOL     OW24577   4.083   3.978   9.290 -0.5239 -0.1704  0.0230
 4314SOL    HW124578   4.134   3.901   9.268 -4.0135 -2.4082 -0.2671
 4314SOL    HW224579   4.148   4.046   9.274  0.5706 -1.0939  0.5423
 4315SOL     OW24580   1.753   2.262   6.469 -0.1077  0.4675 -0.1460
 4315SOL    HW124581   1.735   2.189   6.527  0.6598 -0.4391 -1.0431
 4315SOL    HW224582   1.734   2.339   6.523 -2.7770  0.0757 -0.5400
 4316SOL     OW24583   4.647   4.662  15.523 -0.0474  0.2156  0.0484
 4316SOL    HW124584   4.728   4.618  15.551  0.4427  1.2610  0.2779
 4316SOL    HW224585   4.628   4.611  15.444  2.4985 -1.6684  0.6388
 4317SOL     OW24586   3.826   2.462  15.622  0.9635 -0.2551  0.5670
 4317SOL    HW124587   3.843   2.442  15.714  1.0781  1.3019  0.8879
 4317SOL    HW224588   3.731   2.451  15.611  1.1377  0.0939 -1.2634
 4318SOL     OW24589   4.606   3.699   4.249  0.0973  0.3021 -0.2183
 4318SOL    HW124590   4.559   3.710   4.167  1.2974 -2.2938 -1.2531
 4318SOL    HW224591   4.590   3.609   4.276  0.8045  0.5610  1.1013
 4319SOL     OW24592   0.314   0.327   9.335  0.2244  0.1092 -0.5168
 4319SOL    HW124593   0.334   0.317   9.242 -1.1241 -2.8982 -0.4682
 4319SOL    HW224594   0.397   0.294   9.369  0.1175 -0.4225 -0.7733
 4320SOL     OW24595   1.520   0.006   2.696 -0.0348 -0.4781 -0.4426
 4320SOL    HW124596   1.543   0.061   2.620  1.2897 -1.4591 -0.7608
 4320SOL    HW224597   1.427   0.028   2.696 -0.2207 -1.3321  0.8566
 4321SOL     OW24598   3.752   1.563   4.375 -0.9300 -0.0261  0.3168
 4321SOL    HW124599   3.803   1.641   4.397  1.7125 -1.3836 -0.8927
 4321SOL    HW224600   3.797   1.499   4.430 -2.7568 -2.4203 -0.9789
 4322SOL     OW24601   1.573   2.171   7.281  0.2279 -0.0953  0.2901
 4322SOL    HW124602   1.631   2.163   7.206  0.3731  1.3215  0.2504
 4322SOL    HW224603   1.596   2.096   7.335  1.5953 -0.3708 -0.6696
 4323SOL     OW24604   2.508   1.778   9.463 -0.1634  0.2554 -0.3481
 4323SOL    HW124605   2.589   1.733   9.437  0.3197  2.2900 -2.3225
 4323SOL    HW224606   2.479   1.720   9.534 -0.2680 -0.3555 -0.8828
 4324SOL     OW24607   3.521   2.745   3.911  0.3203  0.0444 -0.2327
 4324SOL    HW124608   3.605   2.700   3.911  0.0742 -0.4282  3.5633
 4324SOL    HW224609   3.489   2.724   3.998 -2.0065  1.8768 -0.6376
 4325SOL     OW24610   3.782   2.247  15.365 -0.2421 -0.4128 -0.2233
 4325SOL    HW124611   3.820   2.334  15.366  0.1601 -0.5939  0.1310
 4325SOL    HW224612   3.699   2.255  15.413 -0.2792 -1.5749 -0.0812
 4326SOL     OW24613   4.559   4.182   4.612 -0.0105  0.4488  0.1185
 4326SOL    HW124614   4.566   4.205   4.519  0.8597  0.3789  0.1719
 4326SOL    HW224615   4.497   4.245   4.651 -3.1509 -1.9146 -1.0204
 4327SOL     OW24616   4.149   3.502   5.070 -0.2130 -0.1373 -0.1965
 4327SOL    HW124617   4.064   3.460   5.061 -0.3398  0.0335  0.1965
 4327SOL    HW224618   4.207   3.440   5.025  0.0874 -0.1172  0.1549
 4328SOL     OW24619   3.486   0.494   2.188 -0.2398 -0.5530  0.3095
 4328SOL    HW124620   3.444   0.579   2.175 -0.1354 -0.4975  0.3329
 4328SOL    HW224621   3.562   0.512   2.133 -1.2353  0.8347 -0.6395
 4329SOL     OW24622   4.496   2.822   9.065 -0.2481 -0.5050  0.3086
 4329SOL    HW124623   4.437   2.803   9.137 -1.0800 -1.6532 -0.6737
 4329SOL    HW224624   4.453   2.898   9.025  0.3644 -0.8814 -1.0672
 4330SOL     OW24625   3.148   4.425  17.096 -0.2088  0.2376  0.3400
 4330SOL    HW124626   3.176   4.516  17.086  2.5477 -0.8668 -1.9001
 4330SOL    HW224627   3.057   4.427  17.067 -0.2406 -0.2686  0.4030
 4331SOL     OW24628   1.400   3.515  17.072  0.2014 -0.2463 -0.5330
 4331SOL    HW124629   1.306   3.500  17.079  0.1175  1.2278  1.4747
 4331SOL    HW224630   1.410   3.589  17.132 -0.4998  3.0657 -4.4907
 4332SOL     OW24631   4.216   1.084  14.501  0.1437 -0.4536  0.0351
 4332SOL    HW124632   4.192   1.102  14.592  0.8150 -0.2977  0.1801
 4332SOL    HW224633   4.185   1.165  14.459  0.6327  0.9751  2.3866
 4333SOL     OW24634   2.525   3.232   0.509  0.6957  0.2128  1.1589
 4333SOL    HW124635   2.495   3.260   0.596  0.7167 -1.8146  1.8334
 4333SOL    HW224636   2.582   3.307   0.492 -0.7425  0.4101 -2.6244
 4334SOL     OW24637   4.234   3.498   8.346  0.2838  0.0258 -0.1216
 4334SOL    HW124638   4.177   3.567   8.377  2.7882  2.4525 -0.9181
 4334SOL    HW224639   4.284   3.548   8.282 -0.0209  0.4035 -0.0633
 4335SOL     OW24640   0.097   2.990  12.832 -0.7536 -0.3454 -0.2199
 4335SOL    HW124641   0.015   2.988  12.882 -0.6622 -3.1088 -0.1557
 4335SOL    HW224642   0.154   2.968  12.906 -0.6599 -0.4771 -0.3309
 4336SOL     OW24643   1.806   0.712   7.922 -0.3170  0.7106 -0.1530
 4336SOL    HW124644   1.827   0.775   7.852  2.2564 -1.2974 -1.2115
 4336SOL    HW224645   1.784   0.775   7.990  0.5199  1.0816 -0.2217
 4337SOL     OW24646   1.279   0.415  11.537  0.4168 -0.2884  0.0657
 4337SOL    HW124647   1.291   0.390  11.446 -1.6628  1.2072 -0.6141
 4337SOL    HW224648   1.320   0.338  11.576  0.9175  0.5338  1.1562
 4338SOL     OW24649   1.052   3.465   3.559 -0.4882  0.2011 -0.9538
 4338SOL    HW124650   0.987   3.534   3.546  0.0133  0.6917 -0.8465
 4338SOL    HW224651   1.128   3.500   3.604 -0.9908 -1.5052  1.2370
 4339SOL     OW24652   0.816   1.692   0.655 -0.3872 -0.3306 -0.0062
 4339SOL    HW124653   0.723   1.712   0.666 -0.0436  0.2534  1.9239
 4339SOL    HW224654   0.835   1.645   0.736 -1.8534 -1.2078 -0.1704
 4340SOL     OW24655   1.289   0.889   4.195  0.0664  0.5820  0.4267
 4340SOL    HW124656   1.347   0.882   4.271  2.5223  2.0709 -1.2916
 4340SOL    HW224657   1.344   0.845   4.130 -3.6490  0.2046 -2.3992
 4341SOL     OW24658   1.047   3.977  11.273  0.0341 -0.2305  0.1341
 4341SOL    HW124659   1.039   4.058  11.223  0.0802 -0.8590 -0.8963
 4341SOL    HW224660   1.139   3.951  11.262 -0.1830  0.0270 -2.2826
 4342SOL     OW24661   3.084   4.082  13.290  0.3998 -0.0684  0.9134
 4342SOL    HW124662   3.003   4.046  13.324  0.4868 -2.6662 -1.6463
 4342SOL    HW224663   3.065   4.097  13.197 -3.1127  0.4941  1.7240
 4343SOL     OW24664   2.221   2.075   5.737  0.0350  0.0216 -0.5313
 4343SOL    HW124665   2.267   2.056   5.655  2.6435  2.1866  0.4457
 4343SOL    HW224666   2.285   2.055   5.806  1.2861  1.2181 -1.3387
 4344SOL     OW24667   3.201   1.651   8.537 -0.4135 -0.0558 -0.0149
 4344SOL    HW124668   3.278   1.608   8.500 -0.2391  0.5837 -0.3824
 4344SOL    HW224669   3.225   1.634   8.629 -1.6679  0.6202  0.4325
 4345SOL     OW24670   3.499   0.738  12.534  0.7357  0.3008  0.0599
 4345SOL    HW124671   3.571   0.675  12.539  1.7647  1.3281 -1.9403
 4345SOL    HW224672   3.445   0.720  12.611  0.8658  0.0749  0.0991
 4346SOL     OW24673   2.025   3.500   9.665  0.5119  0.1781 -0.4758
 4346SOL    HW124674   1.979   3.468   9.588 -0.6903 -0.4997  0.5290
 4346SOL    HW224675   2.112   3.510   9.626  0.7068  2.0633  0.4534
 4347SOL     OW24676   4.645   4.728   0.392 -0.3133 -0.1452  0.1179
 4347SOL    HW124677   4.578   4.667   0.363  0.2250 -0.2559 -0.9018
 4347SOL    HW224678   4.591   0.067   0.416  0.0896 -0.4208  1.8945
 4348SOL     OW24679   1.749   4.506   8.216  0.1427  0.3357  0.4994
 4348SOL    HW124680   1.668   4.458   8.234 -0.8072  2.3536  1.5917
 4348SOL    HW224681   1.715   4.525   8.128 -0.5411 -0.3307  0.6090
 4349SOL     OW24682   2.922   0.959   4.031 -0.2839  0.2206 -0.1063
 4349SOL    HW124683   2.832   0.992   4.039  0.7829  2.2727  3.6602
 4349SOL    HW224684   2.974   1.037   4.050  0.1592 -0.1696  0.2686
 4350SOL     OW24685   3.946   3.861   8.143 -0.2082  0.3559 -0.5961
 4350SOL    HW124686   4.027   3.887   8.187 -1.0333 -1.5331  2.0366
 4350SOL    HW224687   3.931   3.924   8.073  0.9822  1.1761 -0.1063
 4351SOL     OW24688   4.719   0.856   7.432  0.1211 -0.0527  0.2702
 4351SOL    HW124689   0.013   0.846   7.342 -0.3018  0.0532  0.1221
 4351SOL    HW224690   4.652   0.923   7.421  0.7037  0.5324  0.3440
 4352SOL     OW24691   1.307   2.584   8.934  0.2238  0.1919  0.2284
 4352SOL    HW124692   1.301   2.668   8.980 -0.3686 -0.4513  1.3355
 4352SOL    HW224693   1.305   2.608   8.842  1.8268  1.5176  0.5399
 4353SOL     OW24694   3.827   3.246  12.110  0.0544  0.2219 -0.1383
 4353SOL    HW124695   3.841   3.302  12.033  1.5736 -2.1206 -1.5531
 4353SOL    HW224696   3.914   3.207  12.116 -0.1436 -0.4810 -1.7656
 4354SOL     OW24697   3.952   4.696   3.769  0.1572 -0.3707  0.5976
 4354SOL    HW124698   3.887   4.714   3.701 -1.5817 -0.7889  2.1373
 4354SOL    HW224699   4.033   4.706   3.719 -0.0428  0.1784  0.3906
 4355SOL     OW24700   3.361   4.358  14.285 -0.5370 -0.0531 -0.7681
 4355SOL    HW124701   3.395   4.319  14.366 -1.9959  0.2086 -0.0191
 4355SOL    HW224702   3.444   4.380  14.245 -1.0176  3.6842  0.2638
 4356SOL     OW24703   2.730   3.994   9.701  0.1831 -0.0785 -0.0758
 4356SOL    HW124704   2.814   3.949   9.692  0.4339  0.2020  0.8706
 4356SOL    HW224705   2.759   4.081   9.729  0.1986  0.2696 -1.1878
 4357SOL     OW24706   3.489   3.399   5.940  0.0887  0.1306 -0.3005
 4357SOL    HW124707   3.399   3.371   5.921  0.1664 -1.2143  1.2854
 4357SOL    HW224708   3.534   3.325   5.899  0.1495  0.8830 -1.5790
 4358SOL     OW24709   3.562   2.634   2.389  0.8244 -0.6739  0.0157
 4358SOL    HW124710   3.576   2.540   2.377  0.8951 -0.4718 -1.5161
 4358SOL    HW224711   3.588   2.643   2.481 -0.1633 -3.2491  0.5525
 4359SOL     OW24712   2.101   1.526   6.263  0.2944 -0.6145  0.7397
 4359SOL    HW124713   2.141   1.581   6.195 -0.7698 -1.1288 -0.3069
 4359SOL    HW224714   2.137   1.564   6.343 -0.5657  2.5251 -0.3738
 4360SOL     OW24715   1.233   1.397   7.285  0.5297  0.1191 -0.1779
 4360SOL    HW124716   1.238   1.343   7.206 -0.7452  0.6643 -0.6238
 4360SOL    HW224717   1.236   1.333   7.356  1.3274  1.1185  0.6811
 4361SOL     OW24718   0.146   4.284   3.833 -0.2329  0.1355  0.4262
 4361SOL    HW124719   0.178   4.200   3.801  0.4839  0.9998 -1.1785
 4361SOL    HW224720   0.088   4.249   3.901  0.0343 -0.5039  0.3229
 4362SOL     OW24721   0.126   1.576   1.306 -0.4030  0.3343 -0.4626
 4362SOL    HW124722   0.145   1.507   1.369  1.8439  0.8980 -0.5262
 4362SOL    HW224723   0.180   1.654   1.321  2.6164 -1.9474  0.4037
 4363SOL     OW24724   2.407   0.140   7.249 -0.1062 -0.1776 -0.2363
 4363SOL    HW124725   2.370   0.220   7.286  1.1450 -1.1236  3.0550
 4363SOL    HW224726   2.495   0.170   7.226  0.5362 -2.7034 -1.0241
 4364SOL     OW24727   3.545   4.163   0.009  0.1724 -0.1554  0.1304
 4364SOL    HW124728   3.596   4.093  17.709  0.6702  1.4301 -1.9597
 4364SOL    HW224729   3.584   4.233  17.698 -0.0593 -1.8071 -2.2724
 4365SOL     OW24730   3.962   0.633   6.200 -0.4293  0.0907  0.8306
 4365SOL    HW124731   3.873   0.638   6.236 -1.6902  1.5077 -2.4558
 4365SOL    HW224732   3.963   0.701   6.132  2.7416  0.3043  1.0845
 4366SOL     OW24733   0.366   4.735   1.665 -0.4965  0.4138 -0.1030
 4366SOL    HW124734   0.358   4.645   1.698 -1.9518  0.8576  0.7943
 4366SOL    HW224735   0.435   0.002   1.599 -0.4398  0.9942 -0.0247
 4367SOL     OW24736   1.476   0.586   1.480 -0.1308 -0.1499 -0.4211
 4367SOL    HW124737   1.567   0.561   1.465 -0.4564 -1.3389 -0.4001
 4367SOL    HW224738   1.444   0.628   1.400 -0.7792  2.0808  1.0112
 4368SOL     OW24739   4.234   2.943   3.530  0.0065 -0.2183  0.3291
 4368SOL    HW124740   4.146   2.903   3.532  0.2312 -0.7608 -0.5984
 4368SOL    HW224741   4.245   2.957   3.436 -0.7830  1.2435  0.4564
 4369SOL     OW24742   1.808   0.293   3.530  0.3733  0.1940  0.0014
 4369SOL    HW124743   1.841   0.282   3.619  0.3305 -1.6406 -0.2078
 4369SOL    HW224744   1.719   0.298   3.564 -0.0903  2.4390 -1.5801
 4370SOL     OW24745   3.743   1.806  12.818 -0.5881  0.0582  0.2771
 4370SOL    HW124746   3.649   1.793  12.816 -0.5588 -0.0967 -0.2716
 4370SOL    HW224747   3.770   1.736  12.758 -0.5314  0.4459 -0.1462
 4371SOL     OW24748   4.389   2.082  17.516 -0.0247  0.1752  0.3503
 4371SOL    HW124749   4.334   2.027  17.460  0.4123 -1.5716  1.6259
 4371SOL    HW224750   4.421   2.147  17.454  0.7888 -1.9221 -1.4175
 4372SOL     OW24751   1.412   2.552   7.910  0.6597  0.0849 -0.2437
 4372SOL    HW124752   1.444   2.472   7.954  0.8847  0.9370  1.1371
 4372SOL    HW224753   1.484   2.564   7.849 -0.4204  0.4920 -1.4213
 4373SOL     OW24754   1.211   1.333   8.656  0.2479  0.1150  0.3399
 4373SOL    HW124755   1.145   1.375   8.601 -0.6931 -1.4618  0.2789
 4373SOL    HW224756   1.224   1.249   8.612  0.5323  0.7199 -0.7371
 4374SOL     OW24757   0.035   3.022   4.574 -0.1092  0.1597  0.0518
 4374SOL    HW124758   0.050   3.037   4.667  3.7173  2.8160 -0.9805
 4374SOL    HW224759   4.680   3.047   4.557 -0.2641 -2.7023 -3.3559
 4375SOL     OW24760   2.987   2.018   2.630 -0.3720 -0.5300 -0.2799
 4375SOL    HW124761   3.029   1.963   2.565 -0.3193 -0.9202  0.0853
 4375SOL    HW224762   2.990   1.956   2.702  0.4727  0.0193  0.1549
 4376SOL     OW24763   4.412   2.884   1.104 -0.0857 -0.5975  0.3219
 4376SOL    HW124764   4.490   2.833   1.083  0.4604  1.1391 -1.9121
 4376SOL    HW224765   4.371   2.827   1.169 -2.9462  1.7941  0.6574
 4377SOL     OW24766   4.469   0.827   6.946 -0.9795  0.0874 -0.4499
 4377SOL    HW124767   4.436   0.738   6.934  2.2869 -1.2763  0.8390
 4377SOL    HW224768   4.447   0.858   7.034  0.9035  1.0796 -0.3250
 4378SOL     OW24769   0.090   4.445  16.275  0.0115 -0.8198 -0.6314
 4378SOL    HW124770   0.132   4.396  16.345 -1.0434 -1.2285 -0.2788
 4378SOL    HW224771   0.127   4.406  16.196  1.6063 -0.6511  0.0474
 4379SOL     OW24772   3.737   4.443   6.167  0.0998  0.2264 -0.2360
 4379SOL    HW124773   3.718   4.401   6.251  2.0236  0.3374  0.2633
 4379SOL    HW224774   3.652   4.482   6.146  0.0823 -1.7400 -3.8799
 4380SOL     OW24775   3.590   1.190   2.823  0.3571  0.2961  0.5307
 4380SOL    HW124776   3.499   1.221   2.818 -0.4279 -2.0268  0.5098
 4380SOL    HW224777   3.583   1.097   2.844 -0.9353  0.8587  2.5360
 4381SOL     OW24778   1.371   2.335   3.204  0.2046  0.5626  0.5352
 4381SOL    HW124779   1.438   2.387   3.249 -0.0401  0.6795  0.7629
 4381SOL    HW224780   1.363   2.263   3.267  3.2506  0.8271  1.2552
 4382SOL     OW24781   4.355   2.073   8.488  0.3235  0.2702  0.6943
 4382SOL    HW124782   4.262   2.084   8.468 -0.0600 -0.3119  2.1909
 4382SOL    HW224783   4.361   2.070   8.583 -0.2120  2.2295  0.7914
 4383SOL     OW24784   3.056   3.317  15.805  0.1977 -0.1228 -0.1955
 4383SOL    HW124785   3.012   3.402  15.804  2.0822  0.8843  2.0039
 4383SOL    HW224786   3.061   3.309  15.900  2.7871  0.8795 -0.2527
 4384SOL     OW24787   2.783   3.835   8.647  0.0096  0.4668 -0.2101
 4384SOL    HW124788   2.734   3.916   8.634  1.2635  1.6364  2.2120
 4384SOL    HW224789   2.845   3.841   8.575 -2.6328 -2.1104 -2.6818
 4385SOL     OW24790   4.506   4.540   4.436 -0.3713  0.2789 -0.5962
 4385SOL    HW124791   4.469   4.498   4.358 -0.4095  0.0371 -0.4507
 4385SOL    HW224792   4.463   4.490   4.506 -0.4941 -0.3652 -1.1265
 4386SOL     OW24793   3.686   1.088  10.899  0.0401 -0.4443  0.0093
 4386SOL    HW124794   3.661   0.998  10.917 -0.9856 -0.5482 -2.0113
 4386SOL    HW224795   3.765   1.084  10.846 -0.4440 -1.6256 -0.6116
 4387SOL     OW24796   2.998   1.517   2.924 -0.6400 -0.5785 -0.6670
 4387SOL    HW124797   2.937   1.444   2.933  0.4179 -1.6907 -2.4582
 4387SOL    HW224798   3.051   1.513   3.003 -2.6501  1.6012  0.7666
 4388SOL     OW24799   2.691   2.540   2.416 -0.1257  0.1026  0.3477
 4388SOL    HW124800   2.644   2.457   2.412 -1.1532  0.8264 -2.0192
 4388SOL    HW224801   2.654   2.569   2.500 -1.7027 -0.3446 -0.2101
 4389SOL     OW24802   0.188   3.080   2.413 -0.2703 -0.1687  0.1656
 4389SOL    HW124803   0.122   3.082   2.345 -0.3252 -1.5962  0.1772
 4389SOL    HW224804   0.136   3.055   2.489 -1.6170  1.2330 -0.3236
 4390SOL     OW24805   0.878   3.909   8.072  0.6719 -0.0677 -0.0445
 4390SOL    HW124806   0.889   3.906   7.977  1.8316 -0.8759  0.1157
 4390SOL    HW224807   0.971   3.904   8.090  0.3552 -1.3474  1.2256
 4391SOL     OW24808   0.633   2.641   5.384  0.3516  0.3824 -0.1603
 4391SOL    HW124809   0.612   2.584   5.458 -1.5986  0.7536 -0.4264
 4391SOL    HW224810   0.727   2.631   5.368  0.2084 -2.1570  0.6172
 4392SOL     OW24811   4.662   4.025   1.667  0.7065  0.1045 -0.1135
 4392SOL    HW124812   4.642   4.019   1.760  2.0098  1.7041  0.2764
 4392SOL    HW224813   0.004   4.081   1.671 -0.4432  1.5490  1.7594
 4393SOL     OW24814   1.311   2.872   8.302  0.0128  0.2410 -0.5807
 4393SOL    HW124815   1.327   2.940   8.236  2.0470  0.0573 -0.2569
 4393SOL    HW224816   1.301   2.931   8.377  1.2856  0.6889 -0.7627
 4394SOL     OW24817   1.246   4.461   0.128 -0.3401 -0.1983 -0.5756
 4394SOL    HW124818   1.171   4.401   0.133  0.9949 -1.7074  1.3665
 4394SOL    HW224819   1.287   4.431   0.046  1.5272  0.0698  0.2728
 4395SOL     OW24820   4.284   0.362  13.909 -0.3316  0.1900 -0.0396
 4395SOL    HW124821   4.253   0.391  13.823 -0.9908 -0.5973 -0.0601
 4395SOL    HW224822   4.368   0.324  13.883  0.8249  2.9343 -0.3227
 4396SOL     OW24823   0.419   1.310  16.623  0.3968  0.1075  0.0516
 4396SOL    HW124824   0.404   1.336  16.532 -0.0294 -3.3192 -0.8534
 4396SOL    HW224825   0.358   1.368  16.668  1.7763  1.2046  0.4938
 4397SOL     OW24826   2.738   3.260   4.772 -0.5100 -0.0892  0.7859
 4397SOL    HW124827   2.787   3.340   4.757 -1.5524  0.5122  0.6533
 4397SOL    HW224828   2.691   3.281   4.853  0.5741  2.5934  0.6987
 4398SOL     OW24829   1.255   3.703  11.228  0.0297  0.2742  0.1289
 4398SOL    HW124830   1.256   3.647  11.306  0.0790  0.1921  0.0703
 4398SOL    HW224831   1.309   3.774  11.263  0.6034 -0.1498  0.1021
 4399SOL     OW24832   1.704   0.098  10.861  0.1359 -0.5090  0.4853
 4399SOL    HW124833   1.734   0.064  10.777  0.3922 -0.1933  0.4526
 4399SOL    HW224834   1.680   0.188  10.840  1.4331  0.0408  1.3199
 4400SOL     OW24835   1.390   4.092  11.725  0.1141 -0.2413 -0.0717
 4400SOL    HW124836   1.390   4.188  11.729 -0.0650 -0.2116 -0.8712
 4400SOL    HW224837   1.321   4.066  11.664 -0.1620 -1.1369  0.6218
 4401SOL     OW24838   1.034   3.308   5.008  0.1732  0.3961 -0.8432
 4401SOL    HW124839   1.004   3.326   4.919 -0.7886  1.4176 -0.3087
 4401SOL    HW224840   0.949   3.305   5.052  0.7423 -0.1405  0.2298
 4402SOL     OW24841   3.031   2.387   8.225 -0.5273  0.4888 -0.1065
 4402SOL    HW124842   2.959   2.414   8.168  0.5926 -0.5969 -2.0261
 4402SOL    HW224843   3.053   2.463   8.279  0.7496  1.1520 -1.5676
 4403SOL     OW24844   1.277   3.354   9.468  0.3955  0.6116 -0.4429
 4403SOL    HW124845   1.310   3.302   9.395 -0.6434  0.6594 -0.9357
 4403SOL    HW224846   1.294   3.439   9.427 -0.3325  0.3214 -1.3312
 4404SOL     OW24847   0.045   1.349   1.088 -0.8075 -0.1782  0.2092
 4404SOL    HW124848   0.009   1.263   1.067  1.6440 -1.1319 -0.0673
 4404SOL    HW224849   0.008   1.412   1.026 -0.0710 -1.1275 -1.1983
 4405SOL     OW24850   0.167   1.807   6.192 -0.0975  0.1560 -0.0175
 4405SOL    HW124851   0.261   1.809   6.175  0.1285 -1.5965  1.0364
 4405SOL    HW224852   0.163   1.815   6.287 -1.2572 -2.8607  0.1846
 4406SOL     OW24853   1.477   2.664  15.465 -0.0488 -0.0112 -0.1156
 4406SOL    HW124854   1.451   2.743  15.418  1.7459  1.6438  1.6533
 4406SOL    HW224855   1.459   2.608  15.389 -2.3120 -1.6935  1.6962
 4407SOL     OW24856   3.852   3.650   4.371 -0.2849 -0.1192 -0.3567
 4407SOL    HW124857   3.819   3.705   4.442 -0.9851 -1.2536  0.2041
 4407SOL    HW224858   3.923   3.698   4.328  0.1781 -1.0063 -0.5669
 4408SOL     OW24859   3.514   4.022   3.951 -0.3855  0.4745 -0.1703
 4408SOL    HW124860   3.426   3.993   3.974  0.3819  0.4118  2.5817
 4408SOL    HW224861   3.522   4.104   3.999 -1.5730  0.2084  0.4604
 4409SOL     OW24862   4.368   4.331  17.057 -0.0961 -0.4241 -0.0083
 4409SOL    HW124863   4.421   4.410  17.047  0.4504 -0.5261  2.2262
 4409SOL    HW224864   4.439   4.268  17.049 -0.9716 -1.3858 -0.1745
 4410SOL     OW24865   2.741   3.246  16.897  0.0403  0.0219 -0.5706
 4410SOL    HW124866   2.645   3.244  16.900  0.0788 -2.0400 -0.8514
 4410SOL    HW224867   2.768   3.248  16.989  0.0612  1.4225 -0.6020
 4411SOL     OW24868   0.202   2.637   4.596  0.1174  0.3350 -0.4744
 4411SOL    HW124869   0.216   2.543   4.586  1.0425  0.6319 -1.8784
 4411SOL    HW224870   0.291   2.671   4.583 -1.1183  2.5493 -2.9160
 4412SOL     OW24871   3.552   3.523   7.095  0.0634  0.0102 -0.2934
 4412SOL    HW124872   3.592   3.584   7.156 -2.0946  2.0437 -0.9173
 4412SOL    HW224873   3.605   3.516   7.016  0.0265 -4.4801  0.0659
 4413SOL     OW24874   0.709   1.388   9.759  0.2180  0.8299  0.9097
 4413SOL    HW124875   0.702   1.433   9.674 -1.5571 -2.3404 -0.6263
 4413SOL    HW224876   0.629   1.338   9.773  0.2126  0.3559 -0.7168
 4414SOL     OW24877   4.119   2.133  17.233 -0.6577 -0.3984  0.1378
 4414SOL    HW124878   4.178   2.202  17.263  0.9479 -0.4504 -2.9593
 4414SOL    HW224879   4.155   2.050  17.266 -0.2169 -1.4233 -2.9639
 4415SOL     OW24880   0.148   4.588  15.044 -0.0763  0.0999  1.0711
 4415SOL    HW124881   0.177   4.675  15.073  2.6357  0.1338 -1.7342
 4415SOL    HW224882   0.132   4.538  15.124  0.0794 -1.8193 -0.1197
 4416SOL     OW24883   4.034   1.822  15.361  0.1798  0.0152 -0.1654
 4416SOL    HW124884   3.992   1.838  15.276 -2.1298 -3.1301  0.3803
 4416SOL    HW224885   4.061   1.909  15.390  1.6467 -0.9327  1.3295
 4417SOL     OW24886   0.673   2.188   4.072  0.4490 -0.0981 -0.2927
 4417SOL    HW124887   0.657   2.101   4.110 -0.9509  0.3836  0.2142
 4417SOL    HW224888   0.730   2.168   3.998  2.1992 -0.0289  1.0433
 4418SOL     OW24889   2.837   2.273   7.006 -0.0131  0.3282  0.2237
 4418SOL    HW124890   2.770   2.340   7.018  1.7880  2.4478 -1.5117
 4418SOL    HW224891   2.786   2.226   6.939 -2.9707  2.3499  1.0472
 4419SOL     OW24892   0.104   3.737   8.641 -0.3303 -0.3679  0.5342
 4419SOL    HW124893   0.132   3.792   8.567 -3.7370  2.0192  1.0383
 4419SOL    HW224894   0.010   3.753   8.647 -0.4325 -0.6489 -0.3347
 4420SOL     OW24895   0.197   0.756   4.387 -0.4499  0.5184 -0.0727
 4420SOL    HW124896   0.172   0.831   4.441  0.3855  0.2715  0.6607
 4420SOL    HW224897   0.143   0.685   4.423  0.2721  0.6121  1.1858
 4421SOL     OW24898   2.558   3.937  15.432  0.5333 -0.2588  0.5123
 4421SOL    HW124899   2.578   4.014  15.379 -1.8698 -0.2931 -0.4826
 4421SOL    HW224900   2.581   3.961  15.521  1.6815 -3.3945  1.0672
 4422SOL     OW24901   1.336   3.749   6.409 -0.4044  0.2966 -0.1840
 4422SOL    HW124902   1.388   3.696   6.469  1.1616  0.0725 -1.7508
 4422SOL    HW224903   1.375   3.743   6.322  0.9984  1.4608  0.3779
 4423SOL     OW24904   2.460   2.947  14.113 -0.7469 -0.0805 -0.1114
 4423SOL    HW124905   2.430   2.858  14.134 -4.4216  1.4680  1.1285
 4423SOL    HW224906   2.528   2.951  14.180  0.6528 -1.2208 -1.4385
 4424SOL     OW24907   3.101   0.773   8.104 -0.1763  0.0176  0.4786
 4424SOL    HW124908   3.055   0.806   8.027 -0.3860 -2.4837 -0.4939
 4424SOL    HW224909   3.050   0.805   8.178  1.2198  2.9958  0.1222
 4425SOL     OW24910   2.265   3.661   9.524  0.8437 -0.1019  0.0162
 4425SOL    HW124911   2.353   3.638   9.497  1.4819  3.3213 -0.8379
 4425SOL    HW224912   2.230   3.685   9.438 -2.5562  2.9134  2.2084
 4426SOL     OW24913   1.100   1.525   1.198  0.2901  0.1691  0.5921
 4426SOL    HW124914   1.189   1.540   1.231  1.1038 -1.3327 -0.9296
 4426SOL    HW224915   1.049   1.596   1.237 -2.1241 -1.3715  0.2189
 4427SOL     OW24916   0.369   3.338  16.919  0.4867 -0.1453 -0.3026
 4427SOL    HW124917   0.311   3.314  16.847 -1.8227  1.3475  1.0461
 4427SOL    HW224918   0.378   3.432  16.905  1.1100 -0.5670 -2.6218
 4428SOL     OW24919   4.475   0.723   7.849  0.0420 -0.4179  0.1486
 4428SOL    HW124920   4.469   0.690   7.760 -1.2819 -0.2964  0.2024
 4428SOL    HW224921   4.388   0.763   7.851  0.3245  0.3638 -3.8663
 4429SOL     OW24922   3.712   3.883   8.358 -0.0033  0.5181 -0.4986
 4429SOL    HW124923   3.693   3.966   8.316 -1.7380 -0.0289 -0.8050
 4429SOL    HW224924   3.794   3.852   8.319 -0.3806 -1.3667  0.1896
 4430SOL     OW24925   4.109   2.924   2.635 -0.6637  0.6794 -0.0485
 4430SOL    HW124926   4.083   2.972   2.713 -1.3530  0.0781  0.0946
 4430SOL    HW224927   4.148   2.994   2.583 -0.5102  0.5469 -0.1118
 4431SOL     OW24928   4.631   0.097   1.607 -0.0858  0.1869  0.2935
 4431SOL    HW124929   4.666   0.186   1.598  0.0550  0.0745 -0.2712
 4431SOL    HW224930   4.661   0.077   1.696  2.6019  0.8034 -0.4464
 4432SOL     OW24931   1.403   0.334   1.395  0.6783  0.4447  0.4289
 4432SOL    HW124932   1.491   0.310   1.366 -0.1126 -1.8146 -0.1058
 4432SOL    HW224933   1.411   0.419   1.440  1.2918  2.0239 -2.6715
 4433SOL     OW24934   1.440   0.841   5.964  0.0095  0.2456 -0.1254
 4433SOL    HW124935   1.390   0.922   5.973  0.6775  0.6571 -0.1075
 4433SOL    HW224936   1.362   0.785   5.957  1.0026 -0.9600 -1.4566
 4434SOL     OW24937   4.233   2.534   4.574  0.2349 -0.5420 -0.5225
 4434SOL    HW124938   4.182   2.587   4.513  1.0523 -1.0413 -1.6423
 4434SOL    HW224939   4.170   2.514   4.643 -0.7264 -0.2204 -1.3114
 4435SOL     OW24940   2.704   1.423   7.398 -0.1330  0.4248  0.2903
 4435SOL    HW124941   2.781   1.382   7.436  0.8592  0.4766 -1.6348
 4435SOL    HW224942   2.734   1.514   7.396  0.8352  0.0715 -1.4047
 4436SOL     OW24943   3.378   2.720   3.679  0.3265  0.0453  0.4489
 4436SOL    HW124944   3.309   2.678   3.730  1.5969  1.0739  3.0390
 4436SOL    HW224945   3.441   2.744   3.746  2.9719  0.4453 -2.1975
 4437SOL     OW24946   2.821   3.359  13.663  0.2787 -0.3317  0.5629
 4437SOL    HW124947   2.750   3.342  13.724 -1.2903 -0.0721 -1.2002
 4437SOL    HW224948   2.831   3.279  13.612  0.4566  0.1910 -0.2269
 4438SOL     OW24949   1.897   2.029   6.265  0.0922 -0.2170 -0.5326
 4438SOL    HW124950   1.815   2.011   6.311  0.5183  0.2010  0.3928
 4438SOL    HW224951   1.952   1.967   6.314 -1.0711  0.7964  2.0842
 4439SOL     OW24952   2.385   4.608   8.907  0.1297  0.1973  0.2320
 4439SOL    HW124953   2.443   4.585   8.979 -1.4459 -2.0861  0.7386
 4439SOL    HW224954   2.426   4.690   8.879 -0.9277  0.5652 -0.2770
 4440SOL     OW24955   3.327   2.625   7.803  0.2123 -0.3007 -0.1334
 4440SOL    HW124956   3.394   2.559   7.818  0.9178  0.4248 -0.0611
 4440SOL    HW224957   3.283   2.611   7.886  3.0050 -1.2321  1.1791
 4441SOL     OW24958   0.862   4.210   2.315  0.6508 -0.4018 -0.3727
 4441SOL    HW124959   0.866   4.133   2.372 -0.1865 -0.0922  0.1155
 4441SOL    HW224960   0.929   4.184   2.253 -0.1519 -2.7974 -0.2447
 4442SOL     OW24961   1.185   1.286   1.059  0.3700 -0.6270  0.2551
 4442SOL    HW124962   1.145   1.365   1.094  1.6439 -0.4400  1.2809
 4442SOL    HW224963   1.275   1.319   1.060  1.2555 -3.0213 -0.3031
 4443SOL     OW24964   4.310   1.432  15.952 -0.5765  0.2586  0.6310
 4443SOL    HW124965   4.354   1.434  15.867  0.7014 -1.5399  1.2734
 4443SOL    HW224966   4.242   1.368  15.932 -1.3406  2.0213 -2.4836
 4444SOL     OW24967   3.130   2.958  13.319  0.4583 -0.7214  0.2055
 4444SOL    HW124968   3.079   2.950  13.239 -0.0656  0.3709  0.4254
 4444SOL    HW224969   3.102   3.047  13.339  1.0750 -0.1704 -1.3905
 4445SOL     OW24970   4.420   0.677   6.346  0.3477  0.2628 -0.1277
 4445SOL    HW124971   4.431   0.659   6.252  0.3523  1.3667 -0.3412
 4445SOL    HW224972   4.365   0.755   6.334 -2.3901 -1.6450  0.0043
 4446SOL     OW24973   0.115   4.371   2.384 -0.1127 -0.0804 -0.3016
 4446SOL    HW124974   0.210   4.379   2.391 -0.0357 -0.6153 -0.7547
 4446SOL    HW224975   0.090   4.463   2.386 -0.4849 -0.1913  0.1849
 4447SOL     OW24976   0.911   2.178  10.887  0.1644 -0.1831 -0.3930
 4447SOL    HW124977   0.959   2.112  10.938  0.9635  0.1396 -0.7181
 4447SOL    HW224978   0.964   2.200  10.810  0.0811  0.2207 -0.3361
 4448SOL     OW24979   2.432   0.715  11.784 -0.6191 -0.7374 -0.4588
 4448SOL    HW124980   2.497   0.759  11.729 -0.3158  1.2266  1.4833
 4448SOL    HW224981   2.488   0.646  11.819  1.3642  1.6396  0.9602
 4449SOL     OW24982   0.381   4.027   7.014 -0.2709  0.1038 -0.2610
 4449SOL    HW124983   0.387   4.075   7.096 -1.8979 -1.2714  0.6617
 4449SOL    HW224984   0.297   3.983   7.029  0.5675 -1.4190 -0.0487
 4450SOL     OW24985   3.901   2.815   5.319 -0.7505  0.2895  0.5061
 4450SOL    HW124986   3.819   2.818   5.269 -0.0254 -0.2055 -0.7385
 4450SOL    HW224987   3.885   2.731   5.363 -0.6603 -0.0757 -0.1468
 4451SOL     OW24988   4.413   1.623   1.893  0.0617 -0.4055 -0.9745
 4451SOL    HW124989   4.339   1.586   1.846 -1.3869  0.3611  0.6941
 4451SOL    HW224990   4.487   1.571   1.860 -1.0293 -0.7691 -2.8006
 4452SOL     OW24991   1.814   4.584   5.803  0.0835 -0.2819 -0.1703
 4452SOL    HW124992   1.722   4.561   5.796 -0.1670  0.9677 -0.9487
 4452SOL    HW224993   1.820   4.671   5.842 -1.7210 -0.8703  1.4043
 4453SOL     OW24994   0.161   0.198   4.503  0.5423 -0.6881  0.2846
 4453SOL    HW124995   0.099   0.127   4.523 -1.8755  1.8475  1.6978
 4453SOL    HW224996   0.113   0.256   4.443  0.9382 -0.7606 -0.1029
 4454SOL     OW24997   3.362   0.200   6.569  0.3379  0.0783 -0.4770
 4454SOL    HW124998   3.271   0.174   6.552  0.5770 -2.6689  2.4259
 4454SOL    HW224999   3.367   0.169   6.659  2.7673 -1.5796 -1.1946
 4455SOL     OW25000   2.496   1.702   6.264  0.1250  0.7948  0.0162
 4455SOL    HW125001   2.429   1.745   6.317  0.6769  1.4381  0.1943
 4455SOL    HW225002   2.473   1.609   6.262 -1.8656  1.2740  0.6914
 4456SOL     OW25003   3.066   1.545   5.397  0.3410  0.5337 -0.2040
 4456SOL    HW125004   3.045   1.491   5.473  2.2952 -0.3684 -0.2921
 4456SOL    HW225005   3.039   1.493   5.321  1.2989  1.4688 -1.1746
 4457SOL     OW25006   1.631   4.691  17.108  0.3807 -0.4440  0.2082
 4457SOL    HW125007   1.536   4.685  17.116  0.4160  0.6425  1.3621
 4457SOL    HW225008   1.647   4.669  17.199  0.2943 -1.0696  0.0781
 4458SOL     OW25009   0.332   3.720   8.816 -0.4856  0.5424  0.7371
 4458SOL    HW125010   0.322   3.720   8.912 -0.8693  0.7231  0.6964
 4458SOL    HW225011   0.254   3.765   8.784  1.6285  0.6644 -4.2058
 4459SOL     OW25012   3.663   4.399   3.672  0.3169  0.1409  0.1080
 4459SOL    HW125013   3.677   4.324   3.730  2.9376  0.0999 -0.5943
 4459SOL    HW225014   3.570   4.391   3.652  0.7544 -0.9118 -1.4194
 4460SOL     OW25015   4.617   1.616   1.206 -0.6122 -0.1362 -0.1267
 4460SOL    HW125016   4.613   1.540   1.148 -0.0932 -1.8709  2.1460
 4460SOL    HW225017   4.703   1.602   1.244 -0.1705  1.2880 -0.6075
 4461SOL     OW25018   4.302   0.941   4.513  0.2890  0.4067  0.2045
 4461SOL    HW125019   4.395   0.942   4.490  0.1762  1.4770 -0.2184
 4461SOL    HW225020   4.291   0.851   4.480 -0.8162  1.1494 -1.4573
 4462SOL     OW25021   3.312   3.879   9.778 -1.0026  0.5634  0.1394
 4462SOL    HW125022   3.238   3.825   9.807 -0.2278  0.0659  1.2202
 4462SOL    HW225023   3.344   3.912   9.862 -0.3605 -2.0365  0.9202
 4463SOL     OW25024   2.393   1.632  17.022  0.1103  0.0949 -0.3098
 4463SOL    HW125025   2.470   1.578  17.006 -0.1249 -0.4215  0.3149
 4463SOL    HW225026   2.363   1.651  16.933  0.2170  0.3822 -0.2813
 4464SOL     OW25027   3.940   0.727  15.545 -0.1936 -0.0944  0.2755
 4464SOL    HW125028   4.029   0.756  15.566  0.2459 -1.5213  0.3330
 4464SOL    HW225029   3.948   0.632  15.550 -3.7442 -0.3319  1.1517
 4465SOL     OW25030   1.619   4.709   6.788 -0.1367 -0.5155 -0.1032
 4465SOL    HW125031   1.626   4.635   6.728  1.3473 -0.3135 -0.1797
 4465SOL    HW225032   1.712   4.733   6.792 -0.5552  0.9386  0.6840
 4466SOL     OW25033   2.034   0.636   5.569 -0.0685 -0.5262  0.0454
 4466SOL    HW125034   1.994   0.711   5.614  0.7230 -0.3804  0.5163
 4466SOL    HW225035   1.955   0.590   5.541 -0.6557  1.0794 -0.9653
 4467SOL     OW25036   4.365   0.265   9.113 -0.1111  0.1843 -0.7328
 4467SOL    HW125037   4.273   0.241   9.119  0.6969 -2.2089  2.7200
 4467SOL    HW225038   4.393   0.243   9.202 -1.9687  0.8653  0.0079
 4468SOL     OW25039   0.466   3.238   8.919  0.3162  0.4868  0.2398
 4468SOL    HW125040   0.393   3.251   8.859  0.1407 -0.2285  0.3031
 4468SOL    HW225041   0.489   3.327   8.945  2.5454  0.0289 -0.1384
 4469SOL     OW25042   3.716   4.242  14.508  0.3670  0.2363  0.0789
 4469SOL    HW125043   3.750   4.328  14.533  1.6773 -0.5290  0.8685
 4469SOL    HW225044   3.643   4.234  14.569  0.9262  0.5659  0.7876
 4470SOL     OW25045   3.445   0.859   6.764 -0.2702  0.1256  0.2077
 4470SOL    HW125046   3.507   0.902   6.704 -0.1410 -0.3905 -0.0346
 4470SOL    HW225047   3.409   0.791   6.706 -1.1277  1.0791 -0.3654
 4471SOL     OW25048   0.000   3.476   6.346 -0.0480  0.5160  0.4047
 4471SOL    HW125049   4.693   3.450   6.427 -0.7949  0.2101 -0.0957
 4471SOL    HW225050   0.093   3.474   6.369  0.4933  1.1734 -1.6135
 4472SOL     OW25051   2.347   0.199   9.840 -0.1237 -0.0978 -0.0580
 4472SOL    HW125052   2.409   0.199   9.913  2.0101 -0.1568 -1.8913
 4472SOL    HW225053   2.383   0.126   9.789  1.3950  0.0679  0.7713
 4473SOL     OW25054   3.611   0.142  11.676  0.2994  0.3110  0.2313
 4473SOL    HW125055   3.706   0.144  11.691  0.3614 -1.4762  0.0827
 4473SOL    HW225056   3.601   0.057  11.633 -0.5406  0.2312  0.5902
 4474SOL     OW25057   0.340   1.862   1.615 -0.1383 -0.1751 -0.2233
 4474SOL    HW125058   0.315   1.835   1.527  0.8789 -0.1388 -0.5282
 4474SOL    HW225059   0.272   1.813   1.660  2.4892 -2.4102  1.3504
 4475SOL     OW25060   0.718   0.812   8.608 -0.0033  0.1912  0.0034
 4475SOL    HW125061   0.718   0.896   8.655 -1.4127  1.4203 -2.1698
 4475SOL    HW225062   0.768   0.761   8.671 -1.2322 -0.5848  0.3378
 4476SOL     OW25063   0.405   2.844   6.509 -0.0981  0.2422  0.4737
 4476SOL    HW125064   0.386   2.893   6.589 -2.6707  0.9378 -0.5522
 4476SOL    HW225065   0.453   2.769   6.543 -1.1038 -0.5797  0.0784
 4477SOL     OW25066   4.348   4.265   7.454  0.0533  0.1422  0.5306
 4477SOL    HW125067   4.390   4.332   7.509 -2.0140  1.6079  0.3067
 4477SOL    HW225068   4.260   4.263   7.491 -0.1772  1.9601  0.0922
 4478SOL     OW25069   1.220   0.704   2.189 -0.1483  0.4649  0.2601
 4478SOL    HW125070   1.292   0.642   2.191 -1.0013 -0.5524 -0.9331
 4478SOL    HW225071   1.241   0.756   2.111  0.0294  0.5528  0.3657
 4479SOL     OW25072   0.324   3.742   5.135  0.3031 -1.0839 -0.4096
 4479SOL    HW125073   0.386   3.718   5.203  1.4749  1.1045 -0.7113
 4479SOL    HW225074   0.246   3.704   5.177 -0.4746 -2.4539 -3.0494
 4480SOL     OW25075   2.288   1.284   4.222  0.4853 -0.0899  0.3007
 4480SOL    HW125076   2.284   1.195   4.186 -0.0963 -0.7111  1.9109
 4480SOL    HW225077   2.361   1.321   4.172 -0.9351  2.0004 -0.2291
 4481SOL     OW25078   1.260   2.569   7.004  0.6956 -0.3953 -0.0041
 4481SOL    HW125079   1.332   2.632   7.005  1.4276 -1.1656 -3.1059
 4481SOL    HW225080   1.307   2.488   7.022 -0.5117 -1.1513 -0.2268
 4482SOL     OW25081   3.569   3.327   7.382 -0.3016 -0.0775  0.6756
 4482SOL    HW125082   3.508   3.400   7.386  0.0396  0.4099 -2.5764
 4482SOL    HW225083   3.646   3.375   7.414 -0.7953  0.3822  1.1886
 4483SOL     OW25084   4.427   1.062   3.154 -0.0572 -0.7847  0.1134
 4483SOL    HW125085   4.478   1.014   3.089  1.9949  0.3532  0.8780
 4483SOL    HW225086   4.436   0.993   3.220  0.4953 -0.5083  0.3244
 4484SOL     OW25087   0.745   3.511   5.777 -0.9591 -0.4707  0.7971
 4484SOL    HW125088   0.734   3.498   5.871 -2.4295 -1.2055  0.5301
 4484SOL    HW225089   0.746   3.416   5.763  1.5812 -0.4649  0.9956
 4485SOL     OW25090   2.217   0.540   2.235  0.0211  0.1312 -0.4142
 4485SOL    HW125091   2.305   0.572   2.255 -0.5064  1.5896 -0.4824
 4485SOL    HW225092   2.199   0.498   2.319 -1.8541  0.5880 -0.6047
 4486SOL     OW25093   3.471   4.008   5.149  0.1277 -0.4446  0.0913
 4486SOL    HW125094   3.457   3.914   5.136  2.0864 -0.7141 -0.1954
 4486SOL    HW225095   3.510   4.013   5.237 -0.1332 -0.3242  0.1980
 4487SOL     OW25096   0.831   2.843   5.050  0.2307  0.4006 -0.2789
 4487SOL    HW125097   0.847   2.900   4.975  0.4571  0.5018 -0.1541
 4487SOL    HW225098   0.809   2.913   5.112 -1.5273  0.7256 -1.2570
 4488SOL     OW25099   2.401   1.944   9.812 -0.3093 -0.2265  0.4492
 4488SOL    HW125100   2.345   1.873   9.780 -0.2681 -0.1647  0.2410
 4488SOL    HW225101   2.471   1.891   9.851  0.9084 -0.4109 -1.9194
 4489SOL     OW25102   4.734   2.006   6.479 -0.0318  0.1932 -0.3343
 4489SOL    HW125103   0.021   2.060   6.555  0.9520  0.7301 -1.0067
 4489SOL    HW225104   4.684   2.068   6.427 -0.9837  0.9209  1.4531
 4490SOL     OW25105   1.289   4.232   3.225 -0.0232  0.3922 -0.7651
 4490SOL    HW125106   1.253   4.171   3.161  1.1923 -1.5900  0.4532
 4490SOL    HW225107   1.206   4.256   3.267  0.2653  0.5275 -0.2700
 4491SOL     OW25108   3.908   1.466   5.110 -0.4347 -0.3770 -0.1266
 4491SOL    HW125109   3.841   1.490   5.045  0.4077 -0.2239 -0.9332
 4491SOL    HW225110   3.872   1.512   5.186 -0.0182  1.8011 -1.2472
 4492SOL     OW25111   1.299   4.262  13.008  0.0351  0.0163  0.4235
 4492SOL    HW125112   1.388   4.274  13.041  0.0461 -2.0002  1.1217
 4492SOL    HW225113   1.303   4.167  13.022  0.0053  0.0810  0.8609
 4493SOL     OW25114   4.621   1.958   9.293  0.3649  0.0849  0.3041
 4493SOL    HW125115   4.543   1.963   9.348  0.6106  0.1332  0.6472
 4493SOL    HW225116   4.587   1.961   9.204 -1.4319 -0.1244  0.9820
 4494SOL     OW25117   3.574   3.636   9.440  0.1812  0.8463  0.2393
 4494SOL    HW125118   3.576   3.699   9.512  1.2969  1.1752 -0.0801
 4494SOL    HW225119   3.653   3.582   9.449  0.0362  0.6630  0.4028
 4495SOL     OW25120   0.192   1.527   6.541 -0.3183 -0.0143  0.3323
 4495SOL    HW125121   0.102   1.495   6.554 -1.3097  1.8149 -2.0829
 4495SOL    HW225122   0.179   1.618   6.517  0.6609  0.2009  0.6467
 4496SOL     OW25123   2.903   2.589   8.069 -0.0210  0.4159 -0.2366
 4496SOL    HW125124   2.993   2.605   8.043  0.4152 -0.4183  0.7832
 4496SOL    HW225125   2.866   2.678   8.068  0.5195  0.6356 -0.4686
 4497SOL     OW25126   1.327   0.727  11.450  0.2755 -0.2062 -0.1242
 4497SOL    HW125127   1.346   0.693  11.538  0.0226  0.0585  0.0324
 4497SOL    HW225128   1.387   0.671  11.401  1.6876 -0.1913  1.5941
 4498SOL     OW25129   0.619   1.377   3.984 -0.3069  0.0339 -0.3638
 4498SOL    HW125130   0.686   1.369   4.053 -1.5549  0.2900  0.8733
 4498SOL    HW225131   0.672   1.348   3.910 -1.1585  0.8889 -1.2883
 4499SOL     OW25132   2.035   2.936  10.727 -0.2480 -0.2321 -0.5677
 4499SOL    HW125133   1.950   2.898  10.749 -0.1129  0.3414  0.9472
 4499SOL    HW225134   2.034   2.961  10.634 -0.5162 -0.8622 -0.7375
 4500SOL     OW25135   1.404   4.136  12.737  0.3270  0.4722  0.1312
 4500SOL    HW125136   1.458   4.214  12.752  1.3543 -0.4144  1.1012
 4500SOL    HW225137   1.353   4.163  12.661  1.0874  0.9387 -0.2235
 4501SOL     OW25138   1.143   1.198   1.590 -0.8600 -0.3150  0.1134
 4501SOL    HW125139   1.155   1.292   1.579 -0.5478 -0.4844 -0.9821
 4501SOL    HW225140   1.061   1.188   1.543 -1.6675  0.8105  1.2791
 4502SOL     OW25141   0.569   0.588   1.252  0.2516 -0.4718 -0.1577
 4502SOL    HW125142   0.481   0.623   1.269  0.9893  0.5976  1.5268
 4502SOL    HW225143   0.563   0.572   1.158 -0.3033  1.7272 -0.4910
 4503SOL     OW25144   0.001   3.506   5.090  0.1280 -0.2413  0.1426
 4503SOL    HW125145   0.083   3.534   5.131  0.6113 -0.6395 -0.5553
 4503SOL    HW225146   4.693   3.589   5.110 -0.9122 -0.7106 -0.1575
 4504SOL     OW25147   0.430   0.931   7.533 -0.3166  0.5469  0.8189
 4504SOL    HW125148   0.366   0.985   7.579  1.0459 -0.2398  3.6686
 4504SOL    HW225149   0.386   0.911   7.450  3.9103 -1.2054 -1.0278
 4505SOL     OW25150   0.727   2.347   5.338  0.0679  0.3875 -0.2377
 4505SOL    HW125151   0.653   2.352   5.400  1.8203 -1.3137  1.9593
 4505SOL    HW225152   0.694   2.283   5.276 -0.3012  0.6747 -0.3416
 4506SOL     OW25153   3.215   3.228   5.126  0.4692 -0.3146 -0.0330
 4506SOL    HW125154   3.200   3.299   5.063  1.1085 -0.2010 -0.0562
 4506SOL    HW225155   3.131   3.215   5.169 -0.7848 -0.1888 -2.4590
 4507SOL     OW25156   2.531   0.628   6.178 -0.3325  0.5123  0.4599
 4507SOL    HW125157   2.451   0.652   6.225  0.4352  0.3518  1.8351
 4507SOL    HW225158   2.524   0.533   6.183 -1.3871  0.3195 -3.9845
 4508SOL     OW25159   1.363   4.028   0.315  0.0686  0.2020  0.1531
 4508SOL    HW125160   1.372   4.094   0.246 -3.0662  0.3012 -0.1484
 4508SOL    HW225161   1.317   3.968   0.257 -2.1061  0.9711  1.0970
 4509SOL     OW25162   1.349   1.379   9.235  0.8909  0.4143 -0.0877
 4509SOL    HW125163   1.412   1.319   9.195  1.1892  0.3215  0.5144
 4509SOL    HW225164   1.346   1.455   9.177 -0.8987  1.1172  0.9122
 4510SOL     OW25165   2.624   0.034   4.763 -0.0964 -0.1489 -0.0981
 4510SOL    HW125166   2.584   0.025   4.849  1.3246  3.2170  0.9167
 4510SOL    HW225167   2.652   4.680   4.746 -0.0184 -0.4352  1.5682
 4511SOL     OW25168   3.254   4.135   9.662 -0.0640 -0.6026  0.3790
 4511SOL    HW125169   3.214   4.144   9.749  1.2381  2.1279  0.6979
 4511SOL    HW225170   3.252   4.039   9.662  1.1552 -0.6155 -1.5770
 4512SOL     OW25171   0.256   4.680   9.309 -0.2076 -0.3820  0.6545
 4512SOL    HW125172   0.244   0.021   9.253 -0.2956 -1.0342 -0.2169
 4512SOL    HW225173   0.352   4.678   9.309 -0.1934  0.2788 -0.0609
 4513SOL     OW25174   4.318   4.070   1.239  0.2073 -0.1535 -0.2720
 4513SOL    HW125175   4.378   4.096   1.309  0.4340 -1.7696  0.1319
 4513SOL    HW225176   4.235   4.077   1.286  0.9888  2.5857  0.6914
 4514SOL     OW25177   3.437   0.668   5.697  0.1161 -0.4381 -0.2238
 4514SOL    HW125178   3.516   0.671   5.643 -1.7435  1.3313 -2.8608
 4514SOL    HW225179   3.463   0.656   5.788 -1.4388  2.1284  0.5471
 4515SOL     OW25180   0.843   1.428  13.425  0.0868  0.1688  0.1515
 4515SOL    HW125181   0.917   1.383  13.464 -0.3037 -0.9649 -0.4178
 4515SOL    HW225182   0.878   1.452  13.340 -0.7387  1.3829  0.1557
 4516SOL     OW25183   1.096   3.859   1.704  0.1653  0.3933  0.1981
 4516SOL    HW125184   1.013   3.821   1.677 -1.6589  1.6284  4.0547
 4516SOL    HW225185   1.143   3.792   1.754 -0.0830  0.3367  0.3548
 4517SOL     OW25186   2.018   4.131   2.703  0.2360  0.1352  0.2709
 4517SOL    HW125187   1.937   4.165   2.740  1.8931  0.9950  3.0957
 4517SOL    HW225188   2.046   4.209   2.656 -1.4872 -0.0172 -1.0268
 4518SOL     OW25189   0.911   2.410   2.120  0.1213  0.6393  0.0300
 4518SOL    HW125190   0.890   2.485   2.175 -0.2432  1.4242 -1.1825
 4518SOL    HW225191   0.989   2.367   2.155 -1.1441 -0.7103  1.2195
 4519SOL     OW25192   1.111   4.459   1.380 -0.0756  0.1797 -0.2598
 4519SOL    HW125193   1.152   4.510   1.310 -0.1217  2.3428  1.3010
 4519SOL    HW225194   1.106   4.369   1.349  2.3311 -1.1605  3.2230
 4520SOL     OW25195   4.547   2.049   1.044 -0.4913  0.2521 -0.4006
 4520SOL    HW125196   4.483   2.075   0.978  0.0636 -0.1707 -1.1106
 4520SOL    HW225197   4.600   2.126   1.026 -0.0921  0.1050  0.1500
 4521SOL     OW25198   0.699   2.106   7.461 -0.0681 -0.1983 -0.4378
 4521SOL    HW125199   0.763   2.087   7.529 -0.3784  2.1459  0.5341
 4521SOL    HW225200   0.663   2.019   7.443  0.1226 -0.1812 -0.9175
 4522SOL     OW25201   2.263   0.629  14.800 -0.2525 -0.1067 -0.2229
 4522SOL    HW125202   2.344   0.668  14.766 -1.4402  2.2687 -0.3077
 4522SOL    HW225203   2.194   0.638  14.735 -0.7912  0.6641  0.4488
 4523SOL     OW25204   3.595   3.173   9.404  0.1218 -0.3092 -0.3577
 4523SOL    HW125205   3.660   3.195   9.470 -0.1275  0.0137 -0.2182
 4523SOL    HW225206   3.591   3.078   9.414  2.4382 -0.5517 -1.8168
 4524SOL     OW25207   2.628   2.847   2.108  0.0356  0.0367 -0.5744
 4524SOL    HW125208   2.627   2.753   2.126  0.8242 -0.0854 -1.1887
 4524SOL    HW225209   2.597   2.852   2.017 -0.1881  0.7036 -0.4648
 4525SOL     OW25210   4.493   1.624   6.615 -0.2310  0.5741 -0.1855
 4525SOL    HW125211   4.492   1.643   6.709 -0.9108 -0.1682 -0.0439
 4525SOL    HW225212   4.423   1.675   6.574 -0.6486 -0.5892 -0.9194
 4526SOL     OW25213   4.308   2.259   6.757 -0.2464  0.3088 -0.3635
 4526SOL    HW125214   4.343   2.348   6.757  2.0674 -0.6042  1.7039
 4526SOL    HW225215   4.388   2.218   6.725 -0.5199 -1.5556  1.3025
 4527SOL     OW25216   0.302   4.537   2.956  0.2749  0.6241  0.7464
 4527SOL    HW125217   0.249   4.469   2.916  1.0722  0.7811 -0.5693
 4527SOL    HW225218   0.252   4.559   3.035  0.2136  1.7559  0.4021
 4528SOL     OW25219   4.071   1.273  10.843 -0.1041 -0.3082 -0.4742
 4528SOL    HW125220   3.984   1.302  10.817  0.1193  1.7111  1.0073
 4528SOL    HW225221   4.061   1.180  10.862  3.6531 -0.7407 -0.6456
 4529SOL     OW25222   0.399   3.270   2.274 -0.1918 -0.0395  0.1209
 4529SOL    HW125223   0.378   3.177   2.282 -0.0310 -0.2993 -2.7021
 4529SOL    HW225224   0.416   3.287   2.367  1.3723  0.0436 -0.1808
 4530SOL     OW25225   3.547   3.824   4.240 -0.1927 -0.7819 -0.4453
 4530SOL    HW125226   3.459   3.840   4.205  0.0642  0.3902 -0.5526
 4530SOL    HW225227   3.588   3.899   4.198  1.7359 -2.6419 -1.9035
 4531SOL     OW25228   1.652   0.297   8.329  0.0151  0.2846 -0.5254
 4531SOL    HW125229   1.590   0.359   8.290 -0.0689  0.0225 -0.8045
 4531SOL    HW225230   1.619   0.211   8.306 -0.5806  0.2474  0.4632
 4532SOL     OW25231   2.633   0.100   2.086  0.2228 -0.1948  0.1446
 4532SOL    HW125232   2.688   0.052   2.149 -0.5381  2.2214  2.6769
 4532SOL    HW225233   2.700   0.155   2.046  0.2799  0.3227  0.9444
 4533SOL     OW25234   1.169   3.941   8.222 -0.2007 -0.2196 -0.2861
 4533SOL    HW125235   1.179   3.987   8.139  2.2264  1.8989  1.1551
 4533SOL    HW225236   1.260   3.918   8.241 -0.2734  0.1528  0.5295
 4534SOL     OW25237   0.764   3.608   8.182 -0.4030 -0.2850  0.2724
 4534SOL    HW125238   0.803   3.684   8.140 -0.1386 -0.0508  0.9366
 4534SOL    HW225239   0.686   3.602   8.127 -2.1017  1.3779  2.4836
 4535SOL     OW25240   2.493   4.333   7.217  0.4145  0.2777 -0.9309
 4535SOL    HW125241   2.434   4.274   7.265  0.6135  1.6527  1.0146
 4535SOL    HW225242   2.454   4.419   7.235  1.8934  0.2201  2.4832
 4536SOL     OW25243   3.115   4.450   4.127 -0.0802 -0.6944  0.0608
 4536SOL    HW125244   3.136   4.437   4.220  1.0869  0.9745  0.0456
 4536SOL    HW225245   3.173   4.520   4.096 -0.7644  0.1316  0.6270
 4537SOL     OW25246   4.484   2.821   2.292  0.0941  0.4474 -0.0437
 4537SOL    HW125247   4.572   2.784   2.282  0.2565  0.6232  0.7841
 4537SOL    HW225248   4.496   2.909   2.258 -0.0406  1.6076  2.9077
 4538SOL     OW25249   4.606   2.316  11.243  0.0103  0.0657 -0.1100
 4538SOL    HW125250   4.595   2.356  11.156 -1.5061 -1.9297 -0.8172
 4538SOL    HW225251   4.687   2.357  11.274 -0.7371  0.5774  1.1517
 4539SOL     OW25252   2.329   3.381   1.699 -0.3171 -0.1254  0.0288
 4539SOL    HW125253   2.316   3.362   1.606 -1.2703  2.1806 -0.2928
 4539SOL    HW225254   2.253   3.435   1.723 -1.0957 -0.3436 -1.8708
 4540SOL     OW25255   3.343   0.314  16.103  0.2159  0.6041 -0.3923
 4540SOL    HW125256   3.398   0.380  16.146  0.3097  0.7383 -0.7098
 4540SOL    HW225257   3.400   0.237  16.097  0.8292  0.9304  1.3876
 4541SOL     OW25258   4.023   3.123   9.193 -0.1943 -0.3080  0.7092
 4541SOL    HW125259   4.040   3.192   9.257 -2.5412  0.7710  0.2169
 4541SOL    HW225260   3.966   3.061   9.238 -0.9750  0.5337  0.9070
 4542SOL     OW25261   3.342   0.932   5.753  0.0255  0.3607 -0.0044
 4542SOL    HW125262   3.410   0.868   5.734 -0.2372  0.6044 -1.7620
 4542SOL    HW225263   3.289   0.921   5.674 -0.4272 -1.0587  0.5026
 4543SOL     OW25264   4.186   4.565  17.601  0.0746  0.5314  0.1664
 4543SOL    HW125265   4.269   4.576  17.648 -0.2737 -1.3019  1.2074
 4543SOL    HW225266   4.192   4.476  17.565  0.6104  0.8143 -0.4415
 4544SOL     OW25267   3.997   4.713  12.153 -0.6302 -0.0995  0.3948
 4544SOL    HW125268   4.060   0.000  12.085 -0.8870 -1.3686 -0.2568
 4544SOL    HW225269   4.043   4.652  12.211 -0.6522  1.4879  2.0987
 4545SOL     OW25270   3.556   1.394   3.043 -0.3708 -0.4015 -0.5324
 4545SOL    HW125271   3.493   1.346   3.097 -0.4843  0.5874  0.2110
 4545SOL    HW225272   3.592   1.322   2.991  2.6277  2.2273 -2.0882
 4546SOL     OW25273   0.642   3.771   7.461  0.1151  0.7806  0.4163
 4546SOL    HW125274   0.552   3.790   7.486 -0.7799  0.2863 -2.4307
 4546SOL    HW225275   0.629   3.737   7.373 -1.0097  1.4184  0.3346
 4547SOL     OW25276   1.313   0.673   3.782 -0.4279  0.2328 -0.4341
 4547SOL    HW125277   1.272   0.669   3.696 -0.9122 -0.0041 -0.1942
 4547SOL    HW225278   1.319   0.583   3.814 -0.0915 -0.2706 -1.9050
 4548SOL     OW25279   3.343   2.355   7.168  0.2427 -0.4560 -0.4965
 4548SOL    HW125280   3.248   2.358   7.168  0.3116  1.2125  1.9779
 4548SOL    HW225281   3.372   2.415   7.099 -0.3918 -1.5023 -1.6814
 4549SOL     OW25282   0.799   3.860   3.627 -0.3846 -0.1405  0.6040
 4549SOL    HW125283   0.785   3.952   3.646  0.3316  0.1653 -0.3461
 4549SOL    HW225284   0.893   3.850   3.646  0.1629 -0.1098 -1.9672
 4550SOL     OW25285   4.656   0.649   1.558  0.1101 -0.1009 -0.1308
 4550SOL    HW125286   0.000   0.600   1.538  1.1190  0.8433  1.5846
 4550SOL    HW225287   4.695   0.734   1.579  0.5356 -0.1361 -0.7391
 4551SOL     OW25288   2.107   1.417   0.147  0.0830 -0.1172 -0.1129
 4551SOL    HW125289   2.075   1.409   0.057 -0.5970 -1.3624  0.2324
 4551SOL    HW225290   2.053   1.351   0.191  3.9898 -0.7011  3.9246
 4552SOL     OW25291   3.884   4.030   7.877 -0.2492  0.0264  0.8457
 4552SOL    HW125292   3.813   4.079   7.918  0.0668 -0.6350  2.2061
 4552SOL    HW225293   3.899   4.084   7.799 -0.4470 -1.2606 -0.0831
 4553SOL     OW25294   1.830   1.628   2.173  0.3483  0.4436 -0.1375
 4553SOL    HW125295   1.894   1.617   2.243 -1.2451 -2.4063  0.8576
 4553SOL    HW225296   1.772   1.691   2.216  2.3167  1.8698  0.4235
 4554SOL     OW25297   2.097   4.423   5.215  0.2354 -0.2667 -0.5139
 4554SOL    HW125298   2.018   4.383   5.252 -0.6508  0.7199 -1.3414
 4554SOL    HW225299   2.141   4.472   5.284  1.6481 -0.2448 -1.4108
 4555SOL     OW25300   2.183   2.102  11.952  0.1697 -0.0316  0.1199
 4555SOL    HW125301   2.187   2.113  11.857  1.4678 -0.7063  0.0885
 4555SOL    HW225302   2.182   2.006  11.954 -0.0761 -0.0039  1.5427
 4556SOL     OW25303   3.860   3.886   3.629 -0.1875 -0.6413 -0.0770
 4556SOL    HW125304   3.772   3.921   3.618  0.2935  0.3851 -0.7289
 4556SOL    HW225305   3.862   3.823   3.557  0.7596  2.4078 -2.6934
 4557SOL     OW25306   1.581   2.677   1.766  0.0086  0.1664  0.5015
 4557SOL    HW125307   1.633   2.607   1.807  2.0198  0.5531 -1.3998
 4557SOL    HW225308   1.512   2.678   1.832  1.0366  1.8886  1.5165
 4558SOL     OW25309   0.499   0.796   8.442 -0.1602  0.1084  0.5618
 4558SOL    HW125310   0.461   0.711   8.462  0.8916 -0.5717 -0.2975
 4558SOL    HW225311   0.594   0.801   8.458  0.0459  0.9178 -0.8908
 4559SOL     OW25312   1.133   3.914  16.329  0.3576 -0.2262  0.0712
 4559SOL    HW125313   1.164   3.824  16.341 -0.4900 -0.4082  0.8345
 4559SOL    HW225314   1.204   3.953  16.277 -0.9755  0.4046 -1.2780
 4560SOL     OW25315   4.087   3.413  11.016 -0.3574 -0.0997 -0.4694
 4560SOL    HW125316   4.178   3.411  10.988 -0.5957  1.2536 -1.3371
 4560SOL    HW225317   4.042   3.357  10.953  1.4335 -0.8137 -1.1221
 4561SOL     OW25318   2.642   2.814   8.734  0.2502 -0.4559 -0.2545
 4561SOL    HW125319   2.715   2.780   8.786 -0.3175  1.5462  1.8386
 4561SOL    HW225320   2.618   2.735   8.686 -1.0791  0.3542 -0.9347
 4562SOL     OW25321   2.891   0.507  13.420 -0.0880 -0.2719 -0.2016
 4562SOL    HW125322   2.945   0.504  13.499 -0.3412 -0.3341 -0.0305
 4562SOL    HW225323   2.952   0.551  13.360  0.0783 -0.5197 -0.2149
 4563SOL     OW25324   1.634   3.473   6.933 -0.3223 -1.0440 -0.4706
 4563SOL    HW125325   1.575   3.504   6.864 -1.2963 -0.0085  0.8294
 4563SOL    HW225326   1.684   3.550   6.961  2.6934 -3.6908  1.3928
 4564SOL     OW25327   3.447   0.220   4.725  0.2195  0.2809 -0.0911
 4564SOL    HW125328   3.506   0.223   4.650 -0.6734  0.4463 -0.7881
 4564SOL    HW225329   3.396   0.148   4.686 -4.4064  2.4824  1.8612
 4565SOL     OW25330   4.693   3.891  10.906 -0.0876 -0.1694 -0.2216
 4565SOL    HW125331   4.688   3.953  10.979 -1.2164  0.3837 -0.7630
 4565SOL    HW225332   0.021   3.931  10.846  1.2355  0.5957  1.6948
 4566SOL     OW25333   3.989   0.742   7.181  0.3761  0.3382 -0.2531
 4566SOL    HW125334   3.918   0.783   7.230  0.2380  1.1399 -1.1240
 4566SOL    HW225335   3.979   0.782   7.094 -0.5883 -1.5681 -1.0084
 4567SOL     OW25336   1.405   0.539   4.231  0.2204 -0.4495 -0.3728
 4567SOL    HW125337   1.462   0.591   4.173 -0.1150 -1.3101 -1.4744
 4567SOL    HW225338   1.468   0.540   4.303  0.9486  3.2155 -1.0344
 4568SOL     OW25339   1.009   4.191  14.426  0.3151 -0.2454  0.8816
 4568SOL    HW125340   0.945   4.131  14.463 -0.9624 -0.7582 -2.1884
 4568SOL    HW225341   1.040   4.143  14.349 -1.5186 -0.9794  0.6073
 4569SOL     OW25342   1.232   1.539   3.847  0.1327  0.1611  0.0268
 4569SOL    HW125343   1.181   1.470   3.806 -1.1227  0.9555  0.2259
 4569SOL    HW225344   1.172   1.609   3.823  0.9381 -0.3647 -3.4278
 4570SOL     OW25345   0.544   4.361   6.439 -0.4208 -0.0065 -0.6569
 4570SOL    HW125346   0.489   4.283   6.441 -0.9908  0.3919 -0.8718
 4570SOL    HW225347   0.627   4.324   6.410  0.2504  3.4264 -3.1584
 4571SOL     OW25348   1.005   0.985  11.848  0.5064  0.3077  0.0650
 4571SOL    HW125349   1.075   1.022  11.902  0.9290 -3.0705  1.8418
 4571SOL    HW225350   0.996   0.893  11.873 -3.2001  0.5725 -0.2867
 4572SOL     OW25351   1.560   1.711  15.633 -0.3508  0.1351 -0.8457
 4572SOL    HW125352   1.507   1.631  15.631 -1.1565  0.5846  2.8500
 4572SOL    HW225353   1.644   1.680  15.666 -1.0638  0.0554  0.8609
 4573SOL     OW25354   1.310   0.140   2.960  0.4276  0.0972 -0.2744
 4573SOL    HW125355   1.250   0.078   3.002 -1.8272  2.0507 -0.5856
 4573SOL    HW225356   1.383   0.117   3.017 -0.3561 -0.0182  0.6891
 4574SOL     OW25357   2.701   1.070   2.753 -0.3236  0.0713  0.2000
 4574SOL    HW125358   2.612   1.078   2.787 -0.1593  1.7605  0.2237
 4574SOL    HW225359   2.731   0.985   2.784  1.1569  0.1753 -0.9456
 4575SOL     OW25360   0.115   0.826   6.432  0.3362 -0.6377 -0.6444
 4575SOL    HW125361   0.199   0.846   6.472  0.1226 -2.5840  0.8157
 4575SOL    HW225362   0.104   0.905   6.380 -0.2548 -0.9646 -1.0262
 4576SOL     OW25363   0.313   0.834   1.759 -0.4087  0.3049  0.6899
 4576SOL    HW125364   0.389   0.881   1.725 -0.3992 -0.2974 -0.1324
 4576SOL    HW225365   0.356   0.752   1.782  0.9829  0.7193 -0.4527
 4577SOL     OW25366   2.181   3.222   2.152  0.0327 -0.0765 -0.6268
 4577SOL    HW125367   2.277   3.216   2.143  0.2759 -0.8864  2.6293
 4577SOL    HW225368   2.171   3.317   2.146 -0.4531 -0.0735  0.2882
 4578SOL     OW25369   2.642   0.015   6.419 -0.4652 -0.0120  0.3867
 4578SOL    HW125370   2.697   0.051   6.489 -1.3944 -0.7747  1.5087
 4578SOL    HW225371   2.606   4.675   6.464 -1.2764  1.1932  1.7399
 4579SOL     OW25372   2.170   2.509   3.874  0.4223  0.9492 -0.1335
 4579SOL    HW125373   2.241   2.458   3.913 -1.4863 -1.1053  0.6651
 4579SOL    HW225374   2.173   2.474   3.785  4.1822  1.4106 -0.1677
 4580SOL     OW25375   3.602   4.592   2.627 -0.1820 -0.5705 -0.1033
 4580SOL    HW125376   3.540   4.642   2.573  0.6372  0.1172 -0.4102
 4580SOL    HW225377   3.632   4.525   2.566  1.4517  1.3423 -1.4370
 4581SOL     OW25378   2.900   4.386   4.708  0.3493  0.4493  0.1838
 4581SOL    HW125379   2.815   4.346   4.687  0.0280  0.1101  2.0801
 4581SOL    HW225380   2.878   4.450   4.776  0.8429  1.7155 -0.8398
 4582SOL     OW25381   3.043   2.028   9.451  0.5727 -0.0722 -0.1535
 4582SOL    HW125382   3.006   1.972   9.382  0.4561  0.2748 -0.3738
 4582SOL    HW225383   2.998   2.110   9.433  0.9059  0.2535  0.5206
 4583SOL     OW25384   3.804   0.046   9.673  0.1065 -0.1607 -0.2661
 4583SOL    HW125385   3.895   0.038   9.646  0.2044  0.7458 -0.2007
 4583SOL    HW225386   3.803   0.033   9.767 -0.4877 -1.4405 -0.4566
 4584SOL     OW25387   0.411   1.528  11.527 -0.3348  0.1180 -0.3218
 4584SOL    HW125388   0.373   1.443  11.548  2.5798 -0.9169  0.7565
 4584SOL    HW225389   0.423   1.522  11.432  1.3936  0.7940 -0.1428
 4585SOL     OW25390   0.569   1.785  12.703  0.0309 -0.1333 -0.0521
 4585SOL    HW125391   0.664   1.788  12.693 -0.1672  2.4148 -1.0741
 4585SOL    HW225392   0.567   1.793  12.798 -1.0245 -0.4642 -0.0522
 4586SOL     OW25393   1.427   0.273   5.627 -0.1391 -0.9180 -1.0202
 4586SOL    HW125394   1.417   0.178   5.614 -0.4262 -1.0063 -0.1743
 4586SOL    HW225395   1.516   0.280   5.661 -0.0147  0.8885 -1.7119
 4587SOL     OW25396   3.924   0.289   6.578  0.0703 -0.2305 -0.2251
 4587SOL    HW125397   3.839   0.319   6.610 -0.0892 -0.2933 -0.5939
 4587SOL    HW225398   3.927   0.195   6.596  1.3988 -0.0988  0.2784
 4588SOL     OW25399   4.283   4.433   8.710 -0.5322 -0.1909  0.2013
 4588SOL    HW125400   4.212   4.372   8.687 -0.8466 -0.3554  1.6290
 4588SOL    HW225401   4.257   4.519   8.676 -1.9317 -1.0566 -0.9265
 4589SOL     OW25402   1.598   1.521   9.249 -0.2696  0.2047  0.4893
 4589SOL    HW125403   1.549   1.558   9.175 -1.0257 -1.4482  0.1460
 4589SOL    HW225404   1.521   1.503   9.303  0.5309 -0.3008  1.4609
 4590SOL     OW25405   1.032   4.410  10.958 -0.0798 -0.0875 -1.1288
 4590SOL    HW125406   1.051   4.465  10.882 -2.1080  1.9741 -0.1307
 4590SOL    HW225407   0.943   4.429  10.986  1.8898  1.8706  3.8737
 4591SOL     OW25408   2.595   4.360   6.932 -0.3008 -0.4933 -0.4916
 4591SOL    HW125409   2.507   4.375   6.898 -1.9915 -1.4795  3.4932
 4591SOL    HW225410   2.577   4.343   7.025 -0.3019 -0.5681 -0.5060
 4592SOL     OW25411   1.800   3.533   2.112 -0.6931  0.3156  0.3509
 4592SOL    HW125412   1.886   3.491   2.113 -1.0984 -0.5487 -1.3807
 4592SOL    HW225413   1.752   3.458   2.078 -1.4165  1.3259 -0.8419
 4593SOL     OW25414   0.120   4.709   5.618  0.0137 -0.4537  0.1738
 4593SOL    HW125415   0.128   4.639   5.553  0.1557 -1.0962  0.8875
 4593SOL    HW225416   0.105   4.657   5.697  1.4573 -3.2537 -1.3714
 4594SOL     OW25417   1.181   0.025   6.128 -0.1548 -0.3450 -0.3087
 4594SOL    HW125418   1.163   0.086   6.056  0.5859 -0.2824 -0.4423
 4594SOL    HW225419   1.167   4.679   6.081  1.2413  0.6172 -2.4100
 4595SOL     OW25420   3.517   1.237   3.521  0.0228  0.3078 -0.3069
 4595SOL    HW125421   3.450   1.287   3.473  0.0093 -0.6538 -1.2998
 4595SOL    HW225422   3.471   1.154   3.531 -0.4944  0.7377  0.9046
 4596SOL     OW25423   3.458   4.203   6.586  0.5702  0.0158 -0.6267
 4596SOL    HW125424   3.436   4.168   6.500 -0.2326  0.6531 -0.6882
 4596SOL    HW225425   3.411   4.286   6.576 -2.5308 -1.7687 -0.9208
 4597SOL     OW25426   1.917   1.296   9.552 -0.2125 -0.7051 -0.1027
 4597SOL    HW125427   1.851   1.345   9.599 -0.8454  0.0074 -1.7178
 4597SOL    HW225428   1.915   1.215   9.603  0.0530 -1.3518 -1.1036
 4598SOL     OW25429   3.633   1.651   6.293  0.0311  0.3172  0.1324
 4598SOL    HW125430   3.553   1.703   6.296 -0.1148  0.1186 -0.3323
 4598SOL    HW225431   3.699   1.705   6.338 -0.5501 -0.1328  1.5237
 4599SOL     OW25432   0.641   3.757   1.865  0.3634 -0.2159 -0.3400
 4599SOL    HW125433   0.568   3.733   1.923 -0.3248  1.8804 -0.3138
 4599SOL    HW225434   0.674   3.674   1.833  1.5717 -0.0182  0.3849
 4600SOL     OW25435   3.143   3.536   3.577 -0.6859  0.7390 -0.0713
 4600SOL    HW125436   3.100   3.527   3.662 -0.4535 -0.6003 -0.1001
 4600SOL    HW225437   3.133   3.452   3.533 -0.6678  1.4665 -1.4888
 4601SOL     OW25438   3.839   2.517   3.319 -0.2981 -0.2047 -0.9933
 4601SOL    HW125439   3.885   2.434   3.327 -1.1020 -0.5755 -0.2502
 4601SOL    HW225440   3.807   2.527   3.409  1.3842 -1.0369 -0.3070
 4602SOL     OW25441   0.286   4.125  15.768 -0.2617 -0.0377  0.0680
 4602SOL    HW125442   0.296   4.071  15.690 -1.8702 -1.7144  1.0048
 4602SOL    HW225443   0.201   4.085  15.786  0.2347 -0.4222  1.5918
 4603SOL     OW25444   2.329   4.624   3.829 -0.3240 -0.2355 -0.3070
 4603SOL    HW125445   2.344   4.558   3.897  1.8968 -1.5449 -2.0709
 4603SOL    HW225446   2.245   4.661   3.857  0.7374  0.2706  2.1226
 4604SOL     OW25447   4.458   4.052   8.797  0.7083 -0.0685 -0.0090
 4604SOL    HW125448   4.552   4.036   8.806  0.9339  0.8882 -0.6523
 4604SOL    HW225449   4.428   4.089   8.880 -1.7189  0.5509 -1.1848
 4605SOL     OW25450   3.895   3.536   7.077  0.1626 -0.2675  0.2657
 4605SOL    HW125451   3.883   3.513   6.985  0.2448  2.0240 -0.2963
 4605SOL    HW225452   3.867   3.452   7.115 -0.2984 -0.1532  0.1763
 4606SOL     OW25453   3.912   1.121   6.657  0.4587 -0.3074  0.0990
 4606SOL    HW125454   3.981   1.055   6.664  2.0424  1.5197  1.5171
 4606SOL    HW225455   3.971   1.196   6.654  2.2432 -1.7920 -1.6313
 4607SOL     OW25456   4.140   1.446   9.756 -0.1959 -0.4817  0.0109
 4607SOL    HW125457   4.171   1.447   9.847 -0.4621  1.3756  0.0752
 4607SOL    HW225458   4.185   1.367   9.725  1.2141  0.3601 -0.0980
 4608SOL     OW25459   3.197   0.238   5.034  0.5949 -0.0643 -0.4944
 4608SOL    HW125460   3.222   0.145   5.036 -0.4562 -0.3431 -0.4744
 4608SOL    HW225461   3.287   0.270   5.031  0.6747 -0.5571 -2.7616
 4609SOL     OW25462   2.146   3.764  17.710 -0.3298 -0.6191  0.7319
 4609SOL    HW125463   2.173   3.689  17.657 -1.8229 -1.2967  0.9320
 4609SOL    HW225464   2.235   3.780   0.003 -1.1465  4.2158  0.5875
 4610SOL     OW25465   2.342   0.717   4.078  0.6431 -0.4935 -0.1007
 4610SOL    HW125466   2.383   0.631   4.076  2.1453  0.2449 -0.8454
 4610SOL    HW225467   2.365   0.739   3.987 -1.1797  0.1479 -0.4025
 4611SOL     OW25468   2.159   3.225   0.802  0.1486  0.4892 -0.6154
 4611SOL    HW125469   2.144   3.243   0.709  0.2691  3.2689 -0.0978
 4611SOL    HW225470   2.254   3.232   0.808  0.1702 -0.8639  0.5191
 4612SOL     OW25471   0.368   0.824  13.875  0.6063 -0.3766 -0.0375
 4612SOL    HW125472   0.286   0.867  13.851  1.5661  0.9912 -0.8723
 4612SOL    HW225473   0.358   0.820  13.970  0.1709  1.1449 -0.0185
 4613SOL     OW25474   0.058   0.485   5.238 -0.0310 -0.7228 -0.5090
 4613SOL    HW125475   0.135   0.487   5.295  1.1882  1.1428 -2.2067
 4613SOL    HW225476   0.099   0.475   5.152 -1.0879 -2.0831 -0.8511
 4614SOL     OW25477   2.079   2.130   4.647 -0.3558 -0.2553  0.1709
 4614SOL    HW125478   1.997   2.135   4.598 -0.2783 -0.6762 -0.0077
 4614SOL    HW225479   2.066   2.057   4.708 -3.2002  1.3642  1.4699
 4615SOL     OW25480   2.313   2.293   1.407 -0.3668  0.3261 -0.3204
 4615SOL    HW125481   2.224   2.326   1.413 -0.3989  0.3179 -0.8103
 4615SOL    HW225482   2.359   2.366   1.364 -0.2301  0.0951 -0.5649
 4616SOL     OW25483   2.247   2.660  12.609 -0.4854  0.0318 -0.2067
 4616SOL    HW125484   2.278   2.605  12.537 -2.5199  0.1574 -1.1856
 4616SOL    HW225485   2.205   2.732  12.562 -1.0054 -1.5016 -2.1232
 4617SOL     OW25486   2.442   1.156  12.176 -0.5383 -0.1933  0.5538
 4617SOL    HW125487   2.354   1.174  12.209 -0.9862  0.4412 -1.0025
 4617SOL    HW225488   2.494   1.161  12.256 -0.0969  0.0784  0.2476
 4618SOL     OW25489   2.654   1.026   0.212 -0.4417 -0.4476 -0.3854
 4618SOL    HW125490   2.559   1.019   0.223 -0.5252  0.5787 -0.3942
 4618SOL    HW225491   2.681   1.045   0.302  0.3871  1.8437 -1.1071
 4619SOL     OW25492   2.051   2.765   7.771 -0.3252  0.0206  0.3701
 4619SOL    HW125493   2.016   2.777   7.859  0.3348  1.2243  0.4791
 4619SOL    HW225494   1.983   2.816   7.726 -1.1371 -0.3913  1.1380
 4620SOL     OW25495   1.696   1.542   2.985  0.4981  0.5930  0.4704
 4620SOL    HW125496   1.736   1.455   2.981  1.1460  0.9613 -0.9980
 4620SOL    HW225497   1.757   1.578   3.049 -1.8816  1.5928  2.1780
 4621SOL     OW25498   0.010   0.505   3.026  0.4191  0.1924  0.3986
 4621SOL    HW125499   0.099   0.537   3.013 -0.4962  3.3762  1.9316
 4621SOL    HW225500   0.013   0.527   3.120 -1.6015  0.3196  0.4262
 4622SOL     OW25501   0.547   4.059  15.927  1.1957 -0.5857 -0.1084
 4622SOL    HW125502   0.481   4.039  15.860  1.3569 -0.1798 -0.3895
 4622SOL    HW225503   0.620   4.077  15.869  0.0783 -0.7826 -1.5756
 4623SOL     OW25504   0.592   1.829   8.456  0.1437 -0.4292  0.0814
 4623SOL    HW125505   0.561   1.835   8.546  0.8739 -2.1536  0.4357
 4623SOL    HW225506   0.599   1.734   8.454  5.5833 -0.0183 -0.4711
 4624SOL     OW25507   2.844   2.310   8.517  0.5155  0.4514  0.4178
 4624SOL    HW125508   2.834   2.275   8.429  1.4028  0.7856  0.1819
 4624SOL    HW225509   2.810   2.244   8.576 -0.3297 -0.5806 -1.2456
 4625SOL     OW25510   1.102   1.231   2.356  0.2427 -0.1628  0.2665
 4625SOL    HW125511   1.142   1.150   2.324 -0.5876 -0.6681  0.5168
 4625SOL    HW225512   1.051   1.200   2.430 -1.9929  0.1259 -1.1481
 4626SOL     OW25513   3.077   4.709   5.709  0.1577 -0.6443  0.1575
 4626SOL    HW125514   3.161   0.010   5.737 -0.2132  1.3079 -1.2865
 4626SOL    HW225515   3.075   4.616   5.734  1.4586 -1.7454 -3.8335
 4627SOL     OW25516   4.504   4.253   1.813  0.6753 -0.8682 -0.2866
 4627SOL    HW125517   4.488   4.220   1.901 -0.6356 -1.6743 -0.8321
 4627SOL    HW225518   4.596   4.280   1.811  0.5348 -0.3035  0.9094
 4628SOL     OW25519   0.550   4.655   3.595  0.3510  0.1305  0.1697
 4628SOL    HW125520   0.501   4.708   3.657 -0.7761 -0.0325 -0.5868
 4628SOL    HW225521   0.551   4.574   3.646  1.5512 -0.5322 -0.9003
 4629SOL     OW25522   4.226   3.943   3.392  0.2214  0.1791 -0.4284
 4629SOL    HW125523   4.179   3.946   3.475  1.6953 -0.8779  0.4233
 4629SOL    HW225524   4.186   4.014   3.342 -1.2995 -0.1394  0.3182
 4630SOL     OW25525   0.297   0.331  12.168 -0.2734  0.4391  0.0177
 4630SOL    HW125526   0.274   0.386  12.093  3.5634 -0.3744 -1.7046
 4630SOL    HW225527   0.233   0.261  12.151  0.4178 -0.9174  3.0307
 4631SOL     OW25528   1.869   1.568   9.216  0.2634  0.3093 -1.0503
 4631SOL    HW125529   1.779   1.554   9.246  0.2386  1.0815 -0.7837
 4631SOL    HW225530   1.857   1.582   9.122 -1.4302  0.7179 -0.7622
 4632SOL     OW25531   1.662   3.587   4.067  0.0992 -0.3681  0.6781
 4632SOL    HW125532   1.707   3.597   4.151  0.0464  0.6245  0.5832
 4632SOL    HW225533   1.680   3.670   4.025 -1.1011 -1.0308 -1.1444
 4633SOL     OW25534   0.168   4.468   1.265 -0.1719  0.0686  0.0873
 4633SOL    HW125535   0.075   4.460   1.288  0.4710 -0.6512  2.3628
 4633SOL    HW225536   0.162   4.542   1.204  0.3050  0.0264 -0.0105
 4634SOL     OW25537   1.032   1.046   6.978  0.1074 -0.7998 -0.0301
 4634SOL    HW125538   1.074   0.960   6.988  0.1163 -0.8388 -0.4327
 4634SOL    HW225539   1.011   1.062   7.070  2.9370  0.8136  0.3237
 4635SOL     OW25540   1.359   4.068   2.103 -0.1747  0.0519  0.0643
 4635SOL    HW125541   1.392   4.153   2.074  2.6745 -1.1993 -0.4085
 4635SOL    HW225542   1.280   4.078   2.050 -0.4412 -3.1120 -0.1671
 4636SOL     OW25543   2.680   0.658   8.623  0.1091 -0.0927 -0.3899
 4636SOL    HW125544   2.748   0.637   8.559  1.8991  1.7729  0.8896
 4636SOL    HW225545   2.663   0.746   8.589 -0.7616 -0.1776 -0.1644
 4637SOL     OW25546   0.660   4.166   9.074  0.3678 -0.5158 -0.4192
 4637SOL    HW125547   0.721   4.111   9.123  1.3947  0.4699 -0.5863
 4637SOL    HW225548   0.643   4.243   9.128  3.0363 -0.3268  0.1486
 4638SOL     OW25549   2.582   4.418   7.750  0.2220 -0.0731 -0.1855
 4638SOL    HW125550   2.486   4.413   7.751  0.2417 -0.4036  0.1696
 4638SOL    HW225551   2.610   4.430   7.840 -0.1773  1.6972 -0.3155
 4639SOL     OW25552   2.414   3.422  15.213  0.3109  0.2839 -0.2132
 4639SOL    HW125553   2.436   3.512  15.235  0.0617  0.3295 -0.1489
 4639SOL    HW225554   2.425   3.433  15.118  3.0019 -1.3416 -0.1029
 4640SOL     OW25555   3.706   3.693   8.612 -0.6158  0.1943  0.4265
 4640SOL    HW125556   3.783   3.637   8.624 -0.1105  0.8569  0.2495
 4640SOL    HW225557   3.733   3.751   8.541  2.4733  0.5555  1.8880
 4641SOL     OW25558   4.351   4.134  12.665  0.1790  0.2483 -0.3745
 4641SOL    HW125559   4.310   4.134  12.752  1.1541 -0.7917  0.0832
 4641SOL    HW225560   4.342   4.224  12.633  0.2857  1.1115  1.9994
 4642SOL     OW25561   0.627   1.688   4.426 -0.6115 -0.0678  0.1491
 4642SOL    HW125562   0.627   1.697   4.331 -0.0305 -0.2344  0.1331
 4642SOL    HW225563   0.710   1.730   4.450 -1.2888  1.6716 -0.5484
 4643SOL     OW25564   0.887   1.185  14.079 -0.1330 -0.5020  0.5306
 4643SOL    HW125565   0.907   1.279  14.087  0.3387 -0.8027  2.9073
 4643SOL    HW225566   0.867   1.165  14.170 -3.1139 -0.6339 -0.1391
 4644SOL     OW25567   1.594   1.286   2.780 -0.2832 -0.8841 -1.0249
 4644SOL    HW125568   1.641   1.261   2.701  1.1602 -0.5357 -0.2715
 4644SOL    HW225569   1.624   1.214   2.835  1.3978 -0.7546 -1.7552
 4645SOL     OW25570   2.527   0.828   2.421 -0.0121 -0.3183 -0.1442
 4645SOL    HW125571   2.592   0.868   2.364 -0.4107 -0.1698 -0.4986
 4645SOL    HW225572   2.528   0.744   2.376 -1.4903 -0.1905 -0.4363
 4646SOL     OW25573   1.842   4.052   4.740  0.1822 -0.2983  0.1080
 4646SOL    HW125574   1.788   4.131   4.732  0.6226  0.0351  0.3829
 4646SOL    HW225575   1.892   4.058   4.658  2.0500  0.4163  1.3022
 4647SOL     OW25576   4.339   0.439  16.725  0.4195  0.1139  0.0310
 4647SOL    HW125577   4.264   0.380  16.715  0.4075 -0.0475  1.1064
 4647SOL    HW225578   4.411   0.376  16.719  1.8531  1.5972  1.3313
 4648SOL     OW25579   1.055   0.030   2.021  0.1501  0.0652  0.2596
 4648SOL    HW125580   1.057   0.110   2.075  1.2365 -0.4100  0.9429
 4648SOL    HW225581   1.100   0.060   1.942 -1.5499  0.2399 -0.6285
 4649SOL     OW25582   3.604   2.099   4.042  0.1128  0.4147 -0.2247
 4649SOL    HW125583   3.553   2.026   4.007  0.1215  0.6108 -0.6352
 4649SOL    HW225584   3.691   2.063   4.024 -0.5582 -1.3533  0.0569
 4650SOL     OW25585   2.108   1.323  12.823  0.4997 -0.3009 -0.3813
 4650SOL    HW125586   2.093   1.326  12.728  0.8929 -0.6802 -0.4527
 4650SOL    HW225587   2.023   1.345  12.860  0.9218 -0.8704  0.9243
 4651SOL     OW25588   3.516   4.539   3.135 -0.2945  0.5790  0.3040
 4651SOL    HW125589   3.608   4.519   3.120 -0.3831 -0.0349  0.5986
 4651SOL    HW225590   3.487   4.484   3.208  1.2171 -1.3905 -0.6001
 4652SOL     OW25591   1.941   1.674   8.371 -0.5030 -0.4924 -0.2744
 4652SOL    HW125592   2.006   1.740   8.348 -1.8516  1.0658  0.3626
 4652SOL    HW225593   1.985   1.592   8.349  0.0192  0.2382 -2.0003
 4653SOL     OW25594   4.004   1.247   3.964  0.0484  0.4136  0.2794
 4653SOL    HW125595   3.997   1.263   4.058  2.7415 -2.5017  0.9551
 4653SOL    HW225596   3.977   1.155   3.966 -0.6778  0.4855 -4.2729
 4654SOL     OW25597   4.699   1.639  14.955 -0.2171  0.1711 -0.2544
 4654SOL    HW125598   4.609   1.610  14.945 -1.0798  2.0532  2.1115
 4654SOL    HW225599   4.735   1.598  14.876  1.7433  0.3542  0.5335
 4655SOL     OW25600   3.921   0.077  11.806  0.4456  0.3841 -0.0345
 4655SOL    HW125601   3.915   0.144  11.874  0.8658  1.2162 -0.8229
 4655SOL    HW225602   4.003   0.098  11.762 -0.7490  1.0394 -1.9354
 4656SOL     OW25603   2.047   2.176   2.730  0.0261 -0.0811 -0.3966
 4656SOL    HW125604   1.996   2.231   2.789  2.4375  0.9217  0.7632
 4656SOL    HW225605   1.985   2.103   2.723 -1.3955  1.0377  0.7323
 4657SOL     OW25606   1.990   4.572  12.677  0.1318 -0.1409 -0.2928
 4657SOL    HW125607   2.083   4.582  12.659 -0.4274 -0.9338 -3.6952
 4657SOL    HW225608   1.964   4.644  12.735  1.7420  0.0351  0.1923
 4658SOL     OW25609   3.991   2.193   6.324  0.4814 -0.6451 -0.2034
 4658SOL    HW125610   3.948   2.111   6.299 -2.4722  1.0405 -0.6671
 4658SOL    HW225611   3.939   2.202   6.404 -0.5988  1.2576 -1.1202
 4659SOL     OW25612   4.713   0.160   6.540  0.1625  0.1395  0.6200
 4659SOL    HW125613   4.639   0.221   6.544 -1.2238 -1.5018  0.2087
 4659SOL    HW225614   0.001   0.187   6.452  0.9561  0.2241  0.8542
 4660SOL     OW25615   2.800   0.210   8.170  0.0886 -0.7688 -0.4491
 4660SOL    HW125616   2.793   0.220   8.265 -1.4128 -1.2359 -0.5084
 4660SOL    HW225617   2.771   0.297   8.142  0.5757 -0.4858 -0.0666
 4661SOL     OW25618   2.315   2.999   5.354 -0.3630 -0.3514 -0.1857
 4661SOL    HW125619   2.312   2.964   5.264  0.3793 -3.7260  1.0989
 4661SOL    HW225620   2.223   3.003   5.381  0.0011 -0.7077  1.0578
 4662SOL     OW25621   2.329   4.074   4.661 -0.3210 -0.5801  0.6493
 4662SOL    HW125622   2.337   4.157   4.614  0.1358 -1.6963 -1.1964
 4662SOL    HW225623   2.266   4.027   4.607  0.2508 -0.1861 -0.3473
 4663SOL     OW25624   2.431   1.453   5.732 -0.1432  0.1284  0.1307
 4663SOL    HW125625   2.470   1.419   5.813 -1.7073  0.0588  0.8541
 4663SOL    HW225626   2.501   1.514   5.709 -0.2310  0.1391 -0.1067
 4664SOL     OW25627   1.160   0.505   7.539  0.0792  0.2600 -0.0320
 4664SOL    HW125628   1.255   0.497   7.534 -0.0844 -2.5068  1.8548
 4664SOL    HW225629   1.142   0.423   7.585  0.4080  0.6537  0.7959
 4665SOL     OW25630   0.040   2.456   2.345  0.0394 -0.7815  0.0340
 4665SOL    HW125631   0.020   2.410   2.264 -1.3275  2.2566 -1.3357
 4665SOL    HW225632   4.693   2.457   2.393  0.0640 -1.6194  0.0988
 4666SOL     OW25633   3.865   2.237   4.625  0.1687 -0.5106 -0.0772
 4666SOL    HW125634   3.811   2.289   4.566  0.4551  0.3867  0.4482
 4666SOL    HW225635   3.952   2.231   4.587 -0.0497  0.1073 -0.6627
 4667SOL     OW25636   2.228   3.327   7.192 -0.0375  0.1078 -0.4411
 4667SOL    HW125637   2.166   3.368   7.131  0.2152 -1.1874 -1.5604
 4667SOL    HW225638   2.203   3.235   7.183 -0.7232  0.1481  0.9702
 4668SOL     OW25639   4.422   1.147   1.713  0.5728  0.5476 -0.1481
 4668SOL    HW125640   4.428   1.178   1.622  1.4089  0.4584 -0.1233
 4668SOL    HW225641   4.392   1.057   1.699 -1.2279  1.1590 -0.2762
 4669SOL     OW25642   1.868   3.877  12.146  0.1046  0.2767  0.0420
 4669SOL    HW125643   1.789   3.927  12.128  0.5567  0.2864 -1.9125
 4669SOL    HW225644   1.929   3.915  12.083  3.0651 -0.6397  2.3539
 4670SOL     OW25645   0.098   1.301   8.021  0.3342  0.4290 -0.1503
 4670SOL    HW125646   0.111   1.385   8.066  0.5424  0.4428 -0.2389
 4670SOL    HW225647   0.185   1.264   8.013  0.2217 -0.2011  1.5826
 4671SOL     OW25648   1.066   0.314  16.253  0.0117  0.2239 -1.0652
 4671SOL    HW125649   0.973   0.332  16.263 -0.8524 -4.0540 -1.7614
 4671SOL    HW225650   1.057   0.220  16.269 -0.2947  0.7456  1.8159
 4672SOL     OW25651   3.847   2.306  17.729  0.5250 -0.6883 -0.3037
 4672SOL    HW125652   3.822   2.215   0.004 -1.9447 -0.1253 -1.0301
 4672SOL    HW225653   3.775   2.351  17.685 -0.2070 -0.1621  1.4578
 4673SOL     OW25654   0.714   4.051   3.067  0.1125 -0.1681 -0.3585
 4673SOL    HW125655   0.646   4.050   3.000 -0.4991  0.1850  0.2591
 4673SOL    HW225656   0.671   4.030   3.150  2.3427  2.1426  1.3885
 4674SOL     OW25657   0.244   3.424   2.115  0.5405  0.1428 -0.1190
 4674SOL    HW125658   0.255   3.361   2.043  0.4109 -0.0860  0.0637
 4674SOL    HW225659   0.270   3.371   2.190  0.5743  0.0853 -0.1716
 4675SOL     OW25660   3.752   4.077   7.437  0.0877 -0.8849 -0.1152
 4675SOL    HW125661   3.682   4.012   7.438 -1.6399  0.9301 -2.6558
 4675SOL    HW225662   3.708   4.126   7.367  0.4125 -2.1622 -1.2155
 4676SOL     OW25663   0.158   0.107  12.912  0.3020  0.1275 -0.1775
 4676SOL    HW125664   0.154   0.077  12.821 -0.2852 -1.1140  0.2636
 4676SOL    HW225665   0.069   0.124  12.941 -0.2072  0.5487 -1.9851
 4677SOL     OW25666   4.690   2.901   3.129  0.0748  0.2666 -0.1984
 4677SOL    HW125667   4.611   2.914   3.182  2.0526 -0.5086  2.9050
 4677SOL    HW225668   4.706   2.991   3.101  2.6967  0.7769  2.9665
 4678SOL     OW25669   0.263   3.031  16.903 -0.0981  0.0801 -0.1422
 4678SOL    HW125670   0.245   3.115  16.860 -0.9949 -0.3929 -0.6912
 4678SOL    HW225671   0.254   3.039  16.998 -0.3849  2.2287 -0.3496
 4679SOL     OW25672   3.172   4.090  17.578  0.0471 -0.2514 -0.0869
 4679SOL    HW125673   3.154   4.080  17.671  2.1143  1.2533  0.4930
 4679SOL    HW225674   3.225   4.016  17.550 -0.6841 -0.7771 -0.0711
 4680SOL     OW25675   1.309   4.185   0.116 -0.2545  0.7240 -0.1656
 4680SOL    HW125676   1.322   4.179   0.022 -1.3371  3.2481 -0.4664
 4680SOL    HW225677   1.225   4.231   0.122 -0.3900  0.6580 -1.5624
 4681SOL     OW25678   0.836   4.526   7.444  0.5833 -0.7063 -0.1926
 4681SOL    HW125679   0.871   4.495   7.360 -0.1884 -2.2719  0.0549
 4681SOL    HW225680   0.745   4.498   7.433  0.4436  0.3255 -1.6260
 4682SOL     OW25681   4.116   0.380   1.949  0.5301  0.3280  0.1896
 4682SOL    HW125682   4.155   0.465   1.972  0.7245  0.3608 -0.2599
 4682SOL    HW225683   4.062   0.361   2.025  3.2890  3.7116  3.0020
 4683SOL     OW25684   3.408   3.583   4.569 -0.3314  0.6421  0.3582
 4683SOL    HW125685   3.463   3.630   4.631  1.0545  1.2436 -1.3256
 4683SOL    HW225686   3.422   3.491   4.589 -0.6311  0.0809 -2.0043
 4684SOL     OW25687   2.833   3.293   3.414  0.7079  0.6387  0.2315
 4684SOL    HW125688   2.758   3.234   3.412  1.0383  0.2625 -1.4262
 4684SOL    HW225689   2.830   3.313   3.320  2.7587  1.2694  0.2946
 4685SOL     OW25690   0.250   1.718  15.026  0.3960  0.2199 -0.1073
 4685SOL    HW125691   0.157   1.700  15.017  0.1157  1.3269  0.5689
 4685SOL    HW225692   0.286   1.640  14.984 -0.9227  0.1849 -1.1577
 4686SOL     OW25693   3.321   2.424   8.793  0.3607 -0.3053  0.2145
 4686SOL    HW125694   3.233   2.407   8.825  0.4235 -0.6263  0.2210
 4686SOL    HW225695   3.375   2.382   8.860 -1.5602 -0.2641  1.7608
 4687SOL     OW25696   4.405   0.758   5.688 -0.1043 -0.2507  0.0344
 4687SOL    HW125697   4.441   0.798   5.609  0.1992 -0.8059 -0.1053
 4687SOL    HW225698   4.474   0.699   5.719  1.0369  0.5323 -1.0371
 4688SOL     OW25699   3.436   3.458   5.052  0.2226 -0.2483 -0.2747
 4688SOL    HW125700   3.384   3.381   5.030 -1.3077  0.9270 -0.7592
 4688SOL    HW225701   3.413   3.475   5.143 -0.4341 -1.8857 -0.1432
 4689SOL     OW25702   4.186   0.933  13.328  0.5737  0.2028  0.5078
 4689SOL    HW125703   4.179   1.017  13.284  1.9411 -0.3241 -0.7026
 4689SOL    HW225704   4.269   0.948  13.373  0.1305 -0.4238  1.5398
 4690SOL     OW25705   2.204   3.197   6.150 -0.3869  0.7415  0.2046
 4690SOL    HW125706   2.277   3.153   6.106 -1.3907 -2.2189  1.4579
 4690SOL    HW225707   2.236   3.285   6.167  0.5857  0.4116  0.0650
 4691SOL     OW25708   2.855   3.611   6.291  0.1196  0.5460 -0.4965
 4691SOL    HW125709   2.890   3.560   6.364  1.6234  1.5341 -0.5128
 4691SOL    HW225710   2.889   3.546   6.230  0.0621 -1.2336  1.4017
 4692SOL     OW25711   3.807   3.138  11.266  0.6374 -0.4619 -0.6011
 4692SOL    HW125712   3.798   3.106  11.356  0.9117  0.0433 -0.3940
 4692SOL    HW225713   3.843   3.224  11.287  1.6522 -0.4305 -2.4751
 4693SOL     OW25714   2.313   2.820   4.039 -0.1317 -0.4813 -0.2443
 4693SOL    HW125715   2.312   2.726   4.051 -1.0785 -0.5003 -0.4651
 4693SOL    HW225716   2.218   2.836   4.040 -0.0278  0.2475 -1.0862
 4694SOL     OW25717   1.153   2.065   5.024 -0.2562  0.0227 -0.6172
 4694SOL    HW125718   1.084   2.076   5.090 -0.6016  0.1551 -1.0001
 4694SOL    HW225719   1.139   1.988   4.970  1.2190 -0.5993 -0.1010
 4695SOL     OW25720   1.029   3.581  11.200 -0.7015 -0.1473 -0.1477
 4695SOL    HW125721   1.045   3.512  11.265 -1.1608 -1.6896 -1.6595
 4695SOL    HW225722   1.107   3.636  11.198  0.2786 -1.5903 -1.1035
 4696SOL     OW25723   1.157   1.367  13.020  0.8206  0.2552 -0.5668
 4696SOL    HW125724   1.134   1.407  12.936 -2.2206  0.4563  0.3677
 4696SOL    HW225725   1.253   1.364  13.025  0.6515 -0.8762  1.7123
 4697SOL     OW25726   0.141   0.062   7.833 -1.0845  0.4522 -0.1122
 4697SOL    HW125727   0.187   0.120   7.771 -0.5271 -0.5368 -0.6317
 4697SOL    HW225728   0.075   0.115   7.876 -0.6254  0.4930  0.5493
 4698SOL     OW25729   3.574   0.310   3.949  0.0618 -1.4012 -0.1266
 4698SOL    HW125730   3.493   0.260   3.936 -1.4948  0.9245  0.4490
 4698SOL    HW225731   3.609   0.288   4.035  1.7222 -1.3193 -0.7833
 4699SOL     OW25732   1.723   0.377   3.208 -0.6795  0.2349  0.2686
 4699SOL    HW125733   1.751   0.306   3.267  0.1402  1.3116  1.1850
 4699SOL    HW225734   1.724   0.337   3.121  1.6910  1.6551 -0.3483
 4700SOL     OW25735   0.645   3.869   1.388 -0.2157 -0.7191 -0.2094
 4700SOL    HW125736   0.553   3.846   1.377 -0.3715 -0.3905  0.4247
 4700SOL    HW225737   0.685   3.798   1.336 -0.1926 -0.4608 -0.5415
 4701SOL     OW25738   2.343   3.654   6.437  0.0160  0.1605 -0.3748
 4701SOL    HW125739   2.374   3.717   6.373  4.8652 -1.2390  0.5720
 4701SOL    HW225740   2.416   3.591   6.442 -1.6636 -1.8625 -1.1470
 4702SOL     OW25741   3.230   4.170   9.935  0.4359  0.2077  0.0656
 4702SOL    HW125742   3.245   4.242   9.996  0.2766  1.5907 -1.5531
 4702SOL    HW225743   3.298   4.110   9.966  0.1183  0.9708  2.2782
 4703SOL     OW25744   4.600   1.159  14.512 -0.1729  0.1779 -0.7737
 4703SOL    HW125745   4.558   1.209  14.582  0.2003 -0.1918 -0.2910
 4703SOL    HW225746   4.588   1.205  14.429  1.1866 -0.7191 -1.4621
 4704SOL     OW25747   0.471   0.517   3.271  0.4258 -0.1320 -0.0118
 4704SOL    HW125748   0.461   0.443   3.331  0.6527  1.2741  1.7807
 4704SOL    HW225749   0.488   0.586   3.335 -1.2976  0.0311  0.2910
 4705SOL     OW25750   2.914   4.085   6.798 -0.3083 -0.6414 -0.0710
 4705SOL    HW125751   2.911   4.169   6.754  0.0206 -0.6756 -0.1564
 4705SOL    HW225752   2.836   4.087   6.855 -1.4147  1.4299 -1.6601
 4706SOL     OW25753   4.594   3.355   6.562  0.3639  0.3090 -0.2471
 4706SOL    HW125754   4.540   3.363   6.640  2.7290  0.8711  1.3161
 4706SOL    HW225755   4.528   3.321   6.502  0.7736 -1.7495  0.4891
 4707SOL     OW25756   0.001   2.453   6.397 -0.2059 -0.2538 -0.3262
 4707SOL    HW125757   0.024   2.469   6.306  1.2963 -0.4773  0.0180
 4707SOL    HW225758   0.087   2.456   6.440  0.2148  1.3605 -1.2756
 4708SOL     OW25759   1.807   3.044   1.999  0.7017  0.9793  0.6410
 4708SOL    HW125760   1.888   3.014   2.040  1.7635 -0.5869 -2.5862
 4708SOL    HW225761   1.836   3.127   1.961 -0.3959 -0.1320 -2.6254
 4709SOL     OW25762   0.414   4.518   6.851 -0.5317  0.3963 -0.7700
 4709SOL    HW125763   0.410   4.523   6.755  0.2055 -1.5493 -0.9040
 4709SOL    HW225764   0.432   4.608   6.878  1.4412 -0.1427 -0.3080
 4710SOL     OW25765   0.915   4.347   5.626 -0.1301 -0.4071  0.5932
 4710SOL    HW125766   0.914   4.443   5.627 -1.0913 -0.4372  2.9742
 4710SOL    HW225767   0.869   4.335   5.543  0.6682 -0.7022  0.1982
 4711SOL     OW25768   4.582   2.160   2.155  0.0844 -0.1817  0.2284
 4711SOL    HW125769   4.568   2.189   2.245 -1.0927 -3.6851  1.2050
 4711SOL    HW225770   4.670   2.192   2.139  0.4326 -2.4570 -2.4596
 4712SOL     OW25771   2.710   3.981   7.000 -0.1014  0.2462  0.1767
 4712SOL    HW125772   2.733   4.033   7.077  1.1092  1.5278 -1.0577
 4712SOL    HW225773   2.627   3.942   7.029 -0.0073 -0.3411 -0.3597
 4713SOL     OW25774   1.890   0.877   7.694 -0.3401  0.2375 -0.0447
 4713SOL    HW125775   1.869   0.802   7.638 -0.4150  0.2338 -0.0118
 4713SOL    HW225776   1.969   0.912   7.652 -0.0844  1.6913  1.6556
 4714SOL     OW25777   3.893   1.834   4.287 -0.6851  0.0584 -0.1576
 4714SOL    HW125778   3.808   1.848   4.329 -0.1924  1.3325  0.4083
 4714SOL    HW225779   3.962   1.841   4.353  1.1965  1.5054 -2.3174
 4715SOL     OW25780   1.565   1.238   8.806 -0.0633  0.0780 -0.5014
 4715SOL    HW125781   1.641   1.210   8.755  1.3171 -1.4290  2.3560
 4715SOL    HW225782   1.565   1.333   8.799  2.7552 -0.1508 -3.5021
 4716SOL     OW25783   4.653   0.444   7.676 -0.0185 -0.7609 -0.1136
 4716SOL    HW125784   4.588   0.493   7.626  1.0421 -1.1916 -1.9351
 4716SOL    HW225785   4.601   0.393   7.736 -2.1608 -0.5658 -1.8112
 4717SOL     OW25786   4.263   2.612   5.722  0.3368 -0.4529  0.3651
 4717SOL    HW125787   4.358   2.602   5.727  0.1887 -1.1743  1.7965
 4717SOL    HW225788   4.252   2.635   5.814 -1.5983  0.3806 -0.0898
 4718SOL     OW25789   1.715   1.855   4.646  0.4907 -0.2135 -0.6437
 4718SOL    HW125790   1.704   1.921   4.577 -0.9647 -0.8651 -1.0174
 4718SOL    HW225791   1.680   1.905   4.721 -0.0764  2.0937 -2.4344
 4719SOL     OW25792   4.303   4.698  16.543  0.1194  0.0353 -0.3313
 4719SOL    HW125793   4.246   4.630  16.581 -0.4803 -0.5126 -2.1978
 4719SOL    HW225794   4.363   4.640  16.496 -1.1241 -1.0251 -0.6250
 4720SOL     OW25795   4.359   4.343   1.093  0.0677  0.0554  0.3029
 4720SOL    HW125796   4.304   4.337   1.171  0.5501 -1.5201  0.5153
 4720SOL    HW225797   4.427   4.277   1.108  2.2130  1.8707 -1.4229
 4721SOL     OW25798   4.458   1.517  14.576  0.6095 -0.6105 -0.1589
 4721SOL    HW125799   4.421   1.454  14.637  0.4728  1.3007  1.7496
 4721SOL    HW225800   4.394   1.588  14.567 -0.8436 -1.8615  0.3781
 4722SOL     OW25801   0.770   0.132   1.350  0.3391  0.0334  0.2312
 4722SOL    HW125802   0.789   0.042   1.322  0.5749  0.6978 -1.7109
 4722SOL    HW225803   0.839   0.151   1.414 -0.2854 -2.6295  1.7036
 4723SOL     OW25804   1.810   1.068  16.069  0.4368  0.2895  0.4703
 4723SOL    HW125805   1.883   1.006  16.065  0.2140 -0.0019  0.9888
 4723SOL    HW225806   1.793   1.068  16.163  1.1739  0.0156  0.6091
 4724SOL     OW25807   1.614   1.497   1.649 -0.2716 -0.4526  0.0190
 4724SOL    HW125808   1.624   1.562   1.718 -0.2790  0.2242 -0.6160
 4724SOL    HW225809   1.546   1.440   1.685 -0.8028 -2.1046 -3.5311
 4725SOL     OW25810   2.770   4.393  16.763  0.1070  0.2695  0.3298
 4725SOL    HW125811   2.746   4.442  16.684 -1.1377  1.3093  1.3419
 4725SOL    HW225812   2.696   4.421  16.818 -0.6036 -2.8777  0.9505
 4726SOL     OW25813   1.089   4.554   3.597  0.4451 -0.4104  0.2797
 4726SOL    HW125814   1.179   4.587   3.596  0.5620 -0.7377  0.0949
 4726SOL    HW225815   1.071   4.547   3.691 -1.5236 -1.4348 -0.1957
 4727SOL     OW25816   1.431   2.369  10.406 -0.1864  0.1995 -0.1206
 4727SOL    HW125817   1.447   2.458  10.436  0.1291  0.6463 -1.6387
 4727SOL    HW225818   1.500   2.321  10.452  0.4143 -0.2598 -1.5239
 4728SOL     OW25819   0.180   3.726   8.319  0.6528 -0.0728  0.1412
 4728SOL    HW125820   0.212   3.768   8.239 -1.2050 -0.2545 -0.6851
 4728SOL    HW225821   0.264   3.686   8.342  0.5447  0.6412  1.8033
 4729SOL     OW25822   1.634   2.924  15.839  0.6091  0.5845  0.0379
 4729SOL    HW125823   1.709   2.978  15.863 -0.1636  1.2450  1.0252
 4729SOL    HW225824   1.560   2.971  15.880 -0.3000 -0.6538 -0.1801
 4730SOL     OW25825   3.702   3.663  17.321  0.2015 -0.6088  0.1227
 4730SOL    HW125826   3.611   3.634  17.329  0.4957 -1.4461  0.4593
 4730SOL    HW225827   3.709   3.685  17.229  2.3907 -1.8283 -0.0076
 4731SOL     OW25828   0.203   1.326  10.491 -0.6274 -0.2539 -0.1693
 4731SOL    HW125829   0.296   1.348  10.498 -0.8965  1.6997 -2.5761
 4731SOL    HW225830   0.163   1.398  10.540  0.3705  0.3780 -0.2896
 4732SOL     OW25831   0.066   0.598   7.014  0.1984 -0.6094 -0.1590
 4732SOL    HW125832   0.024   0.650   6.945 -0.4316 -0.7502  0.1188
 4732SOL    HW225833   4.727   0.558   7.059  0.3306  0.2856  0.8681
 4733SOL     OW25834   4.582   2.713   7.755  0.3552 -0.2769 -0.0256
 4733SOL    HW125835   4.630   2.736   7.834  0.2379 -1.8361  0.5038
 4733SOL    HW225836   4.494   2.746   7.772  0.3767  1.2599 -2.7875
 4734SOL     OW25837   1.221   1.832   2.053  0.3317  0.2421 -0.2738
 4734SOL    HW125838   1.201   1.811   2.145 -0.8116  2.7002  0.0241
 4734SOL    HW225839   1.171   1.760   2.014  1.1133 -0.3107 -0.2689
 4735SOL     OW25840   2.508   2.201  12.302 -0.8524 -0.8050 -0.2634
 4735SOL    HW125841   2.436   2.156  12.346 -0.3132 -1.8716 -0.4779
 4735SOL    HW225842   2.522   2.134  12.235  1.6386  2.5880 -3.1044
 4736SOL     OW25843   3.763   2.094   8.802 -0.0449 -0.5939 -0.6749
 4736SOL    HW125844   3.743   2.156   8.873 -0.6423 -0.3057 -1.0945
 4736SOL    HW225845   3.799   2.153   8.735  0.4543 -1.0656 -0.8195
 4737SOL     OW25846   4.423   0.689  16.644 -0.4448  0.1852 -0.5285
 4737SOL    HW125847   4.402   0.600  16.675  2.9038 -0.6799 -0.7275
 4737SOL    HW225848   4.506   0.711  16.686 -0.5434 -0.8379  0.2139
 4738SOL     OW25849   0.469   0.850   6.357  0.1944  0.6256 -0.2815
 4738SOL    HW125850   0.405   0.841   6.286 -1.2376 -0.9737  1.2112
 4738SOL    HW225851   0.520   0.770   6.344 -0.3547 -0.0935  1.9652
 4739SOL     OW25852   1.904   3.143   4.556 -0.0067  0.3088  0.4429
 4739SOL    HW125853   1.849   3.213   4.520 -0.8762 -0.6219 -0.0519
 4739SOL    HW225854   1.850   3.118   4.631 -1.1344 -0.3348 -0.5705
 4740SOL     OW25855   1.944   3.508  16.865 -0.4172 -0.0782  0.5905
 4740SOL    HW125856   1.903   3.516  16.951 -0.7175 -1.6537  0.5965
 4740SOL    HW225857   1.864   3.506  16.812 -0.8169 -0.3188  1.2008
 4741SOL     OW25858   4.579   1.036   4.432  0.3066  0.2151  0.1765
 4741SOL    HW125859   4.620   0.996   4.356  0.4086 -1.5671  1.1606
 4741SOL    HW225860   4.572   1.130   4.414  1.4024  0.4192  0.7994
 4742SOL     OW25861   1.204   0.414   9.144 -0.6917  0.3857  0.0256
 4742SOL    HW125862   1.271   0.398   9.211  0.8490  1.1338 -1.3399
 4742SOL    HW225863   1.225   0.499   9.104 -0.5128  0.4544  0.2654
 4743SOL     OW25864   0.709   1.192   4.792  0.2208  0.6520 -0.0177
 4743SOL    HW125865   0.780   1.211   4.853  0.7296  1.3878 -0.8254
 4743SOL    HW225866   0.677   1.281   4.776 -1.3436  0.4992  2.2924
 4744SOL     OW25867   3.423   4.651   8.359 -0.3334 -0.4499 -0.7649
 4744SOL    HW125868   3.353   4.666   8.295 -0.6238  0.9850 -0.1299
 4744SOL    HW225869   3.409   4.561   8.387  2.0336 -0.7144 -0.4475
 4745SOL     OW25870   3.987   1.860   5.430 -0.2342  0.0430 -0.3956
 4745SOL    HW125871   3.907   1.889   5.475 -0.1772  1.5126 -1.2449
 4745SOL    HW225872   4.028   1.812   5.502 -0.1719  2.7603  1.3789
 4746SOL     OW25873   2.971   3.893   8.444  0.0414 -0.4198  0.4608
 4746SOL    HW125874   2.990   3.942   8.525  2.9675  0.3811 -0.6958
 4746SOL    HW225875   2.924   3.954   8.387 -0.4163  0.4135  1.7328
 4747SOL     OW25876   0.503   3.421   6.156  0.1580  0.5788 -0.3989
 4747SOL    HW125877   0.423   3.468   6.135  1.5928  2.8041 -0.8827
 4747SOL    HW225878   0.576   3.475   6.125  1.6844 -2.0529 -1.4001
 4748SOL     OW25879   2.441   0.301   5.142 -0.4929  0.9373  0.3998
 4748SOL    HW125880   2.495   0.270   5.215 -0.1484  0.5212 -0.0311
 4748SOL    HW225881   2.368   0.346   5.185 -1.5877 -0.4731  0.0190
 4749SOL     OW25882   1.240   1.135  14.178  0.3139 -0.4362 -0.8373
 4749SOL    HW125883   1.234   1.054  14.128 -1.0436 -0.3838 -0.7629
 4749SOL    HW225884   1.333   1.134  14.201  0.0800 -0.2881  0.1250
 4750SOL     OW25885   0.205   3.238  16.722 -0.7492 -0.1699 -0.0450
 4750SOL    HW125886   0.209   3.194  16.637 -4.1700 -0.2687 -0.1348
 4750SOL    HW225887   0.142   3.309  16.712 -0.7455  0.1477  2.1519
 4751SOL     OW25888   4.507   1.683  11.031  0.2590 -0.2662 -0.0233
 4751SOL    HW125889   4.422   1.727  11.023 -1.6193 -3.1664  4.1337
 4751SOL    HW225890   4.474   1.600  11.063  0.3667 -0.8332 -1.3609
 4752SOL     OW25891   2.671   1.598  16.864 -0.0836  0.1227  0.1104
 4752SOL    HW125892   2.749   1.634  16.822  0.7217 -0.8448  0.7846
 4752SOL    HW225893   2.698   1.563  16.948  0.9862 -1.1555 -0.7643
 4753SOL     OW25894   1.892   1.256   0.815  0.4872  0.3213 -0.2174
 4753SOL    HW125895   1.854   1.275   0.900 -1.2443 -0.5560 -0.7996
 4753SOL    HW225896   1.970   1.205   0.838 -0.1923 -0.7326 -0.2333
 4754SOL     OW25897   4.589   4.367   8.674  0.1426  0.0336 -0.0588
 4754SOL    HW125898   4.494   4.378   8.680  0.1601  0.3032 -0.2730
 4754SOL    HW225899   4.623   4.442   8.626 -1.6073  2.1279  1.9428
 4755SOL     OW25900   3.462   4.101   9.200 -0.2049 -0.0162  0.7146
 4755SOL    HW125901   3.454   4.011   9.232 -0.2936 -0.5712 -0.8842
 4755SOL    HW225902   3.404   4.149   9.259 -2.6113 -0.5524 -1.2182
 4756SOL     OW25903   4.342   2.208   5.813 -0.0551 -0.0856 -0.3126
 4756SOL    HW125904   4.393   2.129   5.833 -1.5986 -0.6544  1.4110
 4756SOL    HW225905   4.358   2.231   5.722 -1.9007 -0.0590 -0.6296
 4757SOL     OW25906   4.266   0.414   8.408 -0.4269  0.1709  0.0874
 4757SOL    HW125907   4.252   0.344   8.471 -0.6957  0.7869  0.7073
 4757SOL    HW225908   4.298   0.479   8.470  1.3691 -0.5750 -0.0426
 4758SOL     OW25909   1.472   2.338  17.195  0.2707  0.1681 -0.6074
 4758SOL    HW125910   1.532   2.392  17.144  0.2310 -1.1951 -2.0888
 4758SOL    HW225911   1.393   2.392  17.188  0.1745 -0.1216 -1.7334
 4759SOL     OW25912   0.664   2.851   7.654  0.0026  0.2316  0.5997
 4759SOL    HW125913   0.632   2.837   7.744  0.8227 -1.7944  0.5870
 4759SOL    HW225914   0.594   2.911   7.630 -0.0985 -0.0511  0.1998
 4760SOL     OW25915   2.247   0.167   3.206  0.2580 -0.0222  0.4664
 4760SOL    HW125916   2.284   0.205   3.126  0.5625 -0.4926  0.3819
 4760SOL    HW225917   2.276   0.077   3.188  0.7862  0.0304  1.0538
 4761SOL     OW25918   1.563   3.761   4.429 -0.3429  0.0722 -0.1175
 4761SOL    HW125919   1.502   3.688   4.417 -1.1166  0.7331 -0.2459
 4761SOL    HW225920   1.507   3.822   4.477 -0.5443 -1.1401  1.1684
 4762SOL     OW25921   1.988   2.578   6.633 -0.2364  0.5802  0.0289
 4762SOL    HW125922   1.992   2.622   6.548 -0.3865 -0.1965 -0.3748
 4762SOL    HW225923   1.993   2.485   6.612  1.8609  0.3726  1.3989
 4763SOL     OW25924   4.715   0.212   7.995  0.0348  0.0381  0.0573
 4763SOL    HW125925   4.697   0.300   7.963  1.8973  1.2426  2.3471
 4763SOL    HW225926   4.628   0.176   8.014 -0.6330  1.9210  0.5995
 4764SOL     OW25927   4.395   1.470   5.604 -0.2726  0.4788 -0.7034
 4764SOL    HW125928   4.319   1.488   5.549  0.6450 -0.1809 -2.1637
 4764SOL    HW225929   4.369   1.403   5.668  2.1052 -0.2413 -0.4782
 4765SOL     OW25930   1.518   2.970   6.799 -0.7061 -0.3382 -0.1286
 4765SOL    HW125931   1.489   3.015   6.720  1.0485  0.0923 -0.5296
 4765SOL    HW225932   1.557   3.044   6.845  0.9343 -0.5638 -1.1595
 4766SOL     OW25933   0.239   4.637   2.101  0.0799  0.3124 -0.0806
 4766SOL    HW125934   0.259   4.723   2.065  1.2797  0.3361  0.6517
 4766SOL    HW225935   0.176   4.649   2.172  1.4114 -0.1074  1.1517
 4767SOL     OW25936   2.680   3.926  12.474  0.4687  0.2148 -0.3641
 4767SOL    HW125937   2.773   3.933  12.454 -0.0067  2.0873 -1.8571
 4767SOL    HW225938   2.650   3.963  12.391 -2.3073 -0.7893  0.2083
 4768SOL     OW25939   1.992   2.362   8.110 -0.2821 -0.1360  0.2065
 4768SOL    HW125940   1.990   2.434   8.047  1.9978 -1.2735 -1.1426
 4768SOL    HW225941   2.071   2.315   8.083 -0.7087 -0.6588 -0.1368
 4769SOL     OW25942   4.532   3.812  15.282 -0.3232 -0.3065  0.9782
 4769SOL    HW125943   4.465   3.836  15.345  0.5734  1.3603  1.3049
 4769SOL    HW225944   4.601   3.765  15.330  0.4988 -0.0603  0.0426
 4770SOL     OW25945   1.390   4.711   5.267 -0.3722  0.1971  0.4857
 4770SOL    HW125946   1.322   4.700   5.333 -2.3483  0.5919 -1.5019
 4770SOL    HW225947   1.383   0.067   5.243 -2.9845  0.0696  0.8035
 4771SOL     OW25948   3.851   0.244   7.515  0.1482 -0.0432 -0.2045
 4771SOL    HW125949   3.875   0.317   7.459 -2.5349 -0.4253 -1.8238
 4771SOL    HW225950   3.935   0.201   7.533 -0.4294 -1.8749 -1.8602
 4772SOL     OW25951   1.407   3.625   6.819  0.2615  0.1193  0.0319
 4772SOL    HW125952   1.347   3.562   6.859 -1.1968  0.7017 -1.2629
 4772SOL    HW225953   1.390   3.699   6.879  0.8619  0.8714 -0.7302
 4773SOL     OW25954   0.128   4.596   8.923 -0.5077 -0.0906  1.0071
 4773SOL    HW125955   0.165   4.530   8.864 -1.1023 -0.2134  0.7730
 4773SOL    HW225956   0.178   4.676   8.909  1.8426 -1.6447  0.3205
 4774SOL     OW25957   1.096   3.251   1.353  0.2926 -0.2276  0.3081
 4774SOL    HW125958   1.054   3.336   1.336  2.1223  0.4180 -1.0642
 4774SOL    HW225959   1.161   3.241   1.283  0.2593  0.1396  0.2188
 4775SOL     OW25960   2.989   3.054   3.625 -0.0216  0.0565  0.9048
 4775SOL    HW125961   2.957   2.982   3.570  0.3615 -0.6837  1.6613
 4775SOL    HW225962   2.907   3.083   3.664 -0.4929 -0.1591  0.0863
 4776SOL     OW25963   3.784   1.877   2.064  0.2307  0.2783  0.3596
 4776SOL    HW125964   3.793   1.960   2.111  0.2109  1.3888 -1.6418
 4776SOL    HW225965   3.869   1.855   2.026  0.4172 -0.9182  1.4648
 4777SOL     OW25966   1.144   2.137   3.530  0.4199 -0.2073 -0.1421
 4777SOL    HW125967   1.061   2.109   3.569 -0.3188  2.2481  0.0855
 4777SOL    HW225968   1.140   2.232   3.544 -0.4722 -0.5210  1.8064
 4778SOL     OW25969   2.778   2.527   5.110  0.2005  0.0611  0.3143
 4778SOL    HW125970   2.862   2.485   5.089  0.4164  0.5389  0.2226
 4778SOL    HW225971   2.779   2.590   5.037  1.4427  0.8963  1.0454
 4779SOL     OW25972   2.612   1.188  13.516 -0.2365 -0.1185  0.1253
 4779SOL    HW125973   2.560   1.118  13.555  0.5505 -1.7942 -1.8431
 4779SOL    HW225974   2.567   1.196  13.431  1.2603 -1.1524 -0.7547
 4780SOL     OW25975   0.369   0.941  13.404 -0.1314  0.0405  0.4616
 4780SOL    HW125976   0.384   1.012  13.342 -0.8512  0.5071  0.8140
 4780SOL    HW225977   0.409   0.961  13.489 -2.8289  1.0470  1.5136
 4781SOL     OW25978   4.456   2.637  15.430 -0.0956  0.2435  0.0652
 4781SOL    HW125979   4.416   2.715  15.392  0.3584  0.2567 -0.3800
 4781SOL    HW225980   4.387   2.582  15.468  0.3155 -0.7524 -0.6162
 4782SOL     OW25981   2.469   0.045   5.014  0.1572  0.0740 -0.0665
 4782SOL    HW125982   2.486   4.719   5.085  0.1466 -0.0838 -0.2005
 4782SOL    HW225983   2.440   0.128   5.052 -1.1038 -0.7965  0.8741
 4783SOL     OW25984   2.290   3.420   3.514  0.5632 -0.1553 -0.7108
 4783SOL    HW125985   2.241   3.342   3.540 -1.6939  1.6883  0.5467
 4783SOL    HW225986   2.277   3.410   3.420 -1.8205  0.1570 -0.4148
 4784SOL     OW25987   0.534   2.068   7.855  0.2259 -0.1774 -0.4642
 4784SOL    HW125988   0.479   2.022   7.792 -2.0800 -1.1352  2.2884
 4784SOL    HW225989   0.558   1.991   7.906  0.4605 -0.8710 -1.6075
 4785SOL     OW25990   2.308   1.996  17.681 -0.9592  0.2951  0.5034
 4785SOL    HW125991   2.345   2.052  17.614 -0.2752 -0.6313  0.0962
 4785SOL    HW225992   2.265   1.933  17.623 -1.5137  1.0845  0.0660
 4786SOL     OW25993   0.437   1.541  13.443  0.1969  0.0145  0.5020
 4786SOL    HW125994   0.405   1.576  13.360  1.6345 -1.2368 -0.5846
 4786SOL    HW225995   0.499   1.472  13.418  0.0147  0.4454 -1.1722
 4787SOL     OW25996   0.580   4.475   7.467 -0.0589  0.4656  0.6184
 4787SOL    HW125997   0.560   4.529   7.544  0.7673  2.2585 -0.4248
 4787SOL    HW225998   0.552   4.388   7.497  1.4988 -0.4650 -0.6427
 4788SOL     OW25999   0.257   0.717  15.018 -0.4306 -0.4958 -0.3673
 4788SOL    HW126000   0.342   0.725  15.061 -1.0527 -0.3915  0.8460
 4788SOL    HW226001   0.208   0.666  15.083 -0.3045  2.6875  2.2316
 4789SOL     OW26002   0.272   0.291   6.548  0.3509  0.8853  0.8092
 4789SOL    HW126003   0.363   0.318   6.556  0.0274  2.0280  0.6237
 4789SOL    HW226004   0.228   0.329   6.624  0.2087  0.1241  1.1089
 4790SOL     OW26005   2.683   4.631   5.629 -0.5054 -0.7252 -0.4561
 4790SOL    HW126006   2.625   4.666   5.561  2.9539  1.9781 -2.0516
 4790SOL    HW226007   2.634   4.553   5.652 -1.7979  0.2338  0.0211
 4791SOL     OW26008   4.630   1.108   1.009  0.6143  0.0006 -0.8879
 4791SOL    HW126009   4.613   1.020   0.975  1.0613  0.0133 -1.1561
 4791SOL    HW226010   4.564   1.160   0.963 -0.4885 -1.5584 -1.0609
 4792SOL     OW26011   3.072   4.190   8.138  0.5106  0.8443  0.1698
 4792SOL    HW126012   3.034   4.277   8.150 -1.4562 -0.2175  1.6568
 4792SOL    HW226013   3.145   4.200   8.200  1.5510 -1.4209 -0.6880
 4793SOL     OW26014   0.964   3.684   3.441 -0.4440 -0.2384  0.2420
 4793SOL    HW126015   1.031   3.751   3.450 -0.3347 -0.6407  2.3985
 4793SOL    HW226016   0.894   3.749   3.435  0.0103  0.4147  1.8573
 4794SOL     OW26017   3.490   1.494   8.932 -0.7049 -0.0227 -0.3277
 4794SOL    HW126018   3.510   1.534   8.847 -0.8398 -0.9038 -0.7798
 4794SOL    HW226019   3.569   1.526   8.975  0.2151  1.1374 -2.8827
 4795SOL     OW26020   4.082   3.577   5.311 -0.6917 -0.3149  0.3823
 4795SOL    HW126021   4.135   3.655   5.300 -0.4077 -0.5124  0.3465
 4795SOL    HW226022   4.115   3.531   5.234  1.0304  0.5954  0.5848
 4796SOL     OW26023   1.773   1.499   0.705 -0.0422  0.1445  0.0336
 4796SOL    HW126024   1.803   1.425   0.757 -0.9958 -0.4491 -0.2627
 4796SOL    HW226025   1.800   1.575   0.757  4.1173 -0.6316 -0.9891
 4797SOL     OW26026   1.042   0.758   7.766  0.5426 -0.4028  0.0132
 4797SOL    HW126027   0.953   0.780   7.741  0.6198  1.2885  1.1974
 4797SOL    HW226028   1.072   0.737   7.678 -0.6602  0.1708 -0.5188
 4798SOL     OW26029   2.144   0.566   4.343 -0.5797 -0.5191  0.0600
 4798SOL    HW126030   2.125   0.577   4.250  0.5082  0.8364  0.0044
 4798SOL    HW226031   2.203   0.639   4.360 -1.0558  0.3363 -2.0365
 4799SOL     OW26032   4.009   0.209   3.354  0.1001  0.0211 -0.2889
 4799SOL    HW126033   3.982   0.125   3.317 -0.9535  0.6631 -1.0025
 4799SOL    HW226034   4.057   0.250   3.281  0.0612 -0.2970 -0.4936
 4800SOL     OW26035   4.084   4.051   2.814  0.2396  0.1170  0.3753
 4800SOL    HW126036   4.171   4.086   2.796 -0.3900  1.1120 -0.7064
 4800SOL    HW226037   4.041   4.044   2.729  0.7450 -3.3845  0.4018
 4801SOL     OW26038   1.787   3.208   6.098  0.1936  0.0935  0.4685
 4801SOL    HW126039   1.855   3.172   6.156  1.3074  2.4045  0.5931
 4801SOL    HW226040   1.820   3.184   6.011  0.7289  1.7466  0.2075
 4802SOL     OW26041   1.242   0.324   7.231  0.5141 -0.6177 -0.2006
 4802SOL    HW126042   1.327   0.324   7.276 -0.8911 -2.4930  2.4159
 4802SOL    HW226043   1.231   0.231   7.214  0.8709 -0.9595  1.4203
 4803SOL     OW26044   2.768   3.842   5.344  0.3202 -0.5267 -0.0916
 4803SOL    HW126045   2.705   3.904   5.306 -0.4787 -0.4201  1.3940
 4803SOL    HW226046   2.721   3.819   5.425 -2.7060  2.2724 -1.0663
 4804SOL     OW26047   0.863   2.011   7.676 -0.2840 -0.3442  0.2441
 4804SOL    HW126048   0.822   1.932   7.711 -3.8352  1.5471  0.3169
 4804SOL    HW226049   0.809   2.080   7.716 -1.5445 -0.0382 -2.0071
 4805SOL     OW26050   3.394   1.342   4.844  0.0942  0.1521 -0.0333
 4805SOL    HW126051   3.368   1.356   4.935  1.1547  1.4764  0.0767
 4805SOL    HW226052   3.482   1.380   4.851  0.1784 -0.5101  2.7246
 4806SOL     OW26053   0.028   3.743   7.224 -0.2878  0.1535 -0.3974
 4806SOL    HW126054   4.678   3.774   7.194 -0.2657 -1.6215 -2.2433
 4806SOL    HW226055   4.725   3.680   7.285 -1.4193  1.5197  0.3019
 4807SOL     OW26056   4.644   2.136   4.579  0.2899  0.0823  0.4284
 4807SOL    HW126057   4.679   2.218   4.612  1.8671 -1.2244  2.0398
 4807SOL    HW226058   4.634   2.082   4.657  1.2559  0.5315  0.8591
 4808SOL     OW26059   0.810   4.148   3.857  0.2170  0.1804  0.1089
 4808SOL    HW126060   0.852   4.166   3.773  0.0837 -1.2950 -0.2718
 4808SOL    HW226061   0.727   4.191   3.841  0.9988  1.6253 -0.0896
 4809SOL     OW26062   1.289   0.392   5.825  0.2740 -0.0470 -0.3021
 4809SOL    HW126063   1.344   0.368   5.751 -1.5622 -0.3915 -1.5659
 4809SOL    HW226064   1.245   0.463   5.778 -2.3997  0.2413  2.5987
 4810SOL     OW26065   3.862   3.240   4.022 -0.1786 -0.1138  0.0847
 4810SOL    HW126066   3.875   3.145   4.018 -0.0940 -0.0338 -1.7768
 4810SOL    HW226067   3.807   3.239   3.943 -2.4749  1.9274  1.6779
 4811SOL     OW26068   1.284   0.269   2.044 -0.0938  0.1268 -0.1917
 4811SOL    HW126069   1.225   0.235   2.111 -0.6441 -1.6828 -1.5895
 4811SOL    HW226070   1.290   0.363   2.057  1.7853 -0.3343  2.2541
 4812SOL     OW26071   4.720   1.540   0.541  0.0989  0.0755 -0.1622
 4812SOL    HW126072   0.068   1.494   0.539  0.5706  0.9546 -0.6742
 4812SOL    HW226073   4.684   1.498   0.462 -1.4880  1.2752 -0.0603
 4813SOL     OW26074   0.059   2.322   2.072 -0.6052 -0.3919  0.3635
 4813SOL    HW126075   0.082   2.255   2.008  0.6152  0.3481  0.0249
 4813SOL    HW226076   0.144   2.360   2.092 -1.4423  0.4785  2.2527
 4814SOL     OW26077   2.129   4.008   4.118  0.1358  0.0699 -0.1055
 4814SOL    HW126078   2.121   4.097   4.082  0.3434  0.6951  1.4133
 4814SOL    HW226079   2.194   3.972   4.058 -0.1358  1.5817 -1.3149
 4815SOL     OW26080   0.626   0.332   4.923 -0.6659 -0.3155  0.3234
 4815SOL    HW126081   0.613   0.427   4.919  1.9385  0.0640  0.9610
 4815SOL    HW226082   0.709   0.323   4.969  0.8704  0.6720 -2.2352
 4816SOL     OW26083   2.155   1.816  17.530 -0.3049  0.1616 -0.1036
 4816SOL    HW126084   2.207   1.743  17.497  0.8817  0.8234  0.2917
 4816SOL    HW226085   2.071   1.812  17.484 -0.5631  1.4786  0.2532
 4817SOL     OW26086   2.010   1.108   2.640 -0.5673 -0.1578  0.2299
 4817SOL    HW126087   2.028   1.175   2.706  1.2380 -1.6679  1.2897
 4817SOL    HW226088   2.089   1.055   2.639  0.6935  1.7498 -0.8432
 4818SOL     OW26089   2.649   3.836   3.338  0.4091 -0.3102  0.3922
 4818SOL    HW126090   2.668   3.930   3.336 -3.8978  0.5787  1.9512
 4818SOL    HW226091   2.566   3.838   3.291  0.0601  0.2618  1.0475
 4819SOL     OW26092   0.798   1.513   5.424  0.6790  0.3520  0.6968
 4819SOL    HW126093   0.709   1.548   5.430  0.6479  0.4982 -0.7524
 4819SOL    HW226094   0.836   1.533   5.339  1.7345  2.7911  1.7632
 4820SOL     OW26095   2.482   0.745  17.215  0.0915 -0.2247 -0.1375
 4820SOL    HW126096   2.389   0.728  17.232 -0.2069  2.3303  0.6643
 4820SOL    HW226097   2.477   0.816  17.152 -0.0455 -1.8855 -1.9787
 4821SOL     OW26098   3.427   0.901  16.192  0.6419 -0.6714 -0.1447
 4821SOL    HW126099   3.358   0.966  16.206  0.1817 -1.1216 -0.2862
 4821SOL    HW226100   3.482   0.942  16.125 -0.2116  0.4178 -0.1779
 4822SOL     OW26101   0.876   2.719   4.444 -0.5044  0.1015 -0.0277
 4822SOL    HW126102   0.916   2.665   4.513 -1.8758 -0.7681  0.0917
 4822SOL    HW226103   0.824   2.656   4.394 -0.9208 -0.4051  1.0453
 4823SOL     OW26104   0.904   1.421  17.210  0.2612 -0.4265  0.0902
 4823SOL    HW126105   0.873   1.345  17.260  1.9773 -0.4502  1.1192
 4823SOL    HW226106   0.837   1.488  17.223 -0.7676 -1.5087  0.3588
 4824SOL     OW26107   0.050   3.391   8.228 -0.1508 -0.1105  0.3460
 4824SOL    HW126108   0.053   3.486   8.235 -2.7746  0.0024 -0.2655
 4824SOL    HW226109   4.718   3.374   8.293  0.2103 -0.5975  0.5968
 4825SOL     OW26110   0.028   3.052   9.015 -0.1648  0.8036 -0.2466
 4825SOL    HW126111   4.724   3.078   8.932  0.5277  1.1507 -0.4712
 4825SOL    HW226112   0.087   2.980   8.992  0.9819  2.3033 -1.9453
 4826SOL     OW26113   2.955   1.552  17.028  0.2632  0.5593  0.1898
 4826SOL    HW126114   3.022   1.538  17.095  1.0971  0.7887 -0.5915
 4826SOL    HW226115   2.882   1.495  17.054  1.4164 -1.9288 -1.9739
 4827SOL     OW26116   0.603   4.732   8.528 -0.6142  0.2350 -0.0132
 4827SOL    HW126117   0.601   4.677   8.606 -0.5635  1.3998  0.8165
 4827SOL    HW226118   0.513   0.029   8.535 -1.0673 -0.7923 -1.0415
 4828SOL     OW26119   1.566   1.291   4.645  0.7817  0.3205 -0.1142
 4828SOL    HW126120   1.531   1.306   4.733  0.8468  2.1322 -0.3857
 4828SOL    HW226121   1.656   1.316   4.668  1.2250 -1.3874 -0.0259
 4829SOL     OW26122   0.269   1.261   6.458  0.2091  0.2295  0.2602
 4829SOL    HW126123   0.224   1.344   6.475  2.6410  1.5593  0.1260
 4829SOL    HW226124   0.363   1.281   6.453  0.5211 -0.8323  2.1193
 4830SOL     OW26125   0.371   0.291   7.052 -0.0950 -0.6165 -0.3949
 4830SOL    HW126126   0.281   0.280   7.022 -0.3309 -2.9147  1.1801
 4830SOL    HW226127   0.353   0.320   7.141 -2.0665  0.3567 -1.1205
 4831SOL     OW26128   0.388   1.987  10.766 -0.3276  0.1848 -0.3212
 4831SOL    HW126129   0.365   2.072  10.804 -0.7340  0.1858 -0.5697
 4831SOL    HW226130   0.473   1.991  10.810 -1.2628  0.1596  1.4927
 4832SOL     OW26131   0.251   2.686  15.389  0.1458  0.8140  0.4184
 4832SOL    HW126132   0.258   2.772  15.431 -2.4434  0.5237  1.4142
 4832SOL    HW226133   0.296   2.707  15.307 -2.0219 -0.4916 -1.0919
 4833SOL     OW26134   1.917   0.557  15.057 -0.5750 -0.3479 -0.7073
 4833SOL    HW126135   2.008   0.535  15.037  0.5533  1.3443  2.4779
 4833SOL    HW226136   1.930   0.649  15.079  0.2207 -0.7973  0.7093
 4834SOL     OW26137   4.323   3.850  17.675  1.0517  0.4424 -0.3933
 4834SOL    HW126138   4.341   3.809   0.018  1.4278  0.5140 -0.4400
 4834SOL    HW226139   4.242   3.804  17.652 -0.2976  1.4510  2.4203
 4835SOL     OW26140   0.181   0.731   8.713  0.1737  0.3908  0.3434
 4835SOL    HW126141   0.113   0.728   8.644  0.9925 -0.2814 -0.4274
 4835SOL    HW226142   0.143   0.798   8.770 -0.0738  0.4654  0.0930
 4836SOL     OW26143   0.405   4.700   4.065 -0.4169  0.2953 -0.2971
 4836SOL    HW126144   0.330   4.645   4.088 -0.0863 -0.3183 -0.6937
 4836SOL    HW226145   0.365   0.051   4.062 -1.3944 -0.1752 -0.9391
 4837SOL     OW26146   2.096   4.598   6.374 -1.3897 -0.3603  0.0916
 4837SOL    HW126147   2.124   4.654   6.447  0.0583 -0.0993 -0.6777
 4837SOL    HW226148   2.022   4.653   6.349  0.1059  0.6170 -2.1637
 4838SOL     OW26149   1.881   1.711   5.968  0.6934 -0.2925  0.6792
 4838SOL    HW126150   1.896   1.726   5.875  0.9167 -1.4365  0.5308
 4838SOL    HW226151   1.968   1.697   6.006  1.6666  0.4240 -1.2633
 4839SOL     OW26152   3.428   1.105   8.258 -0.3422  0.0808 -0.4031
 4839SOL    HW126153   3.393   1.194   8.260 -1.9610 -0.5481 -0.4050
 4839SOL    HW226154   3.400   1.066   8.341  1.6620 -1.6454 -0.5439
 4840SOL     OW26155   1.235   2.100   8.497 -0.5133 -0.1588 -0.6078
 4840SOL    HW126156   1.151   2.111   8.541 -0.9088  0.4276 -1.5267
 4840SOL    HW226157   1.248   2.185   8.456 -0.1930 -0.0144 -0.2027
 4841SOL     OW26158   3.247   3.432   0.175  0.0030 -0.3405  0.0914
 4841SOL    HW126159   3.330   3.384   0.173  0.0750 -0.1681 -1.9714
 4841SOL    HW226160   3.266   3.525   0.190  0.9745 -0.4746 -0.3066
 4842SOL     OW26161   2.465   1.560   4.356  0.2440 -0.1786  0.4449
 4842SOL    HW126162   2.446   1.622   4.287 -0.6963 -0.5499  0.3567
 4842SOL    HW226163   2.535   1.612   4.394  1.0998  0.2440 -1.7584
 4843SOL     OW26164   1.233   1.965  15.286 -0.7615  0.3038 -0.0054
 4843SOL    HW126165   1.295   1.939  15.354  0.3947  0.2461 -1.0960
 4843SOL    HW226166   1.252   1.908  15.211 -1.0992 -2.9021  2.3336
 4844SOL     OW26167   4.675   1.944   2.771  0.3734  0.0470  0.7259
 4844SOL    HW126168   4.594   1.975   2.811  0.8508  1.7213  0.3773
 4844SOL    HW226169   4.680   1.858   2.814 -1.2031 -1.0961 -1.4056
 4845SOL     OW26170   0.392   3.495   2.789 -0.0022 -0.0869  0.3664
 4845SOL    HW126171   0.356   3.415   2.750  0.0925  0.5174 -0.9495
 4845SOL    HW226172   0.365   3.564   2.729  2.7093  0.5818 -0.0512
 4846SOL     OW26173   2.138   3.220   8.632 -0.5052  0.3053  0.3137
 4846SOL    HW126174   2.134   3.307   8.671 -3.8673 -0.8994  2.6150
 4846SOL    HW226175   2.168   3.159   8.699 -0.9302  0.7741  0.9272
 4847SOL     OW26176   2.907   1.329   3.116  0.8022  0.1347 -0.5050
 4847SOL    HW126177   2.848   1.256   3.098 -0.0948  1.8483 -4.6312
 4847SOL    HW226178   2.943   1.299   3.199 -0.3262  0.4527  0.0993
 4848SOL     OW26179   0.520   3.402   8.201 -0.7989  0.5632 -0.2828
 4848SOL    HW126180   0.434   3.364   8.182 -0.8291 -0.1800  1.3978
 4848SOL    HW226181   0.543   3.456   8.125  1.7708  0.0051  0.1153
 4849SOL     OW26182   2.624   4.291   4.630 -0.0584 -0.2045 -0.0599
 4849SOL    HW126183   2.577   4.355   4.683  0.8628  1.5269 -1.3213
 4849SOL    HW226184   2.559   4.264   4.565  0.6332  0.2681 -0.9454
 4850SOL     OW26185   1.920   2.083   4.248 -0.0413 -0.4727 -0.0936
 4850SOL    HW126186   1.904   2.003   4.297 -0.2043 -0.0246  0.5901
 4850SOL    HW226187   1.933   2.151   4.315  1.9025 -2.2475  1.3277
 4851SOL     OW26188   1.737   2.145   7.066  0.2926  0.5480  0.4893
 4851SOL    HW126189   1.694   2.188   6.992  1.4818  0.4876 -0.2286
 4851SOL    HW226190   1.781   2.078   7.013 -2.2766 -1.7245  1.2332
 4852SOL     OW26191   4.381   3.685   2.412  0.0187 -0.5508 -0.2318
 4852SOL    HW126192   4.334   3.724   2.338 -0.6099 -1.7725 -0.4779
 4852SOL    HW226193   4.340   3.598   2.422 -1.3295  0.1570  0.4989
 4853SOL     OW26194   2.660   0.964   3.801 -0.0019 -0.2606  0.3157
 4853SOL    HW126195   2.667   1.002   3.888 -1.7167 -0.4287  0.5151
 4853SOL    HW226196   2.616   1.031   3.749 -0.3739 -1.1085 -0.4691
 4854SOL     OW26197   4.031   1.576   3.711 -0.5065 -0.7060  0.3239
 4854SOL    HW126198   3.939   1.574   3.737 -0.1480 -0.5542  1.6337
 4854SOL    HW226199   4.023   1.513   3.640  0.0094  0.7315 -1.0360
 4855SOL     OW26200   0.191   3.000  12.352  0.3074 -0.0179 -0.2244
 4855SOL    HW126201   0.140   3.020  12.430 -0.5248 -0.3215 -0.6844
 4855SOL    HW226202   0.122   2.968  12.294  0.3268  2.6094 -1.6576
 4856SOL     OW26203   3.262   3.379  11.791 -0.7529  0.2209  0.1022
 4856SOL    HW126204   3.275   3.293  11.752 -0.4509  0.2919  0.0422
 4856SOL    HW226205   3.341   3.374  11.846 -0.0311 -1.8256 -1.1258
 4857SOL     OW26206   3.525   4.370   9.030 -0.0116  0.1224  0.1748
 4857SOL    HW126207   3.571   4.286   9.038 -1.4877 -0.6319  0.5879
 4857SOL    HW226208   3.449   4.362   9.086  0.8950  2.0893  1.6810
 4858SOL     OW26209   0.168   3.739   6.029  0.1983 -0.3122  0.5404
 4858SOL    HW126210   0.126   3.804   5.974 -0.1639  1.2489  2.6473
 4858SOL    HW226211   0.217   3.795   6.090 -1.0946  0.3273  0.9858
 4859SOL     OW26212   3.107   0.275   5.544  0.5897  0.6315 -0.0380
 4859SOL    HW126213   3.072   0.191   5.513  1.1756  0.3007  0.1797
 4859SOL    HW226214   3.162   0.307   5.473 -0.4695  0.0246 -1.1355
 4860SOL     OW26215   2.670   1.318   3.482 -0.4146 -0.4932  0.7218
 4860SOL    HW126216   2.639   1.243   3.533  0.8740  0.6071  3.0987
 4860SOL    HW226217   2.734   1.364   3.536 -1.4495  0.1941  1.3675
 4861SOL     OW26218   2.057   1.698   7.010  0.3482 -0.4055  0.1995
 4861SOL    HW126219   2.040   1.669   6.920 -2.4060 -2.7386  1.4617
 4861SOL    HW226220   2.077   1.619   7.061 -1.7594 -0.8706  0.3191
 4862SOL     OW26221   1.873   4.734   3.728 -0.8445 -0.0684 -0.2236
 4862SOL    HW126222   1.933   0.029   3.659  1.0814 -0.6583  1.2098
 4862SOL    HW226223   1.930   0.006   3.804 -1.4664  2.1502  0.0344
 4863SOL     OW26224   1.358   2.224   6.489  0.9507 -0.2422 -0.1890
 4863SOL    HW126225   1.390   2.246   6.577 -0.3380 -0.0660  0.2350
 4863SOL    HW226226   1.281   2.280   6.478  1.7208  0.8317 -0.1262
 4864SOL     OW26227   0.206   3.031   8.234 -0.4990  0.0329  0.3579
 4864SOL    HW126228   0.152   3.092   8.185  1.5497  1.7182  0.1659
 4864SOL    HW226229   0.135   3.000   8.290 -1.2049  2.7666  0.9903
 4865SOL     OW26230   1.879   3.989   9.984 -0.2398  0.3151 -0.1400
 4865SOL    HW126231   1.931   4.017   9.908  1.2384  2.6721  1.7300
 4865SOL    HW226232   1.933   4.028  10.053  2.6107 -3.2828 -0.2978
 4866SOL     OW26233   4.143   0.853   8.634  0.4682 -0.3597 -0.2206
 4866SOL    HW126234   4.175   0.943   8.638 -0.5500  0.0748 -1.8933
 4866SOL    HW226235   4.105   0.847   8.721 -1.1039  0.5231 -0.8580
 4867SOL     OW26236   3.749   0.775   1.839 -0.6862 -0.0528  1.1008
 4867SOL    HW126237   3.755   0.697   1.785 -0.6192  0.9922 -0.4000
 4867SOL    HW226238   3.822   0.762   1.900 -0.1903  1.3208  0.7959
 4868SOL     OW26239   0.321   2.850   7.205 -0.0569 -0.4557 -0.2522
 4868SOL    HW126240   0.246   2.893   7.247 -0.6419 -1.0209 -0.7293
 4868SOL    HW226241   0.272   2.834   7.124 -1.0083 -0.7896  0.3971
 4869SOL     OW26242   2.671   4.590   6.814 -0.4825  0.1541 -0.0376
 4869SOL    HW126243   2.655   4.640   6.894 -0.7210 -0.9918  0.6407
 4869SOL    HW226244   2.663   4.499   6.843  0.0454  0.1524  0.0948
 4870SOL     OW26245   1.310   0.478   8.410  0.0921 -0.1230  0.0979
 4870SOL    HW126246   1.321   0.471   8.315 -0.8907 -1.1075  0.0575
 4870SOL    HW226247   1.221   0.512   8.414  0.1896  0.0251  1.0768
 4871SOL     OW26248   3.783   2.035   3.263 -0.7021  0.4512 -0.5406
 4871SOL    HW126249   3.821   1.948   3.249  0.9657  1.1270 -0.1994
 4871SOL    HW226250   3.698   2.004   3.295 -0.7560  1.8297  0.6474
 4872SOL     OW26251   1.188   3.252   9.077  0.8042 -0.5502 -0.4090
 4872SOL    HW126252   1.121   3.317   9.097 -1.3916 -2.8188 -0.3372
 4872SOL    HW226253   1.156   3.217   8.994  0.7389  0.0104 -0.6194
 4873SOL     OW26254   3.872   4.171   4.711 -0.8627  0.5679 -0.2848
 4873SOL    HW126255   3.778   4.185   4.704 -0.9253 -0.2965 -1.1293
 4873SOL    HW226256   3.885   4.164   4.616 -0.3973 -0.1276 -0.1694
 4874SOL     OW26257   3.534   4.683  17.475  0.2895  0.2906 -0.6301
 4874SOL    HW126258   3.482   4.622  17.423  0.3113 -0.2703  0.0134
 4874SOL    HW226259   3.604   4.625  17.506 -1.0209 -1.1578 -0.4159
 4875SOL     OW26260   3.230   1.858  12.620 -0.4422 -0.4699 -0.0555
 4875SOL    HW126261   3.234   1.797  12.693  0.7083  0.9636  1.0767
 4875SOL    HW226262   3.170   1.922  12.659 -0.3636 -0.4949  0.1063
 4876SOL     OW26263   2.182   2.532  12.261  0.0664 -0.1815 -0.1479
 4876SOL    HW126264   2.221   2.605  12.213  1.7703 -0.4258  0.8668
 4876SOL    HW226265   2.171   2.469  12.190 -0.6831 -0.0949 -0.1059
 4877SOL     OW26266   2.202   0.519   8.830  0.2540  0.6478 -0.5294
 4877SOL    HW126267   2.278   0.515   8.772 -0.1906  1.2238 -1.1491
 4877SOL    HW226268   2.147   0.447   8.797 -1.1106  0.8625  1.2750
 4878SOL     OW26269   4.425   2.660   8.314  0.3885 -0.2051 -0.3854
 4878SOL    HW126270   4.514   2.647   8.344  0.8205  1.9106 -0.7253
 4878SOL    HW226271   4.417   2.620   8.227  0.1973 -2.2303  0.5778
 4879SOL     OW26272   0.455   0.318   3.469 -0.1874  0.4705  0.2965
 4879SOL    HW126273   0.387   0.340   3.532  0.9899  0.0841  1.7099
 4879SOL    HW226274   0.525   0.363   3.517  0.5987  0.1844 -0.5863
 4880SOL     OW26275   1.843   3.131   6.799  0.0598  0.1710  0.4770
 4880SOL    HW126276   1.868   3.042   6.824  0.2122  0.4651  1.3747
 4880SOL    HW226277   1.808   3.112   6.712 -1.4644  2.5869  0.5597
 4881SOL     OW26278   0.581   1.100  14.809 -0.0774  0.1639  0.0740
 4881SOL    HW126279   0.503   1.125  14.858  0.2605  0.5577  0.4038
 4881SOL    HW226280   0.556   1.008  14.799 -2.0310  0.4688  1.9975
 4882SOL     OW26281   3.919   0.542   2.343  0.2560 -1.0733  0.0443
 4882SOL    HW126282   3.844   0.484   2.349  0.0940 -1.1157 -2.3774
 4882SOL    HW226283   3.888   0.621   2.388  1.1871 -0.6390 -0.0630
 4883SOL     OW26284   3.807   1.431   1.792 -0.0848  0.4456 -0.0346
 4883SOL    HW126285   3.843   1.363   1.849 -0.8666 -0.2568 -0.3788
 4883SOL    HW226286   3.815   1.500   1.857 -1.1368  0.8692 -0.3449
 4884SOL     OW26287   2.066   4.721   9.659  0.2864 -0.1064 -0.6904
 4884SOL    HW126288   2.152   0.003   9.620  0.0125  0.4509 -1.0329
 4884SOL    HW226289   2.006   0.017   9.592  1.0910  0.8312 -0.9729
 4885SOL     OW26290   3.388   3.975   8.940 -0.2942  0.1028 -0.3540
 4885SOL    HW126291   3.408   3.897   8.991 -2.5280 -0.6423 -0.6173
 4885SOL    HW226292   3.294   3.982   8.955 -0.3314  0.3690 -0.7136
 4886SOL     OW26293   4.345   0.850   2.318  0.0150  0.0578  0.3726
 4886SOL    HW126294   4.338   0.867   2.224 -2.0893  1.1738  0.7285
 4886SOL    HW226295   4.265   0.889   2.354 -0.4268  0.2487 -0.8128
 4887SOL     OW26296   3.875   0.990   4.459 -0.4727  0.3938 -0.2634
 4887SOL    HW126297   3.901   1.046   4.386  0.5196 -1.0032 -0.9652
 4887SOL    HW226298   3.894   0.902   4.427  0.1020  0.5817 -0.4304
 4888SOL     OW26299   2.809   2.402   8.894  0.2853 -0.6194 -0.2800
 4888SOL    HW126300   2.846   2.412   8.982 -0.4204 -0.9597  0.0537
 4888SOL    HW226301   2.727   2.353   8.900 -0.4709  0.4554 -1.7019
 4889SOL     OW26302   4.000   2.188   6.027  0.2807 -0.1954 -0.1199
 4889SOL    HW126303   3.908   2.207   6.041  0.6962  1.9721 -0.3118
 4889SOL    HW226304   4.029   2.164   6.115 -0.3227  0.8455  0.3577
 4890SOL     OW26305   3.104   1.130   1.976 -0.2770  0.2082  0.1790
 4890SOL    HW126306   3.033   1.096   1.922  0.1905  1.2707 -1.0950
 4890SOL    HW226307   3.148   1.050   2.007 -2.2346 -0.3659  1.4677
 4891SOL     OW26308   0.934   1.410   4.801  0.1701 -0.6484 -0.2092
 4891SOL    HW126309   0.896   1.417   4.713 -0.9410  1.5936  0.4612
 4891SOL    HW226310   0.949   1.503   4.816  0.7771 -1.2268  2.6309
 4892SOL     OW26311   3.377   0.982   4.685  0.1252 -0.2676  0.2555
 4892SOL    HW126312   3.442   0.995   4.616 -1.1721 -0.4732 -1.0043
 4892SOL    HW226313   3.435   0.978   4.761 -0.7423 -1.9299  0.8377
 4893SOL     OW26314   1.054   3.787   4.190  0.0051 -0.0108  0.0220
 4893SOL    HW126315   0.974   3.734   4.187 -0.4752  0.7941 -1.6013
 4893SOL    HW226316   1.093   3.750   4.111 -1.7889 -0.7593 -0.5282
 4894SOL     OW26317   2.544   3.488  16.933 -0.5516 -0.1918 -0.2063
 4894SOL    HW126318   2.475   3.548  16.905 -0.1831  0.1075 -0.4748
 4894SOL    HW226319   2.539   3.501  17.028 -3.2425  0.0971 -0.3755
 4895SOL     OW26320   3.266   3.765   0.155  0.5382  0.0066  0.0314
 4895SOL    HW126321   3.341   3.820   0.131 -0.1086  1.3699  1.1431
 4895SOL    HW226322   3.252   3.779   0.248  0.1612  0.8896 -0.1596
 4896SOL     OW26323   0.213   2.659   6.715 -0.0552  0.2700 -0.5287
 4896SOL    HW126324   0.152   2.697   6.652 -1.9473 -0.5901  0.7692
 4896SOL    HW226325   0.229   2.574   6.675 -0.0946  0.4622 -0.9466
 4897SOL     OW26326   4.393   2.198  11.473 -0.2692  0.3714 -0.3870
 4897SOL    HW126327   4.482   2.231  11.489 -0.0979 -1.1196  1.7440
 4897SOL    HW226328   4.403   2.142  11.396 -0.4847  0.4242 -0.4532
 4898SOL     OW26329   1.453   0.778   6.824  0.2107 -0.0712 -0.4111
 4898SOL    HW126330   1.525   0.715   6.818 -0.2243 -0.9018  2.8862
 4898SOL    HW226331   1.483   0.845   6.763  0.9160 -1.1012 -1.2028
 4899SOL     OW26332   2.926   2.658   2.621 -0.3397 -0.1005 -0.1224
 4899SOL    HW126333   2.906   2.714   2.696  1.1019 -0.1061  0.2631
 4899SOL    HW226334   2.995   2.708   2.577 -0.2030  1.1350  1.4975
 4900SOL     OW26335   4.721   0.870   2.503 -0.4682 -0.2659 -0.4549
 4900SOL    HW126336   4.720   0.905   2.413 -1.3556  1.4014  0.1991
 4900SOL    HW226337   0.069   0.823   2.503 -1.5090 -2.1531 -2.3036
 4901SOL     OW26338   3.395   0.980   1.327  0.3986  0.1139  0.2768
 4901SOL    HW126339   3.416   0.923   1.400  0.3311 -1.2385 -0.7707
 4901SOL    HW226340   3.316   1.026   1.357  0.2385 -0.7948  1.2623
 4902SOL     OW26341   3.510   0.983   8.642  0.0787 -0.1124 -0.3432
 4902SOL    HW126342   3.564   0.990   8.563  0.3846 -1.0944 -0.2331
 4902SOL    HW226343   3.432   1.033   8.620  1.2385  1.6169 -0.4725
 4903SOL     OW26344   1.121   4.313  10.372  0.2426  0.3637  0.4534
 4903SOL    HW126345   1.118   4.355  10.286 -2.2082 -0.2402  0.2478
 4903SOL    HW226346   1.208   4.272  10.373  0.4793  0.8786  2.2147
 4904SOL     OW26347   2.078   4.355   9.109 -0.1648  0.0505 -0.3345
 4904SOL    HW126348   2.092   4.278   9.055  0.3259 -1.3373  1.7688
 4904SOL    HW226349   2.041   4.306   9.183 -1.7565  0.9867 -0.5138
 4905SOL     OW26350   3.549   1.992   7.871  0.5823 -1.0409 -0.2444
 4905SOL    HW126351   3.625   2.012   7.816 -0.1815  0.6186 -0.6991
 4905SOL    HW226352   3.510   2.079   7.868  0.2233 -1.2804 -2.2150
 4906SOL     OW26353   1.158   4.511   8.720 -0.0259 -0.8191  0.2500
 4906SOL    HW126354   1.127   4.424   8.747 -1.4054  0.7026  3.5651
 4906SOL    HW226355   1.082   4.567   8.711  1.6161  1.1688 -1.1286
 4907SOL     OW26356   1.599   4.152   2.724  0.6109  0.1866 -0.5751
 4907SOL    HW126357   1.524   4.201   2.755  0.0553 -0.1101 -1.4498
 4907SOL    HW226358   1.670   4.207   2.757 -0.0049  1.0296 -0.6739
 4908SOL     OW26359   1.553   3.072   9.391 -0.1643  0.5339 -0.4340
 4908SOL    HW126360   1.542   3.089   9.485 -0.4211 -1.0183 -0.1903
 4908SOL    HW226361   1.463   3.066   9.359 -0.5735 -0.2748  0.8862
 4909SOL     OW26362   1.851   1.810   9.945 -0.3358 -0.3550  0.2355
 4909SOL    HW126363   1.846   1.903   9.921 -0.9407 -0.6011 -0.5850
 4909SOL    HW226364   1.903   1.770   9.876  2.0318 -1.4078  2.6159
 4910SOL     OW26365   1.976   0.673   1.772  0.2625  0.0907 -0.5788
 4910SOL    HW126366   2.069   0.651   1.774  0.5055  1.1429  0.0379
 4910SOL    HW226367   1.947   0.687   1.862 -0.0656  2.1047 -0.9954
 4911SOL     OW26368   0.800   0.598   7.067 -0.4463 -0.3482  0.1579
 4911SOL    HW126369   0.891   0.578   7.045 -0.6903 -1.8340  0.5304
 4911SOL    HW226370   0.755   0.522   7.029 -0.0873 -0.5941  0.2296
 4912SOL     OW26371   1.391   1.864   7.874  0.3523 -0.5795 -0.8795
 4912SOL    HW126372   1.471   1.914   7.892 -0.4026  0.5955 -0.8233
 4912SOL    HW226373   1.416   1.783   7.919  0.7242 -0.6777 -1.2579
 4913SOL     OW26374   4.449   2.421   7.130  0.0346  0.5605  0.1630
 4913SOL    HW126375   4.386   2.475   7.177  0.4933 -0.5327  2.0229
 4913SOL    HW226376   4.469   2.479   7.057 -0.8343  1.8341  0.9516
 4914SOL     OW26377   4.428   3.683   8.168  0.2864 -0.2664 -0.4076
 4914SOL    HW126378   4.457   3.756   8.114  1.2661  0.2669  0.8574
 4914SOL    HW226379   4.511   3.666   8.214  0.6136 -0.1748 -0.9634
 4915SOL     OW26380   1.660   3.149   5.338  0.1175  0.2510  0.2908
 4915SOL    HW126381   1.724   3.147   5.266  1.5283  2.6538  1.4697
 4915SOL    HW226382   1.677   3.075   5.396 -2.0561 -0.1951  0.3569
 4916SOL     OW26383   3.125   0.685   0.001 -0.4243  0.0101  0.4495
 4916SOL    HW126384   3.094   0.771  17.715 -0.6012  0.1682  1.1547
 4916SOL    HW226385   3.168   0.713   0.082  0.7950 -0.8962  0.1287
 4917SOL     OW26386   2.359   1.751   0.158 -0.9606 -0.0464 -0.2178
 4917SOL    HW126387   2.336   1.745   0.065 -2.0748  0.8511  0.0085
 4917SOL    HW226388   2.359   1.658   0.184 -2.9089 -0.3932 -1.4361
 4918SOL     OW26389   2.116   4.557   5.470  0.7980 -0.6230 -0.4651
 4918SOL    HW126390   2.060   4.634   5.482  3.3529  1.1998 -0.2970
 4918SOL    HW226391   2.073   4.504   5.537  1.5049  1.1858  1.4290
 4919SOL     OW26392   2.564   3.131  12.930  0.4426  0.0184  0.4952
 4919SOL    HW126393   2.485   3.143  12.984  0.5775  0.0532  0.6827
 4919SOL    HW226394   2.612   3.057  12.967  0.2000 -0.1051  0.5701
 4920SOL     OW26395   2.197   2.136   6.880 -0.1783  0.0450 -0.4411
 4920SOL    HW126396   2.111   2.174   6.865 -0.7581 -1.9072 -2.0795
 4920SOL    HW226397   2.178   2.049   6.915  3.4394  0.1505  1.8649
 4921SOL     OW26398   3.199   3.671   7.573  0.2572 -0.2007 -0.2665
 4921SOL    HW126399   3.266   3.654   7.639  1.1757  2.3633 -0.5277
 4921SOL    HW226400   3.188   3.766   7.572 -0.2300 -0.2611 -0.9109
 4922SOL     OW26401   1.952   0.537   4.922 -0.0162 -0.1475  0.0772
 4922SOL    HW126402   1.886   0.605   4.940 -0.7752 -0.0970 -2.8015
 4922SOL    HW226403   1.953   0.534   4.826  2.3539  1.0951  0.0599
 4923SOL     OW26404   3.911   1.186  15.557  0.7409 -0.2969 -0.1097
 4923SOL    HW126405   3.873   1.110  15.600 -2.8063  0.6965 -1.5285
 4923SOL    HW226406   4.005   1.173  15.569  0.0008 -1.0571  4.9895
 4924SOL     OW26407   2.038   0.456   3.393 -0.0006 -0.7900 -0.8148
 4924SOL    HW126408   1.962   0.408   3.428  0.2903 -0.4717  0.2520
 4924SOL    HW226409   2.021   0.450   3.299  0.8409  0.7535 -1.0592
 4925SOL     OW26410   0.826   2.940  11.273 -0.3125 -0.5827 -0.1488
 4925SOL    HW126411   0.832   3.034  11.259  1.2862 -1.3193 -4.3563
 4925SOL    HW226412   0.917   2.913  11.263 -1.1229 -2.7840 -1.5697
 4926SOL     OW26413   1.845   1.443  12.802 -0.1115  0.3183 -0.0311
 4926SOL    HW126414   1.758   1.474  12.776 -1.4920 -1.4839  2.4625
 4926SOL    HW226415   1.829   1.350  12.789  0.4701  0.1009  0.7838
 4927SOL     OW26416   2.999   0.073   5.396  0.2268 -0.3389 -0.0176
 4927SOL    HW126417   3.075   0.019   5.374  1.8428  1.1815  1.8261
 4927SOL    HW226418   2.954   4.732   5.430  0.0117 -0.0295  0.3944
 4928SOL     OW26419   3.999   3.690   6.346  0.4339  0.4682 -0.4338
 4928SOL    HW126420   3.910   3.655   6.342  0.1008  1.2441  0.1650
 4928SOL    HW226421   3.999   3.757   6.278 -0.1820 -1.0873 -1.9516
 4929SOL     OW26422   3.510   0.729   1.054 -0.0422 -0.1481  0.3097
 4929SOL    HW126423   3.567   0.805   1.048 -0.4230  0.2245  1.3894
 4929SOL    HW226424   3.471   0.707   0.969  0.6416 -2.1880  0.5121
 4930SOL     OW26425   1.143   3.720   8.588  0.1903 -0.1313 -1.0187
 4930SOL    HW126426   1.096   3.713   8.504 -0.1813  0.8426 -0.9015
 4930SOL    HW226427   1.118   3.636   8.625 -0.6655 -0.6952 -2.8674
 4931SOL     OW26428   0.192   4.347  13.766 -0.1320  0.2446  0.1271
 4931SOL    HW126429   0.109   4.380  13.800  0.3068  2.3249 -0.7818
 4931SOL    HW226430   0.187   4.253  13.752 -1.6440  0.1534  1.2726
 4932SOL     OW26431   2.633   0.519   9.032 -0.3473  0.0009 -0.3523
 4932SOL    HW126432   2.658   0.611   9.015 -1.4254  0.6130  1.4180
 4932SOL    HW226433   2.665   0.509   9.121 -1.0189 -1.3754 -0.2830
 4933SOL     OW26434   0.905   4.486  15.842 -0.0287 -0.3425 -0.0781
 4933SOL    HW126435   0.929   4.576  15.822  0.5034 -0.5735 -0.4847
 4933SOL    HW226436   0.983   4.436  15.816  0.9711  1.0102  0.3621
 4934SOL     OW26437   0.792   1.438   0.305 -0.1965 -0.1881  0.3705
 4934SOL    HW126438   0.728   1.420   0.374 -2.7995 -0.5591 -2.1312
 4934SOL    HW226439   0.863   1.478   0.354 -1.1537  0.2703  1.3948
 4935SOL     OW26440   0.748   1.864   2.255  0.1997  0.7892 -0.0169
 4935SOL    HW126441   0.763   1.910   2.173 -0.2222 -0.0722 -0.5794
 4935SOL    HW226442   0.787   1.915   2.325  0.7838 -0.3196  0.4645
 4936SOL     OW26443   3.650   3.739   2.213  0.8216  0.3350  0.6852
 4936SOL    HW126444   3.576   3.684   2.238  0.5806  1.1085  1.6316
 4936SOL    HW226445   3.599   3.810   2.175  0.9143  0.4634  0.8004
 4937SOL     OW26446   1.585   1.103  17.606  0.6697  0.3699  0.3526
 4937SOL    HW126447   1.550   1.151  17.531 -0.4059  2.6413  2.2968
 4937SOL    HW226448   1.524   1.128  17.676 -0.4588  0.2940 -0.5996
 4938SOL     OW26449   2.316   2.703   6.357  0.4867  0.4323  0.0525
 4938SOL    HW126450   2.323   2.712   6.262 -0.2462  1.1093  0.0677
 4938SOL    HW226451   2.286   2.790   6.383  0.3338  1.2954 -3.0929
 4939SOL     OW26452   2.894   0.097   3.110  1.0895 -0.5243 -0.1956
 4939SOL    HW126453   2.845   0.094   3.028  0.3964  3.6833  0.0736
 4939SOL    HW226454   2.941   0.178   3.091  0.5998  0.3703  2.3442
 4940SOL     OW26455   3.193   4.443   2.061  0.2892  0.0092 -0.0754
 4940SOL    HW126456   3.254   4.384   2.016 -0.2141 -2.6123  2.6724
 4940SOL    HW226457   3.120   4.423   2.003  0.5533 -1.8887  0.2461
 4941SOL     OW26458   0.132   1.108  15.187 -0.6964 -0.1064  0.1678
 4941SOL    HW126459   0.157   1.199  15.201  0.6800 -0.6234  1.1005
 4941SOL    HW226460   0.114   1.082  15.278 -0.5550 -1.4932 -0.1961
 4942SOL     OW26461   0.433   2.910   2.440 -0.4780 -0.1768 -0.6247
 4942SOL    HW126462   0.433   2.963   2.520 -1.4267 -0.4342 -0.4500
 4942SOL    HW226463   0.348   2.931   2.400  0.9644  3.3152 -1.8824
 4943SOL     OW26464   3.890   1.436   6.569 -0.0810 -0.3793  0.1245
 4943SOL    HW126465   3.864   1.461   6.658  0.5851 -0.9580  0.4837
 4943SOL    HW226466   3.970   1.389   6.594 -0.9175 -0.5537  2.4345
 4944SOL     OW26467   4.442   0.973   8.077  0.5406 -0.4825  0.0473
 4944SOL    HW126468   4.500   0.964   8.153  1.7656  1.7215 -0.6219
 4944SOL    HW226469   4.498   0.995   8.002 -3.0712  1.9870 -1.9321
 4945SOL     OW26470   2.057   4.172   6.047  0.1079  0.3248  0.6207
 4945SOL    HW126471   2.036   4.263   6.026 -0.9579 -0.2034 -0.6046
 4945SOL    HW226472   2.013   4.124   5.978  0.5538  1.0616 -0.1745
 4946SOL     OW26473   0.968   1.358   1.390  0.6014 -0.0537  0.0673
 4946SOL    HW126474   1.005   1.311   1.316 -1.4763 -0.7015 -0.5677
 4946SOL    HW226475   1.049   1.403   1.416 -1.2445  3.4835 -0.2063
 4947SOL     OW26476   3.557   0.675   3.604 -0.3912  0.0623 -0.5394
 4947SOL    HW126477   3.544   0.581   3.615 -3.0186  0.9120  3.4476
 4947SOL    HW226478   3.638   0.663   3.555  0.3034  0.0603  0.6117
 4948SOL     OW26479   4.677   3.830   0.406 -0.6961 -0.2588  0.1121
 4948SOL    HW126480   4.675   3.801   0.497  0.6646 -0.7687 -0.0244
 4948SOL    HW226481   0.027   3.798   0.379 -1.6649 -1.9860 -0.8702
 4949SOL     OW26482   4.527   3.462   0.482 -0.0829 -0.3817  0.0904
 4949SOL    HW126483   4.558   3.551   0.495 -1.2827  0.2111 -1.0726
 4949SOL    HW226484   4.491   3.452   0.571  1.2409  0.2149  0.6817
 4950SOL     OW26485   0.607   0.638   4.093  0.5505  0.3515 -0.0637
 4950SOL    HW126486   0.678   0.688   4.133  0.1025 -0.4873  1.8251
 4950SOL    HW226487   0.533   0.673   4.143  0.1923 -0.0304 -0.3286
 4951SOL     OW26488   4.450   3.216   7.770  0.0927 -0.3910  1.0335
 4951SOL    HW126489   4.369   3.243   7.813 -0.5824 -0.3736 -0.2337
 4951SOL    HW226490   4.517   3.221   7.838  1.2148  1.5852 -0.2185
 4952SOL     OW26491   2.820   3.233  10.392 -0.0564  0.2811 -0.1916
 4952SOL    HW126492   2.749   3.290  10.364 -0.5703 -0.7416 -0.9793
 4952SOL    HW226493   2.890   3.298  10.397  0.7777 -0.4717 -2.1915
 4953SOL     OW26494   3.223   1.109   5.898  0.5856  0.4924  0.2130
 4953SOL    HW126495   3.178   1.155   5.827 -2.1420 -0.5672  1.2205
 4953SOL    HW226496   3.258   1.032   5.854  0.3194  0.1073  0.6751
 4954SOL     OW26497   1.619   0.583  15.012 -0.2133  0.2365  0.0804
 4954SOL    HW126498   1.685   0.584  15.081  0.2018 -1.6709 -0.2933
 4954SOL    HW226499   1.552   0.532  15.058 -0.5792  0.3197 -0.3620
 4955SOL     OW26500   3.805   0.330   3.136 -0.6492 -0.3394  0.1778
 4955SOL    HW126501   3.790   0.407   3.081  0.8480 -0.9988 -1.1573
 4955SOL    HW226502   3.897   0.325   3.111 -1.0683 -2.7033 -0.8205
 4956SOL     OW26503   2.693   4.031  16.511 -0.1805 -0.9342  0.7093
 4956SOL    HW126504   2.763   4.084  16.472  0.1538 -0.5068  1.9044
 4956SOL    HW226505   2.631   4.022  16.438  1.1300 -0.6999 -0.4519
 4957SOL     OW26506   0.446   2.777  14.886 -0.1774 -0.8362 -0.4220
 4957SOL    HW126507   0.529   2.756  14.930 -0.5726 -1.6245 -0.0447
 4957SOL    HW226508   0.422   2.855  14.935 -0.4639 -0.9072 -0.4485
 4958SOL     OW26509   4.076   2.784   2.046 -0.1324  0.6703 -0.1054
 4958SOL    HW126510   4.009   2.724   2.078 -0.9744  0.1650 -2.7912
 4958SOL    HW226511   4.153   2.743   2.086 -0.6240  0.2033  0.3533
 4959SOL     OW26512   1.646   1.028   3.823  0.3921  0.0331  0.7069
 4959SOL    HW126513   1.708   0.965   3.787 -0.0125  1.0839 -1.8156
 4959SOL    HW226514   1.697   1.056   3.900 -0.9929  0.7661  1.3660
 4960SOL     OW26515   1.514   1.800   8.935 -0.0457  0.5415 -0.3035
 4960SOL    HW126516   1.456   1.835   8.868 -0.6156  0.5365  0.1843
 4960SOL    HW226517   1.605   1.826   8.921  0.4083 -0.1244  1.3605
 4961SOL     OW26518   3.739   0.316   8.700 -1.1294 -0.1034 -0.2478
 4961SOL    HW126519   3.785   0.373   8.762  1.0933 -1.5735 -0.5603
 4961SOL    HW226520   3.744   0.358   8.614 -0.2910  0.1666 -0.0680
 4962SOL     OW26521   1.793   1.360   1.495 -0.4707  0.3211  0.1719
 4962SOL    HW126522   1.726   1.416   1.535 -0.5929  1.7993 -2.0804
 4962SOL    HW226523   1.852   1.425   1.455 -1.3809  1.2898  0.4046
 4963SOL     OW26524   2.215   3.950   7.127  0.2289  0.3415 -0.1031
 4963SOL    HW126525   2.167   3.867   7.131  0.3687  0.1870 -1.4163
 4963SOL    HW226526   2.218   3.976   7.219 -0.0626 -1.1809  0.3335
 4964SOL     OW26527   3.884   2.085   7.877 -0.6795 -0.1728  0.1366
 4964SOL    HW126528   3.884   2.171   7.918 -0.9241 -0.2108  0.2129
 4964SOL    HW226529   3.870   2.117   7.789  0.2468  1.2180  0.5008
 4965SOL     OW26530   0.789   2.254   0.523 -0.2973  0.1113  0.2456
 4965SOL    HW126531   0.767   2.246   0.615 -2.5454  1.1011 -0.2171
 4965SOL    HW226532   0.761   2.340   0.493 -1.9486 -0.0012  1.4477
 4966SOL     OW26533   3.133   1.515  11.033  0.3441 -0.1795 -0.2178
 4966SOL    HW126534   3.187   1.494  11.109 -0.0237  0.2960  0.1702
 4966SOL    HW226535   3.167   1.601  11.008  0.5335 -0.1510  0.1324
 4967SOL     OW26536   1.967   0.577   2.458 -0.3918 -0.1244 -0.0544
 4967SOL    HW126537   1.903   0.642   2.489 -0.7145 -1.2189  1.5671
 4967SOL    HW226538   1.991   0.535   2.541  0.2049 -0.6752 -0.5172
 4968SOL     OW26539   0.137   3.638   5.307  0.1503 -0.0594 -0.1720
 4968SOL    HW126540   0.116   3.732   5.303 -0.1999 -0.1673 -0.8559
 4968SOL    HW226541   0.114   3.617   5.398  0.7797  1.1849  0.2696
 4969SOL     OW26542   3.378   0.956   6.999  0.5284  0.1115 -0.2174
 4969SOL    HW126543   3.408   0.907   6.922 -0.3439 -1.8724  0.6924
 4969SOL    HW226544   3.449   0.940   7.062  0.8372  2.5175  0.0408
 4970SOL     OW26545   2.901   3.691   9.561  0.2005  0.1684  0.1925
 4970SOL    HW126546   2.879   3.681   9.654 -2.0020 -0.3395 -0.3978
 4970SOL    HW226547   2.906   3.601   9.529  0.6180  0.4082 -0.4171
 4971SOL     OW26548   2.071   2.951  13.737  0.2309 -0.0996  0.1725
 4971SOL    HW126549   2.079   2.876  13.797 -1.5633 -0.0162  0.5043
 4971SOL    HW226550   2.113   3.013  13.797  0.4388 -0.7192  0.6746
 4972SOL     OW26551   4.617   4.134  13.533  0.1436  0.0660  0.2153
 4972SOL    HW126552   4.567   4.215  13.531  2.2840  1.3996  0.0467
 4972SOL    HW226553   4.593   4.096  13.448  0.4694  0.0998  0.1053
 4973SOL     OW26554   2.268   3.512   2.191 -0.3758  0.4626 -0.2185
 4973SOL    HW126555   2.235   3.507   2.281 -1.6822  1.1873 -0.6476
 4973SOL    HW226556   2.308   3.599   2.194 -2.9449  1.6448 -0.0449
 4974SOL     OW26557   1.324   0.522   9.817  0.0269 -0.5771 -0.4015
 4974SOL    HW126558   1.297   0.462   9.886  0.1082  0.2403  0.3509
 4974SOL    HW226559   1.243   0.571   9.805  0.5141  0.4911  0.6350
 4975SOL     OW26560   2.877   3.938   7.382 -0.2160  0.4891 -0.1364
 4975SOL    HW126561   2.788   3.974   7.385 -0.4307 -0.1366  1.2123
 4975SOL    HW226562   2.861   3.854   7.340  1.2399  0.3306 -0.3477
 4976SOL     OW26563   4.010   2.631   9.214  0.1100  0.7085 -0.4006
 4976SOL    HW126564   4.019   2.665   9.303 -0.0016 -1.0115  0.2792
 4976SOL    HW226565   4.058   2.549   9.227 -0.3278  0.5966  0.4762
 4977SOL     OW26566   0.073   4.592   1.580 -0.4126 -0.0604  0.0448
 4977SOL    HW126567   0.088   4.613   1.673 -1.7086  1.9500 -0.2031
 4977SOL    HW226568   0.029   4.672   1.551  1.7911  1.0858 -0.1846
 4978SOL     OW26569   0.546   3.035   7.314 -0.2312 -0.0627  0.3018
 4978SOL    HW126570   0.453   3.050   7.329  0.0812  3.1942 -0.9272
 4978SOL    HW226571   0.566   3.098   7.245  1.4434 -1.2674 -0.3182
 4979SOL     OW26572   4.012   2.696   0.699  0.2789  0.2388 -0.0045
 4979SOL    HW126573   4.058   2.700   0.615  1.4489  0.5445  0.6449
 4979SOL    HW226574   3.978   2.608   0.712  1.8139 -0.3906 -0.3433
 4980SOL     OW26575   0.727   0.114   7.418  0.2507 -0.5964 -0.6121
 4980SOL    HW126576   0.738   0.168   7.339  1.4011 -0.1922 -0.1745
 4980SOL    HW226577   0.632   0.114   7.418  0.2535 -1.2632 -1.8035
 4981SOL     OW26578   3.421   4.016   2.178  0.1026  0.8499 -0.1824
 4981SOL    HW126579   3.361   3.988   2.109  0.1019 -3.4977  1.6174
 4981SOL    HW226580   3.378   4.096   2.209  0.5742  1.1069 -0.1956
 4982SOL     OW26581   3.913   1.372   6.979  0.0809 -0.4152 -0.5690
 4982SOL    HW126582   3.943   1.299   6.925 -1.6136 -1.0869 -0.5961
 4982SOL    HW226583   3.958   1.337   7.056 -1.1925  0.7055  0.6909
 4983SOL     OW26584   2.815   4.212  11.403  0.2012 -0.4563  0.1995
 4983SOL    HW126585   2.865   4.144  11.358  1.3504  1.0329 -0.7798
 4983SOL    HW226586   2.748   4.219  11.335 -0.8373  1.2162  1.4052
 4984SOL     OW26587   0.776   3.227   3.505  0.2169 -0.1116 -0.0560
 4984SOL    HW126588   0.748   3.248   3.594 -1.3432 -1.2108 -0.2932
 4984SOL    HW226589   0.829   3.150   3.523  1.9723  0.5857 -2.3367
 4985SOL     OW26590   1.259   3.881   2.861 -0.0050  0.8356  0.7074
 4985SOL    HW126591   1.288   3.967   2.831 -1.1566  0.9951  0.0393
 4985SOL    HW226592   1.341   3.838   2.885 -1.4638 -2.3990 -0.0906
 4986SOL     OW26593   2.207   0.366   2.482 -0.2550 -0.2256 -0.8827
 4986SOL    HW126594   2.178   0.310   2.410 -1.5150  0.1086 -0.6192
 4986SOL    HW226595   2.136   0.386   2.542  0.7702  0.6828  0.0289
 4987SOL     OW26596   1.097   1.184  14.405 -0.0035  0.1703 -0.6593
 4987SOL    HW126597   1.133   1.189  14.317  1.5698 -0.8189 -0.0527
 4987SOL    HW226598   1.003   1.194  14.388  0.2148  1.8769 -0.9009
 4988SOL     OW26599   0.730   4.323   7.224  0.5760  0.5990  0.0277
 4988SOL    HW126600   0.794   4.351   7.158 -1.8051 -0.1994 -2.6129
 4988SOL    HW226601   0.647   4.342   7.180  0.0759  0.7799  1.0362
 4989SOL     OW26602   1.270   3.934  13.575 -0.2147 -0.6956 -0.3189
 4989SOL    HW126603   1.186   3.891  13.558 -0.2160 -0.7303 -0.2214
 4989SOL    HW226604   1.337   3.889  13.523 -1.4105 -1.2026 -1.4066
 4990SOL     OW26605   0.617   0.028   2.622 -0.3248  0.5608 -0.3882
 4990SOL    HW126606   0.645   0.112   2.658  0.8033  1.0150 -2.3261
 4990SOL    HW226607   0.524   0.022   2.647  0.8504 -4.0547  2.9384
 4991SOL     OW26608   3.913   3.258   5.585 -0.3311  0.1451 -0.3225
 4991SOL    HW126609   3.940   3.227   5.499 -1.5616 -2.1995  0.1318
 4991SOL    HW226610   3.971   3.333   5.601  0.3499 -0.3498 -0.4840
 4992SOL     OW26611   2.925   2.010  12.375 -0.1315  0.0262 -0.5303
 4992SOL    HW126612   3.019   2.018  12.386  0.1800 -1.5910 -2.0120
 4992SOL    HW226613   2.898   1.964  12.455  0.9751 -0.0021 -0.1776
 4993SOL     OW26614   0.429   4.002   1.596  0.5707 -0.1739 -0.1769
 4993SOL    HW126615   0.507   4.039   1.637 -0.2774 -0.0015  1.2734
 4993SOL    HW226616   0.478   3.946   1.535  1.3522  0.5794 -0.2364
 4994SOL     OW26617   1.759   2.913   2.290  0.1135  0.2669 -0.9293
 4994SOL    HW126618   1.846   2.941   2.259  1.3641 -0.7040  1.7108
 4994SOL    HW226619   1.711   2.993   2.270 -1.6051  0.1546  2.9025
 4995SOL     OW26620   1.193   3.022   2.524 -0.7861 -0.1464  0.1016
 4995SOL    HW126621   1.184   3.114   2.547  0.9995 -0.2610  1.2409
 4995SOL    HW226622   1.246   2.990   2.598 -3.2495 -2.3524  0.9293
 4996SOL     OW26623   0.249   4.404   8.466  0.0331  0.1898  0.3157
 4996SOL    HW126624   0.180   4.395   8.400  1.4550 -0.1236 -1.1331
 4996SOL    HW226625   0.306   4.468   8.423  0.1044 -0.2767 -0.2817
 4997SOL     OW26626   3.391   1.042   9.363 -0.2674  0.4013  0.0023
 4997SOL    HW126627   3.367   1.123   9.409  2.9497  0.8207  0.9330
 4997SOL    HW226628   3.329   1.048   9.290 -0.5949 -0.5258  0.2087
 4998SOL     OW26629   2.351   0.455   8.196 -0.4728  0.3881 -0.1177
 4998SOL    HW126630   2.287   0.396   8.237 -1.9528  1.7622 -0.4580
 4998SOL    HW226631   2.378   0.514   8.265 -0.3163  0.9950 -0.6951
 4999SOL     OW26632   0.704   4.309   8.823  0.0689 -0.2412 -0.0380
 4999SOL    HW126633   0.660   4.267   8.897 -1.3526  0.6111 -0.4049
 4999SOL    HW226634   0.672   4.261   8.746 -0.1636  1.2801 -0.8998
 5000SOL     OW26635   3.206   4.653   9.563 -0.7246  0.8298  0.0047
 5000SOL    HW126636   3.261   4.600   9.506 -1.0373 -1.2251  1.5982
 5000SOL    HW226637   3.220   4.604   9.644 -0.1576  1.9120  0.5543
 5001SOL     OW26638   0.657   3.889   7.815  0.2129  0.5323 -0.4019
 5001SOL    HW126639   0.722   3.819   7.820  1.5195  1.7996  0.4075
 5001SOL    HW226640   0.687   3.930   7.734 -0.4316  2.3365  0.2630
 5002SOL     OW26641   3.342   1.334  14.915 -0.0772 -0.1306  0.7985
 5002SOL    HW126642   3.382   1.381  14.988  0.5843  0.0862  0.2982
 5002SOL    HW226643   3.337   1.405  14.850 -0.4362 -0.6453  0.2690
 5003SOL     OW26644   1.120   4.508   9.535  0.3605 -0.5177  0.1295
 5003SOL    HW126645   1.048   4.541   9.589 -0.4851 -3.0105  0.5219
 5003SOL    HW226646   1.118   4.413   9.545 -1.4812 -0.3630  1.1667
 5004SOL     OW26647   2.651   2.731   9.133 -0.0320  0.0469  1.0009
 5004SOL    HW126648   2.591   2.698   9.200 -2.2505 -1.6372 -1.8356
 5004SOL    HW226649   2.632   2.825   9.128  1.1462  0.1697 -0.8472
 5005SOL     OW26650   3.209   3.190  14.002 -0.2425  0.7082  0.2845
 5005SOL    HW126651   3.164   3.274  13.999  0.0525  0.9558  2.9803
 5005SOL    HW226652   3.153   3.145  13.938 -0.9798 -0.9168  2.0619
 5006SOL     OW26653   1.595   1.248  10.983  0.4540  0.5588 -0.4047
 5006SOL    HW126654   1.647   1.187  11.035  0.4710 -0.3259 -1.4688
 5006SOL    HW226655   1.584   1.330  11.031 -0.8556 -0.0581  0.3541
 5007SOL     OW26656   3.317   0.735   6.537 -0.1566  0.7411  0.0310
 5007SOL    HW126657   3.223   0.752   6.542 -0.2544  0.1372  0.1355
 5007SOL    HW226658   3.313   0.646   6.503  1.2208  0.8332 -0.3851
 5008SOL     OW26659   3.221   1.298   3.179 -0.4063  0.4441  0.6200
 5008SOL    HW126660   3.169   1.289   3.260  0.5045  2.3081  1.4211
 5008SOL    HW226661   3.202   1.390   3.159  1.5047  0.7510  0.2858
 5009SOL     OW26662   0.439   0.746   8.852 -0.3421 -0.0193  0.5178
 5009SOL    HW126663   0.362   0.762   8.797 -0.5644  0.9186  1.1216
 5009SOL    HW226664   0.471   0.836   8.859  0.5826 -0.4049  1.1502
 5010SOL     OW26665   2.537   3.625   9.407 -0.7315  0.1274 -0.2188
 5010SOL    HW126666   2.531   3.529   9.413  2.7785 -0.1930 -2.2612
 5010SOL    HW226667   2.610   3.650   9.463 -1.2730  1.1738  0.0211
 5011SOL     OW26668   3.796   4.534  17.434 -1.0187  0.1567 -0.0309
 5011SOL    HW126669   3.858   4.472  17.396 -1.9210 -0.3251 -0.7193
 5011SOL    HW226670   3.854   4.602  17.469 -0.4597  0.1099 -0.8591
 5012SOL     OW26671   4.288   1.012  16.154  0.1519 -0.0044  0.3812
 5012SOL    HW126672   4.347   0.961  16.210  0.9148  0.4600 -0.0036
 5012SOL    HW226673   4.325   1.097  16.178 -1.7379  1.5041 -1.9981
 5013SOL     OW26674   3.870   3.299   7.769 -0.3742 -0.0199  0.4965
 5013SOL    HW126675   3.855   3.390   7.743 -2.1435 -0.7207 -0.9065
 5013SOL    HW226676   3.954   3.284   7.725 -1.4779 -2.2604 -0.8347
 5014SOL     OW26677   4.198   4.430  12.145  0.4661  0.0444  0.3934
 5014SOL    HW126678   4.133   4.415  12.077  1.2297  2.4985 -0.8427
 5014SOL    HW226679   4.148   4.484  12.207  0.3441  0.1888  0.1698
 5015SOL     OW26680   2.253   0.465   9.301  0.2480 -0.0028 -0.1428
 5015SOL    HW126681   2.186   0.402   9.278 -0.3120  0.7684 -0.6300
 5015SOL    HW226682   2.254   0.508   9.215 -0.4679  1.6148  0.6589
 5016SOL     OW26683   3.605   2.138   3.087  0.1423  0.3795 -0.1026
 5016SOL    HW126684   3.683   2.120   3.140  0.5917 -0.5217 -1.0846
 5016SOL    HW226685   3.530   2.098   3.131  0.1543  1.7021  1.1166
 5017SOL     OW26686   2.038   3.827   7.938  0.1981  0.3678  0.2176
 5017SOL    HW126687   2.026   3.891   7.867  0.4575  1.4633  1.1694
 5017SOL    HW226688   2.127   3.794   7.929 -0.7893 -2.1358 -0.2632
 5018SOL     OW26689   1.723   3.378   8.000  0.4315 -0.1094  0.2985
 5018SOL    HW126690   1.805   3.406   7.958  0.7897 -3.2754 -1.0901
 5018SOL    HW226691   1.664   3.449   7.974 -1.1339 -2.1927 -1.8652
 5019SOL     OW26692   0.142   3.697  11.049  0.3946  0.3245  0.0815
 5019SOL    HW126693   0.085   3.710  10.973  1.2969  2.4770 -0.2291
 5019SOL    HW226694   0.075   3.698  11.118 -0.2714  1.9687 -0.5923
 5020SOL     OW26695   1.300   0.383  16.388  0.0321  0.8223 -0.2569
 5020SOL    HW126696   1.224   0.346  16.344  0.2218 -2.0424  1.7739
 5020SOL    HW226697   1.374   0.328  16.363  0.4229  0.3773  1.8624
 5021SOL     OW26698   0.665   0.724   2.164 -0.2301 -0.7210 -0.0014
 5021SOL    HW126699   0.585   0.768   2.192 -0.0059  0.7876 -1.7401
 5021SOL    HW226700   0.681   0.659   2.233  0.5275 -0.2305  0.2908
 5022SOL     OW26701   3.123   1.873   8.656 -0.5030  0.0100 -0.2723
 5022SOL    HW126702   3.139   1.805   8.590  2.5299  1.3470 -0.9003
 5022SOL    HW226703   3.168   1.852   8.738  0.3570  0.7610 -0.5587
 5023SOL     OW26704   1.394   3.943   3.180 -0.0363  0.0992  0.6366
 5023SOL    HW126705   1.307   3.914   3.154 -0.8817  0.4569  3.0399
 5023SOL    HW226706   1.445   3.909   3.106  1.9961  0.6191  1.7791
 5024SOL     OW26707   2.006   3.777  14.229  0.0841 -0.5727  1.0138
 5024SOL    HW126708   2.088   3.742  14.264  1.2596  1.9507  0.7204
 5024SOL    HW226709   1.948   3.702  14.216  0.4825 -0.5630 -0.8042
 5025SOL     OW26710   0.035   3.336  17.116  0.4338 -0.2604 -0.1193
 5025SOL    HW126711   4.688   3.370  17.152  1.7812  4.3312 -1.3455
 5025SOL    HW226712   0.092   3.412  17.103  2.4297 -1.6103  0.8073
 5026SOL     OW26713   2.149   2.670  10.373 -0.4163 -0.2808  0.6386
 5026SOL    HW126714   2.144   2.724  10.452 -0.2028 -0.4975  0.8031
 5026SOL    HW226715   2.060   2.635  10.369 -1.2663  1.9381  0.4803
 5027SOL     OW26716   4.183   3.505   1.259 -0.6905  0.7966  0.6120
 5027SOL    HW126717   4.224   3.572   1.205 -0.0451 -1.0621 -1.1948
 5027SOL    HW226718   4.106   3.548   1.296 -3.0187 -0.9330 -2.2058
 5028SOL     OW26719   2.566   3.487   6.449 -0.1017 -0.3320 -0.2143
 5028SOL    HW126720   2.594   3.428   6.519 -0.3990 -2.0729 -1.5729
 5028SOL    HW226721   2.634   3.469   6.384 -0.0457 -2.2772  0.3987
 5029SOL     OW26722   4.410   0.556   6.067  0.8995  0.0208  0.3075
 5029SOL    HW126723   4.437   0.465   6.057  0.9198  0.0714 -0.1177
 5029SOL    HW226724   4.323   0.544   6.105  0.0395  0.3026 -1.5614
 5030SOL     OW26725   0.956   2.794   7.165  0.2395 -0.7118 -0.4503
 5030SOL    HW126726   0.882   2.767   7.110  0.7063 -0.0270 -1.4200
 5030SOL    HW226727   0.980   2.873   7.117  0.8152 -0.8407 -0.3694
 5031SOL     OW26728   1.860   2.073   8.555 -0.1523  0.1565  0.0893
 5031SOL    HW126729   1.775   2.111   8.533  0.5675  1.4877 -0.3621
 5031SOL    HW226730   1.918   2.112   8.490 -0.7864 -1.4183 -1.4219
 5032SOL     OW26731   2.265   4.488   5.921 -0.2603 -0.4624  0.0130
 5032SOL    HW126732   2.234   4.479   6.011 -2.1397  0.6498 -0.5213
 5032SOL    HW226733   2.327   4.415   5.911  0.4326 -0.1433  1.8489
 5033SOL     OW26734   1.274   1.207   7.112  0.1812 -0.4275  0.0941
 5033SOL    HW126735   1.205   1.178   7.053 -0.5949  0.1472  0.7240
 5033SOL    HW226736   1.354   1.157   7.094 -0.9397 -1.9326 -0.6293
 5034SOL     OW26737   0.364   1.492   4.135  0.2446  0.2638  0.3920
 5034SOL    HW126738   0.360   1.530   4.047 -0.3577 -2.2286 -0.6526
 5034SOL    HW226739   0.457   1.507   4.153 -0.0433 -0.7161  2.7494
 5035SOL     OW26740   3.145   4.372   4.966 -0.1436  0.5311 -0.4134
 5035SOL    HW126741   3.056   4.391   4.996 -0.6288 -1.6037 -0.4366
 5035SOL    HW226742   3.185   4.361   5.053 -0.5686  0.1133 -0.2685
 5036SOL     OW26743   1.352   1.726  14.133 -0.2198  0.6688  0.0458
 5036SOL    HW126744   1.434   1.686  14.161 -0.2080  0.2185 -0.6572
 5036SOL    HW226745   1.318   1.662  14.070 -0.6350 -0.3202  1.2667
 5037SOL     OW26746   1.323   4.254   8.115 -0.0105  0.0979 -0.6525
 5037SOL    HW126747   1.242   4.204   8.110 -0.5006  0.7973  0.2900
 5037SOL    HW226748   1.345   4.247   8.022 -0.2716 -1.9160 -0.5649
 5038SOL     OW26749   3.186   3.126  15.649 -0.0103 -0.3969  1.0330
 5038SOL    HW126750   3.232   3.174  15.579  1.9613 -1.8720  1.3143
 5038SOL    HW226751   3.124   3.188  15.687 -0.4250 -0.5119  0.5362
 5039SOL     OW26752   4.217   0.240  13.147  0.0386  0.3775  0.2465
 5039SOL    HW126753   4.290   0.266  13.203 -1.0604  0.4274  1.6532
 5039SOL    HW226754   4.198   0.316  13.091  0.8763  0.8352  0.5808
 5040SOL     OW26755   0.104   0.072  10.789 -0.0073 -0.9444  0.5459
 5040SOL    HW126756   0.034   0.007  10.789 -3.1847  2.4537  0.9293
 5040SOL    HW226757   0.166   0.036  10.852 -0.3035 -3.4985 -0.6001
 5041SOL     OW26758   1.514   3.832   2.946  0.3550 -0.1612  0.2003
 5041SOL    HW126759   1.587   3.889   2.921 -0.1321  0.0267 -0.7892
 5041SOL    HW226760   1.563   3.755   2.974 -0.7181  0.0966  2.8048
 5042SOL     OW26761   0.739   2.635   7.048 -0.6116  0.4340 -0.5115
 5042SOL    HW126762   0.713   2.694   6.977 -0.2398 -0.4003 -1.3364
 5042SOL    HW226763   0.673   2.669   7.108  0.0045 -1.0026  0.9680
 5043SOL     OW26764   2.022   0.211  10.076 -0.2122  0.2403 -0.3390
 5043SOL    HW126765   1.985   0.287  10.121 -1.9580 -0.2002 -1.0380
 5043SOL    HW226766   1.984   0.146  10.134 -0.5772 -0.4665 -1.3607
 5044SOL     OW26767   1.098   4.587  15.265  0.2391  0.5395  0.2033
 5044SOL    HW126768   1.155   4.605  15.191  0.6199  1.3704  0.7011
 5044SOL    HW226769   1.090   4.677  15.296 -0.5279  0.5914 -0.1401
 5045SOL     OW26770   1.700   4.667   7.383 -0.3350  0.1287  0.5580
 5045SOL    HW126771   1.792   4.642   7.386 -0.2830  0.6447  3.2716
 5045SOL    HW226772   1.662   4.628   7.462 -0.5914 -1.9211 -0.5721
 5046SOL     OW26773   2.877   0.770  14.504  0.1440 -0.0844 -0.2544
 5046SOL    HW126774   2.848   0.690  14.460  1.6300 -0.7653  0.0258
 5046SOL    HW226775   2.845   0.836  14.443  1.4315  1.1944  0.4469
 5047SOL     OW26776   0.998   4.263   6.304 -0.4251 -0.1983 -0.0775
 5047SOL    HW126777   1.036   4.342   6.265 -0.1432 -1.3464 -2.0713
 5047SOL    HW226778   0.945   4.308   6.370  0.9398  0.3649  0.6449
 5048SOL     OW26779   4.244   3.749   1.097  0.1630 -0.1795  0.2819
 5048SOL    HW126780   4.305   3.821   1.081  0.3021 -0.4756 -0.5064
 5048SOL    HW226781   4.175   3.795   1.145  1.6933  0.6191  1.7400
 5049SOL     OW26782   3.537   2.217   5.133  0.4381 -0.4139  0.2145
 5049SOL    HW126783   3.612   2.254   5.086  0.6663 -3.2042 -1.6069
 5049SOL    HW226784   3.582   2.213   5.217  1.8963 -3.1149 -0.6776
 5050SOL     OW26785   0.150   3.907   2.876 -0.9209 -0.3186 -0.0929
 5050SOL    HW126786   0.148   3.838   2.810 -0.8978  0.1106 -0.5444
 5050SOL    HW226787   0.168   3.982   2.820 -0.3399  0.0092  0.5249
 5051SOL     OW26788   3.330   3.022   7.508  0.3778  0.3099  0.2686
 5051SOL    HW126789   3.317   2.929   7.527  1.2601 -0.0882 -1.0606
 5051SOL    HW226790   3.353   3.069   7.588 -0.1997  2.0518 -0.5806
 5052SOL     OW26791   1.830   1.307   6.011 -0.0120  0.5769 -0.5608
 5052SOL    HW126792   1.923   1.312   6.034 -0.1270  1.5202 -0.2693
 5052SOL    HW226793   1.841   1.299   5.916  1.7690 -0.0670 -0.2991
 5053SOL     OW26794   1.408   2.066   3.720  0.5972 -0.2670 -0.8776
 5053SOL    HW126795   1.382   2.148   3.680 -0.6488 -0.0621  0.3499
 5053SOL    HW226796   1.327   2.014   3.725  0.9790 -1.1354 -3.8057
 5054SOL     OW26797   1.833   3.672   6.998 -0.1815 -0.7145  0.1018
 5054SOL    HW126798   1.838   3.755   6.951  1.2632  0.6967  2.7457
 5054SOL    HW226799   1.757   3.691   7.052  0.3331 -1.3390  1.0294
 5055SOL     OW26800   0.130   3.110   9.285 -0.0190  0.5574  0.2483
 5055SOL    HW126801   0.208   3.061   9.312 -0.8464  0.4415  2.4734
 5055SOL    HW226802   0.103   3.083   9.198  1.9678  0.8992 -0.4550
 5056SOL     OW26803   0.195   2.311   5.776 -0.5291 -0.2922 -0.2987
 5056SOL    HW126804   0.209   2.383   5.715 -1.9672 -1.2232 -1.7198
 5056SOL    HW226805   0.277   2.264   5.758 -0.1050  0.7121 -1.0302
 5057SOL     OW26806   0.808   0.081  10.845 -0.3991  0.0328 -0.1841
 5057SOL    HW126807   0.795   0.134  10.767 -1.6591  1.5995  1.0990
 5057SOL    HW226808   0.764   0.123  10.919 -0.8171  1.2428 -1.1218
 5058SOL     OW26809   2.074   0.469   9.570  0.1718 -0.7710 -0.4823
 5058SOL    HW126810   2.138   0.451   9.501  1.6433  1.0052  0.4331
 5058SOL    HW226811   2.108   0.422   9.646  2.6069  2.8558  0.6619
 5059SOL     OW26812   1.028   1.743  15.149 -0.0986  0.3383 -0.1570
 5059SOL    HW126813   1.115   1.707  15.133 -0.7256 -1.7768  1.1202
 5059SOL    HW226814   1.017   1.717  15.241  1.3443  0.4976  0.0723
 5060SOL     OW26815   4.097   0.649  15.860  0.2260  0.1429  0.2366
 5060SOL    HW126816   4.156   0.576  15.878 -1.0782 -0.9749  0.0290
 5060SOL    HW226817   4.123   0.677  15.773  0.1601 -1.2339 -0.2249
 5061SOL     OW26818   2.508   3.776   7.651  0.1621 -0.4069 -0.1014
 5061SOL    HW126819   2.459   3.842   7.700 -0.8235  0.1758 -1.8758
 5061SOL    HW226820   2.547   3.826   7.579  1.8788 -1.4577  0.0798
 5062SOL     OW26821   3.275   3.249   4.306 -0.3868 -0.1447 -0.1266
 5062SOL    HW126822   3.212   3.308   4.348 -0.7080 -0.0300 -0.7763
 5062SOL    HW226823   3.322   3.215   4.382  1.2860  0.7931 -0.7495
 5063SOL     OW26824   2.954   0.942   2.550 -0.0838  0.3729 -0.3835
 5063SOL    HW126825   2.970   0.907   2.463  1.5224 -0.0068  0.0596
 5063SOL    HW226826   2.970   1.032   2.524 -0.0041  0.6275  0.5466
 5064SOL     OW26827   1.643   3.735   7.982 -1.0801 -0.6151 -0.1363
 5064SOL    HW126828   1.721   3.761   8.030  0.6968  1.7270 -4.3038
 5064SOL    HW226829   1.625   3.813   7.929 -1.5278  0.5591  1.7590
 5065SOL     OW26830   4.605   0.417   8.305  0.5691 -0.6478 -0.8633
 5065SOL    HW126831   4.559   0.500   8.310 -2.2800 -2.3342  1.4043
 5065SOL    HW226832   4.670   0.442   8.240  1.3555  0.6601  0.4424
 5066SOL     OW26833   3.601   1.218   6.803  0.4832  0.4706 -0.0146
 5066SOL    HW126834   3.613   1.178   6.717 -1.2196  0.8245 -0.4307
 5066SOL    HW226835   3.668   1.177   6.857  0.8068 -0.5976 -1.2118
 5067SOL     OW26836   2.628   1.465   5.202  0.3144 -0.1801  0.4356
 5067SOL    HW126837   2.648   1.400   5.269  1.4536  0.5135  0.7734
 5067SOL    HW226838   2.686   1.442   5.130  0.7810  1.6042  0.2352
 5068SOL     OW26839   2.428   0.852   5.821 -0.2240 -0.0922 -0.3541
 5068SOL    HW126840   2.391   0.908   5.889 -0.9634 -0.6377 -0.3137
 5068SOL    HW226841   2.359   0.841   5.755 -0.4330 -1.5745  0.1072
 5069SOL     OW26842   0.341   3.121   6.896  0.3247 -0.6173  0.0285
 5069SOL    HW126843   0.306   3.206   6.925  2.6746  0.4170 -0.2271
 5069SOL    HW226844   0.396   3.087   6.967 -0.9005 -0.6751  0.9579
 5070SOL     OW26845   3.003   1.205  11.331  0.4911 -0.3701  0.2166
 5070SOL    HW126846   2.940   1.250  11.386 -0.1003 -0.7824 -0.1252
 5070SOL    HW226847   3.085   1.242  11.363  0.4007  1.1521 -1.3282
 5071SOL     OW26848   1.408   4.062  16.475  0.1199  0.5809  0.2562
 5071SOL    HW126849   1.357   3.994  16.520 -0.0774  0.8286  0.4051
 5071SOL    HW226850   1.380   4.061  16.383 -1.1105  0.7683  0.6234
 5072SOL     OW26851   1.429   3.247  13.558  0.4578 -0.2765  0.5353
 5072SOL    HW126852   1.438   3.341  13.574  2.4725 -0.0993 -1.6311
 5072SOL    HW226853   1.338   3.240  13.530  1.0592  0.2507 -1.5514
 5073SOL     OW26854   3.945   3.071   7.585  0.1713  0.3841  0.0568
 5073SOL    HW126855   3.863   3.081   7.632  0.5018  0.9737  0.5074
 5073SOL    HW226856   4.007   3.070   7.658 -1.6558  0.0208  1.5778
 5074SOL     OW26857   4.687   2.605   8.326 -0.3333  0.3921  0.0826
 5074SOL    HW126858   4.718   2.654   8.250 -2.1229 -0.5670 -1.2671
 5074SOL    HW226859   0.018   2.537   8.331 -0.9934 -0.1716  1.2475
 5075SOL     OW26860   3.658   0.707   5.554 -0.1624 -0.3083 -0.0304
 5075SOL    HW126861   3.746   0.744   5.569 -0.6700  0.0144  2.1735
 5075SOL    HW226862   3.650   0.746   5.467  2.4531  1.4342  0.5014
 5076SOL     OW26863   3.900   2.650  17.023 -0.1012 -0.3465 -0.0566
 5076SOL    HW126864   3.826   2.641  17.083  0.3108 -0.2915  0.4606
 5076SOL    HW226865   3.966   2.691  17.079 -0.7602  0.8575 -0.1582
 5077SOL     OW26866   4.166   1.916   8.006  0.1473  0.0910 -0.1221
 5077SOL    HW126867   4.133   1.894   7.919  2.1031  3.3328 -1.6847
 5077SOL    HW226868   4.194   2.007   8.002  0.9474 -0.1619 -0.4229
 5078SOL     OW26869   2.970   0.227  10.178 -0.6170  0.1377  0.8831
 5078SOL    HW126870   2.977   0.171  10.256  0.5782  0.8415  1.2856
 5078SOL    HW226871   2.875   0.235  10.189 -0.9767 -0.6087 -1.6510
 5079SOL     OW26872   3.889   2.096   6.899  0.1911 -0.1005 -0.3743
 5079SOL    HW126873   3.983   2.081   6.891  0.0879 -0.7680 -0.3196
 5079SOL    HW226874   3.878   2.184   6.864 -0.0238 -0.0816 -0.2605
 5080SOL     OW26875   4.119   3.781   1.979 -0.4063 -0.4713 -0.4237
 5080SOL    HW126876   4.071   3.738   2.050  0.2421  0.0542  0.3349
 5080SOL    HW226877   4.192   3.792   2.040  0.0543  1.2625 -1.2759
 5081SOL     OW26878   2.194   0.118  11.686 -0.8839  0.1012  0.8391
 5081SOL    HW126879   2.152   0.175  11.621  0.2124 -1.5854 -1.3319
 5081SOL    HW226880   2.218   0.188  11.748  2.2227 -0.3030  0.0745
 5082SOL     OW26881   1.263   0.248  15.134 -0.3681 -0.0677  0.3351
 5082SOL    HW126882   1.286   0.333  15.172 -1.0315 -0.1799  0.9808
 5082SOL    HW226883   1.352   0.217  15.114  1.3532  4.0138  1.5374
 5083SOL     OW26884   1.594   3.982  12.591  0.1749  1.1688 -0.8354
 5083SOL    HW126885   1.582   4.037  12.514  0.4349  0.2122 -1.5626
 5083SOL    HW226886   1.519   4.011  12.642  1.4007  2.6061  0.1787
 5084SOL     OW26887   2.647   3.738   6.517  0.5563 -0.4045  0.7324
 5084SOL    HW126888   2.624   3.719   6.608  3.7292  1.0837  1.8898
 5084SOL    HW226889   2.631   3.652   6.479  0.1749 -0.0327  0.0509
 5085SOL     OW26890   4.320   1.305   9.478 -0.7579  0.0788 -0.0972
 5085SOL    HW126891   4.258   1.311   9.405 -1.1215  0.2784  0.2288
 5085SOL    HW226892   4.378   1.244   9.432 -0.4339 -1.4281  2.3191
 5086SOL     OW26893   0.371   3.638   6.337 -0.3004 -0.0158 -0.1411
 5086SOL    HW126894   0.324   3.694   6.399 -2.4877 -0.3216 -1.5163
 5086SOL    HW226895   0.461   3.652   6.368 -0.4368  0.0614  0.2265
 5087SOL     OW26896   4.141   2.285   7.402 -0.5931  0.0189 -0.2448
 5087SOL    HW126897   4.204   2.302   7.472  2.6052  0.3925 -3.2344
 5087SOL    HW226898   4.134   2.375   7.370 -0.5106 -0.3231 -1.2342
 5088SOL     OW26899   4.555   4.511  15.307 -0.2790  0.0640  0.3537
 5088SOL    HW126900   4.532   4.430  15.262 -0.1626 -0.0773  0.5485
 5088SOL    HW226901   4.484   4.525  15.369 -1.2541  0.9959 -0.9891
 5089SOL     OW26902   1.253   0.980   8.202  0.6121  0.0524  0.2733
 5089SOL    HW126903   1.170   0.989   8.249  2.6307  2.5842  3.3404
 5089SOL    HW226904   1.241   1.026   8.118 -1.1732 -1.4581 -0.2841
 5090SOL     OW26905   0.803   1.336   3.786 -0.6860 -0.1933 -0.0601
 5090SOL    HW126906   0.895   1.346   3.810 -0.4781 -0.4353 -0.7513
 5090SOL    HW226907   0.805   1.243   3.765  2.4531 -0.2134  0.4034
 5091SOL     OW26908   3.890   2.998   7.877 -0.4971  0.1511  0.5613
 5091SOL    HW126909   3.827   3.013   7.947 -2.2002  4.5044 -1.8705
 5091SOL    HW226910   3.834   2.932   7.836  1.6892 -0.1141 -2.0203
 5092SOL     OW26911   3.997   2.231   0.913  0.3809  0.5404  0.3771
 5092SOL    HW126912   3.973   2.307   0.860 -0.5548  0.4839  0.7085
 5092SOL    HW226913   3.955   2.247   0.998 -1.7394 -0.8503 -0.3957
 5093SOL     OW26914   3.427   1.730  11.687 -0.5944 -0.4962 -0.6885
 5093SOL    HW126915   3.512   1.743  11.729 -0.9202  1.7266 -0.6750
 5093SOL    HW226916   3.446   1.766  11.601  0.0591 -3.6153 -1.8406
 5094SOL     OW26917   3.725   3.556  10.088  0.0845  0.4196  0.1232
 5094SOL    HW126918   3.702   3.596  10.172  2.9524  2.5902 -0.1116
 5094SOL    HW226919   3.802   3.612  10.076 -0.1123  0.1376 -2.4840
 5095SOL     OW26920   3.537   3.298   2.061 -0.8256  0.1962 -0.0355
 5095SOL    HW126921   3.585   3.215   2.054  0.2005  0.7184  0.8593
 5095SOL    HW226922   3.450   3.266   2.037  0.0707 -3.9288  2.1578
 5096SOL     OW26923   0.055   4.093  11.657  0.2814 -0.6502 -0.1477
 5096SOL    HW126924   4.732   4.020  11.679  0.0182 -0.7957 -1.3435
 5096SOL    HW226925   0.087   4.053  11.576  2.0173 -0.3726  0.3939
 5097SOL     OW26926   0.561   0.427   3.908  0.3578 -0.2360  0.6043
 5097SOL    HW126927   0.572   0.495   3.975  2.6496  0.1140 -0.1301
 5097SOL    HW226928   0.477   0.453   3.870  1.2153  1.1219 -0.3840
 5098SOL     OW26929   1.316   0.435   6.981 -0.3351 -0.3257 -0.6368
 5098SOL    HW126930   1.300   0.363   7.042  0.8955  0.1540  0.2485
 5098SOL    HW226931   1.342   0.503   7.043 -2.3468 -0.9888  0.8940
 5099SOL     OW26932   2.223   3.388   8.069 -0.2491  0.2100 -0.1823
 5099SOL    HW126933   2.285   3.432   8.010 -0.9161 -0.5616 -1.4715
 5099SOL    HW226934   2.264   3.303   8.081 -0.2256  0.2937  0.3261
 5100SOL     OW26935   4.109   2.629   7.750  0.4047 -0.3680 -0.4216
 5100SOL    HW126936   4.037   2.652   7.809  0.2935 -1.4960 -0.1196
 5100SOL    HW226937   4.174   2.695   7.771  0.4883 -1.2042  1.9379
 5101SOL     OW26938   3.232   1.384   1.912  0.3220 -0.0032 -0.4543
 5101SOL    HW126939   3.286   1.383   1.991  1.2442 -1.5139 -1.1048
 5101SOL    HW226940   3.188   1.299   1.914 -0.3658  0.3951  1.4010
 5102SOL     OW26941   4.153   3.509   0.242  0.7027  0.2719  0.0272
 5102SOL    HW126942   4.243   3.477   0.238  0.2041 -1.0700 -0.7320
 5102SOL    HW226943   4.117   3.476   0.159 -1.7043 -0.3852  1.3098
 5103SOL     OW26944   2.243   4.385   1.798 -0.1515  0.2901  0.7114
 5103SOL    HW126945   2.257   4.394   1.703 -0.7659 -0.3186  0.5643
 5103SOL    HW226946   2.331   4.370   1.831 -0.8658 -0.7287  2.1424
 5104SOL     OW26947   2.734   4.130   5.357  0.3757  0.3472 -0.1909
 5104SOL    HW126948   2.779   4.151   5.439 -0.0120  1.8855 -0.3759
 5104SOL    HW226949   2.810   4.107   5.302  0.1725  1.7796 -1.0455
 5105SOL     OW26950   3.006   1.570   8.865 -0.7371 -0.3608 -0.2347
 5105SOL    HW126951   3.031   1.547   8.955 -1.9409 -0.7208  0.0102
 5105SOL    HW226952   3.087   1.547   8.819 -1.1162  0.1871 -1.1703
 5106SOL     OW26953   1.624   1.701   5.063 -0.3524 -0.4744 -0.1279
 5106SOL    HW126954   1.662   1.691   5.150 -1.0561 -2.4629 -0.0611
 5106SOL    HW226955   1.702   1.669   5.017  2.0913  1.0558  2.9519
 5107SOL     OW26956   3.385   1.483   5.084  0.4873  0.1092 -0.3576
 5107SOL    HW126957   3.344   1.550   5.139  0.5404  0.5949 -0.9102
 5107SOL    HW226958   3.367   1.407   5.139 -1.2300  0.9742  0.2641
 5108SOL     OW26959   2.390   3.733   4.507 -0.4166  0.0173  0.3227
 5108SOL    HW126960   2.346   3.754   4.590 -0.6750  0.0459  0.1798
 5108SOL    HW226961   2.320   3.697   4.453  1.1995 -1.9086 -0.4595
 5109SOL     OW26962   4.393   4.084   3.631 -0.5745 -0.0142 -0.5918
 5109SOL    HW126963   4.314   4.030   3.639 -0.6998 -0.1001 -2.2515
 5109SOL    HW226964   4.363   4.170   3.602  0.7622 -0.4491 -3.2864
 5110SOL     OW26965   1.695   4.559  15.390  0.3298 -0.7446  0.2910
 5110SOL    HW126966   1.602   4.581  15.379  0.5566  0.6053  1.0992
 5110SOL    HW226967   1.714   4.515  15.307 -2.0526 -0.0536 -0.6185
 5111SOL     OW26968   2.872   0.911   5.848 -0.6995  0.1422  0.1697
 5111SOL    HW126969   2.962   0.879   5.842 -1.1111 -0.8513 -0.7990
 5111SOL    HW226970   2.827   0.844   5.900 -0.5203 -0.2653 -0.1959
 5112SOL     OW26971   2.183   0.518   1.471 -0.1488 -0.6434  0.5159
 5112SOL    HW126972   2.237   0.440   1.461  1.2386  0.3138  0.4571
 5112SOL    HW226973   2.201   0.552   1.559  0.1171 -1.2292  0.6899
 5113SOL     OW26974   4.150   4.628   2.736 -0.1266  0.3649 -0.2446
 5113SOL    HW126975   4.186   4.697   2.681  1.1689  1.3541  1.8412
 5113SOL    HW226976   4.192   4.655   2.817 -1.0005 -1.3523  0.7813
 5114SOL     OW26977   4.081   1.250   8.782  0.0976 -0.1891 -0.8972
 5114SOL    HW126978   4.113   1.217   8.699  0.9873 -0.0791 -0.6020
 5114SOL    HW226979   4.032   1.171   8.805 -1.1664 -0.2045 -3.7358
 5115SOL     OW26980   0.376   0.137   8.578 -0.6452  0.2047  0.4867
 5115SOL    HW126981   0.306   0.199   8.559 -0.0778  1.2367  1.8150
 5115SOL    HW226982   0.321   0.070   8.619  0.7301 -0.1007  1.8326
 5116SOL     OW26983   4.587   0.713  15.288  0.1074  0.0829  0.0282
 5116SOL    HW126984   4.537   0.699  15.208  0.2905  2.7266 -0.5424
 5116SOL    HW226985   4.665   0.661  15.272 -1.5323 -3.4144  3.3323
 5117SOL     OW26986   0.432   1.331   9.502  0.8150 -0.1967 -0.0392
 5117SOL    HW126987   0.424   1.416   9.547  3.1847  0.9637 -1.8433
 5117SOL    HW226988   0.345   1.321   9.463  1.4102  0.4128 -1.5073
 5118SOL     OW26989   1.029   0.279   1.527 -0.2259 -0.2280 -0.2427
 5118SOL    HW126990   1.058   0.201   1.576 -0.9368 -0.3537 -0.0176
 5118SOL    HW226991   1.044   0.343   1.597  0.8822  1.2971 -1.9004
 5119SOL     OW26992   2.937   1.530   6.967  0.1004  0.3392  0.1472
 5119SOL    HW126993   2.972   1.580   7.040 -1.6587  0.6764  0.7503
 5119SOL    HW226994   2.847   1.561   6.957 -0.0963 -0.5591 -0.9714
 5120SOL     OW26995   3.170   1.093  16.443  0.0111 -0.0933  0.1797
 5120SOL    HW126996   3.255   1.078  16.485 -0.3863  0.5234  1.2171
 5120SOL    HW226997   3.183   1.085  16.349 -2.0083 -0.0272 -0.1128
 5121SOL     OW26998   0.064   0.265   9.711 -0.6440 -0.8140 -0.2164
 5121SOL    HW126999   0.124   0.289   9.781 -0.3265  2.2198 -1.5067
 5121SOL    HW227000   0.141   0.253   9.657 -1.2519  0.7800 -1.4395
 5122SOL     OW27001   2.981   1.834   3.811 -0.0754  0.6426 -0.5456
 5122SOL    HW127002   3.044   1.845   3.740  0.1135  1.5944 -0.2395
 5122SOL    HW227003   3.031   1.859   3.889  1.8174 -2.3587 -0.8182
 5123SOL     OW27004   2.088   3.496   1.317  0.7202  0.2974  0.2866
 5123SOL    HW127005   2.171   3.514   1.273  1.1710  3.3096  2.3807
 5123SOL    HW227006   2.111   3.437   1.388  3.3188 -0.2026 -0.9505
 5124SOL     OW27007   2.499   1.484   9.453  0.0229 -0.3538 -0.2611
 5124SOL    HW127008   2.539   1.446   9.532 -0.6077 -4.0523 -1.7260
 5124SOL    HW227009   2.415   1.438   9.454  0.4274 -1.1107 -0.7968
 5125SOL     OW27010   4.548   1.727   9.029  0.2424 -0.0503 -0.1452
 5125SOL    HW127011   4.544   1.698   8.938 -1.8406  1.6693 -0.5897
 5125SOL    HW227012   4.539   1.820   9.012 -0.9703 -0.1903 -0.2373
 5126SOL     OW27013   0.780   4.500   0.514  0.1840  0.2098 -0.2507
 5126SOL    HW127014   0.776   4.432   0.582 -1.1601  0.5355  0.0091
 5126SOL    HW227015   0.873   4.518   0.517  0.3535 -0.7714  0.6173
 5127SOL     OW27016   1.741   2.351   2.180 -0.0868  0.0818  0.8563
 5127SOL    HW127017   1.804   2.423   2.188 -2.0737  1.8449  0.7889
 5127SOL    HW227018   1.663   2.375   2.231 -0.6858  1.1351 -0.5301
 5128SOL     OW27019   3.852   2.036   3.992  0.2117 -0.0456 -0.0329
 5128SOL    HW127020   3.909   2.108   3.964 -1.7318  1.0813 -1.1515
 5128SOL    HW227021   3.891   1.964   3.942  0.7801 -0.2808  0.7674
 5129SOL     OW27022   2.164   1.534   3.592 -0.1748  0.3088  0.2042
 5129SOL    HW127023   2.156   1.555   3.499  1.6292 -0.2850 -0.0845
 5129SOL    HW227024   2.150   1.623   3.625  0.6637  0.6648 -0.3988
 5130SOL     OW27025   3.724   2.442  16.762 -0.2834 -0.3386  0.2666
 5130SOL    HW127026   3.813   2.406  16.759  0.5006  1.4226  2.4444
 5130SOL    HW227027   3.700   2.414  16.850 -1.2121  0.7425  0.3590
 5131SOL     OW27028   3.466   1.991   6.910  0.3181  0.4599  0.0854
 5131SOL    HW127029   3.483   1.897   6.899 -0.0889  0.4570 -0.5373
 5131SOL    HW227030   3.381   2.005   6.953 -0.3605 -1.4609 -0.6246
 5132SOL     OW27031   0.520   2.606  15.221 -0.6825 -0.1957  0.1361
 5132SOL    HW127032   0.549   2.585  15.132 -0.5102  2.4104 -0.4212
 5132SOL    HW227033   0.572   2.547  15.274 -1.5553 -0.6829  0.4539
 5133SOL     OW27034   0.964   3.280   5.566  0.1100  0.1764 -0.2307
 5133SOL    HW127035   1.008   3.365   5.561  1.1233 -0.2802  0.9543
 5133SOL    HW227036   1.038   3.223   5.586 -0.0328  0.2310  0.4558
 5134SOL     OW27037   0.897   4.533   7.146 -0.0249 -0.1668  0.1860
 5134SOL    HW127038   0.887   4.625   7.170 -1.3247 -0.2679  0.0631
 5134SOL    HW227039   0.873   4.539   7.054  0.0793  1.0967  0.2460
 5135SOL     OW27040   3.964   4.446   2.781 -0.8537  0.4641  0.4180
 5135SOL    HW127041   4.031   4.514   2.773  0.4614 -0.9147 -0.4766
 5135SOL    HW227042   3.898   4.500   2.823  0.3881  1.6850  0.8186
 5136SOL     OW27043   3.093   4.707   1.523  0.0385  0.1163  0.5347
 5136SOL    HW127044   3.124   0.001   1.609  0.0466  1.4418  0.0830
 5136SOL    HW227045   3.037   0.045   1.498 -0.2458 -0.0002  0.8354
 5137SOL     OW27046   1.323   2.155   4.192 -0.0757  0.5451  0.4887
 5137SOL    HW127047   1.263   2.127   4.122  2.4971  0.4236 -1.6353
 5137SOL    HW227048   1.267   2.212   4.245 -0.3568 -0.4098  1.2006
 5138SOL     OW27049   4.354   3.465   3.427  0.0140 -0.4078  0.3298
 5138SOL    HW127050   4.278   3.494   3.478 -0.0517 -1.1408  0.6544
 5138SOL    HW227051   4.330   3.390   3.372  1.1957  0.8634 -1.8954
 5139SOL     OW27052   0.873   3.708   7.839 -0.0677  0.5427  0.3964
 5139SOL    HW127053   0.910   3.631   7.883 -1.1941 -0.6787 -0.7682
 5139SOL    HW227054   0.880   3.673   7.750  0.2286  1.7763 -0.0646
 5140SOL     OW27055   4.171   3.108   4.044 -0.2184  0.3041 -0.0382
 5140SOL    HW127056   4.155   3.134   3.953 -0.9184 -0.0108  0.0009
 5140SOL    HW227057   4.186   3.014   4.035  0.9889  0.5036 -0.2258
 5141SOL     OW27058   0.225   2.080   4.570 -0.1104 -0.2503 -0.3640
 5141SOL    HW127059   0.214   2.032   4.488  0.2718 -0.8267 -0.0748
 5141SOL    HW227060   0.155   2.041   4.623  1.3526  1.0127  2.4809
 5142SOL     OW27061   4.349   2.764   7.880  0.2588  0.5618  0.0989
 5142SOL    HW127062   4.308   2.829   7.937  0.2579  0.9847 -0.3745
 5142SOL    HW227063   4.379   2.695   7.938  1.0256  0.2684 -0.6384
 5143SOL     OW27064   2.843   4.591   9.909 -0.1183  0.3087  0.0378
 5143SOL    HW127065   2.753   4.612   9.936 -0.3514  0.1816 -0.6410
 5143SOL    HW227066   2.835   4.591   9.814 -0.5651 -1.7521  0.0698
 5144SOL     OW27067   1.475   2.062  17.170 -0.0790 -0.3126 -0.7441
 5144SOL    HW127068   1.385   2.055  17.200 -0.2049 -1.7703 -1.4618
 5144SOL    HW227069   1.500   2.153  17.184 -2.4379  0.2703 -0.4174
 5145SOL     OW27070   2.489   0.456   0.512  0.0474 -0.1176 -0.2358
 5145SOL    HW127071   2.565   0.449   0.455 -1.4616 -1.9914 -1.9947
 5145SOL    HW227072   2.529   0.426   0.594 -0.3613 -0.4654 -0.1615
 5146SOL     OW27073   1.920   4.272   6.422  0.0254 -0.1152  0.0938
 5146SOL    HW127074   1.935   4.179   6.404  2.4444  0.4158 -0.7511
 5146SOL    HW227075   1.859   4.289   6.350  1.2467 -0.6635 -1.0829
 5147SOL     OW27076   2.699   2.139   6.819 -0.1543  0.3790 -0.4058
 5147SOL    HW127077   2.618   2.135   6.769 -0.3652  0.2138 -0.0482
 5147SOL    HW227078   2.763   2.167   6.754 -1.5500  1.2276 -1.3936
 5148SOL     OW27079   1.662   0.825   4.599  0.6106  0.3007  0.1501
 5148SOL    HW127080   1.670   0.920   4.595  2.8354  0.1420  0.4024
 5148SOL    HW227081   1.752   0.804   4.572  0.9617  1.6447  0.2619
 5149SOL     OW27082   4.333   1.604   3.087 -0.1934  0.6268 -0.5735
 5149SOL    HW127083   4.415   1.562   3.112  0.1145  1.9295  0.6061
 5149SOL    HW227084   4.288   1.589   3.170  2.9245  0.3555  1.0461
 5150SOL     OW27085   4.599   1.702  15.694  0.4088 -0.4196 -0.6385
 5150SOL    HW127086   4.594   1.786  15.739  0.2038 -1.1894  0.7563
 5150SOL    HW227087   4.551   1.725  15.614  1.6937  0.7612 -1.0573
 5151SOL     OW27088   1.972   2.266   7.455 -0.6296  0.6190  0.5380
 5151SOL    HW127089   2.012   2.186   7.422  0.3417  1.3098  0.0467
 5151SOL    HW227090   1.914   2.227   7.521  1.1722  1.4607  2.6191
 5152SOL     OW27091   2.493   0.938   9.006  0.1027 -0.1622  0.1293
 5152SOL    HW127092   2.510   1.007   8.942  0.2006 -0.4746 -0.1821
 5152SOL    HW227093   2.402   0.923   8.982  0.7277 -0.9735 -1.7142
 5153SOL     OW27094   0.507   1.335   5.375 -0.4752  0.2013  0.2624
 5153SOL    HW127095   0.534   1.420   5.408 -0.9869  0.7112 -0.6004
 5153SOL    HW227096   0.539   1.327   5.285  0.5644 -0.0784  0.6573
 5154SOL     OW27097   1.545   0.445  11.733 -0.6131 -0.2769  0.3833
 5154SOL    HW127098   1.580   0.424  11.647 -1.7593 -0.9554  0.0792
 5154SOL    HW227099   1.471   0.385  11.745 -0.5024  0.2352  3.5929
 5155SOL     OW27100   0.101   0.884   7.152  0.0518  0.8147 -0.0508
 5155SOL    HW127101   0.059   0.960   7.110 -0.2343 -0.1892 -1.5566
 5155SOL    HW227102   0.088   0.820   7.082 -0.0929 -0.6310  1.3106
 5156SOL     OW27103   4.192   0.516   7.678 -0.4937 -0.1285  0.0687
 5156SOL    HW127104   4.101   0.527   7.652  0.0874  0.1923 -1.8065
 5156SOL    HW227105   4.195   0.550   7.767 -1.1751  0.5471 -0.1628
 5157SOL     OW27106   0.995   3.736  16.501  0.6176 -0.3320 -0.3870
 5157SOL    HW127107   0.949   3.810  16.540 -0.6620 -1.6601  0.6213
 5157SOL    HW227108   1.015   3.775  16.416 -0.6323 -0.7984 -0.8971
 5158SOL     OW27109   2.391   3.151   3.316 -0.3438 -0.4928  0.4585
 5158SOL    HW127110   2.465   3.171   3.259 -1.5639 -0.0834 -0.9629
 5158SOL    HW227111   2.356   3.240   3.314 -0.0914 -0.4012  0.1117
 5159SOL     OW27112   2.127   2.990  11.768 -0.3093  0.2595  0.2981
 5159SOL    HW127113   2.128   3.025  11.857 -1.7572 -0.3803  0.5644
 5159SOL    HW227114   2.081   2.906  11.770  1.0053 -0.5478 -3.2657
 5160SOL     OW27115   0.805   0.603   6.038  0.1805  0.1430 -0.3895
 5160SOL    HW127116   0.844   0.656   6.108 -1.2175  0.5946  0.0421
 5160SOL    HW227117   0.768   0.671   5.981 -2.6546 -0.1522  1.1481
 5161SOL     OW27118   3.996   0.031   3.094 -0.0828  0.2431 -0.1861
 5161SOL    HW127119   3.985   0.056   3.003 -0.6248  0.2370 -0.1252
 5161SOL    HW227120   4.076   4.716   3.082  1.2741  2.0818  1.1037
 5162SOL     OW27121   4.340   1.885  10.709  0.5681 -0.2576  0.3946
 5162SOL    HW127122   4.321   1.795  10.682 -0.0004  1.0745 -3.6402
 5162SOL    HW227123   4.295   1.882  10.794  1.2864 -0.4762  0.7761
 5163SOL     OW27124   0.793   3.189   7.986 -0.3259  0.3128  0.1764
 5163SOL    HW127125   0.854   3.144   7.927 -1.8893 -0.2025 -1.0441
 5163SOL    HW227126   0.769   3.131   8.058 -1.3566  0.9512  0.3369
 5164SOL     OW27127   3.997   1.824   5.165  0.1020 -0.1279 -0.3177
 5164SOL    HW127128   4.015   1.821   5.259  1.1999  0.6251 -0.4979
 5164SOL    HW227129   4.086   1.855   5.149 -0.1711 -0.6346 -2.8683
 5165SOL     OW27130   2.163   3.537   3.979 -0.2726 -0.1143 -0.0676
 5165SOL    HW127131   2.259   3.542   3.989 -0.3933 -0.1283  1.1090
 5165SOL    HW227132   2.127   3.593   4.047  1.4690 -0.0226  0.7783
 5166SOL     OW27133   4.423   3.423   6.020 -0.1474 -0.2994  0.7647
 5166SOL    HW127134   4.376   3.360   5.966 -1.5676  1.8791 -0.5297
 5166SOL    HW227135   4.459   3.365   6.086  0.7137 -1.2670 -0.5510
 5167SOL     OW27136   2.068   3.295   2.499 -0.5409  0.0778  0.2797
 5167SOL    HW127137   2.122   3.256   2.430 -0.6465 -1.5573  1.1222
 5167SOL    HW227138   2.111   3.380   2.506  0.2632 -0.1986 -1.2431
 5168SOL     OW27139   3.727   2.827  10.310 -0.0542 -0.0980  0.0773
 5168SOL    HW127140   3.716   2.919  10.334 -2.7233 -0.2054 -0.6186
 5168SOL    HW227141   3.683   2.778  10.380 -0.7162  0.5039  0.0864
 5169SOL     OW27142   0.837   3.240   4.526  0.0453  0.0047 -0.1912
 5169SOL    HW127143   0.760   3.264   4.578  1.8364 -1.2315  3.0209
 5169SOL    HW227144   0.855   3.154   4.563  3.3173  0.1821 -1.4301
 5170SOL     OW27145   3.930   2.016   6.560 -0.3523 -0.1469 -0.2407
 5170SOL    HW127146   4.010   2.024   6.612 -0.1935  1.0739 -0.6752
 5170SOL    HW227147   3.856   2.001   6.620  0.4876 -2.5465  0.1678
 5171SOL     OW27148   1.809   1.301   2.975  0.3064 -0.2623 -0.2347
 5171SOL    HW127149   1.742   1.266   3.034 -0.4062  1.1075 -0.2441
 5171SOL    HW227150   1.863   1.223   2.963  2.9865  1.7359 -1.1674
 5172SOL     OW27151   3.045   3.606   8.713 -0.1036 -0.3339  0.4435
 5172SOL    HW127152   3.089   3.662   8.777 -1.0714 -0.6424  1.3709
 5172SOL    HW227153   3.087   3.526   8.747  0.5098 -0.2740 -0.1686
 5173SOL     OW27154   4.011   0.872  17.252  0.3400 -0.3078  0.4285
 5173SOL    HW127155   4.056   0.953  17.230  0.9197 -0.8770 -0.5348
 5173SOL    HW227156   4.085   0.815  17.274  2.9248  3.7788  2.3201
 5174SOL     OW27157   0.927   3.999   7.809 -0.1262 -0.1833 -0.3044
 5174SOL    HW127158   0.876   4.014   7.730 -0.1110 -1.0930 -0.4769
 5174SOL    HW227159   0.948   3.906   7.800 -0.0854 -0.1804 -0.2400
 5175SOL     OW27160   0.885   1.446   1.014  0.3818  0.5430 -0.0316
 5175SOL    HW127161   0.965   1.465   1.063  1.3638 -2.1746 -0.5764
 5175SOL    HW227162   0.895   1.351   1.015  2.9332  0.8103  0.0429
 5176SOL     OW27163   0.347   0.234   5.622  0.0711 -0.1820  0.0129
 5176SOL    HW127164   0.280   0.268   5.682 -0.1520 -0.0882 -0.2933
 5176SOL    HW227165   0.292   0.225   5.545 -1.6034  0.9149  1.0761
 5177SOL     OW27166   4.569   2.737   1.505 -0.9763 -0.4862 -0.0887
 5177SOL    HW127167   4.511   2.714   1.432  0.6646  0.1705 -1.5847
 5177SOL    HW227168   4.510   2.773   1.572 -2.2789  0.2999 -1.6466
 5178SOL     OW27169   3.705   3.661   1.677 -0.4459  0.2878  0.3481
 5178SOL    HW127170   3.682   3.623   1.592 -0.6715 -0.9829  0.9753
 5178SOL    HW227171   3.660   3.605   1.740  1.1664 -0.4128  0.8747
 5179SOL     OW27172   1.723   4.051   3.061 -0.0283  0.2972  0.6079
 5179SOL    HW127173   1.779   3.975   3.077  1.9333  1.7122  0.4170
 5179SOL    HW227174   1.703   4.075   3.152 -0.0809  0.3122  0.5923
 5180SOL     OW27175   4.537   3.779  11.750  0.2888 -0.2003  0.3863
 5180SOL    HW127176   4.604   3.806  11.812  1.0207  0.2161 -0.5773
 5180SOL    HW227177   4.493   3.864  11.739 -2.0939 -1.5669 -0.7123
 5181SOL     OW27178   3.010   4.375  14.448 -0.9814 -0.2833 -0.9555
 5181SOL    HW127179   2.997   4.293  14.400  0.9383 -1.4182  0.4255
 5181SOL    HW227180   2.929   4.368  14.498  1.6501  1.9378  3.6908
 5182SOL     OW27181   3.646   1.468   8.451 -0.0176 -0.9099 -0.0049
 5182SOL    HW127182   3.726   1.499   8.493 -1.7107  2.4632  0.7170
 5182SOL    HW227183   3.673   1.390   8.403  0.1841 -0.7461 -0.1544
 5183SOL     OW27184   0.750   0.122   3.629 -0.1370 -0.4562  0.4306
 5183SOL    HW127185   0.690   0.059   3.591  0.4249 -0.5101 -0.3668
 5183SOL    HW227186   0.835   0.078   3.634  0.5279  0.6195 -1.1841
 5184SOL     OW27187   3.203   0.975  13.135 -0.2002  0.1161 -0.6037
 5184SOL    HW127188   3.237   0.899  13.181 -1.0742 -0.1728 -0.4502
 5184SOL    HW227189   3.109   0.977  13.154 -0.1785 -0.2267 -0.4739
 5185SOL     OW27190   3.800   2.298   6.709  0.3593  0.1994  0.2685
 5185SOL    HW127191   3.705   2.288   6.719  0.2673  0.4223 -0.3509
 5185SOL    HW227192   3.806   2.295   6.614 -1.8186  1.4317  0.0802
 5186SOL     OW27193   1.831   2.372   8.774  0.1843 -0.1403  0.1845
 5186SOL    HW127194   1.861   2.286   8.805  0.2405 -0.2543 -0.1908
 5186SOL    HW227195   1.738   2.353   8.761  0.5508 -1.2793 -0.8572
 5187SOL     OW27196   4.336   4.468   5.681 -0.3365 -0.8430 -0.0134
 5187SOL    HW127197   4.351   4.560   5.701 -0.4155 -0.6823 -0.6740
 5187SOL    HW227198   4.428   4.453   5.658  0.4398  1.0606  1.8502
 5188SOL     OW27199   0.749   3.730   5.068 -0.0392  0.0133 -0.0906
 5188SOL    HW127200   0.801   3.801   5.104  1.0881 -0.9877  0.2594
 5188SOL    HW227201   0.807   3.724   4.991  0.6839 -0.0630  0.4554
 5189SOL     OW27202   2.813   3.274  13.200 -0.0317 -0.2352 -0.1482
 5189SOL    HW127203   2.726   3.312  13.206  0.1505  0.5902 -2.4075
 5189SOL    HW227204   2.867   3.342  13.239  0.7313 -1.3615  0.7621
 5190SOL     OW27205   1.763   0.846   9.783  0.4367  1.0202  0.0397
 5190SOL    HW127206   1.692   0.854   9.720 -2.0620  1.5053  2.8834
 5190SOL    HW227207   1.717   0.830   9.866 -1.6427  0.0162 -1.2888
 5191SOL     OW27208   3.865   1.683   0.918 -0.0427  0.0736  0.9883
 5191SOL    HW127209   3.932   1.615   0.911 -0.7348 -0.9044  3.6155
 5191SOL    HW227210   3.911   1.746   0.973  2.3946 -2.4564  1.8971
 5192SOL     OW27211   2.521   4.450   4.837 -0.1543 -0.4937 -0.2001
 5192SOL    HW127212   2.464   4.449   4.914  0.3506 -1.8558  0.1608
 5192SOL    HW227213   2.469   4.493   4.769 -0.0428 -1.4996 -0.9236
 5193SOL     OW27214   1.593   3.876   7.413  0.1403 -0.2287  0.3828
 5193SOL    HW127215   1.521   3.816   7.432  1.0855 -0.7995  2.1896
 5193SOL    HW227216   1.545   3.958   7.412  1.7584  0.7345  1.0683
 5194SOL     OW27217   0.205   1.572   2.059 -0.0283 -0.0186  0.5270
 5194SOL    HW127218   0.183   1.627   2.134  3.2833  0.2829  1.2705
 5194SOL    HW227219   0.258   1.632   2.007 -0.5560 -0.5731 -0.6668
 5195SOL     OW27220   0.458   0.988  13.655 -0.0670 -0.3416  0.3330
 5195SOL    HW127221   0.393   1.059  13.659 -0.1660 -0.3656 -0.9650
 5195SOL    HW227222   0.437   0.934  13.731  1.3032 -0.4335  0.6310
 5196SOL     OW27223   4.719   1.365  15.144  0.8208  0.8637 -0.2993
 5196SOL    HW127224   4.662   1.289  15.155  1.3350  0.4710 -0.3735
 5196SOL    HW227225   4.704   1.388  15.052 -2.8853  1.3918  0.4257
 5197SOL     OW27226   0.881   0.787   6.563 -0.2337 -0.3654  0.0732
 5197SOL    HW127227   0.825   0.858   6.530 -1.1620 -0.9498  0.3974
 5197SOL    HW227228   0.835   0.704   6.554 -1.0210 -0.2112  2.5085
 5198SOL     OW27229   3.404   0.071  12.496 -0.4727 -0.6495 -0.0506
 5198SOL    HW127230   3.354   0.131  12.552  0.5652 -0.8943  1.1414
 5198SOL    HW227231   3.407   4.734  12.559  2.5823 -1.5043 -1.1966
 5199SOL     OW27232   4.147   2.703   0.460  0.2509 -0.3502  0.2957
 5199SOL    HW127233   4.170   2.615   0.430  0.3813 -0.0894 -0.3648
 5199SOL    HW227234   4.086   2.726   0.389  0.4150 -4.2453 -1.1527
 5200SOL     OW27235   3.374   2.705  10.310 -0.3511 -0.1253  0.3125
 5200SOL    HW127236   3.393   2.773  10.374  1.9289  0.4719 -0.9817
 5200SOL    HW227237   3.363   2.763  10.234 -0.7983 -0.2954  0.2512
 5201SOL     OW27238   3.975   1.134   6.164  0.2750  0.0191  0.3430
 5201SOL    HW127239   4.065   1.144   6.133  0.9291 -1.3435  1.7909
 5201SOL    HW227240   3.947   1.068   6.101 -0.5818 -0.5385  1.3020
 5202SOL     OW27241   1.092   3.319   4.723  0.3425  0.3372  0.0454
 5202SOL    HW127242   1.135   3.404   4.722  0.8482  0.0966  1.7498
 5202SOL    HW227243   1.020   3.329   4.660  0.4932  1.3648  0.0472
 5203SOL     OW27244   2.302   2.971   5.878 -0.1336  0.6050  0.4105
 5203SOL    HW127245   2.357   3.016   5.941  0.0550 -1.1985  1.5343
 5203SOL    HW227246   2.275   3.046   5.825 -0.5637 -0.5409 -1.0141
 5204SOL     OW27247   2.695   4.577   4.539 -0.0982  0.2746  0.2417
 5204SOL    HW127248   2.626   4.519   4.570  1.3998 -1.0792  1.0030
 5204SOL    HW227249   2.640   4.654   4.520 -2.1718 -1.4124 -0.6326
 5205SOL     OW27250   3.851   0.400   7.300  0.4757 -0.5272  0.0662
 5205SOL    HW127251   3.925   0.426   7.245  1.3035  0.0982  1.4499
 5205SOL    HW227252   3.790   0.473   7.286 -1.2281 -1.8831  0.3967
 5206SOL     OW27253   0.842   3.554  16.325  0.0505  0.3288  0.4903
 5206SOL    HW127254   0.924   3.601  16.342  0.3952 -0.0253 -0.1849
 5206SOL    HW227255   0.780   3.626  16.332 -0.2161 -0.0445  1.9839
 5207SOL     OW27256   0.290   1.644   5.366 -0.6634  0.3608 -0.9210
 5207SOL    HW127257   0.240   1.647   5.285 -0.4463 -1.0479 -1.1128
 5207SOL    HW227258   0.236   1.599   5.430  1.5945  2.9675  2.8106
 5208SOL     OW27259   2.327   4.164   8.285  0.6317 -0.1838  0.0098
 5208SOL    HW127260   2.357   4.209   8.206  0.2969  0.7683  0.4346
 5208SOL    HW227261   2.354   4.072   8.275  2.2206  0.2227  0.6181
 5209SOL     OW27262   2.287   1.009   6.937  0.0333 -0.3172  0.5055
 5209SOL    HW127263   2.347   0.963   6.995  1.2459  1.9212  1.0160
 5209SOL    HW227264   2.311   0.977   6.850  2.6805  0.3223  1.0161
 5210SOL     OW27265   2.070   0.497   2.704  0.6637 -0.5331  0.4259
 5210SOL    HW127266   2.081   0.573   2.762 -2.8146  0.9453 -0.8710
 5210SOL    HW227267   2.021   0.434   2.757 -0.8296 -0.7154 -1.1778
 5211SOL     OW27268   4.446   3.291   6.276 -0.1322 -0.7086  0.1679
 5211SOL    HW127269   4.540   3.277   6.281 -0.2914 -1.3959  1.1986
 5211SOL    HW227270   4.418   3.216   6.328  0.7892 -2.2502 -1.5588
 5212SOL     OW27271   4.542   3.987   2.183 -0.3349 -0.1217 -0.2096
 5212SOL    HW127272   4.548   4.080   2.207 -0.1668  0.0633 -0.9704
 5212SOL    HW227273   4.608   3.937   2.232  0.4578  0.1406 -1.0042
 5213SOL     OW27274   2.698   0.297   4.422 -0.1889 -0.1001  0.4709
 5213SOL    HW127275   2.680   0.275   4.513  0.1025  0.8089  0.7406
 5213SOL    HW227276   2.607   0.295   4.393  0.0593 -0.0585 -0.3126
 5214SOL     OW27277   4.459   2.202   3.149 -0.0458 -0.0396 -0.3444
 5214SOL    HW127278   4.414   2.225   3.230 -0.5046 -0.0112 -0.6040
 5214SOL    HW227279   4.491   2.113   3.167  0.2715  0.4275  1.3602
 5215SOL     OW27280   1.135   0.799   7.085  0.5550  0.7773 -0.2522
 5215SOL    HW127281   1.083   0.720   7.102  1.6801 -0.4181 -2.3718
 5215SOL    HW227282   1.176   0.814   7.170  1.0495 -0.1146 -0.3330
 5216SOL     OW27283   4.723   1.409  14.570  0.0215  0.3965 -0.6189
 5216SOL    HW127284   4.637   1.445  14.589  0.1402  0.4212 -0.1151
 5216SOL    HW227285   4.717   1.414  14.475  1.3612  0.2904 -0.7071
 5217SOL     OW27286   4.585   0.318   4.535  0.1303 -0.1267 -0.2074
 5217SOL    HW127287   4.554   0.244   4.587 -1.1148  0.5664  0.0189
 5217SOL    HW227288   4.556   0.391   4.590 -0.7706 -1.4252  1.0325
 5218SOL     OW27289   1.057   0.707  14.763 -0.0654 -0.1136 -0.5949
 5218SOL    HW127290   0.963   0.695  14.755 -0.3903  1.5167  0.7434
 5218SOL    HW227291   1.083   0.664  14.682  0.4603 -2.6494  0.9215
 5219SOL     OW27292   3.193   1.562   3.129 -0.3434  0.5922 -0.1534
 5219SOL    HW127293   3.281   1.599   3.122 -0.0873  0.2239  1.0817
 5219SOL    HW227294   3.164   1.616   3.202  4.8052  0.8610  1.6518
 5220SOL     OW27295   4.469   3.248   0.888 -0.0699 -0.5054 -0.0679
 5220SOL    HW127296   4.553   3.227   0.847 -0.0392 -0.1464 -0.1953
 5220SOL    HW227297   4.498   3.238   0.978  0.7782  1.5981 -0.0979
 5221SOL     OW27298   0.865   3.450   0.455  0.7222  0.0740  0.7128
 5221SOL    HW127299   0.774   3.436   0.432  1.0535  0.6601 -0.9556
 5221SOL    HW227300   0.866   3.523   0.517  0.3561  1.1333 -0.5266
 5222SOL     OW27301   3.435   3.430   8.284  0.3150  0.5724 -0.5704
 5222SOL    HW127302   3.407   3.513   8.321  0.4405 -0.5580  2.0539
 5222SOL    HW227303   3.355   3.378   8.276 -1.2971  3.1231 -0.9371
 5223SOL     OW27304   3.625   3.584   6.331 -0.4822  0.6147 -0.2436
 5223SOL    HW127305   3.567   3.641   6.382 -2.9006  0.9400 -3.3768
 5223SOL    HW227306   3.623   3.512   6.394 -0.6627 -0.0473 -0.9988
 5224SOL     OW27307   2.949   1.653   4.840 -0.1163  0.2850  0.3914
 5224SOL    HW127308   2.857   1.677   4.840 -0.4199 -0.8891  0.0481
 5224SOL    HW227309   2.955   1.563   4.807 -4.4850  0.1950 -0.1526
 5225SOL     OW27310   0.288   4.180   2.788 -0.3963 -0.8434  0.1946
 5225SOL    HW127311   0.339   4.128   2.850  0.3736  1.2430  1.3246
 5225SOL    HW227312   0.346   4.257   2.785  0.5425 -1.4763  1.9743
 5226SOL     OW27313   1.922   4.326   9.747  0.3675  0.4202  0.8080
 5226SOL    HW127314   1.905   4.327   9.653  0.4281 -0.7119  0.7951
 5226SOL    HW227315   1.938   4.234   9.764  1.1538  0.3149 -0.5013
 5227SOL     OW27316   0.828   0.560  12.504  0.6605  0.1267 -0.4973
 5227SOL    HW127317   0.855   0.550  12.595 -0.7421  0.3987 -0.0575
 5227SOL    HW227318   0.800   0.474  12.473 -0.3178  0.7402 -1.3468
 5228SOL     OW27319   0.564   3.799  12.843 -0.0021 -0.1811 -0.9289
 5228SOL    HW127320   0.494   3.734  12.845 -0.5891  0.4289 -1.6507
 5228SOL    HW227321   0.559   3.810  12.748 -0.3281  0.5958 -0.8269
 5229SOL     OW27322   2.559   0.525   7.336  0.0322  0.6045 -0.3417
 5229SOL    HW127323   2.472   0.486   7.329 -0.3647  1.4997 -0.3646
 5229SOL    HW227324   2.608   0.521   7.254  0.9537  2.6103  0.1003
 5230SOL     OW27325   1.062   3.733  10.645  0.5337 -0.0594  0.3176
 5230SOL    HW127326   1.081   3.680  10.722  1.6759 -0.1559 -0.0387
 5230SOL    HW227327   0.966   3.737  10.649  0.4904 -1.1867  0.3337
 5231SOL     OW27328   0.404   3.547  13.377  0.1745  0.0273  0.0386
 5231SOL    HW127329   0.444   3.622  13.333 -0.7976 -0.2627 -1.3274
 5231SOL    HW227330   0.424   3.483  13.309  2.3956  0.2540  0.4744
 5232SOL     OW27331   0.271   4.353  16.475 -0.1085 -0.0212 -0.0192
 5232SOL    HW127332   0.351   4.315  16.439 -0.2178 -0.5445  0.2933
 5232SOL    HW227333   0.302   4.436  16.511 -0.8838 -0.3397  1.3892
 5233SOL     OW27334   1.539   1.706   4.519 -0.5917 -0.1238 -0.1769
 5233SOL    HW127335   1.606   1.759   4.563 -0.4499  1.1817 -1.9907
 5233SOL    HW227336   1.504   1.782   4.473 -0.6355  0.7467  1.2974
 5234SOL     OW27337   3.519   1.976  15.446 -0.0441 -0.0832 -0.0954
 5234SOL    HW127338   3.442   1.966  15.501 -0.7974 -1.6111 -1.4339
 5234SOL    HW227339   3.533   2.069  15.462  0.6750 -0.5606  2.1598
 5235SOL     OW27340   3.235   2.668   4.932  0.2002  0.4862 -0.4276
 5235SOL    HW127341   3.192   2.626   4.858 -1.6668  0.7632  0.5080
 5235SOL    HW227342   3.155   2.696   4.977 -0.4384 -2.3712  0.1779
 5236SOL     OW27343   0.520   2.835  13.756  0.2906  0.2257  0.0887
 5236SOL    HW127344   0.523   2.793  13.670 -2.3391 -1.4225  0.8128
 5236SOL    HW227345   0.531   2.925  13.725 -2.7414  0.4507 -0.2593
 5237SOL     OW27346   4.316   1.999   3.590  0.0811  0.2197 -1.2357
 5237SOL    HW127347   4.345   1.975   3.502  0.0069  0.0687 -1.2196
 5237SOL    HW227348   4.341   1.917   3.632 -3.0240 -0.9577 -1.6814
 5238SOL     OW27349   3.227   3.464   7.985  0.3164 -0.0469 -0.4434
 5238SOL    HW127350   3.275   3.386   7.955  0.6123  0.5171 -1.4436
 5238SOL    HW227351   3.141   3.452   7.944 -0.3318  0.7973  0.7066
 5239SOL     OW27352   2.224   1.319   8.832 -0.8485 -0.1729 -0.0992
 5239SOL    HW127353   2.251   1.384   8.766 -1.7314  0.2780 -0.0067
 5239SOL    HW227354   2.175   1.365   8.900 -0.0016  0.2275  0.2479
 5240SOL     OW27355   3.716   4.339   2.384  0.3855 -0.4331 -0.3746
 5240SOL    HW127356   3.673   4.254   2.393 -0.5451  0.1766  0.9966
 5240SOL    HW227357   3.641   4.388   2.352  0.5561 -0.5975 -1.0252
 5241SOL     OW27358   4.106   0.337   3.136  0.5087  0.3767  0.5416
 5241SOL    HW127359   4.115   0.355   3.043 -0.2225  1.3286  0.6466
 5241SOL    HW227360   4.155   0.410   3.173 -0.2874  1.1713  0.0477
 5242SOL     OW27361   3.936   2.598   4.412  0.0117 -0.1839  0.2127
 5242SOL    HW127362   3.858   2.555   4.447 -0.3756  0.3997  0.0652
 5242SOL    HW227363   3.959   2.528   4.351  0.8887 -1.3588  1.8912
 5243SOL     OW27364   1.416   4.691   9.376 -0.2845  0.1318  0.7398
 5243SOL    HW127365   1.426   4.623   9.443 -0.3605 -0.9091 -0.2996
 5243SOL    HW227366   1.341   0.002   9.412 -0.6242 -0.0440  0.2652
 5244SOL     OW27367   1.764   1.875   8.828  1.2365 -0.0282  0.1962
 5244SOL    HW127368   1.848   1.915   8.850  1.5129 -1.7506  2.3255
 5244SOL    HW227369   1.780   1.859   8.735  2.1585  1.3502  0.1278
 5245SOL     OW27370   2.163   2.166   2.182  0.5024  0.4822 -0.4317
 5245SOL    HW127371   2.136   2.216   2.105  1.1938  0.8949 -0.4120
 5245SOL    HW227372   2.133   2.211   2.261 -3.0219 -1.5869 -0.6090
 5246SOL     OW27373   1.933   1.485   1.251  0.1620  0.3627  0.1003
 5246SOL    HW127374   1.863   1.545   1.278  2.5965  2.8179  1.0162
 5246SOL    HW227375   1.978   1.528   1.179 -2.1330 -1.4745 -2.4548
 5247SOL     OW27376   1.967   3.153   8.221  0.2385 -0.5504 -0.3202
 5247SOL    HW127377   1.949   3.172   8.313  1.8737  0.5909 -0.2324
 5247SOL    HW227378   2.059   3.128   8.233  0.1467 -2.2613 -3.3292
 5248SOL     OW27379   3.246   2.421  10.586  0.2101  0.5273 -0.2416
 5248SOL    HW127380   3.220   2.502  10.629  0.8924  1.5061 -1.6294
 5248SOL    HW227381   3.287   2.371  10.656 -0.4646  0.5828  0.1907
 5249SOL     OW27382   1.190   2.877   3.968  0.7475 -0.0303  0.0984
 5249SOL    HW127383   1.138   2.811   4.014  0.3581  1.2228  1.4734
 5249SOL    HW227384   1.145   2.956   3.997  0.2989 -0.1892 -0.1644
 5250SOL     OW27385   3.095   4.351   0.059 -0.1347 -0.3194  0.0306
 5250SOL    HW127386   3.154   4.419   0.027 -0.1811 -0.3867 -0.1914
 5250SOL    HW227387   3.030   4.413   0.093 -0.7689 -0.2309 -1.3550
 5251SOL     OW27388   0.221   3.257   8.719 -0.3760  0.1022 -0.3581
 5251SOL    HW127389   0.145   3.246   8.776 -1.2897 -0.6193 -1.7116
 5251SOL    HW227390   0.209   3.328   8.656 -2.9894 -1.1397 -1.2776
 5252SOL     OW27391   1.607   0.793   5.745 -0.3454  0.6032 -0.3916
 5252SOL    HW127392   1.575   0.828   5.828 -1.5726  1.1354 -1.0806
 5252SOL    HW227393   1.526   0.750   5.718 -0.5296  1.7671 -1.7080
 5253SOL     OW27394   0.623   2.610   2.213  0.4136 -0.5906  0.0852
 5253SOL    HW127395   0.669   2.686   2.250  3.3415 -1.9567 -0.8087
 5253SOL    HW227396   0.632   2.559   2.293  1.5394  0.3907  0.5863
 5254SOL     OW27397   0.158   4.372   5.011  0.2919  0.7947  0.2126
 5254SOL    HW127398   0.153   4.365   4.916 -0.2546  0.6178  0.2533
 5254SOL    HW227399   0.125   4.461   5.022  0.1744  0.6277  1.2736
 5255SOL     OW27400   3.347   1.007   5.136  0.0891  0.1165  0.1183
 5255SOL    HW127401   3.272   0.963   5.095  1.3742 -1.7620 -0.2082
 5255SOL    HW227402   3.400   0.996   5.057 -1.8963 -0.1586 -1.1907
 5256SOL     OW27403   3.569   4.534   4.213 -0.8674 -0.1148  0.2668
 5256SOL    HW127404   3.604   4.542   4.124 -0.2789 -0.3612  0.4767
 5256SOL    HW227405   3.483   4.573   4.199 -1.8313 -1.8578  1.3437
 5257SOL     OW27406   4.216   2.381   5.989  0.4520  0.6057 -0.2097
 5257SOL    HW127407   4.296   2.341   5.957 -0.7669 -2.6025  0.7203
 5257SOL    HW227408   4.160   2.304   5.998  0.5864  0.5772  0.3803
 5258SOL     OW27409   0.887   1.108   2.534  0.4154  0.0936  0.0573
 5258SOL    HW127410   0.892   1.071   2.446 -1.8961  0.0097 -0.0443
 5258SOL    HW227411   0.890   1.024   2.581 -0.6949 -0.3807 -0.7169
 5259SOL     OW27412   1.123   0.258   7.637  0.1533 -0.0082  0.5761
 5259SOL    HW127413   1.096   0.197   7.568 -3.0472  1.4745  0.5260
 5259SOL    HW227414   1.114   0.212   7.720  2.6010  0.5072  1.1006
 5260SOL     OW27415   0.341   0.863   3.076 -0.3340  0.8689  0.3917
 5260SOL    HW127416   0.429   0.898   3.059 -0.7168  2.1003  0.9086
 5260SOL    HW227417   0.331   0.806   3.000  0.9771 -0.3896  1.1669
 5261SOL     OW27418   0.828   0.513   8.945 -0.1721 -0.5511 -0.2522
 5261SOL    HW127419   0.780   0.569   9.006 -1.0977 -2.2728  0.6253
 5261SOL    HW227420   0.850   0.580   8.881 -0.6350 -1.6874 -1.6041
 5262SOL     OW27421   4.549   0.767  14.935  0.1158 -0.0903 -0.3269
 5262SOL    HW127422   4.561   0.809  14.850 -0.7629  0.3775 -0.2190
 5262SOL    HW227423   4.613   0.825  14.978  1.1248 -1.2332 -0.3074
 5263SOL     OW27424   0.888   1.815   2.890  0.3318  0.0991 -0.5111
 5263SOL    HW127425   0.838   1.897   2.881  1.5131  0.8818 -0.0035
 5263SOL    HW227426   0.936   1.824   2.807  0.2462  0.5510 -0.5112
 5264SOL     OW27427   3.605   2.636   9.668  0.2359  0.1692  0.0167
 5264SOL    HW127428   3.690   2.592   9.658 -0.5664 -1.1269 -1.1330
 5264SOL    HW227429   3.554   2.605   9.593 -0.9462 -1.0645  1.3326
 5265SOL     OW27430   1.810   0.329   9.319  0.5491  0.3670 -0.1187
 5265SOL    HW127431   1.772   0.402   9.368  1.0200  0.5595 -0.0327
 5265SOL    HW227432   1.903   0.353   9.318  0.9684 -1.2368 -0.2302
 5266SOL     OW27433   3.113   1.199   8.588  0.1033  0.4740 -0.1475
 5266SOL    HW127434   3.171   1.154   8.650 -0.3128  1.3733  0.8943
 5266SOL    HW227435   3.130   1.289   8.614 -2.2082  1.2466 -1.3276
 5267SOL     OW27436   1.240   1.911   7.312  0.7816  0.7377 -0.1659
 5267SOL    HW127437   1.276   1.869   7.390  0.8511  0.3239 -0.4224
 5267SOL    HW227438   1.152   1.940   7.336  1.3526  1.7455  0.7106
 5268SOL     OW27439   0.975   1.353   6.079 -0.3196  0.7922 -0.3866
 5268SOL    HW127440   0.954   1.441   6.111  0.8766  1.1614 -0.6122
 5268SOL    HW227441   1.070   1.359   6.086 -0.2995  0.0351 -0.0726
 5269SOL     OW27442   2.751   4.425   4.290  0.1275  0.3396 -0.0850
 5269SOL    HW127443   2.679   4.362   4.297 -1.1986  1.9796  1.2080
 5269SOL    HW227444   2.739   4.477   4.370  0.5965 -1.1132  0.9162
 5270SOL     OW27445   0.587   0.774   5.605  0.6855  0.2954 -0.8910
 5270SOL    HW127446   0.582   0.854   5.552  2.1744  0.8621 -0.1796
 5270SOL    HW227447   0.545   0.709   5.548  1.7588  0.2876 -1.6807
 5271SOL     OW27448   4.269   1.946   2.275  0.4856 -0.0941 -0.9966
 5271SOL    HW127449   4.281   1.863   2.230  0.4963  0.0756 -1.3095
 5271SOL    HW227450   4.339   1.954   2.341 -0.4895 -2.8936  0.3673
 5272SOL     OW27451   0.948   4.422   9.954 -0.4727 -0.2551 -0.0311
 5272SOL    HW127452   1.034   4.406   9.993 -0.7592 -0.7575  0.3823
 5272SOL    HW227453   0.903   4.410  10.037 -1.0478  2.1148  0.0019
 5273SOL     OW27454   0.455   2.452   0.130 -0.1716 -0.3921  0.2034
 5273SOL    HW127455   0.534   2.472   0.180 -2.1770  3.2685  1.8849
 5273SOL    HW227456   0.391   2.513   0.168 -0.6559  0.0370 -1.3077
 5274SOL     OW27457   4.071   3.587   1.750  0.7645  0.0783  0.0956
 5274SOL    HW127458   4.013   3.643   1.699  0.8441  0.1852  0.1246
 5274SOL    HW227459   4.124   3.645   1.804  0.1247  0.4812  0.2934
 5275SOL     OW27460   3.045   2.837   2.473  0.1104 -0.0248 -0.1032
 5275SOL    HW127461   3.129   2.807   2.440  0.9723  1.3144  0.9182
 5275SOL    HW227462   3.007   2.882   2.397  2.2747  0.4956 -0.8696
 5276SOL     OW27463   2.031   0.498  11.160  0.0337  0.0947 -0.2553
 5276SOL    HW127464   2.019   0.414  11.204 -1.4141  0.0369 -0.7584
 5276SOL    HW227465   1.948   0.502  11.111  1.2554  1.2291 -2.2493
 5277SOL     OW27466   0.559   1.424   7.257  0.0272 -0.0965 -0.0190
 5277SOL    HW127467   0.503   1.353   7.287 -1.1226 -0.1273 -2.2624
 5277SOL    HW227468   0.540   1.497   7.317  0.9267  0.5719 -0.5377
 5278SOL     OW27469   2.538   0.948   7.440  0.0653  0.4656 -0.0464
 5278SOL    HW127470   2.599   0.889   7.484  1.6683  0.6079 -2.0841
 5278SOL    HW227471   2.600   1.011   7.402  2.1760 -0.6532  1.5029
 5279SOL     OW27472   4.141   3.400   4.726 -0.4510 -0.2237  0.5400
 5279SOL    HW127473   4.156   3.465   4.657  1.7936 -1.2926  0.0079
 5279SOL    HW227474   4.051   3.433   4.731 -0.5783 -0.2505 -1.3538
 5280SOL     OW27475   0.349   1.840   4.072  0.0363 -0.2925 -0.2205
 5280SOL    HW127476   0.375   1.897   4.000  2.1576 -1.5583 -0.4409
 5280SOL    HW227477   0.432   1.843   4.119  0.1897 -1.2657 -0.4324
 5281SOL     OW27478   4.706   4.341   7.381  0.0315  0.5088  0.4176
 5281SOL    HW127479   0.063   4.337   7.402  0.0465 -1.4055 -0.0570
 5281SOL    HW227480   4.680   4.414   7.437  0.5169 -0.1654  1.5133
 5282SOL     OW27481   0.992   2.997   3.224  0.0793 -0.3174  0.4718
 5282SOL    HW127482   1.069   2.965   3.272  0.0780  0.1536  0.7936
 5282SOL    HW227483   0.938   2.919   3.234  2.5801 -1.9004  1.5250
 5283SOL     OW27484   4.517   0.576   8.758  0.5664 -1.1934 -0.2802
 5283SOL    HW127485   4.597   0.532   8.730  2.0851  1.0103  0.5439
 5283SOL    HW227486   4.468   0.510   8.807 -0.6016  0.9341  1.4353
 5284SOL     OW27487   1.048   4.272   3.360 -0.0951 -0.5360  0.0526
 5284SOL    HW127488   0.974   4.311   3.313  0.2076 -0.9377 -0.7581
 5284SOL    HW227489   1.015   4.284   3.449  0.9302 -0.7142  0.4563
 5285SOL     OW27490   2.667   0.155   3.277 -0.3318  0.7699 -0.4612
 5285SOL    HW127491   2.718   0.083   3.242  0.3551  0.8943  0.2731
 5285SOL    HW227492   2.687   0.217   3.207  2.6665 -0.8481 -1.0113
 5286SOL     OW27493   0.062   0.368  11.640  0.2216 -0.3075 -0.1566
 5286SOL    HW127494   4.735   0.371  11.712  1.0253  0.8328  0.4926
 5286SOL    HW227495   0.129   0.315  11.684  0.0948 -0.1298  0.2541
 5287SOL     OW27496   3.768   0.626   4.195 -0.0563  0.5004 -0.0826
 5287SOL    HW127497   3.725   0.706   4.164 -2.3639 -0.5337  0.4478
 5287SOL    HW227498   3.786   0.587   4.109 -0.3572  0.6310 -0.2043
 5288SOL     OW27499   2.523   4.305   3.349 -0.4925  0.4324  0.0823
 5288SOL    HW127500   2.450   4.319   3.289  0.0830 -1.8295 -1.1382
 5288SOL    HW227501   2.575   4.383   3.331 -1.0907  1.2726  2.0143
 5289SOL     OW27502   2.432   1.164  10.128  0.6728 -0.1837 -0.7644
 5289SOL    HW127503   2.492   1.100  10.165 -0.5082 -0.3366  0.9070
 5289SOL    HW227504   2.460   1.247  10.164 -0.8861  0.8093 -1.8390
 5290SOL     OW27505   1.755   0.437  15.853  0.1385  0.4003  0.2226
 5290SOL    HW127506   1.784   0.461  15.941  1.9479  3.5237 -1.2200
 5290SOL    HW227507   1.678   0.491  15.837 -1.0060 -1.0688  0.8020
 5291SOL     OW27508   1.608   2.985   7.466  0.1288 -0.0858 -0.5545
 5291SOL    HW127509   1.661   2.976   7.546  2.3760 -2.3424 -2.3108
 5291SOL    HW227510   1.652   3.054   7.415  0.9367  1.5144  2.2742
 5292SOL     OW27511   2.422   2.675   6.092 -0.1434  0.6845  0.2846
 5292SOL    HW127512   2.460   2.755   6.130  0.4627 -0.2805  1.6922
 5292SOL    HW227513   2.502   2.629   6.066 -0.1003  1.5766 -1.1799
 5293SOL     OW27514   3.266   4.611   3.788  0.5274 -0.6563  0.4028
 5293SOL    HW127515   3.245   4.574   3.701  0.5325 -0.1848  0.2039
 5293SOL    HW227516   3.181   4.653   3.802 -1.4070 -4.0096 -1.2070
 5294SOL     OW27517   2.097   0.800   6.121 -1.1632  0.6793  0.0060
 5294SOL    HW127518   2.110   0.734   6.053 -1.2283  2.6382 -1.8793
 5294SOL    HW227519   2.017   0.834   6.082 -1.3326 -0.7844 -0.9344
 5295SOL     OW27520   3.517   2.010   5.375  0.4316  0.2846  0.8503
 5295SOL    HW127521   3.483   2.076   5.315 -0.2055  0.9181  1.9018
 5295SOL    HW227522   3.582   2.053   5.431 -1.4658  1.3760  2.2239
 5296SOL     OW27523   3.890   2.395  17.388  0.2961  0.1451 -0.3002
 5296SOL    HW127524   3.828   2.450  17.436 -1.6480  0.2612 -2.9473
 5296SOL    HW227525   3.833   2.351  17.326 -0.7085  0.9371  0.0625
 5297SOL     OW27526   2.274   3.471   7.662 -0.2826  0.0014 -0.0215
 5297SOL    HW127527   2.267   3.380   7.690  0.3307  0.4149  1.4603
 5297SOL    HW227528   2.317   3.454   7.578 -0.5812  0.6482 -0.3046
 5298SOL     OW27529   2.126   3.723   3.519 -0.2461  0.4957 -0.2637
 5298SOL    HW127530   2.065   3.732   3.592 -1.8163  1.0656 -1.6388
 5298SOL    HW227531   2.174   3.643   3.539 -0.4105  0.2825 -0.7244
 5299SOL     OW27532   0.456   1.853  15.909 -0.4675 -0.4980  0.0631
 5299SOL    HW127533   0.478   1.941  15.878 -1.1768 -0.0104  0.9227
 5299SOL    HW227534   0.534   1.845  15.964 -1.3732  2.8316  1.8351
 5300SOL     OW27535   2.557   2.262   4.484  0.1619  0.3747  0.3009
 5300SOL    HW127536   2.647   2.232   4.467 -0.1295  0.2035 -0.9456
 5300SOL    HW227537   2.534   2.202   4.554  0.8882  0.9490  1.0371
 5301SOL     OW27538   1.956   1.324   3.529  0.6134 -0.8580  0.4373
 5301SOL    HW127539   2.016   1.358   3.596  1.2663  0.5558 -0.8761
 5301SOL    HW227540   1.901   1.397   3.500  1.4465 -1.2064 -1.9592
 5302SOL     OW27541   4.558   1.992  11.889  0.6161 -0.2008 -0.6758
 5302SOL    HW127542   4.524   1.986  11.800  1.0690  1.2831 -0.9386
 5302SOL    HW227543   4.587   1.902  11.904  4.5830  0.9105 -1.5866
 5303SOL     OW27544   4.572   4.046   0.534 -0.0632  0.2834  0.2868
 5303SOL    HW127545   4.623   3.986   0.480  2.0671 -1.4872  4.2672
 5303SOL    HW227546   4.547   3.982   0.601 -0.1364 -0.4338 -0.4285
 5304SOL     OW27547   3.155   0.145   8.208 -0.4854  0.6245  0.2280
 5304SOL    HW127548   3.224   0.187   8.260  1.4220 -1.0657 -0.9587
 5304SOL    HW227549   3.094   0.125   8.279  1.4308 -1.4210  1.2893
 5305SOL     OW27550   2.913   4.454  16.988  0.0238  0.3256 -0.2979
 5305SOL    HW127551   2.832   4.473  17.035 -0.2922 -1.3436 -0.1735
 5305SOL    HW227552   2.884   4.442  16.897  1.4300 -0.9852 -0.5705
 5306SOL     OW27553   1.373   1.509   7.060  0.6339  0.3576  0.1327
 5306SOL    HW127554   1.454   1.463   7.039  0.1523  0.7104 -2.4963
 5306SOL    HW227555   1.357   1.488   7.152  3.6949  0.3488  0.6622
 5307SOL     OW27556   4.069   1.097   1.234 -0.0747 -0.4833 -0.3850
 5307SOL    HW127557   4.102   1.104   1.144  0.2169 -1.1274 -0.3258
 5307SOL    HW227558   3.989   1.047   1.224  0.3966 -1.1219 -0.9373
 5308SOL     OW27559   2.926   0.447   3.890  0.4747 -0.4969  0.1082
 5308SOL    HW127560   2.885   0.416   3.809  2.0125  0.5252 -1.0633
 5308SOL    HW227561   2.901   0.539   3.898 -0.4557 -0.7258 -0.1063
 5309SOL     OW27562   3.802   4.187   4.435  0.4859  0.6185 -0.0668
 5309SOL    HW127563   3.821   4.171   4.342  2.1417 -3.3852  0.9657
 5309SOL    HW227564   3.783   4.280   4.424 -2.1408  0.0308 -0.4806
 5310SOL     OW27565   4.275   3.940  10.806  0.0486 -0.4531  0.0364
 5310SOL    HW127566   4.328   3.867  10.837 -1.2456 -0.9953  0.9551
 5310SOL    HW227567   4.263   3.990  10.887  0.2126 -1.5176  0.7202
 5311SOL     OW27568   2.102   1.437   5.513  0.2925 -0.5559  0.3228
 5311SOL    HW127569   2.161   1.427   5.438  0.9852  0.6133  0.6954
 5311SOL    HW227570   2.059   1.352   5.520 -0.0724 -0.3391  0.6707
 5312SOL     OW27571   3.689   0.595   5.958  0.0335 -0.0566  0.2914
 5312SOL    HW127572   3.683   0.676   5.906  2.6435 -1.6596 -2.5116
 5312SOL    HW227573   3.774   0.561   5.930 -0.1380 -0.3171  0.0872
 5313SOL     OW27574   4.615   0.271   2.985  0.2088  0.1424 -0.1720
 5313SOL    HW127575   4.657   0.348   3.026  2.4712 -1.1569 -0.0426
 5313SOL    HW227576   4.599   0.221   3.065  0.0226  0.8814  0.2620
 5314SOL     OW27577   4.677   2.152   5.827  0.1118  0.2463 -0.3774
 5314SOL    HW127578   4.652   2.153   5.919  0.6620 -1.7756 -0.2074
 5314SOL    HW227579   4.729   2.232   5.838  1.8394 -1.0485  0.8271
 5315SOL     OW27580   2.256   2.850   7.287 -0.2125  0.2930 -0.5006
 5315SOL    HW127581   2.216   2.788   7.226 -1.9340  0.1497  0.7513
 5315SOL    HW227582   2.273   2.795   7.364 -2.4390  1.0113  0.5136
 5316SOL     OW27583   0.934   0.509   3.154  0.4159 -0.0592  0.2884
 5316SOL    HW127584   0.926   0.598   3.189 -0.0900 -0.3121  0.8141
 5316SOL    HW227585   0.853   0.504   3.103  0.9733 -0.0634 -0.5958
 5317SOL     OW27586   3.134   2.251   3.609 -0.0974  0.4714  0.3479
 5317SOL    HW127587   3.093   2.294   3.535  0.1564 -0.4342 -0.3184
 5317SOL    HW227588   3.066   2.235   3.675 -0.2408  0.4141  0.1838
 5318SOL     OW27589   3.018   2.449   2.936  0.5890 -0.6456 -0.9045
 5318SOL    HW127590   2.943   2.510   2.936  0.5343 -0.7276  0.4532
 5318SOL    HW227591   2.962   2.372   2.926  0.1675 -0.5801  1.0009
 5319SOL     OW27592   2.089   0.359   2.067 -0.1998 -0.6346 -0.2335
 5319SOL    HW127593   2.037   0.430   2.030 -2.6390 -1.3154  1.8992
 5319SOL    HW227594   2.162   0.415   2.094  0.1826 -0.2897 -1.9913
 5320SOL     OW27595   3.956   3.676   4.916 -0.1255  0.7768 -0.2811
 5320SOL    HW127596   3.975   3.766   4.890 -0.4998  0.5703 -1.2648
 5320SOL    HW227597   4.031   3.657   4.973 -1.1498 -1.4838  0.3084
 5321SOL     OW27598   4.381   3.825  11.301 -0.3914  0.0013  0.0512
 5321SOL    HW127599   4.436   3.886  11.349 -0.6404  0.8706 -0.7730
 5321SOL    HW227600   4.301   3.819  11.354 -0.0857 -2.3680  0.2700
 5322SOL     OW27601   1.114   4.032   4.576 -0.4059  0.0656  0.8700
 5322SOL    HW127602   1.069   3.967   4.523 -1.4778  1.0583  0.5634
 5322SOL    HW227603   1.116   3.984   4.659  1.3884 -0.5861  0.4528
 5323SOL     OW27604   1.448   1.211   9.486  0.2177 -0.2707 -0.5683
 5323SOL    HW127605   1.421   1.121   9.505  0.6689 -0.2069  0.3842
 5323SOL    HW227606   1.488   1.198   9.400  4.0285 -0.8332  1.2975
 5324SOL     OW27607   0.060   1.268  12.843 -0.2441  0.3817  0.3451
 5324SOL    HW127608   0.096   1.209  12.777 -2.8077  0.0333 -0.7315
 5324SOL    HW227609   0.132   1.271  12.906 -1.0851 -1.8315  1.4075
 5325SOL     OW27610   2.089   1.868   0.909  0.6657 -0.2581 -0.4914
 5325SOL    HW127611   2.168   1.890   0.860  0.8264 -0.1540 -0.1906
 5325SOL    HW227612   2.088   1.946   0.966 -0.0882 -1.7883  1.5904
 5326SOL     OW27613   2.200   2.556   5.874 -0.0362 -0.4574  0.1645
 5326SOL    HW127614   2.157   2.481   5.834 -0.5481  1.3845 -2.7212
 5326SOL    HW227615   2.249   2.515   5.946 -1.2804  0.0211  1.2920
 5327SOL     OW27616   2.158   1.082   3.073 -0.3454 -0.2124 -0.3346
 5327SOL    HW127617   2.145   0.997   3.114  0.1018 -0.0609  0.1264
 5327SOL    HW227618   2.136   1.149   3.137 -1.1415  0.3496 -1.2015
 5328SOL     OW27619   0.258   1.533   4.368  0.1027  0.6560  0.2705
 5328SOL    HW127620   0.293   1.519   4.279  0.3103 -1.0249  0.6022
 5328SOL    HW227621   0.250   1.445   4.406 -0.5418  0.2830 -0.7150
 5329SOL     OW27622   2.302   3.730  15.435  0.1446 -0.0124  0.1156
 5329SOL    HW127623   2.355   3.709  15.358  1.8599  1.2827  0.9270
 5329SOL    HW227624   2.320   3.821  15.459 -0.4660  0.4545 -1.1846
 5330SOL     OW27625   3.252   1.815  16.416  0.1250  0.2682 -0.2538
 5330SOL    HW127626   3.298   1.740  16.453  3.9223  1.8405 -1.8078
 5330SOL    HW227627   3.230   1.865  16.494 -1.8794 -1.1208  0.0882
 5331SOL     OW27628   3.696   3.559   6.798 -0.3033 -0.6420  0.1568
 5331SOL    HW127629   3.748   3.609   6.735 -0.3915 -2.0687 -1.0451
 5331SOL    HW227630   3.671   3.488   6.739  1.3746 -0.7326 -0.4525
 5332SOL     OW27631   0.411   4.660   2.769 -0.3503  0.1735  0.2190
 5332SOL    HW127632   0.427   0.007   2.813 -0.4265  0.0288  0.5200
 5332SOL    HW227633   0.351   4.632   2.838 -2.1439  1.0642 -0.9862
 5333SOL     OW27634   4.610   3.987  13.259  0.5877  0.1408  0.0367
 5333SOL    HW127635   4.626   3.903  13.303  2.2376 -0.0138 -0.8287
 5333SOL    HW227636   4.699   3.992  13.222  0.7684 -0.4977  0.3771
 5334SOL     OW27637   2.417   1.315   4.482  0.1801  0.4121 -0.9216
 5334SOL    HW127638   2.447   1.403   4.460  2.1941 -0.4041 -1.4124
 5334SOL    HW227639   2.396   1.309   4.389 -0.4986  1.5105 -0.8405
 5335SOL     OW27640   2.505   1.696  10.215  0.5181  0.4885  0.4781
 5335SOL    HW127641   2.567   1.726  10.148 -1.5329  0.1406 -1.5536
 5335SOL    HW227642   2.467   1.777  10.250 -0.3013  0.1101  0.4447
 5336SOL     OW27643   3.040   0.045   6.944 -0.4767  0.5541  0.1453
 5336SOL    HW127644   3.108   0.071   7.005  0.9958  0.2504 -1.3630
 5336SOL    HW227645   3.095   0.021   6.870 -0.8072 -2.0815  0.7695
 5337SOL     OW27646   4.264   0.902   7.821 -0.1773  0.5705  0.8183
 5337SOL    HW127647   4.274   0.997   7.816  1.1486  0.3146 -1.1379
 5337SOL    HW227648   4.181   0.888   7.867 -0.2774  1.3185  0.8619
 5338SOL     OW27649   2.174   0.092   7.493 -0.1896 -0.4824 -0.2315
 5338SOL    HW127650   2.136   0.135   7.417  2.1926 -1.6657 -2.0787
 5338SOL    HW227651   2.264   0.126   7.488 -0.4029  0.2804  1.0116
 5339SOL     OW27652   4.466   0.715  10.086  0.1040 -0.0920  0.4344
 5339SOL    HW127653   4.411   0.755  10.018  0.6423 -1.8303 -1.0234
 5339SOL    HW227654   4.401   0.655  10.123 -1.8007  2.7600  1.6376
 5340SOL     OW27655   2.623   3.409  10.083 -0.1748  0.0537 -0.3702
 5340SOL    HW127656   2.629   3.395  10.177  2.0281 -1.0680 -0.6868
 5340SOL    HW227657   2.589   3.499  10.085 -3.5638 -1.2061 -0.8990
 5341SOL     OW27658   1.122   3.889   6.266 -0.2299 -0.1546  0.8496
 5341SOL    HW127659   1.174   3.825   6.219  0.1185  0.9506 -0.2779
 5341SOL    HW227660   1.182   3.963   6.276  0.6066 -0.6246 -0.6325
 5342SOL     OW27661   1.072   4.535   2.187  0.5476 -0.0068 -0.1454
 5342SOL    HW127662   1.108   4.610   2.139 -0.8076  0.9762  0.3545
 5342SOL    HW227663   0.989   4.582   2.199  0.9760  0.4589  0.9912
 5343SOL     OW27664   1.692   1.115  15.809  0.2889 -0.3896  0.0389
 5343SOL    HW127665   1.688   1.021  15.789  1.2199 -0.5089  0.3974
 5343SOL    HW227666   1.750   1.096  15.882  2.1635  0.4259 -1.2597
 5344SOL     OW27667   2.859   3.345   9.246 -0.1879  0.6183 -0.1876
 5344SOL    HW127668   2.929   3.333   9.182 -1.6819  0.3451 -1.7708
 5344SOL    HW227669   2.778   3.331   9.197  0.0242  0.3703 -0.4666
 5345SOL     OW27670   0.041   1.550   7.423 -0.0609  0.3600  0.0379
 5345SOL    HW127671   0.051   1.636   7.383  0.9053  1.5701  2.9231
 5345SOL    HW227672   0.134   1.531   7.428  0.0034 -0.1286 -2.6969
 5346SOL     OW27673   0.372   2.516   3.802 -0.2466 -0.2831 -0.2916
 5346SOL    HW127674   0.389   2.444   3.863  2.4797 -0.1027 -0.8432
 5346SOL    HW227675   0.285   2.548   3.825 -0.3247 -2.0356  1.8561
 5347SOL     OW27676   2.617   3.698   9.682  0.4624 -0.1799  0.1785
 5347SOL    HW127677   2.548   3.758   9.651 -0.8453 -1.5085  0.5224
 5347SOL    HW227678   2.688   3.761   9.695  1.4175 -0.9509 -1.3490
 5348SOL     OW27679   3.085   3.549   1.618 -0.6858 -0.1542  0.9583
 5348SOL    HW127680   3.043   3.590   1.542 -0.0081 -2.0279 -0.4330
 5348SOL    HW227681   3.021   3.568   1.687 -3.0275  0.2862 -1.3024
 5349SOL     OW27682   4.110   2.784   1.653  0.4389 -0.3498 -0.0083
 5349SOL    HW127683   4.043   2.769   1.719 -0.3996  1.3748 -0.4616
 5349SOL    HW227684   4.100   2.875   1.626 -0.3402 -0.1935  0.8200
 5350SOL     OW27685   0.060   2.924   8.505 -0.1595  0.2228 -0.1440
 5350SOL    HW127686   0.047   2.839   8.547 -0.3403  1.2912  1.9411
 5350SOL    HW227687   4.702   2.947   8.505 -0.8926 -2.8164  0.3388
 5351SOL     OW27688   1.670   0.910   1.817  0.5928  0.1111 -0.3151
 5351SOL    HW127689   1.742   0.889   1.757  1.3582 -0.0833  0.6498
 5351SOL    HW227690   1.675   1.006   1.822 -1.9252  0.3949 -3.8479
 5352SOL     OW27691   4.151   4.159  11.766  0.0517  0.2715  0.4491
 5352SOL    HW127692   4.176   4.212  11.841  0.7011 -0.5219  0.7972
 5352SOL    HW227693   4.062   4.190  11.750  0.5450  1.4565  0.0425
 5353SOL     OW27694   1.021   0.978   7.983  0.0596 -0.7640 -0.6169
 5353SOL    HW127695   0.932   1.012   7.977 -0.3482 -1.3731  2.2286
 5353SOL    HW227696   1.021   0.884   7.969  0.3259 -0.8380 -0.1223
 5354SOL     OW27697   1.046   4.547   9.260  0.0001 -0.5187 -0.1989
 5354SOL    HW127698   1.029   4.468   9.208  0.7466 -0.6753 -0.2037
 5354SOL    HW227699   1.095   4.522   9.339 -1.7492  1.0270  1.3804
 5355SOL     OW27700   3.134   0.014   9.288  0.3736  0.2911  0.2326
 5355SOL    HW127701   3.131   4.722   9.379  4.4924  2.4472  1.0230
 5355SOL    HW227702   3.065   4.695   9.251  2.3126 -1.5869 -0.6153
 5356SOL     OW27703   1.812   1.722   2.488 -0.0504  0.0332 -0.4318
 5356SOL    HW127704   1.844   1.803   2.450 -0.4059  0.0057 -0.7872
 5356SOL    HW227705   1.868   1.662   2.439 -1.1080 -1.5987  0.3275
 5357SOL     OW27706   1.228   1.653   8.818  0.2942 -0.1635  0.7281
 5357SOL    HW127707   1.219   1.707   8.896 -1.2467  2.7889 -1.4901
 5357SOL    HW227708   1.137   1.640   8.792  0.1230  0.6707  0.9163
 5358SOL     OW27709   2.578   4.331  10.047  0.1859 -0.2619  0.8231
 5358SOL    HW127710   2.562   4.248  10.092 -0.4677  0.2372  1.5008
 5358SOL    HW227711   2.674   4.326  10.044  0.1802 -0.1037  0.2500
 5359SOL     OW27712   2.414   3.493  13.101 -0.0659  0.3480  0.2367
 5359SOL    HW127713   2.340   3.533  13.145 -0.7645  1.0979 -1.6273
 5359SOL    HW227714   2.372   3.448  13.028  1.1196  0.3620 -0.4656
 5360SOL     OW27715   1.376   3.144  17.513 -0.2120  0.0070  0.1333
 5360SOL    HW127716   1.439   3.183  17.574 -0.4406  0.8462 -0.1595
 5360SOL    HW227717   1.397   3.198  17.437 -0.7277  1.2063  0.8246
 5361SOL     OW27718   1.481   0.867   1.551  0.0285  0.2157  0.3813
 5361SOL    HW127719   1.573   0.885   1.571 -0.1604  0.0719  1.3562
 5361SOL    HW227720   1.469   0.778   1.583 -2.1446  0.7943  1.2467
 5362SOL     OW27721   0.735   2.110  12.347  0.0458  0.7255 -0.6364
 5362SOL    HW127722   0.802   2.075  12.406 -1.4201 -0.1822  0.4618
 5362SOL    HW227723   0.753   2.204  12.350 -1.0063  0.8262  2.1330
 5363SOL     OW27724   1.626   4.670   4.098  1.0743 -0.3950  0.0233
 5363SOL    HW127725   1.641   4.642   4.188 -0.8205  2.0632  1.1318
 5363SOL    HW227726   1.542   4.625   4.089 -0.4538  2.3485  0.3817
 5364SOL     OW27727   2.687   2.334   2.080 -0.7560 -0.1702  0.2532
 5364SOL    HW127728   2.695   2.308   1.988 -0.0681 -2.2323  0.8917
 5364SOL    HW227729   2.616   2.275   2.106  0.9876 -1.5611  1.8462
 5365SOL     OW27730   3.459   2.853  10.508 -0.3382 -0.1252 -1.0991
 5365SOL    HW127731   3.382   2.853  10.566 -0.3100  1.9715 -1.0577
 5365SOL    HW227732   3.525   2.817  10.567 -0.9443  1.3245  0.4632
 5366SOL     OW27733   2.885   4.516   7.640 -0.1946 -0.1898  0.2641
 5366SOL    HW127734   2.881   4.531   7.735 -2.9704 -0.4761  0.1743
 5366SOL    HW227735   2.831   4.438   7.627 -2.5812  1.9741 -2.8788
 5367SOL     OW27736   3.495   1.177  13.161  0.0368  0.3334  0.4164
 5367SOL    HW127737   3.490   1.265  13.124 -0.7430  0.5073  0.9514
 5367SOL    HW227738   3.451   1.124  13.095 -0.0534  0.5571  0.3006
 5368SOL     OW27739   2.216   1.658   9.224  0.4696  0.2632 -0.4298
 5368SOL    HW127740   2.183   1.632   9.138 -0.4299  0.5777 -0.1842
 5368SOL    HW227741   2.300   1.613   9.225 -0.2970 -1.1655  0.5043
 5369SOL     OW27742   3.438   4.695   5.527 -0.0441  0.0756 -0.3732
 5369SOL    HW127743   3.394   4.688   5.443 -2.1052 -0.9541  0.8061
 5369SOL    HW227744   3.420   0.051   5.548  0.8116 -0.1813  1.5453
 5370SOL     OW27745   1.621   0.848   7.142  0.4381 -0.4892  0.3089
 5370SOL    HW127746   1.613   0.833   7.236  0.4070 -2.3313  0.0166
 5370SOL    HW227747   1.710   0.879   7.131 -0.3126  1.3553 -0.6567
 5371SOL     OW27748   3.262   4.433   9.730  0.0508 -0.4942  0.9265
 5371SOL    HW127749   3.312   4.351   9.734  1.1754 -0.0266 -3.7507
 5371SOL    HW227750   3.245   4.459   9.820  0.3022  0.4502  0.6935
 5372SOL     OW27751   0.146   2.034   4.221 -0.2842 -0.1693 -0.0418
 5372SOL    HW127752   0.209   1.976   4.177 -0.7717 -1.5949  1.1402
 5372SOL    HW227753   0.193   2.116   4.234 -0.9909  0.3253 -0.6340
 5373SOL     OW27754   4.002   4.035   8.516 -0.6479 -0.4116  0.0615
 5373SOL    HW127755   3.925   4.017   8.569 -1.9633 -0.7687 -1.9598
 5373SOL    HW227756   4.072   4.057   8.578  0.7626 -0.4697 -1.4950
 5374SOL     OW27757   3.534   4.678   3.577 -0.0099 -0.1682  0.6748
 5374SOL    HW127758   3.467   4.617   3.547 -0.8883  0.8298  0.6462
 5374SOL    HW227759   3.490   4.726   3.647  2.4610  1.5461  1.0451
 5375SOL     OW27760   3.729   2.034   2.336 -0.0541  0.6405 -0.0158
 5375SOL    HW127761   3.753   2.049   2.427  0.3698 -0.0696 -0.0099
 5375SOL    HW227762   3.816   2.047   2.298 -0.2788 -1.6514 -1.3819
 5376SOL     OW27763   4.124   2.836   8.119 -0.2898  0.3361 -0.4852
 5376SOL    HW127764   4.197   2.860   8.176  0.1251 -2.2431  0.0702
 5376SOL    HW227765   4.079   2.921   8.115 -1.4383 -0.2878 -0.7922
 5377SOL     OW27766   4.245   0.353   5.209 -0.2499 -0.4035 -0.1598
 5377SOL    HW127767   4.277   0.381   5.295  2.0938  3.0683 -2.1401
 5377SOL    HW227768   4.153   0.374   5.222  0.3604  1.2228  1.6502
 5378SOL     OW27769   3.783   3.063  14.387 -0.2716 -0.4830  0.4788
 5378SOL    HW127770   3.776   3.125  14.460 -0.1453  0.7597 -0.5560
 5378SOL    HW227771   3.696   3.059  14.349  0.4789  0.8145 -1.3992
 5379SOL     OW27772   2.444   3.894   8.260 -0.4997  0.6304 -0.4173
 5379SOL    HW127773   2.524   3.850   8.230 -0.2413 -0.4795  1.9165
 5379SOL    HW227774   2.428   3.839   8.336 -2.6407  0.3209 -1.1151
 5380SOL     OW27775   4.008   0.168   8.651  0.1300 -0.4506  0.0080
 5380SOL    HW127776   4.089   0.217   8.662  0.5826 -1.2223  0.1030
 5380SOL    HW227777   3.954   0.236   8.689 -0.5104 -0.2872 -1.2030
 5381SOL     OW27778   0.306   2.111   7.282  0.4849  0.1181  0.3315
 5381SOL    HW127779   0.379   2.126   7.341 -0.5272 -1.5413  2.0010
 5381SOL    HW227780   0.239   2.058   7.325 -2.0241  1.9068 -1.3345
 5382SOL     OW27781   0.828   1.557   3.007 -0.0447 -0.3405 -0.1027
 5382SOL    HW127782   0.850   1.580   3.097  1.3604  2.9953 -1.3016
 5382SOL    HW227783   0.827   1.636   2.954 -2.0087 -1.1702 -1.2851
 5383SOL     OW27784   4.634   2.142   4.053 -0.1783 -0.4656 -0.1041
 5383SOL    HW127785   4.545   2.108   4.064  0.1336 -0.2955  2.9447
 5383SOL    HW227786   4.633   2.220   4.108  0.5132 -0.1895 -0.4846
 5384SOL     OW27787   0.788   2.623   7.531  0.2195  0.6501 -0.2047
 5384SOL    HW127788   0.803   2.641   7.624 -0.8354 -0.1993  0.1385
 5384SOL    HW227789   0.774   2.713   7.502 -0.5343  0.8724  0.8347
 5385SOL     OW27790   0.933   2.853  11.725  0.2559  0.1070  0.1753
 5385SOL    HW127791   1.010   2.811  11.762 -0.8055 -1.1366  0.9805
 5385SOL    HW227792   0.919   2.806  11.643 -2.1026  0.6167  0.2831
 5386SOL     OW27793   4.070   0.015  16.187 -0.4643  0.0769 -0.3316
 5386SOL    HW127794   4.051   0.032  16.279  0.3175  0.7463 -0.2958
 5386SOL    HW227795   4.142   0.077  16.177  0.4561 -0.7965  0.8930
 5387SOL     OW27796   0.673   0.906   3.890  0.2973  0.2803 -0.2438
 5387SOL    HW127797   0.750   0.938   3.843  0.2760  1.2437  0.3810
 5387SOL    HW227798   0.695   0.957   3.968  0.4836  0.4335 -0.3964
 5388SOL     OW27799   2.376   3.402   2.879  0.3418  0.2914 -0.3779
 5388SOL    HW127800   2.306   3.350   2.838 -1.5404  0.8367  2.1572
 5388SOL    HW227801   2.431   3.325   2.892  2.9036  2.1101 -0.6262
 5389SOL     OW27802   1.062   2.774   3.500 -0.5116 -0.6300  0.4460
 5389SOL    HW127803   1.018   2.759   3.417 -0.6480  1.9981  0.0514
 5389SOL    HW227804   1.141   2.818   3.467 -2.6484  0.9452 -2.5201
 5390SOL     OW27805   1.406   3.277   4.901 -0.0860  0.1145 -0.3147
 5390SOL    HW127806   1.426   3.229   4.981 -2.5474 -0.6878 -0.1887
 5390SOL    HW227807   1.481   3.255   4.846  1.7657 -2.4107  3.2474
 5391SOL     OW27808   4.674   3.693   5.722  0.4812 -0.0484 -0.7519
 5391SOL    HW127809   4.641   3.638   5.793 -0.0759 -0.4106 -1.2921
 5391SOL    HW227810   4.713   3.766   5.770 -1.3900 -0.9210  2.0840
 5392SOL     OW27811   3.816   3.772  16.373 -0.8609 -0.0644  0.3884
 5392SOL    HW127812   3.776   3.843  16.323 -0.4674  0.6636  1.1034
 5392SOL    HW227813   3.739   3.719  16.394 -1.3851  0.6828  0.3476
 5393SOL     OW27814   0.077   2.348   3.122  0.1383 -0.4948 -0.2624
 5393SOL    HW127815   0.048   2.382   3.207 -2.4027 -0.7141 -1.0518
 5393SOL    HW227816   0.172   2.360   3.125  0.3815 -1.7592 -2.9391
 5394SOL     OW27817   3.950   4.462   5.090  0.3601 -0.4409 -0.1744
 5394SOL    HW127818   3.876   4.465   5.150  2.0979  0.7535  1.8975
 5394SOL    HW227819   4.003   4.399   5.139  0.9725  0.2383  0.0233
 5395SOL     OW27820   0.544   2.663  13.300 -0.5995 -0.7880  0.7991
 5395SOL    HW127821   0.533   2.570  13.280  1.7038 -1.4887  2.7720
 5395SOL    HW227822   0.609   2.691  13.235 -1.7778 -2.4236 -1.0590
 5396SOL     OW27823   2.277   4.379   0.979 -0.0593  0.6713 -0.4425
 5396SOL    HW127824   2.253   4.300   0.929  0.2661  1.2563 -1.5130
 5396SOL    HW227825   2.370   4.357   0.991 -0.2378 -0.3699 -0.9202
 5397SOL     OW27826   1.263   3.678   1.841  0.0598  0.3236 -0.2267
 5397SOL    HW127827   1.216   3.594   1.833 -0.6219  0.5922  0.8429
 5397SOL    HW227828   1.350   3.643   1.826  0.4714  2.0493 -1.7780
 5398SOL     OW27829   1.637   0.381  12.022  0.3203 -0.3869  0.0105
 5398SOL    HW127830   1.628   0.387  12.118 -0.8218  0.1530 -0.1225
 5398SOL    HW227831   1.601   0.462  11.986 -0.1932 -0.6388 -0.0404
 5399SOL     OW27832   3.458   1.508   4.467  0.4283 -0.5352  0.1380
 5399SOL    HW127833   3.551   1.525   4.484  0.9285 -1.0525 -2.0151
 5399SOL    HW227834   3.445   1.557   4.386 -0.5574  2.0556  1.8586
 5400SOL     OW27835   4.555   1.307   7.934  0.8120  0.7068 -0.1774
 5400SOL    HW127836   4.558   1.402   7.922  1.0203  0.8691  1.0714
 5400SOL    HW227837   4.649   1.291   7.932  0.4001 -1.8035  0.4380
 5401SOL     OW27838   3.658   1.300  15.502 -0.1842 -0.1906 -0.0454
 5401SOL    HW127839   3.646   1.378  15.448  0.2066 -1.4693 -1.9992
 5401SOL    HW227840   3.740   1.264  15.469  0.0113  1.2373 -1.1110
 5402SOL     OW27841   3.565   1.673   8.744  0.6858  0.1668 -0.4389
 5402SOL    HW127842   3.655   1.651   8.722  1.0275 -0.1442  1.2478
 5402SOL    HW227843   3.568   1.759   8.785 -1.6045  1.1852 -2.3613
 5403SOL     OW27844   3.827   2.078  16.876 -0.5176  0.4996  0.3166
 5403SOL    HW127845   3.822   2.065  16.970  2.3322  0.5032  0.4858
 5403SOL    HW227846   3.737   2.060  16.850 -0.3033  0.1805 -0.2019
 5404SOL     OW27847   1.970   3.729   4.543 -0.2460  0.0409  0.2268
 5404SOL    HW127848   2.010   3.642   4.540  0.3026  0.2922  0.3068
 5404SOL    HW227849   1.931   3.733   4.630 -0.7351 -0.4310  0.0334
 5405SOL     OW27850   4.591   2.525  13.752 -0.5498  0.5695 -0.1056
 5405SOL    HW127851   4.679   2.532  13.788 -1.4128  1.3018  1.8485
 5405SOL    HW227852   4.595   2.603  13.697 -0.6215  0.9197  0.3831
 5406SOL     OW27853   2.283   2.260   1.065 -0.3395  0.0131  0.0343
 5406SOL    HW127854   2.343   2.332   1.048  0.2085 -0.0575  1.6781
 5406SOL    HW227855   2.199   2.305   1.055 -0.3096  0.6021  2.4405
 5407SOL     OW27856   2.968   1.576   6.606  0.3574 -0.0203 -0.4766
 5407SOL    HW127857   3.003   1.517   6.539 -0.0005  0.3732 -1.0086
 5407SOL    HW227858   2.938   1.523   6.679 -2.1642  1.1904 -0.6231
 5408SOL     OW27859   4.706   1.044   3.947 -0.3698  0.2250  0.9435
 5408SOL    HW127860   0.062   1.060   3.923 -0.7741  3.0377  1.2371
 5408SOL    HW227861   4.675   1.134   3.963 -1.3265  0.2426 -0.9774
 5409SOL     OW27862   0.556   2.190  17.055  0.4213 -0.8001  0.6234
 5409SOL    HW127863   0.527   2.136  17.128  2.2686 -1.1207  1.1251
 5409SOL    HW227864   0.480   2.191  16.998  0.3776  0.2010  0.6987
 5410SOL     OW27865   2.682   4.101   8.540  0.3810  0.1587 -0.3055
 5410SOL    HW127866   2.609   4.066   8.488  0.5788 -1.5775  0.5898
 5410SOL    HW227867   2.648   4.096   8.629 -1.9164  1.2360 -1.0930
 5411SOL     OW27868   0.874   2.939  16.121  0.0582 -0.0044  0.0325
 5411SOL    HW127869   0.903   2.891  16.043 -1.5688 -1.2611  0.1891
 5411SOL    HW227870   0.899   2.882  16.193  1.2050  0.3545 -0.0818
 5412SOL     OW27871   3.820   2.370   2.590 -0.1948 -0.3027  0.6785
 5412SOL    HW127872   3.746   2.424   2.563 -0.2970  0.3353  2.2265
 5412SOL    HW227873   3.854   2.427   2.658  0.6372  0.4712 -0.3953
 5413SOL     OW27874   1.307   0.267   9.668 -0.1313 -0.2621 -0.3639
 5413SOL    HW127875   1.355   0.334   9.717 -0.3330 -1.2555  1.1846
 5413SOL    HW227876   1.380   0.217   9.630  0.3920 -0.3977  0.8321
 5414SOL     OW27877   4.639   3.445   7.247 -0.1583  0.1096  0.3738
 5414SOL    HW127878   4.544   3.439   7.250 -0.2110  0.1662 -1.0273
 5414SOL    HW227879   4.636   3.417   7.155  0.9129 -0.6195  0.5624
 5415SOL     OW27880   1.925   0.683  17.163  0.1820  0.3577 -0.0485
 5415SOL    HW127881   1.859   0.708  17.228 -1.1844 -0.5302 -1.0923
 5415SOL    HW227882   1.863   0.653  17.096  0.8353  1.8080 -1.3155
 5416SOL     OW27883   3.017   0.223   6.060  0.1645 -0.3370 -0.6497
 5416SOL    HW127884   3.001   0.265   5.976  0.1988 -1.5381 -1.2558
 5416SOL    HW227885   3.096   0.171   6.046  0.0621 -0.5425 -0.4874
 5417SOL     OW27886   3.582   0.932   7.184 -0.1483  0.6723 -0.6554
 5417SOL    HW127887   3.668   0.952   7.221 -1.5147  3.5363  0.9820
 5417SOL    HW227888   3.527   0.959   7.257  0.7063  0.5216  0.0468
 5418SOL     OW27889   1.173   0.652  10.204  0.2530 -0.3375  0.1553
 5418SOL    HW127890   1.086   0.690  10.197 -0.4431 -1.7796  0.9507
 5418SOL    HW227891   1.152   0.570  10.249 -0.8644  1.9211  3.7708
 5419SOL     OW27892   3.856   3.602   7.669 -0.0078 -0.4379  0.2887
 5419SOL    HW127893   3.919   3.660   7.712 -0.0374 -0.9861  1.0547
 5419SOL    HW227894   3.791   3.607   7.739  0.9862  3.7634  0.9192
 5420SOL     OW27895   3.535   3.772   3.442 -0.1284 -0.3103  0.2254
 5420SOL    HW127896   3.600   3.831   3.404 -3.1745  2.3860 -0.8365
 5420SOL    HW227897   3.554   3.786   3.535 -0.3996 -2.5128  0.6041
 5421SOL     OW27898   2.564   3.371   2.525  0.1715 -0.8115 -0.5197
 5421SOL    HW127899   2.620   3.342   2.597  0.2098 -0.4936 -0.4191
 5421SOL    HW227900   2.526   3.453   2.556 -2.8544 -2.7225  0.8252
 5422SOL     OW27901   4.478   1.740   6.895  0.3113  0.3269 -0.2799
 5422SOL    HW127902   4.413   1.803   6.865  0.5545 -0.4767 -2.4838
 5422SOL    HW227903   4.442   1.738   6.983 -0.7783 -1.5063 -0.7631
 5423SOL     OW27904   3.940   1.737   1.697  0.6325 -0.2476  0.0313
 5423SOL    HW127905   3.924   1.686   1.777  0.1403  1.2458  0.8746
 5423SOL    HW227906   4.032   1.758   1.712  0.4782  0.7096 -0.3720
 5424SOL     OW27907   3.962   1.590  14.457 -0.1249  0.2763  0.2702
 5424SOL    HW127908   3.897   1.622  14.519  0.8397  2.4065  0.1709
 5424SOL    HW227909   3.939   1.629  14.372  0.0189  0.5780  0.3700
 5425SOL     OW27910   0.860   4.695  11.655  0.1046 -0.4004 -0.0938
 5425SOL    HW127911   0.836   4.608  11.686 -1.9032 -0.1502 -0.9429
 5425SOL    HW227912   0.941   4.681  11.607 -0.1841  0.0615 -0.7115
 5426SOL     OW27913   0.618   1.174  14.520  0.0917  0.1046 -0.1501
 5426SOL    HW127914   0.567   1.157  14.599  3.0392  3.7931  2.5479
 5426SOL    HW227915   0.583   1.258  14.492 -0.0445  0.0500 -0.1430
 5427SOL     OW27916   0.496   3.571   3.056 -0.6371  0.3411  0.0812
 5427SOL    HW127917   0.516   3.563   2.963 -0.6942  0.6473  0.0431
 5427SOL    HW227918   0.404   3.586   3.035 -0.1717  2.7906 -0.2503
 5428SOL     OW27919   2.310   3.775  14.931 -0.0664  0.1992  0.1350
 5428SOL    HW127920   2.255   3.778  14.853  0.7924 -1.3285 -0.5288
 5428SOL    HW227921   2.334   3.683  14.920  1.0330  0.5077 -0.0456
 5429SOL     OW27922   3.561   1.252   1.850 -0.3044  0.2615  0.1469
 5429SOL    HW127923   3.472   1.276   1.823  0.1664  1.1221 -0.6442
 5429SOL    HW227924   3.606   1.335   1.861 -0.3028  0.6132 -2.6122
 5430SOL     OW27925   0.721   0.165   3.342 -0.0029 -0.1097  0.3700
 5430SOL    HW127926   0.671   0.221   3.401  0.8329  0.2985  0.6863
 5430SOL    HW227927   0.810   0.162   3.378  0.6955 -0.7825 -1.3942
 5431SOL     OW27928   1.724   2.479   6.635 -0.5029 -0.6297 -0.5677
 5431SOL    HW127929   1.678   2.551   6.593  0.7995  0.6777  0.2484
 5431SOL    HW227930   1.803   2.527   6.660 -1.1698  0.4562 -0.5433
 5432SOL     OW27931   3.267   1.382   4.598 -0.0102  0.5330  0.5774
 5432SOL    HW127932   3.341   1.423   4.553  0.5283  1.3329  2.2065
 5432SOL    HW227933   3.306   1.359   4.682 -0.3767  1.3098  0.9523
 5433SOL     OW27934   4.334   1.318   7.159 -0.1231  0.0417 -0.2012
 5433SOL    HW127935   4.411   1.268   7.188 -1.4512 -2.3935 -0.8443
 5433SOL    HW227936   4.377   1.403   7.155 -0.9615  0.4706 -0.0163
 5434SOL     OW27937   1.470   2.392   2.742 -0.0083  0.6199  0.2653
 5434SOL    HW127938   1.487   2.448   2.817 -1.0856  3.0654 -1.3115
 5434SOL    HW227939   1.437   2.312   2.784 -0.4161  1.1992  1.0460
 5435SOL     OW27940   1.932   2.877  16.441  0.4711 -0.7154  0.3206
 5435SOL    HW127941   1.967   2.885  16.352 -0.7785  2.2021  0.0946
 5435SOL    HW227942   2.004   2.854  16.500 -1.0566 -1.0963  2.0491
 5436SOL     OW27943   1.589   1.733  17.725 -0.4792 -0.2566  0.0960
 5436SOL    HW127944   1.533   1.809  17.707 -1.5835 -1.1277 -0.1267
 5436SOL    HW227945   1.541   1.652  17.712  2.6983 -2.2470  0.5737
 5437SOL     OW27946   3.740   2.131  15.098  0.3892 -0.7509 -0.5281
 5437SOL    HW127947   3.812   2.151  15.038  0.6263  0.9247  0.3151
 5437SOL    HW227948   3.768   2.180  15.175 -1.6219  1.4544 -1.2273
 5438SOL     OW27949   2.871   4.184   5.586 -0.5248  0.1305 -0.5526
 5438SOL    HW127950   2.853   4.161   5.677  0.1179  0.6982 -0.2809
 5438SOL    HW227951   2.949   4.233   5.610 -0.8352 -0.3392  1.4227
 5439SOL     OW27952   2.794   4.156  10.657 -0.3036  0.2477 -0.2574
 5439SOL    HW127953   2.747   4.189  10.580  1.8022  0.0988 -1.5907
 5439SOL    HW227954   2.723   4.115  10.705 -0.1802 -0.9105 -1.0676
 5440SOL     OW27955   4.171   1.860   2.886  0.2247 -0.2742 -0.0379
 5440SOL    HW127956   4.239   1.842   2.822  0.5989 -2.1210  0.8755
 5440SOL    HW227957   4.102   1.816   2.838 -0.4216  0.3834  0.2750
 5441SOL     OW27958   0.510   2.527  10.474  0.2001 -0.1963 -0.0073
 5441SOL    HW127959   0.451   2.455  10.451 -0.3217  0.0781  0.4753
 5441SOL    HW227960   0.535   2.511  10.565  1.2647 -0.3551 -0.3246
 5442SOL     OW27961   1.771   1.483   2.706 -0.1683 -0.4354 -0.3715
 5442SOL    HW127962   1.864   1.464   2.693 -0.3667 -0.0035 -2.4331
 5442SOL    HW227963   1.740   1.399   2.739  1.5511 -0.3941  1.3455
 5443SOL     OW27964   0.187   0.594  17.096 -0.6375 -0.1945 -0.0025
 5443SOL    HW127965   0.143   0.579  17.013 -1.0525  2.6013 -0.3020
 5443SOL    HW227966   0.260   0.532  17.091  1.6035  2.6700 -2.8590
 5444SOL     OW27967   3.303   0.577   3.057 -0.1847  0.0650  0.6294
 5444SOL    HW127968   3.236   0.582   2.989  1.3959  1.8915 -0.7691
 5444SOL    HW227969   3.244   0.582   3.133 -1.1068  1.1473 -0.1585
 5445SOL     OW27970   3.674   4.719   6.445  0.3105 -0.3750 -0.1344
 5445SOL    HW127971   3.744   0.023   6.393 -0.8260 -0.1500 -1.4935
 5445SOL    HW227972   3.730   4.659   6.494 -0.2748  0.1918  1.2184
 5446SOL     OW27973   2.868   2.666   5.560  0.3390 -0.2772  0.0331
 5446SOL    HW127974   2.817   2.716   5.496  0.4842  0.1749  0.2726
 5446SOL    HW227975   2.911   2.603   5.501 -0.3787  0.1690 -0.9643
 5447SOL     OW27976   3.471   1.740  13.820  0.0505  0.0320 -0.5984
 5447SOL    HW127977   3.439   1.829  13.837  0.5899  0.0287  0.3629
 5447SOL    HW227978   3.386   1.707  13.789 -0.3973  0.1399  0.5118
 5448SOL     OW27979   2.301   2.623  14.906 -0.0286 -0.0811  0.3742
 5448SOL    HW127980   2.276   2.644  14.996  0.2920  0.3016  0.3717
 5448SOL    HW227981   2.260   2.536  14.908  0.5659 -0.3939 -1.1690
 5449SOL     OW27982   1.275   0.843   1.945 -0.1915 -0.8346 -0.0549
 5449SOL    HW127983   1.232   0.908   1.889 -0.7593  1.3632  2.9696
 5449SOL    HW227984   1.283   0.771   1.882 -0.8998 -0.6185 -0.3936
 5450SOL     OW27985   1.319   1.741   4.043 -0.6811  0.4975  0.2862
 5450SOL    HW127986   1.243   1.799   4.040 -0.8601  0.1778 -1.6654
 5450SOL    HW227987   1.292   1.681   3.973 -2.1563  1.3550  0.1283
 5451SOL     OW27988   2.436   1.048   2.791  0.1418  0.5686  0.9176
 5451SOL    HW127989   2.411   1.058   2.883 -1.3411 -2.7493  0.8922
 5451SOL    HW227990   2.448   1.137   2.760  1.5645 -0.2928 -1.0361
 5452SOL     OW27991   3.382   2.324  17.424 -0.5458 -0.5042  0.0466
 5452SOL    HW127992   3.309   2.336  17.363  0.3277 -0.7101 -1.0191
 5452SOL    HW227993   3.365   2.239  17.466  0.2177 -1.6664 -2.0291
 5453SOL     OW27994   4.040   3.166   4.973  0.1244  0.0541 -0.0287
 5453SOL    HW127995   4.022   3.072   4.971  1.5260 -0.2383  0.7813
 5453SOL    HW227996   4.131   3.162   5.003 -0.3066  1.4592  1.4523
 5454SOL     OW27997   3.815   4.497   6.523 -0.0902  0.2756 -0.2127
 5454SOL    HW127998   3.890   4.437   6.525 -1.0998 -0.9388  1.1675
 5454SOL    HW227999   3.751   4.433   6.496  2.3341 -1.0760 -2.7557
 5455SOL     OW28000   1.746   3.969   6.964  0.0279  0.0210  0.9486
 5455SOL    HW128001   1.805   4.002   7.031 -0.2370 -0.5896  1.4776
 5455SOL    HW228002   1.668   3.955   7.017  1.0560 -0.3040  2.3752
 5456SOL     OW28003   2.814   0.332   5.567 -0.2667  0.4787  0.0109
 5456SOL    HW128004   2.790   0.243   5.593  0.7503  0.4462  0.8271
 5456SOL    HW228005   2.908   0.332   5.549 -0.6808 -2.3992 -2.3590
 5457SOL     OW28006   3.651   3.516   3.100  0.0104  0.1549 -0.0609
 5457SOL    HW128007   3.676   3.607   3.084 -2.2115  0.5058 -1.4784
 5457SOL    HW228008   3.583   3.524   3.166  0.4198  0.8593  0.2733
 5458SOL     OW28009   1.553   0.149  15.072  0.6287  0.1370  0.5493
 5458SOL    HW128010   1.567   0.157  14.977 -0.1758  1.3612  0.5309
 5458SOL    HW228011   1.634   0.180  15.111 -0.0492  1.4309  0.9422
 5459SOL     OW28012   0.908   2.274   1.111 -0.5366 -0.1702  0.2331
 5459SOL    HW128013   0.892   2.206   1.046 -0.4782 -0.4246  0.4858
 5459SOL    HW228014   1.003   2.259   1.116 -0.3084  0.3324 -2.2324
 5460SOL     OW28015   3.038   0.744   5.198 -0.5186  0.2061 -0.0946
 5460SOL    HW128016   3.079   0.692   5.130 -1.0619 -1.2433  0.6952
 5460SOL    HW228017   2.999   0.812   5.143 -0.5926 -1.3322 -1.9103
 5461SOL     OW28018   2.522   0.488  15.307  0.1701 -0.5090 -0.4745
 5461SOL    HW128019   2.517   0.499  15.212  0.5846  3.2745 -0.0786
 5461SOL    HW228020   2.445   0.540  15.329  0.6933  0.2317 -0.3882
 5462SOL     OW28021   0.548   4.374   3.419  0.0857 -0.0932  0.0609
 5462SOL    HW128022   0.510   4.328   3.344 -0.0119  0.5003 -0.2497
 5462SOL    HW228023   0.577   4.456   3.379  1.2538 -0.2894  0.5213
 5463SOL     OW28024   4.094   3.890   6.169  0.7692 -0.4853 -0.3016
 5463SOL    HW128025   4.172   3.844   6.138 -0.0572 -2.1969  0.1575
 5463SOL    HW228026   4.083   3.945   6.092 -0.0737  0.2579  0.3477
 5464SOL     OW28027   3.565   3.064  14.224  0.4115  0.0846 -0.0811
 5464SOL    HW128028   3.479   3.024  14.211 -1.8737  4.8228  0.1183
 5464SOL    HW228029   3.612   3.046  14.142  1.7483  3.4225 -0.0784
 5465SOL     OW28030   3.909   2.919   9.730 -0.0700  0.0349  0.3371
 5465SOL    HW128031   3.823   2.936   9.768 -0.4859 -1.4232  0.0715
 5465SOL    HW228032   3.944   2.854   9.792 -0.8225 -0.4236  0.2785
 5466SOL     OW28033   0.408   4.213  16.110 -0.1624  0.0352 -0.9138
 5466SOL    HW128034   0.348   4.246  16.044 -0.7823  0.9165  0.0886
 5466SOL    HW228035   0.454   4.146  16.060  0.8091 -0.0645  0.1026
 5467SOL     OW28036   4.493   2.398   9.187  0.0507  0.4479  0.0654
 5467SOL    HW128037   4.575   2.355   9.164  0.9222  2.2227 -0.1725
 5467SOL    HW228038   4.478   2.347   9.266  1.6270 -2.3660 -1.4743
 5468SOL     OW28039   0.535   2.521   1.988 -0.1455 -0.0230  0.3478
 5468SOL    HW128040   0.626   2.536   1.962  0.3202  0.0491  2.0486
 5468SOL    HW228041   0.550   2.538   2.080 -3.7561  0.9376  0.7630
 5469SOL     OW28042   3.753   0.895  16.739 -0.3974 -0.0771  0.1004
 5469SOL    HW128043   3.749   0.824  16.674  0.9318  0.2160 -0.3021
 5469SOL    HW228044   3.827   0.863  16.791 -0.8663  1.6403  1.8096
 5470SOL     OW28045   2.953   0.505   2.485 -0.1319  0.0715  0.1796
 5470SOL    HW128046   2.931   0.487   2.394 -0.0327 -0.1564  0.2013
 5470SOL    HW228047   2.870   0.540   2.517  0.6816  0.2398  2.1418
 5471SOL     OW28048   3.203   1.340   5.732  0.2813 -0.1689 -0.4695
 5471SOL    HW128049   3.237   1.383   5.811 -0.0585  0.5900 -0.7362
 5471SOL    HW228050   3.283   1.340   5.680  0.8386  3.3195  0.3703
 5472SOL     OW28051   1.239   3.959   8.650  0.0700 -0.4634  0.2341
 5472SOL    HW128052   1.318   3.940   8.598 -0.8834  1.7176 -2.0191
 5472SOL    HW228053   1.184   3.888   8.616 -0.6264 -1.2743  3.1116
 5473SOL     OW28054   1.277   4.540   4.973 -0.6858  0.0328  0.3142
 5473SOL    HW128055   1.226   4.464   4.946 -1.2421  0.7666 -0.7158
 5473SOL    HW228056   1.249   4.551   5.064  0.5232  0.7666  0.5850
 5474SOL     OW28057   0.218   3.396   6.950  0.0378 -0.1369 -0.2806
 5474SOL    HW128058   0.205   3.487   6.923 -2.5429 -0.5276 -0.3329
 5474SOL    HW228059   0.128   3.366   6.944 -0.8639  2.4103  0.6349
 5475SOL     OW28060   0.572   2.617  17.406  0.2792  0.3581  0.2459
 5475SOL    HW128061   0.648   2.568  17.377  0.3432  0.3680  0.3961
 5475SOL    HW228062   0.609   2.695  17.449 -0.3249  0.4967  0.5145
 5476SOL     OW28063   3.919   1.160   7.489 -0.3289  0.5284 -0.6436
 5476SOL    HW128064   3.860   1.200   7.553 -0.3046 -0.3778 -0.0561
 5476SOL    HW228065   3.972   1.106   7.547 -2.3082 -0.9743 -0.2362
 5477SOL     OW28066   4.096   4.011   6.647  0.2946 -0.3592 -0.2154
 5477SOL    HW128067   4.092   3.975   6.736  1.6633 -0.7623 -0.3232
 5477SOL    HW228068   4.108   4.105   6.659 -0.5492 -0.1501 -1.0196
 5478SOL     OW28069   4.213   4.116   7.050  0.2984  0.1334  0.6997
 5478SOL    HW128070   4.297   4.158   7.035  1.5405 -2.3023  0.9173
 5478SOL    HW228071   4.201   4.163   7.133  1.1737  0.5368  0.5944
 5479SOL     OW28072   0.417   0.495   9.684 -0.1677  0.0532 -0.3327
 5479SOL    HW128073   0.350   0.533   9.741  0.2126 -0.9492  0.7833
 5479SOL    HW228074   0.384   0.406   9.672 -0.3414  0.0395  0.2612
 5480SOL     OW28075   4.124   3.968   3.630 -0.1085  0.2404 -0.2061
 5480SOL    HW128076   4.034   3.937   3.628  0.3351 -1.0787  0.2897
 5480SOL    HW228077   4.170   3.894   3.670 -0.2780  0.5740  0.6147
 5481SOL     OW28078   4.563   2.228   6.446 -1.0063 -0.9710  0.8388
 5481SOL    HW128079   4.627   2.298   6.460 -1.7838  0.2560 -1.8340
 5481SOL    HW228080   4.489   2.276   6.409  1.4654  1.3238 -1.1850
 5482SOL     OW28081   2.004   2.505  13.969  0.5332 -0.2224 -0.2496
 5482SOL    HW128082   2.056   2.583  13.951  0.7967 -0.7984 -2.0677
 5482SOL    HW228083   1.922   2.527  13.926  0.5115 -1.8290 -1.0511
 5483SOL     OW28084   0.967   3.035   5.952 -0.0880 -0.7463 -0.4996
 5483SOL    HW128085   0.981   3.032   6.047  4.4407 -3.0062 -1.2076
 5483SOL    HW228086   0.962   3.128   5.932  2.2467 -0.5072 -0.0050
 5484SOL     OW28087   3.645   3.529   9.837  0.1553 -0.0917  0.4380
 5484SOL    HW128088   3.686   3.538   9.923 -0.2628  0.2148  0.6014
 5484SOL    HW228089   3.555   3.550   9.860  0.6040  0.2062  1.8962
 5485SOL     OW28090   3.091   0.411   8.051 -0.4289 -0.4103 -0.5633
 5485SOL    HW128091   3.053   0.455   8.127  3.4972 -0.7402  1.5748
 5485SOL    HW228092   3.054   0.458   7.976 -1.9880  0.0564  0.5030
 5486SOL     OW28093   2.984   3.778  12.789 -0.0658 -0.4946  0.3626
 5486SOL    HW128094   3.059   3.742  12.837 -0.7204 -1.9310  0.3120
 5486SOL    HW228095   2.918   3.778  12.858  2.8881 -2.7014  3.1708
 5487SOL     OW28096   3.594   0.532   2.991  1.0934 -0.1343  0.4883
 5487SOL    HW128097   3.589   0.503   3.082 -1.1527  1.2536  0.7941
 5487SOL    HW228098   3.510   0.576   2.983  0.8580 -0.4549  1.2614
 5488SOL     OW28099   3.489   1.783   2.844 -0.2055 -0.4471  0.0668
 5488SOL    HW128100   3.408   1.832   2.857 -0.0934 -0.5839  1.2833
 5488SOL    HW228101   3.526   1.830   2.769  1.2823 -0.6460  0.6850
 5489SOL     OW28102   1.273   3.672  16.343 -0.3293 -0.0349  0.5055
 5489SOL    HW128103   1.257   3.589  16.299 -0.9434  0.3064  0.0652
 5489SOL    HW228104   1.360   3.678  16.382  0.0271  0.3963 -0.3593
 5490SOL     OW28105   0.505   3.713   7.242  0.2125  0.2267  1.0849
 5490SOL    HW128106   0.426   3.758   7.270  1.0879  2.0694  0.5845
 5490SOL    HW228107   0.466   3.629   7.218 -1.3123  0.3394  3.2271
 5491SOL     OW28108   3.622   3.247   1.474  0.3715 -0.2124 -0.3878
 5491SOL    HW128109   3.680   3.265   1.548 -0.0452 -0.2173 -0.0528
 5491SOL    HW228110   3.603   3.334   1.439 -1.3599 -0.4324 -0.0215
 5492SOL     OW28111   1.453   4.257   6.671  0.0868  0.0113  0.4223
 5492SOL    HW128112   1.446   4.172   6.629  2.3972  0.4520 -0.8473
 5492SOL    HW228113   1.393   4.240   6.743 -1.6028  0.6207 -0.8229
 5493SOL     OW28114   2.631   2.150   3.364  0.0484  0.4299 -0.0900
 5493SOL    HW128115   2.590   2.119   3.444 -1.0026  3.1572  0.4419
 5493SOL    HW228116   2.722   2.122   3.373  0.0552  0.4106 -0.2167
 5494SOL     OW28117   0.566   0.063   6.543 -0.2885 -0.3368 -0.0836
 5494SOL    HW128118   0.556   0.153   6.576 -1.3513  0.0241 -1.4039
 5494SOL    HW228119   0.590   0.081   6.452  1.3682 -0.0536  0.4145
 5495SOL     OW28120   0.694   0.779   0.759  0.5783 -0.7385  0.1138
 5495SOL    HW128121   0.753   0.712   0.795  0.7603 -0.6852 -0.0862
 5495SOL    HW228122   0.722   0.859   0.802  0.5056 -0.4163 -0.4487
 5496SOL     OW28123   0.410   2.731  16.391 -0.8338 -0.3931 -0.0487
 5496SOL    HW128124   0.417   2.767  16.479 -1.7102  1.3879 -0.7105
 5496SOL    HW228125   0.454   2.647  16.402  1.4963  0.4364 -2.9235
 5497SOL     OW28126   0.087   3.678   2.641 -0.4283  0.2841  0.0711
 5497SOL    HW128127   0.008   3.700   2.593  0.3423  2.6751 -0.0635
 5497SOL    HW228128   0.060   3.629   2.719  3.6376 -0.0843  1.2600
 5498SOL     OW28129   1.122   0.138   1.769  0.1724 -0.7218  0.8412
 5498SOL    HW128130   1.214   0.163   1.780  0.1656 -0.5921  0.6124
 5498SOL    HW228131   1.141   0.057   1.721 -2.0188 -1.9964  2.1697
 5499SOL     OW28132   0.159   2.745   3.046 -0.6433  0.0476 -0.1617
 5499SOL    HW128133   0.218   2.780   3.112  0.5132 -0.0381 -1.1408
 5499SOL    HW228134   0.078   2.788   3.074  0.0480  1.5200 -0.4522
 5500SOL     OW28135   3.189   0.338   2.761  0.2621  0.1716  0.4100
 5500SOL    HW128136   3.106   0.311   2.722  1.1924 -1.6651 -0.3195
 5500SOL    HW228137   3.238   0.256   2.766 -0.9986 -0.5979  0.2349
 5501SOL     OW28138   2.260   2.233   9.183 -0.1560  0.3815  0.6983
 5501SOL    HW128139   2.264   2.261   9.091 -0.0374 -1.9889 -0.0154
 5501SOL    HW228140   2.350   2.234   9.215  0.8183 -0.1882 -2.0331
 5502SOL     OW28141   3.675   4.343  11.569 -0.1971 -0.3116 -0.3092
 5502SOL    HW128142   3.642   4.410  11.509 -0.3508 -1.2158 -1.2309
 5502SOL    HW228143   3.645   4.380  11.652  1.8548  0.9246 -0.1274
 5503SOL     OW28144   2.884   4.210   7.658 -0.0970 -0.3152  0.2171
 5503SOL    HW128145   2.879   4.196   7.753 -3.0595 -0.5295  0.0117
 5503SOL    HW228146   2.814   4.154   7.626  1.7658 -0.8477 -2.9288
 5504SOL     OW28147   0.282   0.882   5.424 -0.1605 -0.3008 -0.1874
 5504SOL    HW128148   0.282   0.978   5.425 -0.7919 -0.2941 -1.1805
 5504SOL    HW228149   0.366   0.861   5.383  0.1114  0.1354  0.1362
 5505SOL     OW28150   2.458   0.512   1.822 -0.4020 -0.2158  0.0050
 5505SOL    HW128151   2.540   0.528   1.868  0.4018 -0.9365 -1.1755
 5505SOL    HW228152   2.429   0.433   1.867  2.0650 -1.1435 -0.0284
 5506SOL     OW28153   3.410   3.947   1.757  0.1834 -0.8961 -0.0462
 5506SOL    HW128154   3.354   3.916   1.828 -1.3740  1.0375 -0.4535
 5506SOL    HW228155   3.347   3.973   1.690  1.4362  1.1882 -0.4140
 5507SOL     OW28156   0.656   1.826   5.239  0.3881  0.3151 -0.3122
 5507SOL    HW128157   0.573   1.810   5.194 -1.1140  0.1450  2.5265
 5507SOL    HW228158   0.711   1.836   5.161 -0.5544  0.1779 -1.0020
 5508SOL     OW28159   4.352   2.564   4.203  0.5519  0.1646  0.2102
 5508SOL    HW128160   4.355   2.659   4.209  1.7855  0.3571 -3.8999
 5508SOL    HW228161   4.392   2.542   4.288 -1.2732 -0.2708  0.9534
 5509SOL     OW28162   1.284   4.091  14.539 -0.1212 -0.7665 -0.3613
 5509SOL    HW128163   1.306   4.184  14.542 -0.1920 -0.8433  2.4493
 5509SOL    HW228164   1.204   4.084  14.591 -0.7263 -0.1008 -1.2134
 5510SOL     OW28165   2.616   4.337  13.837 -0.0533  0.3622 -0.6754
 5510SOL    HW128166   2.652   4.422  13.862 -0.1757  0.5150 -1.0277
 5510SOL    HW228167   2.687   4.307  13.781 -0.0740  1.4709 -1.2903
 5511SOL     OW28168   3.263   2.219   5.843  0.2087  0.2775 -0.5238
 5511SOL    HW128169   3.302   2.230   5.756 -1.5632 -0.5565 -1.4196
 5511SOL    HW228170   3.179   2.185   5.812  0.1105 -0.5593  0.6612
 5512SOL     OW28171   0.000   2.150  15.114 -0.0402  0.0319 -0.1826
 5512SOL    HW128172   4.652   2.192  15.132 -0.9656 -1.4887 -0.8800
 5512SOL    HW228173   4.716   2.058  15.094  2.5299 -0.9620  1.9276
 5513SOL     OW28174   0.707   3.836  17.508  0.1896  0.4764 -0.0524
 5513SOL    HW128175   0.727   3.823  17.415 -1.3083  0.2032 -0.3377
 5513SOL    HW228176   0.792   3.812  17.545  0.3486  1.5834  0.2916
 5514SOL     OW28177   3.160   1.913   6.390 -0.0642  0.3546  0.4040
 5514SOL    HW128178   3.086   1.971   6.408 -1.4042 -1.4130  0.5788
 5514SOL    HW228179   3.157   1.843   6.456  0.0163 -2.4175 -2.5214
 5515SOL     OW28180   2.980   1.307   1.029 -0.6864  0.0279 -0.3173
 5515SOL    HW128181   2.909   1.280   1.088  0.8016 -0.7852  1.1005
 5515SOL    HW228182   2.945   1.279   0.944 -2.5569  0.4697  0.3092
 5516SOL     OW28183   0.625   0.236   4.418 -0.4280 -0.2012  0.4710
 5516SOL    HW128184   0.585   0.317   4.387  0.6088  0.1582  0.1076
 5516SOL    HW228185   0.570   0.170   4.375  0.3402  0.3190 -1.2875
 5517SOL     OW28186   4.305   3.704  14.538 -0.4480  0.1185 -0.2270
 5517SOL    HW128187   4.253   3.742  14.609  0.6475  1.3556 -0.0955
 5517SOL    HW228188   4.298   3.611  14.560 -1.2329  0.6051  1.5920
 5518SOL     OW28189   3.247   0.179   3.476 -0.6917 -0.2570 -0.2189
 5518SOL    HW128190   3.295   0.140   3.404  2.2798  1.3862  0.8638
 5518SOL    HW228191   3.177   0.216   3.422 -1.3332  0.1739  0.9029
 5519SOL     OW28192   4.154   0.228   6.846 -0.7719  0.8753  0.1517
 5519SOL    HW128193   4.160   0.136   6.821  0.8498  0.6964  1.1855
 5519SOL    HW228194   4.240   0.249   6.882 -2.0744  1.0381  3.2454
 5520SOL     OW28195   3.235   4.217   2.284  0.3374 -0.0604 -0.1115
 5520SOL    HW128196   3.153   4.249   2.247  0.9957  2.3062  0.4883
 5520SOL    HW228197   3.209   4.153   2.351 -1.3543  0.1807 -0.5419
 5521SOL     OW28198   0.722   1.028   7.356  0.5909  0.2641  0.0739
 5521SOL    HW128199   0.690   0.962   7.295 -0.0314  0.2344  0.4379
 5521SOL    HW228200   0.646   1.045   7.411 -0.3348 -0.4207 -1.0023
 5522SOL     OW28201   2.138   2.073   3.816 -0.2132 -0.5879  0.6898
 5522SOL    HW128202   2.068   2.104   3.874  0.3131  1.5011  0.2285
 5522SOL    HW228203   2.180   2.155   3.788 -2.2713  0.4807  0.7424
 5523SOL     OW28204   1.941   1.226   7.454 -0.1998 -0.1423  0.4712
 5523SOL    HW128205   2.026   1.264   7.432 -0.8839 -0.3853 -2.6428
 5523SOL    HW228206   1.958   1.132   7.457 -1.8056 -0.5009 -1.0765
 5524SOL     OW28207   3.498   1.402  12.660 -0.3446 -0.3647  0.1378
 5524SOL    HW128208   3.506   1.333  12.725 -0.4974 -1.8208 -1.3918
 5524SOL    HW228209   3.410   1.430  12.684  0.0116  0.8006  0.1009
 5525SOL     OW28210   2.791   3.901   2.336  0.0572 -0.0393 -0.0236
 5525SOL    HW128211   2.731   3.826   2.333  0.1724 -0.0883 -1.0611
 5525SOL    HW228212   2.867   3.864   2.292  0.8401 -1.8271  2.7806
 5526SOL     OW28213   4.548   0.704   2.692 -0.0391  0.3340 -0.2222
 5526SOL    HW128214   4.592   0.622   2.669  0.2564  0.0664  1.3070
 5526SOL    HW228215   4.562   0.749   2.609 -4.7490  3.9219  0.9341
 5527SOL     OW28216   3.389   4.034  14.171  0.2838  0.4851 -0.3198
 5527SOL    HW128217   3.399   3.945  14.204  2.7031 -0.4001 -3.4497
 5527SOL    HW228218   3.453   4.074  14.230 -0.3276  0.1169  0.5891
 5528SOL     OW28219   3.664   2.590  17.171 -0.3068 -0.0695 -0.3118
 5528SOL    HW128220   3.685   2.571  17.263 -3.7364 -1.8102  0.1090
 5528SOL    HW228221   3.610   2.668  17.186 -0.0446  0.1499 -0.5027
 5529SOL     OW28222   4.408   4.369  12.338  0.3106 -0.1628 -0.3378
 5529SOL    HW128223   4.335   4.395  12.282  0.0758 -0.7646 -0.3069
 5529SOL    HW228224   4.374   4.371  12.427 -0.3394  0.2485 -0.5925
 5530SOL     OW28225   0.669   3.287   3.756 -0.4929  0.1731  0.4379
 5530SOL    HW128226   0.586   3.288   3.803 -0.9038 -0.5922 -0.2673
 5530SOL    HW228227   0.729   3.327   3.819 -1.0291  0.6202  0.6627
 5531SOL     OW28228   2.247   3.408   3.233  0.0325 -0.5593 -0.2656
 5531SOL    HW128229   2.168   3.369   3.196  1.0863 -0.3030 -2.7958
 5531SOL    HW228230   2.255   3.479   3.169 -0.2396  0.3724  0.7343
 5532SOL     OW28231   0.484   4.483  17.005  0.2528  0.3552  0.0691
 5532SOL    HW128232   0.391   4.503  16.995  0.3844  1.7229  1.5127
 5532SOL    HW228233   0.518   4.482  16.915  2.0121 -2.8416  0.7757
 5533SOL     OW28234   4.641   1.412   6.519 -0.1142  0.0251 -0.6578
 5533SOL    HW128235   4.574   1.344   6.529 -0.1549 -0.4456 -3.9222
 5533SOL    HW228236   4.600   1.492   6.552  1.0250  0.5507 -0.5417
 5534SOL     OW28237   3.302   4.313   3.933  0.1657  0.2288 -0.1496
 5534SOL    HW128238   3.229   4.267   3.975  0.1947  1.8779  1.7250
 5534SOL    HW228239   3.274   4.402   3.915 -3.9208 -0.8620  0.8576
 5535SOL     OW28240   3.206   3.333   2.340 -0.1650  0.6057  0.1604
 5535SOL    HW128241   3.141   3.298   2.402  1.6920 -2.5997  0.2669
 5535SOL    HW228242   3.193   3.269   2.270 -0.0584  0.6764  0.0760
 5536SOL     OW28243   0.701   4.547   6.226 -0.0762  0.0977 -0.5205
 5536SOL    HW128244   0.623   4.494   6.208  0.9708 -1.0694 -1.6669
 5536SOL    HW228245   0.669   4.637   6.228 -0.5849 -0.0821 -0.5127
 5537SOL     OW28246   1.399   4.202   5.652  0.2371 -0.2908  0.4713
 5537SOL    HW128247   1.339   4.180   5.722 -2.3958 -0.6646 -1.8866
 5537SOL    HW228248   1.341   4.260   5.602  0.9904  0.4741  0.4696
 5538SOL     OW28249   1.668   0.925   2.776 -0.2210  0.1408 -0.4729
 5538SOL    HW128250   1.640   0.844   2.820  0.0447 -0.4289 -1.3622
 5538SOL    HW228251   1.728   0.947   2.848 -0.6641 -1.5965  0.4442
 5539SOL     OW28252   0.552   2.339   2.675 -0.4862  0.4024  0.1183
 5539SOL    HW128253   0.534   2.339   2.769  3.7787 -1.4057  0.9569
 5539SOL    HW228254   0.489   2.402   2.640  1.2644  0.8953 -2.1092
 5540SOL     OW28255   0.945   2.906   2.479  0.2684 -0.7743  0.1298
 5540SOL    HW128256   1.025   2.947   2.511 -0.6699  0.8352  0.3915
 5540SOL    HW228257   0.948   2.937   2.388 -1.4124 -0.0672  0.3207
 5541SOL     OW28258   1.442   4.059   7.130 -0.1323  0.0870 -0.3048
 5541SOL    HW128259   1.422   4.153   7.123 -0.5845  0.1888  2.6036
 5541SOL    HW228260   1.463   4.059   7.223 -0.4402  1.1093 -0.2327
 5542SOL     OW28261   4.394   4.208   0.367  0.4001 -0.2237  0.0525
 5542SOL    HW128262   4.453   4.133   0.379 -1.1270 -1.2839  0.9657
 5542SOL    HW228263   4.383   4.213   0.272  1.8506  1.5631 -0.0120
 5543SOL     OW28264   3.791   1.040   1.801 -0.0054 -0.2792 -0.1463
 5543SOL    HW128265   3.782   0.945   1.810 -0.6224 -0.0989  1.1415
 5543SOL    HW228266   3.702   1.068   1.823 -0.5023 -1.9702 -0.0098
 5544SOL     OW28267   1.476   2.392   8.284  0.0952  0.3523 -0.0558
 5544SOL    HW128268   1.438   2.305   8.271 -1.7848  1.1803 -0.1253
 5544SOL    HW228269   1.487   2.414   8.191  0.3170 -0.1352 -0.1480
 5545SOL     OW28270   0.581   1.081   2.022  0.5088 -0.2532 -0.2291
 5545SOL    HW128271   0.605   1.019   1.953  2.4313  2.1296 -1.7004
 5545SOL    HW228272   0.491   1.051   2.038  1.2576 -1.2267  2.0946
 5546SOL     OW28273   1.053   2.976   6.995 -0.1582 -0.0115 -0.0755
 5546SOL    HW128274   1.075   2.944   6.908 -0.0825 -1.4417  0.4752
 5546SOL    HW228275   0.975   3.025   6.967 -0.1155  0.9754  1.5069
 5547SOL     OW28276   1.175   1.737   2.320  0.1999 -0.3615  0.5489
 5547SOL    HW128277   1.112   1.735   2.392 -0.4775 -0.0064 -0.0387
 5547SOL    HW228278   1.205   1.647   2.331 -1.0560 -0.7180  1.0577
 5548SOL     OW28279   4.391   4.259  16.503 -0.2367  0.6821  0.6323
 5548SOL    HW128280   4.347   4.344  16.511  1.6532  1.8658 -1.7573
 5548SOL    HW228281   4.456   4.273  16.572 -0.9010 -3.0025  2.0117
 5549SOL     OW28282   3.647   3.363  17.413 -0.2355  0.4553 -0.5917
 5549SOL    HW128283   3.571   3.399  17.367 -1.2287 -1.2175 -0.2935
 5549SOL    HW228284   3.720   3.385  17.355 -0.8006  1.2651 -1.0007
 5550SOL     OW28285   0.536   2.081  12.625 -0.1698 -0.1526 -0.3807
 5550SOL    HW128286   0.481   2.064  12.549 -2.8325 -0.9761  1.7451
 5550SOL    HW228287   0.561   1.999  12.669  0.9718 -0.0461 -0.8112
 5551SOL     OW28288   0.454   1.224   2.926 -0.2777  0.5787 -0.0485
 5551SOL    HW128289   0.476   1.316   2.936 -0.1671  0.4871  0.5394
 5551SOL    HW228290   0.362   1.222   2.952 -0.0894  2.2393  0.7553
 5552SOL     OW28291   2.811   1.578   5.971  0.3474  0.4829 -0.0773
 5552SOL    HW128292   2.774   1.651   5.922 -1.1726 -0.3582 -0.1949
 5552SOL    HW228293   2.883   1.613   6.023 -1.3314  4.2703 -0.3217
 5553SOL     OW28294   1.918   0.528  14.767  0.3587  0.4199 -0.2919
 5553SOL    HW128295   1.927   0.542  14.862  1.4030  0.8284 -0.4467
 5553SOL    HW228296   1.935   0.434  14.764  0.0518  0.3620 -0.2085
 5554SOL     OW28297   1.355   4.474   7.348 -0.4160 -0.0828  0.3350
 5554SOL    HW128298   1.333   4.492   7.440  1.2941  2.1799  0.3146
 5554SOL    HW228299   1.372   4.567   7.334 -2.8893  0.2458 -0.3947
 5555SOL     OW28300   2.310   0.819  15.122 -0.4666  0.2034  0.1212
 5555SOL    HW128301   2.314   0.912  15.145 -1.3172  0.4838 -0.8652
 5555SOL    HW228302   2.365   0.818  15.044 -1.0232 -2.6520 -0.2308
 5556SOL     OW28303   0.548   3.186   9.351 -0.2126  0.1356  0.1360
 5556SOL    HW128304   0.479   3.135   9.307 -0.1700  0.9113 -0.8178
 5556SOL    HW228305   0.541   3.158   9.442  1.4701 -0.9105 -0.0558
 5557SOL     OW28306   2.105   4.029  13.780 -0.1015 -0.2940  0.5813
 5557SOL    HW128307   2.123   3.947  13.734 -1.1565  0.1204 -0.5598
 5557SOL    HW228308   2.038   4.068  13.725  1.1366 -0.2718 -0.8959
 5558SOL     OW28309   4.554   2.564   4.395 -0.0035  0.0482 -0.4953
 5558SOL    HW128310   4.518   2.569   4.484 -0.8167  0.2242 -0.8385
 5558SOL    HW228311   4.624   2.630   4.394 -0.7677  0.9208  2.3961
 5559SOL     OW28312   4.019   2.232   3.906  0.0118 -0.0537  0.0312
 5559SOL    HW128313   4.071   2.300   3.948  0.3041 -1.0145  1.1932
 5559SOL    HW228314   4.082   2.199   3.842  0.0460 -1.7147  0.9267
 5560SOL     OW28315   0.405   1.626   7.530  0.5113  0.5476 -0.0125
 5560SOL    HW128316   0.357   1.597   7.608  0.9710  0.4983  0.2542
 5560SOL    HW228317   0.497   1.603   7.547  0.0918 -0.0638  1.4114
 5561SOL     OW28318   1.832   3.673   5.552  0.6256  0.1648 -0.2372
 5561SOL    HW128319   1.864   3.713   5.471 -1.6385  1.3324 -0.5683
 5561SOL    HW228320   1.769   3.744   5.567 -0.0750 -0.2806 -1.1458
 5562SOL     OW28321   1.383   0.622  13.604  0.4230  0.0488  0.3451
 5562SOL    HW128322   1.426   0.647  13.687 -1.1770 -0.3359  1.2860
 5562SOL    HW228323   1.352   0.534  13.629 -0.7343 -0.5786 -3.3090
 5563SOL     OW28324   0.160   4.160  13.211 -0.0169  0.2987 -0.4645
 5563SOL    HW128325   0.133   4.210  13.289  0.2499 -1.0654  0.5015
 5563SOL    HW228326   0.162   4.233  13.149 -2.5309 -0.1233 -1.0404
 5564SOL     OW28327   0.441   1.854   6.164  0.1797 -0.0990 -0.8765
 5564SOL    HW128328   0.450   1.949   6.155 -0.6788  0.0808  0.0702
 5564SOL    HW228329   0.494   1.823   6.092  0.0204 -2.6019  0.0856
 5565SOL     OW28330   3.836   4.595  11.931 -0.2561  0.2413  0.1778
 5565SOL    HW128331   3.858   4.638  12.013  0.8821  1.4680 -0.7574
 5565SOL    HW228332   3.868   4.671  11.882  1.7894 -0.1173  0.9414
 5566SOL     OW28333   3.336   2.222   1.741 -0.6517  0.0010  0.6783
 5566SOL    HW128334   3.280   2.149   1.767 -1.2380 -0.2291 -1.2852
 5566SOL    HW228335   3.410   2.176   1.701 -0.7213  1.2581 -0.8819
 5567SOL     OW28336   4.109   0.896   4.119 -0.7461  0.0103 -0.4897
 5567SOL    HW128337   4.100   0.849   4.202  1.9510  0.7789  0.2247
 5567SOL    HW228338   4.017   0.922   4.112 -1.0292 -0.9076 -0.1241
 5568SOL     OW28339   4.288   1.625   5.071 -0.0718 -0.3042 -0.1134
 5568SOL    HW128340   4.278   1.718   5.092 -0.8435 -0.3426 -0.3216
 5568SOL    HW228341   4.292   1.630   4.975 -1.1373  0.2655 -0.1218
 5569SOL     OW28342   0.854   3.447   8.577  0.4797 -0.1875 -0.3049
 5569SOL    HW128343   0.794   3.388   8.623 -0.3979  0.5176 -0.5534
 5569SOL    HW228344   0.921   3.464   8.643  0.5980  2.4099 -1.0782
 5570SOL     OW28345   0.525   0.846  14.795 -0.0379 -0.6734  0.3867
 5570SOL    HW128346   0.469   0.868  14.721 -1.2800  1.4579  1.9562
 5570SOL    HW228347   0.528   0.750  14.804  0.4284 -0.8794 -2.1773
 5571SOL     OW28348   1.444   1.512  17.674  0.2107  0.4431  0.2671
 5571SOL    HW128349   1.425   1.561  17.595  1.0935  0.5581  0.1268
 5571SOL    HW228350   1.381   1.440  17.668 -0.4181  1.0150  0.0446
 5572SOL     OW28351   3.008   0.380   5.833  0.0204 -0.0011  0.2119
 5572SOL    HW128352   3.072   0.442   5.799  1.0814 -0.9708  0.4422
 5572SOL    HW228353   3.014   0.301   5.778  1.1564 -1.7345  2.8317
 5573SOL     OW28354   3.951   0.427   8.077  0.4767  0.3407 -0.1222
 5573SOL    HW128355   3.961   0.485   8.153  0.9237  0.7622 -0.5081
 5573SOL    HW228356   4.039   0.401   8.050  0.9512  0.3437  1.4072
 5574SOL     OW28357   1.367   3.402  15.579 -0.1115  0.3080  0.1937
 5574SOL    HW128358   1.301   3.340  15.610  1.6018 -1.2086  0.8228
 5574SOL    HW228359   1.447   3.360  15.609 -0.1039  0.4496  0.3708
 5575SOL     OW28360   0.204   3.212  10.627  0.9721 -0.2182 -0.2101
 5575SOL    HW128361   0.229   3.231  10.717  1.1103 -0.6764 -0.1520
 5575SOL    HW228362   0.262   3.269  10.577 -0.9359  1.8190 -0.0913
 5576SOL     OW28363   3.187   2.434   2.364  0.3787  0.1356  0.9788
 5576SOL    HW128364   3.103   2.404   2.329  0.4884  2.2688 -1.0768
 5576SOL    HW228365   3.187   2.392   2.450 -0.0746  0.5517  1.1849
 5577SOL     OW28366   2.694   2.488   2.945  0.4565  0.3593  0.5149
 5577SOL    HW128367   2.687   2.443   2.861 -2.3371 -1.0865  1.5264
 5577SOL    HW228368   2.602   2.488   2.973  0.2042  0.8910 -0.3063
 5578SOL     OW28369   3.254   4.678   4.320 -0.5191 -0.2130 -0.4286
 5578SOL    HW128370   3.260   4.583   4.329  5.1621  0.0458 -1.6313
 5578SOL    HW228371   3.289   4.692   4.231 -1.1834 -0.6331 -0.7561
 5579SOL     OW28372   1.569   1.129   8.081 -0.5903  0.0420 -0.1059
 5579SOL    HW128373   1.537   1.162   7.997 -0.0290 -2.0083 -1.1512
 5579SOL    HW228374   1.583   1.036   8.060  0.6824  0.3919 -0.8117
 5580SOL     OW28375   3.142   0.478   0.269  0.4386  0.3186 -0.0261
 5580SOL    HW128376   3.230   0.453   0.296  0.7974  1.2987 -0.2701
 5580SOL    HW228377   3.134   0.569   0.300 -0.1706 -0.1649  1.2285
 5581SOL     OW28378   1.613   4.681   3.788  0.5009  0.7985 -0.3363
 5581SOL    HW128379   1.699   4.705   3.755  0.8625 -0.1041 -0.0533
 5581SOL    HW228380   1.588   0.030   3.823  0.3311  1.3446 -1.7589
 5582SOL     OW28381   3.207   2.950   7.851 -0.6181  0.4663 -0.4304
 5582SOL    HW128382   3.150   2.883   7.815 -0.2750 -0.0058 -0.1067
 5582SOL    HW228383   3.158   3.013   7.904  0.3056 -1.1855  2.4119
 5583SOL     OW28384   3.960   1.516  12.814  0.7115 -0.0168  0.0748
 5583SOL    HW128385   4.008   1.461  12.752 -1.1145  0.1798 -1.5165
 5583SOL    HW228386   3.871   1.509  12.779  1.2460 -1.3624 -1.0325
 5584SOL     OW28387   3.610   2.217   2.822 -0.1396 -0.0948  0.1964
 5584SOL    HW128388   3.678   2.276   2.854 -0.8998  1.7069 -1.5456
 5584SOL    HW228389   3.603   2.171   2.906 -0.1202 -1.8744 -0.7657
 5585SOL     OW28390   2.940   1.407  14.275  0.6453 -0.5780 -0.9460
 5585SOL    HW128391   3.003   1.478  14.260 -0.0214  0.3506  0.7422
 5585SOL    HW228392   2.921   1.384  14.184 -3.0556 -0.7873 -0.0980
 5586SOL     OW28393   2.340   1.286  14.993 -0.0428 -0.0815  0.7967
 5586SOL    HW128394   2.304   1.310  15.078  0.8205  1.2948  0.7707
 5586SOL    HW228395   2.301   1.201  14.972  2.2850 -0.5914 -1.5718
 5587SOL     OW28396   2.110   2.441   9.269 -0.4591  0.1453 -0.5356
 5587SOL    HW128397   2.194   2.406   9.238  0.4679  1.5418  0.4038
 5587SOL    HW228398   2.142   2.510   9.326 -0.7135 -0.2206  0.0511
 5588SOL     OW28399   2.515   4.347   1.853  0.3782  0.1633 -0.2389
 5588SOL    HW128400   2.532   4.439   1.875 -0.1304  0.5151 -1.3173
 5588SOL    HW228401   2.582   4.322   1.790 -0.7186  1.0474 -1.7792
 5589SOL     OW28402   2.979   0.670   1.845 -0.4118  0.2937 -0.5704
 5589SOL    HW128403   2.986   0.755   1.803  0.3816  1.2465  1.4903
 5589SOL    HW228404   3.062   0.623   1.834 -0.0210  0.9964 -0.6421
 5590SOL     OW28405   2.773   1.417   4.628 -0.2157 -0.0566  0.0740
 5590SOL    HW128406   2.770   1.419   4.532  0.7677 -0.2337  0.0355
 5590SOL    HW228407   2.866   1.417   4.653  0.2593 -1.5205 -1.7071
 5591SOL     OW28408   1.562   0.241   7.157  0.0424 -0.2873 -0.0087
 5591SOL    HW128409   1.655   0.219   7.166  0.0306 -0.0125  0.8234
 5591SOL    HW228410   1.560   0.238   7.061  0.0092  2.1968 -0.0938
 5592SOL     OW28411   1.776   3.887   3.295 -0.0487  0.7098  0.1398
 5592SOL    HW128412   1.781   3.814   3.356  3.2723  0.9984  0.2112
 5592SOL    HW228413   1.783   3.839   3.213  4.5549  2.2638 -0.3804
 5593SOL     OW28414   0.556   1.512   3.071  0.3823  0.2401  0.4878
 5593SOL    HW128415   0.562   1.600   3.033 -2.4153  0.5714  0.8488
 5593SOL    HW228416   0.644   1.489   3.041 -0.0604 -1.8734  0.8338
 5594SOL     OW28417   1.951   2.527   3.638  0.0866 -0.3330  0.1013
 5594SOL    HW128418   1.894   2.474   3.695  0.9524 -0.7065  0.6145
 5594SOL    HW228419   1.901   2.609   3.634  0.0333 -0.4751 -2.0310
 5595SOL     OW28420   1.479   2.101   8.255  0.4330 -0.8959  0.2437
 5595SOL    HW128421   1.417   2.067   8.190  1.4622  0.8936 -1.6592
 5595SOL    HW228422   1.535   2.023   8.253  1.6209 -0.0672  1.4633
 5596SOL     OW28423   4.101   4.320   9.125  0.2567 -0.1180  0.3001
 5596SOL    HW128424   4.168   4.367   9.176  0.1924  1.1787 -0.8093
 5596SOL    HW228425   4.142   4.338   9.040 -1.3605  2.2531  0.0150
 5597SOL     OW28426   4.208   2.552   2.494 -0.5199  0.5397  0.7982
 5597SOL    HW128427   4.274   2.560   2.563  0.1103  0.4738  0.2026
 5597SOL    HW228428   4.183   2.460   2.502 -0.8492  0.6446  0.9868
 5598SOL     OW28429   3.258   2.617  11.514 -0.0531 -0.5060  0.1850
 5598SOL    HW128430   3.182   2.565  11.487  0.2548 -1.9623  2.1523
 5598SOL    HW228431   3.329   2.565  11.475 -0.0145 -0.0443 -0.3662
 5599SOL     OW28432   1.866   3.194   7.048  0.5833  0.0088 -0.2111
 5599SOL    HW128433   1.918   3.269   7.076  0.4416  0.1583 -0.3509
 5599SOL    HW228434   1.870   3.195   6.952 -0.2955 -0.4865 -0.2543
 5600SOL     OW28435   0.840   2.833   2.025  0.3497  0.0804  0.2225
 5600SOL    HW128436   0.759   2.871   2.058 -0.2466 -0.4487 -0.6498
 5600SOL    HW228437   0.845   2.749   2.072  0.0381 -0.0178  0.0756
 5601SOL     OW28438   0.537   0.870   5.332 -0.1637 -0.2765 -0.1547
 5601SOL    HW128439   0.554   0.814   5.257  1.4922 -0.2859  0.2321
 5601SOL    HW228440   0.599   0.942   5.325 -0.8668  0.1830 -1.6171
 5602SOL     OW28441   3.229   1.008   3.359 -0.1078 -0.1202  0.0552
 5602SOL    HW128442   3.268   1.057   3.431 -1.4124  1.0456 -0.0144
 5602SOL    HW228443   3.261   0.922   3.387 -0.3600  0.8623  3.3795
 5603SOL     OW28444   2.493   0.968  10.689 -0.5469  0.0987 -0.3218
 5603SOL    HW128445   2.411   1.002  10.725  0.1858  0.9472  0.5310
 5603SOL    HW228446   2.499   0.883  10.733 -0.9180 -0.2390 -0.9141
 5604SOL     OW28447   1.077   2.260   4.082  0.3335  0.1451 -0.4172
 5604SOL    HW128448   1.004   2.291   4.136  0.0395  1.2657 -1.4713
 5604SOL    HW228449   1.037   2.292   4.001 -0.6552  2.8742  1.1501
 5605SOL     OW28450   4.633   2.043   6.948  0.0875 -0.0424  0.4414
 5605SOL    HW128451   4.640   2.048   6.853  3.5132  1.6590  0.8085
 5605SOL    HW228452   4.563   1.977   6.947 -1.6978  1.8563 -0.9830
 5606SOL     OW28453   0.411   0.306  15.168  0.2718  0.4771  0.0120
 5606SOL    HW128454   0.416   0.341  15.080 -1.3791  0.8960  0.0861
 5606SOL    HW228455   0.481   0.356  15.210 -1.5683  0.8747  2.6074
 5607SOL     OW28456   1.065   1.289   0.749 -0.3755 -0.3007 -0.2065
 5607SOL    HW128457   1.131   1.357   0.735 -0.8828  0.7109  2.3626
 5607SOL    HW228458   1.006   1.294   0.674 -0.7960  1.9421  0.2677
 5608SOL     OW28459   0.668   0.996   4.588  0.1142 -0.1526  0.3428
 5608SOL    HW128460   0.573   0.990   4.597  0.1774 -1.6419 -0.1116
 5608SOL    HW228461   0.685   1.071   4.645  4.9133 -1.8631  1.1645
 5609SOL     OW28462   1.232   2.976  16.122 -0.6201 -0.1033 -0.0947
 5609SOL    HW128463   1.256   2.906  16.061  3.2820  0.0836  1.2143
 5609SOL    HW228464   1.175   2.934  16.185 -0.4207 -0.4519 -0.1433
 5610SOL     OW28465   0.874   4.364   8.205  0.0080 -0.3338 -0.1349
 5610SOL    HW128466   0.844   4.275   8.222  0.2072 -0.2991  0.3889
 5610SOL    HW228467   0.867   4.388   8.297  3.5076 -2.8349  0.7947
 5611SOL     OW28468   0.060   2.112   5.487 -0.3252  0.3490 -0.1434
 5611SOL    HW128469   0.075   2.037   5.545 -3.1184 -0.0250  0.1252
 5611SOL    HW228470   0.133   2.110   5.425  0.4026 -0.8255  0.7567
 5612SOL     OW28471   4.089   4.255   4.830 -0.5216 -0.7738  0.0144
 5612SOL    HW128472   4.014   4.217   4.785 -0.2536 -1.0490 -0.1978
 5612SOL    HW228473   4.047   4.322   4.885  1.3113 -0.9015  1.5672
 5613SOL     OW28474   2.070   2.975   4.400 -0.1478  0.0254 -0.3118
 5613SOL    HW128475   2.061   2.894   4.450  3.0034 -2.1048 -3.2125
 5613SOL    HW228476   2.012   3.033   4.449  0.5776  0.7188 -0.2820
 5614SOL     OW28477   0.219   2.802   3.751 -0.0851  0.3227  0.0979
 5614SOL    HW128478   0.144   2.857   3.776  0.3434  0.1977  1.6662
 5614SOL    HW228479   0.247   2.766   3.835 -0.4512 -0.5155 -0.1389
 5615SOL     OW28480   2.360   4.687  11.561  0.3001  0.3095 -0.1790
 5615SOL    HW128481   2.315   0.014  11.617 -0.7931 -0.7199  0.0898
 5615SOL    HW228482   2.438   0.005  11.546  0.2865 -0.0421 -1.5568
 5616SOL     OW28483   2.174   3.058   7.136 -0.0278  0.3371  0.3741
 5616SOL    HW128484   2.219   2.991   7.188  1.9997  0.0626 -1.7561
 5616SOL    HW228485   2.101   2.999   7.114  0.3321  0.5645 -1.4516
 5617SOL     OW28486   1.368   3.671  16.852 -0.8747  0.0848 -0.5610
 5617SOL    HW128487   1.398   3.642  16.938 -1.3429  2.1727  0.2964
 5617SOL    HW228488   1.325   3.591  16.819 -2.2236  0.0513  1.3003
 5618SOL     OW28489   3.219   3.460   1.286 -0.4991 -0.2655  0.0796
 5618SOL    HW128490   3.260   3.466   1.372  1.1904  0.6209 -0.8007
 5618SOL    HW228491   3.299   3.455   1.234 -0.3372  0.9416  0.2131
 5619SOL     OW28492   4.403   1.999   8.233  0.7633  0.8006  0.7369
 5619SOL    HW128493   4.439   2.087   8.217 -0.4634  1.4320  1.4278
 5619SOL    HW228494   4.384   2.013   8.326  0.3932 -0.3788  0.8367
 5620SOL     OW28495   2.391   1.887   1.908 -0.3198  0.1833 -0.1662
 5620SOL    HW128496   2.396   1.802   1.864 -1.3205 -1.1001  2.1809
 5620SOL    HW228497   2.325   1.880   1.977  0.5795 -2.0347  0.4476
 5621SOL     OW28498   0.877   3.031   7.767 -0.0986 -0.2206  0.4530
 5621SOL    HW128499   0.824   2.956   7.740 -1.7738  0.1599  2.6533
 5621SOL    HW228500   0.962   2.989   7.781  0.0599  0.7304  2.3277
 5622SOL     OW28501   0.119   1.028  12.710  0.6388  0.1343  0.0978
 5622SOL    HW128502   0.080   0.941  12.708  0.0553  0.3625  2.1238
 5622SOL    HW228503   0.169   1.008  12.790 -1.0601 -1.9880  0.6310
 5623SOL     OW28504   3.229   4.708   5.284  0.0242 -0.5575  0.3275
 5623SOL    HW128505   3.249   4.697   5.191  1.2570  1.0141  0.4147
 5623SOL    HW228506   3.276   0.055   5.296  0.9705 -0.8727 -1.1658
 5624SOL     OW28507   1.579   0.950   1.276 -0.2465  0.0255 -0.1396
 5624SOL    HW128508   1.597   0.923   1.366  2.0759  0.9510 -0.3406
 5624SOL    HW228509   1.545   0.872   1.232  2.5060 -0.7175 -0.9013
 5625SOL     OW28510   4.123   1.076  13.559  0.4656 -0.8725 -0.2291
 5625SOL    HW128511   4.186   1.053  13.490 -1.9599 -1.9010 -2.0684
 5625SOL    HW228512   4.043   1.062  13.509  0.2562 -1.2175  0.2056
 5626SOL     OW28513   3.116   0.443   6.689 -0.3772  0.6673 -0.0077
 5626SOL    HW128514   3.122   0.359   6.643  1.3729  0.5077  0.5211
 5626SOL    HW228515   3.208   0.459   6.707 -0.8790 -0.4288  3.6416
 5627SOL     OW28516   3.478   0.974   5.427  0.1026  0.1366 -0.0407
 5627SOL    HW128517   3.525   0.933   5.354 -1.3356  0.4828 -1.1498
 5627SOL    HW228518   3.392   0.951   5.394 -0.9319  1.8294  1.4822
 5628SOL     OW28519   1.754   1.131   1.216 -0.4651 -0.2183  0.8053
 5628SOL    HW128520   1.831   1.075   1.228 -1.6365 -1.8185  0.7274
 5628SOL    HW228521   1.687   1.064   1.225  0.0868 -0.8360  0.2418
 5629SOL     OW28522   1.334   2.614   2.662 -0.2400  0.0645 -0.1297
 5629SOL    HW128523   1.395   2.651   2.598  0.3087 -1.9065 -0.7183
 5629SOL    HW228524   1.377   2.530   2.676  0.0063  0.3039  0.5414
 5630SOL     OW28525   1.951   2.286  14.861  0.2802 -0.3047 -0.3455
 5630SOL    HW128526   1.873   2.303  14.809 -0.7327 -1.6798  0.7242
 5630SOL    HW228527   1.928   2.205  14.907 -0.6005  1.0783  1.6530
 5631SOL     OW28528   2.192   4.142   8.947  0.0968  0.4402  0.3344
 5631SOL    HW128529   2.233   4.149   8.861  2.7875  0.4884  1.6087
 5631SOL    HW228530   2.201   4.048   8.965  0.7156  0.6344  1.0689
 5632SOL     OW28531   1.714   2.839   7.251 -0.3904 -0.1997 -1.0643
 5632SOL    HW128532   1.652   2.894   7.203 -1.0624  1.6786  1.9908
 5632SOL    HW228533   1.697   2.865   7.342 -2.2068 -1.4437 -1.0421
 5633SOL     OW28534   1.912   3.626  16.201  0.0881  0.1109  0.6668
 5633SOL    HW128535   1.925   3.640  16.107 -1.2697 -0.5914  0.3836
 5633SOL    HW228536   1.965   3.700  16.233 -1.3028  1.5769 -0.4156
 5634SOL     OW28537   0.441   2.608   2.985 -0.8767  0.1413 -0.3953
 5634SOL    HW128538   0.355   2.622   3.024 -1.0073 -0.3828 -0.4845
 5634SOL    HW228539   0.440   2.644   2.896 -2.3910 -1.7350 -1.1479
 5635SOL     OW28540   0.608   2.627   6.641 -0.0839  0.3426 -0.6503
 5635SOL    HW128541   0.624   2.533   6.651 -1.9909  0.1617  0.6106
 5635SOL    HW228542   0.692   2.666   6.616  0.1991 -0.2198 -0.5736
 5636SOL     OW28543   3.025   2.786  10.370  0.9186  0.4681  0.1153
 5636SOL    HW128544   3.108   2.790  10.417  0.3547  1.6265  1.0361
 5636SOL    HW228545   2.966   2.735  10.425 -0.4088  0.3912 -1.3657
 5637SOL     OW28546   2.140   1.854   8.331  0.6775  0.3563 -0.8228
 5637SOL    HW128547   2.142   1.885   8.241  0.7719 -0.6757 -1.1761
 5637SOL    HW228548   2.226   1.849   8.373 -0.0697  0.3015  0.7004
 5638SOL     OW28549   3.553   2.515   8.591  0.2606 -0.0071  0.5761
 5638SOL    HW128550   3.585   2.585   8.647  0.6091  0.1397  0.1936
 5638SOL    HW228551   3.464   2.499   8.624  0.8884  0.0769  2.2953
 5639SOL     OW28552   1.542   0.183   9.567 -0.5920 -0.1738 -0.3905
 5639SOL    HW128553   1.556   0.130   9.645 -0.4540  0.0443 -0.2653
 5639SOL    HW228554   1.628   0.179   9.526 -0.3325  1.2246  0.0157
 5640SOL     OW28555   3.666   3.724   7.235 -0.0719 -0.3045  0.8104
 5640SOL    HW128556   3.670   3.817   7.213  0.3871 -0.4667  0.2374
 5640SOL    HW228557   3.630   3.730   7.324 -0.1987 -1.0409  0.8076
 5641SOL     OW28558   3.291   4.592  11.852 -0.0330 -0.2053  0.2557
 5641SOL    HW128559   3.348   4.647  11.799 -1.0267 -0.5196 -1.1475
 5641SOL    HW228560   3.352   4.549  11.912 -0.0030  0.6807  0.8597
 5642SOL     OW28561   4.182   4.129  17.042  0.1403 -0.4007  0.0802
 5642SOL    HW128562   4.134   4.163  16.966 -1.3896 -2.2158  0.2343
 5642SOL    HW228563   4.236   4.205  17.064 -1.6225  0.9959 -0.4675
 5643SOL     OW28564   4.231   1.592   7.319  0.1558 -0.2080  0.7963
 5643SOL    HW128565   4.146   1.624   7.288  0.5645  1.1003  1.0220
 5643SOL    HW228566   4.207   1.517   7.374  1.1834  0.4634  2.1595
 5644SOL     OW28567   0.998   4.381   4.625  0.0898  0.0131  1.0156
 5644SOL    HW128568   0.929   4.412   4.684 -0.3072  0.8078  0.1403
 5644SOL    HW228569   0.953   4.326   4.562  0.9097 -0.9670  1.2879
 5645SOL     OW28570   1.298   1.715   2.647 -0.4858 -0.2734 -0.3543
 5645SOL    HW128571   1.346   1.643   2.690  0.0307  1.4031  1.8743
 5645SOL    HW228572   1.366   1.755   2.593 -0.8315  1.2440  0.3419
 5646SOL     OW28573   3.346   3.702   7.205  0.1999  0.3354 -0.1971
 5646SOL    HW128574   3.370   3.758   7.279 -1.4577 -0.3178  0.8299
 5646SOL    HW228575   3.416   3.637   7.215  0.2885  0.2323 -1.5769
 5647SOL     OW28576   2.011   0.439   3.123 -0.4503 -0.1871 -0.0186
 5647SOL    HW128577   2.012   0.373   3.054  2.4340  1.4137 -1.4779
 5647SOL    HW228578   1.928   0.485   3.112 -0.6883  0.4654  4.5027
 5648SOL     OW28579   1.232   4.556   1.841  0.0993  1.1164  0.2758
 5648SOL    HW128580   1.240   4.583   1.750  0.5679  2.4321  0.7070
 5648SOL    HW228581   1.139   4.539   1.853  0.0533  1.6798  0.7195
 5649SOL     OW28582   1.784   0.465  11.050 -0.5303 -0.8151 -0.0409
 5649SOL    HW128583   1.702   0.423  11.075 -0.6760 -1.4306 -1.5705
 5649SOL    HW228584   1.754   0.554  11.031 -0.1377 -0.5844  0.4271
 5650SOL     OW28585   0.293   0.348   2.627  0.1467 -0.3371 -0.5204
 5650SOL    HW128586   0.241   0.341   2.546 -2.4597  0.5355  1.0718
 5650SOL    HW228587   0.255   0.429   2.660 -1.1043 -0.8145 -0.7806
 5651SOL     OW28588   4.384   2.142   7.090 -0.1470  0.3533  0.1325
 5651SOL    HW128589   4.351   2.138   7.180 -1.1189 -1.5034 -0.2967
 5651SOL    HW228590   4.436   2.222   7.081  1.1979 -0.3287  1.9485
 5652SOL     OW28591   2.883   0.144   2.390 -0.1060 -0.0659  0.0612
 5652SOL    HW128592   2.945   0.080   2.354  0.2831  0.3025  0.0838
 5652SOL    HW228593   2.888   0.126   2.484 -0.1050 -0.9128 -0.1025
 5653SOL     OW28594   3.389   4.337   3.363 -0.2565  0.0741  0.2136
 5653SOL    HW128595   3.436   4.255   3.347 -0.5902  0.0434 -0.6208
 5653SOL    HW228596   3.320   4.334   3.296 -3.3597  0.7468  3.3989
 5654SOL     OW28597   2.876   2.015  17.004  0.0077 -0.0304 -0.6364
 5654SOL    HW128598   2.851   1.928  17.037  0.2359 -0.8226 -2.5771
 5654SOL    HW228599   2.820   2.071  17.058 -1.7546 -0.5204 -1.9472
 5655SOL     OW28600   3.892   0.670   3.703  0.5531 -0.0971 -0.6519
 5655SOL    HW128601   3.865   0.648   3.614 -0.1577 -0.6947 -0.2925
 5655SOL    HW228602   3.848   0.598   3.747 -1.8603  0.4646 -2.1731
 5656SOL     OW28603   2.641   3.904   4.206 -0.1637 -0.1106  0.2460
 5656SOL    HW128604   2.569   3.842   4.190  0.2014 -0.2697 -0.7749
 5656SOL    HW228605   2.714   3.870   4.155 -1.0736 -2.6059  0.6285
 5657SOL     OW28606   3.325   1.054   3.606  0.4372  0.1708 -0.1281
 5657SOL    HW128607   3.251   1.085   3.659 -0.0339 -1.1494  0.0015
 5657SOL    HW228608   3.376   1.018   3.678  0.1349 -0.6292 -0.3105
 5658SOL     OW28609   1.166   0.861   3.135  0.2591 -0.1495 -0.2091
 5658SOL    HW128610   1.187   0.954   3.123  0.9213 -0.3651 -0.7774
 5658SOL    HW228611   1.237   0.815   3.090 -0.4143 -1.7826  0.3981
 5659SOL     OW28612   0.549   3.606   8.704 -0.7146  0.1040 -0.0454
 5659SOL    HW128613   0.481   3.674   8.702  0.5228  1.3475 -0.3602
 5659SOL    HW228614   0.612   3.648   8.644 -0.2067  0.4117  0.7038
 5660SOL     OW28615   0.312   0.864  17.215  0.3556  0.2802 -0.1781
 5660SOL    HW128616   0.379   0.882  17.148  2.3247 -1.7846  1.2638
 5660SOL    HW228617   0.290   0.775  17.190  2.8209  0.0985 -1.7103
 5661SOL     OW28618   4.062   1.722   5.624  0.6713  0.1159 -0.6436
 5661SOL    HW128619   4.008   1.685   5.693 -0.9683  2.3664 -0.7263
 5661SOL    HW228620   4.144   1.747   5.666  1.1935 -1.1037 -0.9394
 5662SOL     OW28621   0.404   2.059   5.639  0.4239  0.1578 -0.4694
 5662SOL    HW128622   0.382   2.065   5.732  0.1560 -0.3819 -0.4974
 5662SOL    HW228623   0.344   1.995   5.602 -1.4636  0.5611  1.8702
 5663SOL     OW28624   1.796   0.355   4.110  0.3983 -0.1752 -0.4969
 5663SOL    HW128625   1.717   0.346   4.058 -0.1450  0.8567  0.1505
 5663SOL    HW228626   1.807   0.269   4.149  0.4760 -0.8502 -1.9988
 5664SOL     OW28627   2.412   1.949  12.397 -0.1249 -0.1099 -0.0936
 5664SOL    HW128628   2.391   1.944  12.304  1.7024 -0.3312 -0.4842
 5664SOL    HW228629   2.336   1.984  12.444  0.8037  2.5089 -0.5908
 5665SOL     OW28630   3.799   0.424   2.859  0.1483 -0.0051  0.2758
 5665SOL    HW128631   3.721   0.455   2.905 -1.8401 -3.1662 -0.9848
 5665SOL    HW228632   3.792   0.456   2.769 -0.1866  0.5008  0.4793
 5666SOL     OW28633   4.281   3.645   6.354  0.2124  0.1532  0.3696
 5666SOL    HW128634   4.330   3.697   6.290  0.9603 -2.2197 -0.9933
 5666SOL    HW228635   4.194   3.685   6.349  1.0635  1.9175 -0.0025
 5667SOL     OW28636   4.230   2.357   8.749  0.0371  0.2877 -0.2028
 5667SOL    HW128637   4.288   2.432   8.737 -2.5271  2.2239 -0.6205
 5667SOL    HW228638   4.287   2.293   8.790  1.3486  0.1282 -2.2798
 5668SOL     OW28639   0.757   3.005   5.281 -0.2065 -0.1283 -0.0019
 5668SOL    HW128640   0.796   3.032   5.364 -0.5189  0.1570  0.0501
 5668SOL    HW228641   0.676   2.965   5.313  1.3334 -1.9224  1.7291
 5669SOL     OW28642   2.951   1.369   5.663  0.1138 -0.6243  0.4213
 5669SOL    HW128643   3.028   1.364   5.718  1.7259 -2.5380 -2.0005
 5669SOL    HW228644   2.958   1.281   5.625 -0.1373  0.5501 -2.3955
 5670SOL     OW28645   1.954   0.770   5.177 -0.4948  0.0286 -0.4355
 5670SOL    HW128646   1.969   0.772   5.082  0.0379 -1.1444 -0.3719
 5670SOL    HW228647   1.992   0.847   5.219 -1.3282  1.1379 -1.7188
 5671SOL     OW28648   4.221   1.551   3.918 -0.4691  0.1406 -0.9177
 5671SOL    HW128649   4.256   1.468   3.885  1.9052  0.2279  1.3051
 5671SOL    HW228650   4.144   1.558   3.862 -0.2794  0.7410 -1.0988
 5672SOL     OW28651   2.154   0.363   9.805  0.4457  0.0952  0.3117
 5672SOL    HW128652   2.240   0.322   9.804  0.4989  0.2067  0.3640
 5672SOL    HW228653   2.117   0.324   9.884 -0.1381  1.6236  0.7985
 5673SOL     OW28654   2.903   3.468   0.903  0.0408 -0.6094 -0.5672
 5673SOL    HW128655   2.954   3.548   0.890 -0.4671 -0.3326 -0.8640
 5673SOL    HW228656   2.927   3.437   0.990  2.5369  0.8800 -0.7098
 5674SOL     OW28657   4.711   3.350   1.365  0.1794 -0.1460  0.3203
 5674SOL    HW128658   4.632   3.403   1.375 -0.5691 -1.3697  0.9342
 5674SOL    HW228659   4.675   3.261   1.357 -0.5794  0.1395  0.6104
 5675SOL     OW28660   1.900   0.961   6.028  0.7071  0.2674 -0.7836
 5675SOL    HW128661   1.881   0.992   5.940 -0.8663 -0.5581 -0.7505
 5675SOL    HW228662   1.811   0.942   6.060  0.2424 -0.1178 -2.3097
 5676SOL     OW28663   2.501   3.814  14.610  0.1706 -0.8939 -0.4609
 5676SOL    HW128664   2.536   3.767  14.686 -2.2074 -0.6935  0.7842
 5676SOL    HW228665   2.408   3.797  14.626  0.3202  0.0192  1.4575
 5677SOL     OW28666   1.250   0.908  12.412  0.4558  0.0578 -0.0435
 5677SOL    HW128667   1.165   0.865  12.420 -0.9074  2.7642  0.1092
 5677SOL    HW228668   1.294   0.843  12.358  4.3736  0.3609  2.7945
 5678SOL     OW28669   3.534   1.883   8.386  0.0942 -0.8779  0.3748
 5678SOL    HW128670   3.534   1.918   8.296 -1.0167  3.1671  1.9294
 5678SOL    HW228671   3.617   1.922   8.415 -0.5912  0.0895  1.0285
 5679SOL     OW28672   1.518   2.908   3.329  0.5807 -0.2238  0.0163
 5679SOL    HW128673   1.529   3.002   3.318  0.4347 -0.2367 -0.2511
 5679SOL    HW228674   1.590   2.879   3.272  1.2073  0.5743  0.4028
 5680SOL     OW28675   0.520   4.443  16.753  0.4302 -0.0095  0.0197
 5680SOL    HW128676   0.491   4.357  16.721 -0.7897  0.5065 -0.2575
 5680SOL    HW228677   0.528   4.496  16.674  0.3017 -1.7668 -1.1947
 5681SOL     OW28678   3.174   1.102   7.134 -0.2710 -0.0296 -1.0518
 5681SOL    HW128679   3.263   1.076   7.110 -0.2138 -1.7196  1.0108
 5681SOL    HW228680   3.164   1.181   7.081  0.0049 -0.8779 -2.3566
 5682SOL     OW28681   2.708   2.701   0.028 -0.6030  0.5742 -0.2239
 5682SOL    HW128682   2.613   2.701   0.027 -0.5934  0.2846 -0.9946
 5682SOL    HW228683   2.715   2.722  17.677 -1.2829 -0.1028 -0.4229
 5683SOL     OW28684   1.002   3.897   2.378 -0.4928 -0.5268 -0.0985
 5683SOL    HW128685   1.075   3.921   2.321  0.1896 -2.1171  0.0924
 5683SOL    HW228686   0.930   3.890   2.317 -0.4991  1.6060 -0.3390
 5684SOL     OW28687   0.398   3.867   7.570  0.5225  0.0998  0.1088
 5684SOL    HW128688   0.403   3.785   7.618  1.0384  0.2923  0.3828
 5684SOL    HW228689   0.339   3.918   7.625  2.5456  0.5981  1.8090
 5685SOL     OW28690   4.353   2.658   1.321  0.7113 -0.0796 -0.0817
 5685SOL    HW128691   4.326   2.594   1.255 -0.6784 -1.9771  2.3255
 5685SOL    HW228692   4.311   2.633   1.404 -0.9458  0.6025 -0.7254
 5686SOL     OW28693   3.185   3.485  17.344  0.2240 -0.3116  0.0413
 5686SOL    HW128694   3.117   3.493  17.277  0.6101 -1.9941 -0.5490
 5686SOL    HW228695   3.137   3.528  17.415  0.4615 -1.2498  0.7756
 5687SOL     OW28696   0.264   0.599   3.633 -0.4488 -0.1486 -0.4119
 5687SOL    HW128697   0.270   0.569   3.724  1.2042 -0.0450 -0.4845
 5687SOL    HW228698   0.342   0.654   3.623  1.4274 -2.6023  0.7533
 5688SOL     OW28699   2.815   1.654   9.179 -0.6219  0.3918 -0.3416
 5688SOL    HW128700   2.827   1.561   9.159  1.5759  0.5874  0.1117
 5688SOL    HW228701   2.801   1.648   9.273 -2.4758  3.6707 -0.4080
 5689SOL     OW28702   2.060   1.438   9.004 -0.1148  0.3382  0.1373
 5689SOL    HW128703   1.992   1.475   8.947 -1.2860 -2.0284  0.0071
 5689SOL    HW228704   2.019   1.415   9.087 -1.9085 -2.4023 -1.4829
 5690SOL     OW28705   2.538   2.938   7.123 -0.2906 -0.3000  0.1067
 5690SOL    HW128706   2.479   3.010   7.144 -2.1376 -0.9792 -2.7720
 5690SOL    HW228707   2.609   2.990   7.085  0.1667  0.4228  1.9676
 5691SOL     OW28708   1.542   2.367   9.186 -0.1326 -0.4006  0.1258
 5691SOL    HW128709   1.489   2.298   9.225  0.5936 -0.4317  1.0443
 5691SOL    HW228710   1.596   2.385   9.263 -2.0308  1.8326  0.9070
 5692SOL     OW28711   0.875   1.173  16.274 -0.4005 -0.6823  0.1257
 5692SOL    HW128712   0.899   1.083  16.297  0.8766  0.8319  4.6351
 5692SOL    HW228713   0.791   1.183  16.319  0.5853 -1.3181  2.0994
 5693SOL     OW28714   0.021   1.931   5.720  0.8810  0.2905  0.0233
 5693SOL    HW128715   4.726   2.019   5.739  1.0499  0.7621 -1.8732
 5693SOL    HW228716   0.107   1.929   5.763  0.3135 -1.9348  1.0819
 5694SOL     OW28717   0.990   0.013   7.539 -0.3179 -0.2264 -0.0505
 5694SOL    HW128718   0.913   0.068   7.524  2.1263  3.1605 -0.3388
 5694SOL    HW228719   0.950   4.669   7.505  1.0780 -0.4018 -1.2763
 5695SOL     OW28720   2.185   3.648  13.240  0.3980 -0.3519 -0.7016
 5695SOL    HW128721   2.201   3.693  13.322  1.0987  0.5954 -1.3663
 5695SOL    HW228722   2.174   3.722  13.181 -0.4963 -1.0680 -1.4378
 5696SOL     OW28723   1.660   2.695   4.990  0.4901  0.8255 -0.3091
 5696SOL    HW128724   1.658   2.668   5.082 -3.0930 -1.1695 -0.9586
 5696SOL    HW228725   1.591   2.759   5.007  0.1363  0.7062 -1.3168
 5697SOL     OW28726   2.527   2.534   4.356 -0.0292  0.3640  0.4913
 5697SOL    HW128727   2.530   2.627   4.378  0.4960  0.3521  0.4471
 5697SOL    HW228728   2.489   2.499   4.437 -0.6174 -2.1246 -0.8584
 5698SOL     OW28729   0.135   3.814   4.717 -0.0489 -0.3251 -0.5478
 5698SOL    HW128730   0.095   3.793   4.633  0.1091  0.5239 -0.8397
 5698SOL    HW228731   0.081   3.890   4.740 -1.7538 -0.7908 -3.0163
 5699SOL     OW28732   4.680   3.359   4.861  0.1893  0.5107  0.2253
 5699SOL    HW128733   4.677   3.417   4.937 -1.6828  0.5222  0.1423
 5699SOL    HW228734   0.029   3.393   4.833  1.4752 -0.9447  2.3330
 5700SOL     OW28735   2.002   2.323   6.523  0.4769 -0.6166 -0.5424
 5700SOL    HW128736   1.915   2.311   6.487 -0.1333  1.3771  0.3055
 5700SOL    HW228737   2.022   2.245   6.576 -0.2661 -0.1364  0.4439
 5701SOL     OW28738   2.884   4.446  14.046 -0.4732 -0.1116  0.0413
 5701SOL    HW128739   2.974   4.477  14.056 -0.4524 -1.6656  4.6081
 5701SOL    HW228740   2.840   4.526  14.017 -0.6435 -0.5128 -0.8090
 5702SOL     OW28741   3.979   0.494   5.450 -0.5700  0.0737  0.1325
 5702SOL    HW128742   3.957   0.587   5.456 -1.3670 -0.1571  0.8825
 5702SOL    HW228743   3.984   0.487   5.355  2.1333  0.9257  0.2164
 5703SOL     OW28744   0.029   4.579   5.166  0.0660 -0.8276  0.0023
 5703SOL    HW128745   4.708   4.598   5.091  0.1265 -0.1087  0.1395
 5703SOL    HW228746   0.013   4.648   5.230  2.3515 -0.7520  0.5096
 5704SOL     OW28747   1.777   1.219   2.136 -0.3410 -0.2842 -0.1255
 5704SOL    HW128748   1.713   1.290   2.124  0.4343  0.2878 -0.8738
 5704SOL    HW228749   1.779   1.178   2.049  0.7588  1.0172 -0.7109
 5705SOL     OW28750   2.554   4.039   8.000 -0.7813  0.0758 -0.0293
 5705SOL    HW128751   2.551   3.971   8.067 -2.4162  0.1793 -0.0076
 5705SOL    HW228752   2.464   4.068   8.011 -0.8554  0.3817 -1.3996
 5706SOL     OW28753   0.173   3.540   4.804 -0.2227 -0.6216  0.1037
 5706SOL    HW128754   0.156   3.538   4.709 -1.0896 -0.0226  0.2390
 5706SOL    HW228755   0.158   3.634   4.812  2.4649 -0.1889  0.1325
 5707SOL     OW28756   3.723   1.153   2.206 -0.4106  0.8823 -0.1743
 5707SOL    HW128757   3.740   1.236   2.251  1.6660 -0.2829  1.1953
 5707SOL    HW228758   3.676   1.102   2.273  0.2216 -1.0191 -1.1967
 5708SOL     OW28759   4.302   1.753   8.196  0.5618 -0.1598  0.0232
 5708SOL    HW128760   4.347   1.835   8.216 -2.0992  1.7076 -1.6964
 5708SOL    HW228761   4.266   1.781   8.112  3.3611  1.1673 -0.7367
 5709SOL     OW28762   2.709   1.772   3.509 -0.3493  0.2340  0.1653
 5709SOL    HW128763   2.625   1.730   3.491 -0.6442  0.6029  0.7016
 5709SOL    HW228764   2.712   1.764   3.605 -1.3799 -0.6045  0.1184
 5710SOL     OW28765   1.402   0.513   2.142 -0.0985  0.1603  0.2265
 5710SOL    HW128766   1.414   0.484   2.232 -1.3562 -1.5705 -0.1646
 5710SOL    HW228767   1.486   0.485   2.106 -0.2030 -0.1652  0.2350
 5711SOL     OW28768   2.183   0.250   8.323  0.6172 -0.2191  0.3280
 5711SOL    HW128769   2.242   0.210   8.387 -0.4107 -0.4261  1.1397
 5711SOL    HW228770   2.102   0.200   8.324  0.4203  0.1292  1.9224
 5712SOL     OW28771   2.912   1.319   6.723 -0.0910  0.0344  0.8482
 5712SOL    HW128772   2.966   1.256   6.675  1.9869  2.2861  0.2935
 5712SOL    HW228773   2.922   1.287   6.813 -0.0301 -1.9050  0.1586
 5713SOL     OW28774   1.116   0.268   8.842 -0.7992 -0.3063  0.5130
 5713SOL    HW128775   1.082   0.270   8.932 -0.8801 -2.4114  0.5361
 5713SOL    HW228776   1.201   0.224   8.843  0.2405  1.7125 -0.6185
 5714SOL     OW28777   3.640   4.251   6.951  0.6321  0.0526  0.0964
 5714SOL    HW128778   3.556   4.219   6.984  0.0665  1.6482  0.1994
 5714SOL    HW228779   3.637   4.192   6.876  0.9102  0.5540 -0.3102
 5715SOL     OW28780   3.851   2.263   3.642  0.1111  0.1888 -0.4694
 5715SOL    HW128781   3.946   2.256   3.635  0.0094 -0.9050 -0.8909
 5715SOL    HW228782   3.846   2.267   3.737 -0.5329  1.6429 -0.5609
 5716SOL     OW28783   1.082   4.150   1.897 -0.2163 -0.2451 -0.3892
 5716SOL    HW128784   1.015   4.081   1.893  0.9885 -1.4253  0.0717
 5716SOL    HW228785   1.088   4.204   1.818 -1.0508  1.9135  1.0216
 5717SOL     OW28786   0.331   1.746  13.199  0.2136  0.2529  0.5160
 5717SOL    HW128787   0.310   1.814  13.135  0.7494  1.1537  1.3055
 5717SOL    HW228788   0.264   1.686  13.166  0.6541  0.1026 -0.1119
 5718SOL     OW28789   3.951   2.728   8.666  0.5218 -0.7553  0.0724
 5718SOL    HW128790   3.943   2.638   8.635  1.5434 -0.9327  0.3076
 5718SOL    HW228791   4.013   2.761   8.601  0.9847 -0.5262  0.6168
 5719SOL     OW28792   0.874   0.351   5.043  0.2859  0.5857 -0.1095
 5719SOL    HW128793   0.893   0.428   5.097  0.5930 -0.6752  1.5939
 5719SOL    HW228794   0.961   0.347   5.004 -0.1946  0.7502 -1.1780
 5720SOL     OW28795   3.251   4.539  14.487 -0.4379  0.1757  0.3778
 5720SOL    HW128796   3.279   4.600  14.418  2.0793 -1.6752 -0.2337
 5720SOL    HW228797   3.182   4.482  14.452  0.6929 -0.5897 -0.5888
 5721SOL     OW28798   3.128   0.305   9.500 -0.6801 -0.2923 -0.7699
 5721SOL    HW128799   3.129   0.382   9.443 -1.7029  1.1335  1.1476
 5721SOL    HW228800   3.206   0.331   9.549 -2.5554 -0.5146  2.3118
 5722SOL     OW28801   4.250   1.037   7.561 -0.6660 -0.0544  0.2905
 5722SOL    HW128802   4.285   0.987   7.488 -2.3020  0.9083 -1.1441
 5722SOL    HW228803   4.236   0.974   7.632  2.0783 -0.9946 -0.0049
 5723SOL     OW28804   4.694   0.219  13.060 -0.1011  0.0764  0.0748
 5723SOL    HW128805   4.617   0.258  13.018 -0.3228 -0.0940  0.3154
 5723SOL    HW228806   4.640   0.204  13.139 -0.1336  1.0959  0.2466
 5724SOL     OW28807   2.661   0.526   3.774  0.3476 -0.7374 -0.2285
 5724SOL    HW128808   2.611   0.454   3.736 -0.8155 -0.0218 -0.0355
 5724SOL    HW228809   2.723   0.543   3.703 -1.7267 -0.3739 -1.9420
 5725SOL     OW28810   0.646   1.518   3.671  0.3269 -0.4864  0.1221
 5725SOL    HW128811   0.703   1.442   3.685 -1.5681 -1.9700 -0.2672
 5725SOL    HW228812   0.568   1.479   3.631 -0.4449  1.2702 -0.0754
 5726SOL     OW28813   1.661   4.406   1.887  0.1005  0.9394  0.6269
 5726SOL    HW128814   1.698   4.378   1.970  1.0085 -2.0579 -0.8078
 5726SOL    HW228815   1.606   4.329   1.872  0.1197  1.2422 -1.0642
 5727SOL     OW28816   3.267   2.034   3.716  0.5551  0.3839  0.7785
 5727SOL    HW128817   3.240   2.124   3.696 -1.0713 -0.2253  0.2521
 5727SOL    HW228818   3.283   2.001   3.627  1.9577  0.5756  0.9586
 5728SOL     OW28819   4.174   2.454   4.017  0.1415  0.0586 -0.1048
 5728SOL    HW128820   4.241   2.448   4.084 -1.4851 -0.2357  1.4939
 5728SOL    HW228821   4.230   2.497   3.952 -0.0644 -3.2167 -2.4630
 5729SOL     OW28822   3.917   1.067   5.440 -0.1318 -0.1258  0.1910
 5729SOL    HW128823   3.918   1.123   5.517  0.7246 -0.6359  0.5496
 5729SOL    HW228824   3.859   1.110   5.376 -1.5645 -2.6429 -0.2204
 5730SOL     OW28825   3.801   3.074   5.170  0.8743  0.0834  0.5812
 5730SOL    HW128826   3.761   3.018   5.103 -0.8849  0.6540  1.1508
 5730SOL    HW228827   3.728   3.083   5.232  1.2882 -0.5223  1.1463
 5731SOL     OW28828   4.201   2.271  16.971  0.1124  0.2385  0.0722
 5731SOL    HW128829   4.250   2.334  17.025  1.0172  1.4904 -2.2162
 5731SOL    HW228830   4.148   2.230  17.039  2.3381  0.6918  2.1033
 5732SOL     OW28831   3.688   3.689  17.055 -0.1682 -0.0647  0.0022
 5732SOL    HW128832   3.608   3.705  17.005 -0.2795  0.5045  0.3640
 5732SOL    HW228833   3.747   3.711  16.983 -0.2562 -0.1431 -0.0933
 5733SOL     OW28834   3.245   1.778   7.747 -0.6535 -0.3983  0.4075
 5733SOL    HW128835   3.340   1.764   7.746 -0.5535  0.2552  1.1764
 5733SOL    HW228836   3.224   1.733   7.665  0.0281 -1.4680  0.8202
 5734SOL     OW28837   3.542   0.109   4.465  0.1274  0.3732 -0.2025
 5734SOL    HW128838   3.485   0.152   4.401 -1.0482  1.1275  1.3242
 5734SOL    HW228839   3.497   0.025   4.460 -0.6689  0.7695  0.2064
 5735SOL     OW28840   0.810   1.419  15.431 -0.0768  0.0568  0.6002
 5735SOL    HW128841   0.766   1.496  15.395 -2.9245 -2.3392 -1.0414
 5735SOL    HW228842   0.889   1.415  15.377  0.0404 -0.8392  0.8374
 5736SOL     OW28843   2.134   0.727   8.132 -0.8413  0.0172 -0.2534
 5736SOL    HW128844   2.152   0.643   8.090  0.0677  1.0360 -1.9132
 5736SOL    HW228845   2.055   0.695   8.177 -1.1210  0.4967 -0.4017
 5737SOL     OW28846   3.245   2.315   3.043 -0.3647 -0.2108  0.3917
 5737SOL    HW128847   3.295   2.392   3.071 -0.6144 -0.2571  0.9794
 5737SOL    HW228848   3.180   2.361   2.990 -1.2620 -3.6477 -1.4989
 5738SOL     OW28849   3.495   1.923  13.543  0.5011  0.6183 -0.1009
 5738SOL    HW128850   3.557   1.863  13.584 -1.0478 -1.1898 -0.4206
 5738SOL    HW228851   3.415   1.871  13.533  1.4083 -0.9498  0.8393
 5739SOL     OW28852   2.684   1.755   1.097  0.3932 -0.0016 -0.4498
 5739SOL    HW128853   2.676   1.774   1.190  3.0080 -0.8010 -0.0858
 5739SOL    HW228854   2.772   1.718   1.099 -0.2571 -1.4629  0.3058
 5740SOL     OW28855   0.347   0.231   9.679  0.4724  0.0768  0.3791
 5740SOL    HW128856   0.412   0.204   9.613 -1.7451 -1.2566 -1.2909
 5740SOL    HW228857   0.394   0.189   9.750 -0.4210 -1.2320  0.2105
 5741SOL     OW28858   2.480   3.469  13.705 -0.3093  0.5061  0.2627
 5741SOL    HW128859   2.514   3.421  13.780 -1.2704  1.3921  1.2751
 5741SOL    HW228860   2.425   3.536  13.746 -0.1411  0.6631  0.2306
 5742SOL     OW28861   1.601   3.772   9.165 -0.2721 -0.2560 -0.3038
 5742SOL    HW128862   1.658   3.795   9.091  0.1300  4.6201  1.5023
 5742SOL    HW228863   1.588   3.861   9.198 -1.7311 -0.0354 -1.4972
 5743SOL     OW28864   2.098   2.643   5.182  0.3911 -0.1330 -0.6326
 5743SOL    HW128865   2.190   2.638   5.157  0.9695 -2.4451  1.9426
 5743SOL    HW228866   2.098   2.604   5.269  2.7570 -0.8205 -0.9280
 5744SOL     OW28867   1.910   3.887  11.683 -0.0989 -0.2497 -0.2707
 5744SOL    HW128868   1.815   3.896  11.678 -0.0183  1.2125  0.6809
 5744SOL    HW228869   1.931   3.829  11.610 -0.1726  2.5986 -2.5339
 5745SOL     OW28870   4.644   4.269   4.347  0.5798 -0.4984 -0.3531
 5745SOL    HW128871   4.614   4.310   4.266 -2.7877 -1.2559  0.4895
 5745SOL    HW228872   4.685   4.190   4.314  0.2024  0.3479 -2.8233
 5746SOL     OW28873   0.520   2.416   4.958  0.5846 -0.1149 -0.1550
 5746SOL    HW128874   0.507   2.431   5.052 -0.5632  0.9568 -0.4895
 5746SOL    HW228875   0.566   2.499   4.944 -0.9902  0.9829  1.1541
 5747SOL     OW28876   0.470   1.831   2.249  0.1058  0.0415  0.3421
 5747SOL    HW128877   0.565   1.841   2.261  0.2832 -0.6440 -0.4922
 5747SOL    HW228878   0.462   1.802   2.158 -0.0689 -1.0083  0.6927
 5748SOL     OW28879   2.958   3.334   5.303  0.1636  0.3644  0.1961
 5748SOL    HW128880   3.009   3.401   5.257  0.4975 -0.1289 -0.1559
 5748SOL    HW228881   2.875   3.326   5.256 -1.3094 -0.1135  2.9289
 5749SOL     OW28882   4.735   0.326  16.743  0.0968  0.0188  0.0022
 5749SOL    HW128883   4.663   0.273  16.707  0.6382  0.2347 -1.3873
 5749SOL    HW228884   0.059   0.304  16.672 -0.5665 -3.9778  0.6363
 5750SOL     OW28885   1.467   2.676   5.695 -0.4105  0.5730  0.5227
 5750SOL    HW128886   1.385   2.654   5.741  0.2665 -2.6758  0.1897
 5750SOL    HW228887   1.477   2.769   5.713 -3.1293  0.8094  0.8632
 5751SOL     OW28888   3.176   2.394   3.964  0.3389  0.4837 -0.2412
 5751SOL    HW128889   3.194   2.458   4.032  0.1688  0.1035  0.1644
 5751SOL    HW228890   3.264   2.359   3.950  0.5368  0.6912  0.5256
 5752SOL     OW28891   3.332   0.629   0.528 -0.2409  0.0309 -0.7976
 5752SOL    HW128892   3.348   0.539   0.498 -0.7950  0.5001 -2.5260
 5752SOL    HW228893   3.272   0.667   0.465 -1.0235  0.5197  0.2621
 5753SOL     OW28894   1.093   3.025  13.438  0.3784 -0.1517  0.2953
 5753SOL    HW128895   1.147   3.066  13.371 -1.7786  1.9105 -0.1705
 5753SOL    HW228896   1.013   2.991  13.399  0.5818 -0.3713  0.0646
 5754SOL     OW28897   1.252   2.845   6.602  0.1624  0.2118  0.0877
 5754SOL    HW128898   1.303   2.778   6.647 -1.0060 -0.2857  0.6723
 5754SOL    HW228899   1.320   2.906   6.575 -0.0470 -0.0610 -1.0885
 5755SOL     OW28900   4.686   1.740  10.834 -0.6812 -0.1268  0.0558
 5755SOL    HW128901   4.699   1.834  10.848 -0.7432 -0.0881 -0.1429
 5755SOL    HW228902   4.666   1.709  10.922 -0.7744  0.3546  0.2057
 5756SOL     OW28903   0.196   3.718   0.368 -0.3959  0.4762  0.1988
 5756SOL    HW128904   0.194   3.646   0.304  0.1595  1.9141 -1.4337
 5756SOL    HW228905   0.268   3.765   0.327 -1.0321  0.5231 -0.8807
 5757SOL     OW28906   3.752   1.726  13.880 -0.6810 -0.3001 -0.3079
 5757SOL    HW128907   3.755   1.739  13.975  2.1299 -1.5493 -0.2108
 5757SOL    HW228908   3.658   1.731  13.864 -0.4524 -2.1890 -2.1774
 5758SOL     OW28909   1.805   1.515  11.981 -0.2001  0.0037 -0.1226
 5758SOL    HW128910   1.772   1.604  11.992  0.5013 -0.0062  2.0786
 5758SOL    HW228911   1.738   1.476  11.925  0.1737 -0.9341  0.0758
 5759SOL     OW28912   3.368   0.465   6.752  0.3850  0.2011  0.4061
 5759SOL    HW128913   3.395   0.376   6.774  1.3751  0.6494  0.9902
 5759SOL    HW228914   3.452   0.506   6.734  1.0840 -1.6645 -0.5569
 5760SOL     OW28915   2.635   3.577   3.083  0.5678 -0.1650 -0.2385
 5760SOL    HW128916   2.541   3.597   3.091  0.6873  0.8817 -1.4702
 5760SOL    HW228917   2.652   3.616   2.998 -1.8708 -0.2726 -0.7735
 5761SOL     OW28918   1.629   2.846   2.020  0.1548 -0.1887  0.2457
 5761SOL    HW128919   1.693   2.917   2.025  0.2321 -0.0833 -2.3404
 5761SOL    HW228920   1.629   2.825   1.926 -2.0979  1.9393 -0.2106
 5762SOL     OW28921   3.734   1.319   3.289 -0.5656  0.1952 -0.7364
 5762SOL    HW128922   3.642   1.322   3.264  0.2433  1.5058 -3.5720
 5762SOL    HW228923   3.747   1.414   3.285  1.1052  0.0024 -0.0119
 5763SOL     OW28924   1.814   3.184   4.259 -0.7329  0.1527 -0.0518
 5763SOL    HW128925   1.826   3.198   4.165 -0.9381  0.4462 -0.0326
 5763SOL    HW228926   1.760   3.105   4.268  0.2862 -0.3823  1.2833
 5764SOL     OW28927   1.241   2.093   8.071  0.0804  0.6632 -0.1308
 5764SOL    HW128928   1.164   2.131   8.114 -0.1773  0.6173 -0.5544
 5764SOL    HW228929   1.276   2.163   8.016  4.6591 -1.2112  0.3847
 5765SOL     OW28930   1.769   3.107   5.802  0.3165  0.0875  0.5960
 5765SOL    HW128931   1.779   3.200   5.822 -1.1674  0.4568 -0.4562
 5765SOL    HW228932   1.859   3.088   5.774  0.4545 -0.1446  1.1830
 5766SOL     OW28933   1.105   2.102   3.808  0.4345 -0.6444  0.6495
 5766SOL    HW128934   1.043   2.066   3.744  1.5619 -1.0910 -0.1737
 5766SOL    HW228935   1.101   2.196   3.789  0.0539 -0.8025 -0.0265
 5767SOL     OW28936   0.712   3.254   4.759 -0.5944 -0.0389 -0.1411
 5767SOL    HW128937   0.666   3.335   4.737 -1.4801 -0.6413 -0.5044
 5767SOL    HW228938   0.692   3.235   4.851 -2.4906 -1.6792 -0.8955
 5768SOL     OW28939   0.281   2.707   8.379  0.0452  0.0524 -0.3976
 5768SOL    HW128940   0.210   2.764   8.351  1.1402  1.0121 -1.2277
 5768SOL    HW228941   0.271   2.632   8.321 -0.8194  1.1002 -1.5813
 5769SOL     OW28942   1.091   1.884   6.338  0.6682  0.0326 -0.0498
 5769SOL    HW128943   1.102   1.867   6.432 -1.6278 -2.2467 -0.2114
 5769SOL    HW228944   1.005   1.926   6.335  0.8779  0.6155  1.9090
 5770SOL     OW28945   0.222   0.165   2.029 -0.4296  0.4495  0.0237
 5770SOL    HW128946   0.288   0.232   2.047  2.0538 -1.7690 -0.9197
 5770SOL    HW228947   0.146   0.204   2.072  0.0816  1.1996  0.2486
 5771SOL     OW28948   4.118   1.779  10.463 -0.0255  0.2985 -0.2427
 5771SOL    HW128949   4.082   1.725  10.392 -1.7291  1.5574 -0.3463
 5771SOL    HW228950   4.145   1.704  10.515  0.4800  0.9889  0.4724
 5772SOL     OW28951   3.004   3.184   6.327 -0.4889  0.4693 -0.4591
 5772SOL    HW128952   2.959   3.130   6.392 -2.6172  0.7405 -1.6869
 5772SOL    HW228953   3.071   3.230   6.377 -0.3906  0.7668 -0.8681
 5773SOL     OW28954   3.094   1.356  17.240  0.7665 -0.5494 -0.4421
 5773SOL    HW128955   3.137   1.346  17.155  1.8561  0.1805  0.0137
 5773SOL    HW228956   3.079   1.263  17.258  2.6760 -0.6746  0.4730
 5774SOL     OW28957   1.408   2.420   3.738 -0.2720  0.1782 -0.5119
 5774SOL    HW128958   1.376   2.379   3.818  1.6227 -2.0142 -0.8668
 5774SOL    HW228959   1.496   2.382   3.728 -0.0077  0.9910 -1.2998
 5775SOL     OW28960   4.658   2.587   2.023  0.0173 -0.1101  0.4512
 5775SOL    HW128961   4.711   2.538   1.960  1.3362  2.5288 -0.4802
 5775SOL    HW228962   4.715   2.631   2.086 -0.3734 -0.6105  1.1645
 5776SOL     OW28963   0.360   3.671  15.760 -0.4503  0.0547 -0.0154
 5776SOL    HW128964   0.441   3.628  15.785 -0.0470 -0.1016 -1.5886
 5776SOL    HW228965   0.298   3.625  15.816 -0.9000  1.1473  0.3882
 5777SOL     OW28966   2.326   1.052   5.538 -0.1417 -0.2431  0.1239
 5777SOL    HW128967   2.417   1.036   5.514  0.0596  0.8412  0.1682
 5777SOL    HW228968   2.298   0.964   5.564 -0.4337 -0.7540 -1.9177
 5778SOL     OW28969   2.445   1.247   9.871 -0.2093  0.3842 -0.0628
 5778SOL    HW128970   2.455   1.336   9.905 -0.0831 -0.7063  2.8104
 5778SOL    HW228971   2.443   1.205   9.958  1.5897  2.0626  0.7857
 5779SOL     OW28972   1.441   4.546   9.134  0.0515 -0.0532 -0.3272
 5779SOL    HW128973   1.534   4.547   9.114 -0.0660  0.2050 -0.8599
 5779SOL    HW228974   1.433   4.589   9.219 -0.8388  0.6067 -0.7368
 5780SOL     OW28975   1.404   2.281   5.373 -0.1964 -0.0916  0.3257
 5780SOL    HW128976   1.386   2.303   5.465  0.1538  3.4083 -0.4272
 5780SOL    HW228977   1.491   2.319   5.365 -0.5426 -0.2158 -3.9944
 5781SOL     OW28978   2.037   3.214   5.930  0.0096 -0.9670  0.8085
 5781SOL    HW128979   2.073   3.227   6.018  0.3408 -0.3520  0.5856
 5781SOL    HW228980   1.975   3.287   5.920  3.2916  1.6595 -0.5820
 5782SOL     OW28981   4.456   3.913   4.751 -0.2885 -0.2657  0.1030
 5782SOL    HW128982   4.414   3.982   4.803  2.3818 -1.1142  3.3581
 5782SOL    HW228983   4.543   3.954   4.745  1.0961 -3.3282 -0.5558
 5783SOL     OW28984   4.091   4.635  12.882 -0.3936  0.3343  0.0777
 5783SOL    HW128985   4.077   4.698  12.952 -0.5596  1.3493 -0.8765
 5783SOL    HW228986   4.003   4.652  12.848 -0.7747 -0.1453  0.8110
 5784SOL     OW28987   3.147   3.423   4.480 -0.6404  0.0135  0.0645
 5784SOL    HW128988   3.070   3.458   4.436  1.5422  2.4099 -1.7885
 5784SOL    HW228989   3.181   3.496   4.532  3.2328 -0.3499 -1.9228
 5785SOL     OW28990   2.266   4.097  11.869 -0.4425  1.0358 -0.0083
 5785SOL    HW128991   2.265   4.063  11.779 -1.4683 -0.7719  0.6989
 5785SOL    HW228992   2.330   4.169  11.866  0.7868 -0.1135 -1.3222
 5786SOL     OW28993   4.246   1.896  17.375  0.1007 -0.0481  0.3344
 5786SOL    HW128994   4.245   1.809  17.335 -1.9129 -0.0809  0.4546
 5786SOL    HW228995   4.163   1.890  17.422  0.4414  0.4944  1.0042
 5787SOL     OW28996   0.055   0.217   8.931 -0.1738  0.1334 -0.2134
 5787SOL    HW128997   0.057   0.282   9.002  0.0796 -2.1266  1.8379
 5787SOL    HW228998   0.100   0.276   8.871 -0.6283  0.4117 -0.2878
 5788SOL     OW28999   4.727   3.119  15.041  0.2238  0.4873  0.4696
 5788SOL    HW129000   4.736   3.024  15.035 -0.9035  0.5262 -1.6731
 5788SOL    HW229001   0.080   3.151  15.029  0.4251 -0.4430 -0.4710
 5789SOL     OW29002   1.830   0.439   5.252  0.2279 -0.3202  0.8588
 5789SOL    HW129003   1.810   0.513   5.194 -0.9937 -1.1562  0.2083
 5789SOL    HW229004   1.794   0.367   5.201  0.6412  0.6814 -0.8546
 5790SOL     OW29005   0.937   2.217   8.602 -0.2998  0.0621  0.3949
 5790SOL    HW129006   0.901   2.236   8.689 -1.0818  0.1730  0.0518
 5790SOL    HW229007   0.912   2.125   8.606 -0.5230  0.1970  1.9883
 5791SOL     OW29008   4.540   1.534   9.212 -0.6277 -0.2133 -0.5063
 5791SOL    HW129009   4.630   1.510   9.188 -0.5048  0.8301 -1.1076
 5791SOL    HW229010   4.535   1.621   9.173  0.8737 -0.8659 -2.1682
 5792SOL     OW29011   2.445   3.578  15.587 -0.6768  0.3234 -0.2734
 5792SOL    HW129012   2.351   3.556  15.587 -1.3781  3.3523  0.3740
 5792SOL    HW229013   2.432   3.665  15.549 -0.7382 -0.1750 -1.4010
 5793SOL     OW29014   2.796   4.183   1.918 -0.0328 -0.0861 -0.3935
 5793SOL    HW129015   2.753   4.216   1.839 -1.6641  2.1276  1.4177
 5793SOL    HW229016   2.744   4.105   1.934  1.5824 -1.1657 -0.3792
 5794SOL     OW29017   3.215   4.571  14.772 -0.7891 -0.1946  0.3166
 5794SOL    HW129018   3.237   4.558  14.680 -0.5021  1.5835  0.1252
 5794SOL    HW229019   3.229   4.666  14.770 -0.9601 -0.1920 -0.7796
 5795SOL     OW29020   3.372   1.397   2.148 -0.2900 -0.3866 -0.6613
 5795SOL    HW129021   3.373   1.474   2.205  2.9737  0.1629 -1.4907
 5795SOL    HW229022   3.410   1.328   2.202  0.3324 -0.6889 -1.5023
 5796SOL     OW29023   1.161   0.549   4.118 -0.1053 -0.6201 -0.1517
 5796SOL    HW129024   1.234   0.525   4.175  0.0223  2.1087  0.8131
 5796SOL    HW229025   1.158   0.476   4.056  0.5860 -1.7838  1.1525
 5797SOL     OW29026   1.823   2.216   7.955  0.5119  0.7396 -0.3496
 5797SOL    HW129027   1.881   2.252   8.022 -1.9568  3.3065  0.3987
 5797SOL    HW229028   1.862   2.241   7.871  1.2981 -0.0511 -0.2302
 5798SOL     OW29029   3.347   0.856   4.225 -0.3672 -0.0810  0.2042
 5798SOL    HW129030   3.341   0.907   4.144 -0.3031  1.0425  0.9090
 5798SOL    HW229031   3.321   0.921   4.290 -3.2378  0.4716 -1.4600
 5799SOL     OW29032   2.123   1.344   1.385 -0.2804  0.2777 -0.0132
 5799SOL    HW129033   2.088   1.391   1.461 -0.6490  1.1365 -0.7061
 5799SOL    HW229034   2.084   1.405   1.322 -0.2658  1.4255  1.0855
 5800SOL     OW29035   4.412   0.057   4.618  0.1729 -0.1517 -0.5600
 5800SOL    HW129036   4.343   0.003   4.580  0.3285 -0.9362  0.2504
 5800SOL    HW229037   4.411   0.037   4.712 -1.3050 -2.7976 -1.1381
 5801SOL     OW29038   3.849   2.539   7.717  0.3815 -0.4168 -0.2205
 5801SOL    HW129039   3.945   2.538   7.718  0.3744  0.3272  1.1202
 5801SOL    HW229040   3.816   2.460   7.759 -1.3732 -0.0792 -0.9609
 5802SOL     OW29041   2.970   2.919  15.477  0.1788  0.3521  0.2544
 5802SOL    HW129042   2.998   2.949  15.563  0.9382  0.9190 -0.1931
 5802SOL    HW229043   3.005   2.993  15.427 -1.8761  0.5088 -0.9695
 5803SOL     OW29044   3.359   4.383   8.492  0.6234  0.3272  0.3092
 5803SOL    HW129045   3.432   4.327   8.467 -0.0722 -0.4739  0.0949
 5803SOL    HW229046   3.315   4.317   8.546 -0.1080 -0.8858 -1.7767
 5804SOL     OW29047   3.877   3.994   5.681 -0.6271  0.3177  0.7826
 5804SOL    HW129048   3.851   3.957   5.596 -1.7843 -0.1491  1.3323
 5804SOL    HW229049   3.897   3.905   5.709  0.1099 -0.0725 -0.9894
 5805SOL     OW29050   0.927   0.907   2.936 -0.4934  0.0587 -0.8357
 5805SOL    HW129051   0.896   0.996   2.920  2.0000  1.2612  0.9982
 5805SOL    HW229052   1.006   0.922   2.988  0.0308  2.6329 -2.3562
 5806SOL     OW29053   2.796   4.569   1.755 -0.0845 -0.0632  0.3718
 5806SOL    HW129054   2.840   4.653   1.765  2.2964 -1.6035  2.9190
 5806SOL    HW229055   2.709   4.607   1.766  0.1694  1.1579 -1.8141
 5807SOL     OW29056   1.085   0.126  14.977  0.7095 -0.4453 -0.0212
 5807SOL    HW129057   1.069   0.188  14.906 -0.3223  0.4623  1.0027
 5807SOL    HW229058   1.143   0.176  15.035 -2.0383  1.6468  0.8630
 5808SOL     OW29059   4.694   3.338   3.728  0.4512  0.4870  0.5500
 5808SOL    HW129060   0.012   3.321   3.651 -1.0726 -0.0331 -0.3865
 5808SOL    HW229061   0.020   3.318   3.799  0.5792  1.5682  0.7484
 5809SOL     OW29062   0.789   1.858  10.667 -0.4811  0.1795  0.2477
 5809SOL    HW129063   0.806   1.829  10.756 -1.1516  0.1384  0.3591
 5809SOL    HW229064   0.763   1.948  10.689  2.5576  0.8657  1.0127
 5810SOL     OW29065   4.251   4.142  13.210  0.1529 -0.2903 -0.3044
 5810SOL    HW129066   4.301   4.065  13.237 -1.6037 -1.6209 -0.7868
 5810SOL    HW229067   4.264   4.204  13.281 -1.7905  0.0810 -0.2602
 5811SOL     OW29068   4.314   1.779   1.593 -0.3861  0.2921  0.8715
 5811SOL    HW129069   4.372   1.781   1.669  0.3710  0.4301  0.2936
 5811SOL    HW229070   4.303   1.873   1.578 -1.8923  0.2004  1.3499
 5812SOL     OW29071   1.837   0.191   1.164 -0.2316  0.0415  0.4532
 5812SOL    HW129072   1.803   0.253   1.099  2.0758  0.9999  0.1566
 5812SOL    HW229073   1.770   0.124   1.149 -1.5345  1.4593 -0.0798
 5813SOL     OW29074   0.935   0.450  11.853 -0.1748  0.2259  0.9735
 5813SOL    HW129075   0.980   0.366  11.850  0.1474  0.2336  4.9758
 5813SOL    HW229076   0.915   0.472  11.762 -0.3471  2.1521  1.4708
 5814SOL     OW29077   2.426   1.651  16.438  0.4372 -0.1069 -0.5838
 5814SOL    HW129078   2.377   1.612  16.510  1.8024  1.0662  0.9790
 5814SOL    HW229079   2.357   1.661  16.373 -1.1918  0.0309  1.1707
 5815SOL     OW29080   1.225   3.657   9.566 -0.5383  0.0297 -0.1125
 5815SOL    HW129081   1.274   3.693   9.640 -2.7242  2.8632 -0.0289
 5815SOL    HW229082   1.294   3.631   9.505 -0.6153 -1.8033  0.5732
 5816SOL     OW29083   3.475   3.356  11.360  0.0752 -0.2561 -0.2914
 5816SOL    HW129084   3.390   3.313  11.366 -0.1944  0.3337  0.1563
 5816SOL    HW229085   3.530   3.286  11.327 -0.2911 -1.8654  2.5351
 5817SOL     OW29086   3.238   4.606  16.654  0.3521  0.1316  0.6159
 5817SOL    HW129087   3.293   4.612  16.733 -0.1301 -0.2226  0.9717
 5817SOL    HW229088   3.222   4.512  16.654  0.3396  0.1339  0.1016
 5818SOL     OW29089   1.535   3.821   8.794  0.2124  0.0554  0.1033
 5818SOL    HW129090   1.452   3.837   8.840  0.4178  0.3083  0.3937
 5818SOL    HW229091   1.525   3.878   8.718  0.7425  0.0204  0.0085
 5819SOL     OW29092   2.795   4.141   9.242  0.1127  0.2719  0.1366
 5819SOL    HW129093   2.707   4.118   9.212  1.0495 -0.5612 -1.9649
 5819SOL    HW229094   2.783   4.224   9.289  1.9855 -0.0831  1.2903
 5820SOL     OW29095   1.094   4.277   2.138  0.2805  0.0095  0.3779
 5820SOL    HW129096   1.094   4.372   2.128 -1.6803 -0.1944 -1.5006
 5820SOL    HW229097   1.086   4.244   2.049 -0.0832 -1.6992  1.0368
 5821SOL     OW29098   1.490   3.748   2.406  0.6289  0.4703  0.1868
 5821SOL    HW129099   1.438   3.828   2.404 -0.7078 -0.3952 -0.0261
 5821SOL    HW229100   1.439   3.680   2.450  0.2331  0.6994  0.0773
 5822SOL     OW29101   3.110   2.231   6.876 -0.2751 -0.4419 -0.1845
 5822SOL    HW129102   3.153   2.214   6.960 -1.7408  0.1592  0.6928
 5822SOL    HW229103   3.019   2.224   6.907 -0.2715  0.4629  0.0088
 5823SOL     OW29104   4.324   4.099   9.036  0.2834  0.2738  0.6510
 5823SOL    HW129105   4.255   4.142   8.985 -0.5186 -0.5362  1.0472
 5823SOL    HW229106   4.305   4.116   9.129  1.9317 -2.7263  1.5399
 5824SOL     OW29107   3.962   1.225   3.186  0.6951  0.3121 -0.8450
 5824SOL    HW129108   3.923   1.282   3.120  1.0422  0.7480 -0.6659
 5824SOL    HW229109   3.899   1.239   3.257  2.4754  1.2556  0.5244
 5825SOL     OW29110   0.469   0.835   3.468 -0.7843 -0.2802  0.1623
 5825SOL    HW129111   0.475   0.828   3.563  4.0312 -1.8351 -0.3050
 5825SOL    HW229112   0.558   0.809   3.445 -0.3401 -0.6088  2.2774
 5826SOL     OW29113   1.482   3.260   7.548 -0.6932  0.0132 -0.3706
 5826SOL    HW129114   1.565   3.220   7.570 -1.3759 -1.3608 -0.3209
 5826SOL    HW229115   1.433   3.183   7.521  0.5112 -0.8305 -0.1289
 5827SOL     OW29116   3.603   3.075   6.919 -0.2936 -0.4879  0.2744
 5827SOL    HW129117   3.697   3.084   6.901 -0.3239 -0.7287 -0.0030
 5827SOL    HW229118   3.607   3.037   7.007 -2.0796  0.5939  0.8147
 5828SOL     OW29119   4.563   3.589   7.602 -0.2913  0.4153 -0.2568
 5828SOL    HW129120   4.472   3.571   7.580  0.2072 -0.8089 -1.3058
 5828SOL    HW229121   4.569   3.683   7.584 -0.6159 -0.2103 -3.6593
 5829SOL     OW29122   3.857   4.264   9.215  0.1048  0.0377  0.0920
 5829SOL    HW129123   3.804   4.278   9.137 -2.6679 -0.6553  1.8414
 5829SOL    HW229124   3.950   4.264   9.193 -0.5227  0.2620 -2.5086
 5830SOL     OW29125   4.692   3.702  15.802  0.6973  0.6371  0.6173
 5830SOL    HW129126   4.626   3.698  15.871 -0.8993  5.2549 -0.6444
 5830SOL    HW229127   4.714   3.609  15.791  0.5899  0.8645 -1.4711
 5831SOL     OW29128   0.454   1.857  16.791 -0.4706  0.9679 -0.7350
 5831SOL    HW129129   0.527   1.886  16.846  1.3886 -1.2134 -2.0481
 5831SOL    HW229130   0.500   1.801  16.728 -1.0894 -1.1019  0.6656
 5832SOL     OW29131   0.165   3.414   7.277 -0.0175  0.6720 -0.0543
 5832SOL    HW129132   0.160   3.376   7.365 -1.1089 -1.3367 -0.9825
 5832SOL    HW229133   0.072   3.434   7.262  0.1175  0.0864 -1.7107
 5833SOL     OW29134   2.115   0.680   5.843  0.1790  0.4861 -0.4318
 5833SOL    HW129135   2.039   0.738   5.830 -1.0983 -1.3128 -1.0048
 5833SOL    HW229136   2.127   0.640   5.757  1.4829 -2.5839  1.2004
 5834SOL     OW29137   0.306   1.659   2.966  0.4585  0.2289  0.0928
 5834SOL    HW129138   0.393   1.633   2.934 -0.0284  1.9441 -2.6730
 5834SOL    HW229139   0.310   1.630   3.057 -2.0505  0.4604  0.2639
 5835SOL     OW29140   3.064   3.352   7.808  0.3911  0.0666  0.0807
 5835SOL    HW129141   2.976   3.351   7.769  1.4201  0.6639 -2.2086
 5835SOL    HW229142   3.114   3.310   7.738 -0.8331 -1.8855  0.3775
 5836SOL     OW29143   3.886   1.457   2.719  0.6204  0.0872  0.0371
 5836SOL    HW129144   3.873   1.477   2.812 -1.8451 -1.2981 -0.0250
 5836SOL    HW229145   3.860   1.365   2.719  1.0735 -0.0389  0.1829
 5837SOL     OW29146   2.778   4.159  12.847 -0.0694  0.3338  0.5640
 5837SOL    HW129147   2.806   4.241  12.807 -0.6774  0.6485  0.7727
 5837SOL    HW229148   2.843   4.155  12.918 -0.3694 -1.7097  0.7140
 5838SOL     OW29149   1.267   3.529   5.394 -0.0538  0.2808 -0.1489
 5838SOL    HW129150   1.347   3.484   5.423  0.1442  1.5045  1.1827
 5838SOL    HW229151   1.262   3.481   5.311  2.1456  0.6516 -0.4851
 5839SOL     OW29152   0.349   3.696   9.107  0.0723 -0.2774 -0.2217
 5839SOL    HW129153   0.371   3.789   9.118 -0.9243  0.0199 -0.7348
 5839SOL    HW229154   0.280   3.685   9.173  0.5078 -0.2915  0.2354
 5840SOL     OW29155   1.301   3.138   9.294  1.3909  0.1453 -0.3565
 5840SOL    HW129156   1.211   3.122   9.322  0.7015  3.1339 -0.8371
 5840SOL    HW229157   1.273   3.168   9.207  2.5445  0.3105 -0.6714
 5841SOL     OW29158   3.117   4.130  14.805 -0.1269  0.7409  0.0540
 5841SOL    HW129159   3.178   4.085  14.863  0.6421 -0.0083 -1.3396
 5841SOL    HW229160   3.107   4.216  14.847 -3.5197  0.4997 -0.2307
 5842SOL     OW29161   2.474   0.758  17.587 -0.0246 -0.7647 -0.3324
 5842SOL    HW129162   2.411   0.749  17.659  0.7578 -0.8861  0.3340
 5842SOL    HW229163   2.544   0.706  17.626 -0.1423  0.2304  1.1925
 5843SOL     OW29164   4.243   3.818   8.474 -0.0766  0.1190  0.1054
 5843SOL    HW129165   4.294   3.759   8.529  2.5129  1.4114 -0.9398
 5843SOL    HW229166   4.201   3.879   8.535  2.0068  1.6487 -0.0110
 5844SOL     OW29167   3.291   1.101   0.937  0.0720  0.1858  0.3340
 5844SOL    HW129168   3.270   1.088   0.844  0.8333 -1.5653  0.3982
 5844SOL    HW229169   3.214   1.061   0.977  0.1905 -1.7998 -1.3875
 5845SOL     OW29170   4.517   1.998  16.303  0.2758 -0.2825 -0.3207
 5845SOL    HW129171   4.585   2.012  16.237 -0.2265  0.7386 -0.6266
 5845SOL    HW229172   4.497   2.091  16.310  0.3608 -0.3033  0.1955
 5846SOL     OW29173   1.463   2.026   6.786 -0.6517  0.1444 -0.1412
 5846SOL    HW129174   1.386   2.023   6.844 -1.0971  0.7049 -0.7102
 5846SOL    HW229175   1.439   1.957   6.724  2.1086 -1.7476  0.8605
 5847SOL     OW29176   3.481   3.563   4.305  0.5299 -0.0231 -0.4805
 5847SOL    HW129177   3.520   3.646   4.279 -0.4440  0.3062 -0.8819
 5847SOL    HW229178   3.468   3.583   4.398  1.9574 -0.1731 -0.2491
 5848SOL     OW29179   2.286   2.452   0.154 -0.2811 -0.2951 -0.0170
 5848SOL    HW129180   2.196   2.485   0.158 -0.5661 -0.9853 -0.8628
 5848SOL    HW229181   2.304   2.402   0.234 -0.8126 -0.1161  0.2108
 5849SOL     OW29182   3.592   1.449   3.998 -0.7582 -0.2040 -0.4545
 5849SOL    HW129183   3.553   1.488   3.919 -1.0346  1.4907  0.5272
 5849SOL    HW229184   3.639   1.524   4.033  0.2014 -0.1867 -1.7946
 5850SOL     OW29185   3.389   1.007   6.430 -0.0528 -0.6021  0.6126
 5850SOL    HW129186   3.342   0.927   6.452 -0.0080 -1.3284 -1.9301
 5850SOL    HW229187   3.348   1.030   6.347  0.0493  0.8894  0.9834
 5851SOL     OW29188   0.926   2.541   4.625 -0.7725  0.0125 -0.5883
 5851SOL    HW129189   0.912   2.516   4.717 -0.4896 -1.9122 -1.0564
 5851SOL    HW229190   0.931   2.453   4.588 -2.9938 -1.2720  2.1021
 5852SOL     OW29191   1.670   1.888   3.066 -0.0279 -0.1616  0.0069
 5852SOL    HW129192   1.640   1.912   3.154 -2.3897 -1.7798 -0.3445
 5852SOL    HW229193   1.765   1.898   3.059 -0.3197  1.5370 -1.3503
 5853SOL     OW29194   1.643   1.750   6.972 -0.3599 -0.1035  0.3177
 5853SOL    HW129195   1.564   1.773   7.022 -0.5928  0.5143 -0.3432
 5853SOL    HW229196   1.670   1.669   7.017 -0.3352 -0.2325  0.0684
 5854SOL     OW29197   3.093   3.403  16.096 -0.3231  1.1376 -0.3720
 5854SOL    HW129198   3.141   3.474  16.139 -1.5284  0.7161  1.6481
 5854SOL    HW229199   3.079   3.354  16.177 -1.1228 -0.3643 -1.4194
 5855SOL     OW29200   3.556   4.164  12.719 -0.1653 -0.2047  0.0240
 5855SOL    HW129201   3.635   4.137  12.673 -0.7003 -3.3563  0.9627
 5855SOL    HW229202   3.580   4.182  12.810  0.4485  1.3222 -0.4482
 5856SOL     OW29203   3.605   3.820   2.855  0.3501 -0.0570  0.2427
 5856SOL    HW129204   3.610   3.828   2.950  2.7920 -0.6293  0.1598
 5856SOL    HW229205   3.653   3.897   2.827 -0.5948  0.9821  1.4628
 5857SOL     OW29206   0.520   2.069   5.005  0.1180 -0.0289 -0.5914
 5857SOL    HW129207   0.603   2.031   5.034 -1.0210  0.7091  3.5976
 5857SOL    HW229208   0.516   2.024   4.921 -2.5248 -0.3171 -0.3219
 5858SOL     OW29209   4.673   3.152   8.787  0.7288  0.1862 -0.0408
 5858SOL    HW129210   4.597   3.122   8.737  0.9986  1.1133 -1.0097
 5858SOL    HW229211   4.649   3.242   8.811 -0.6628 -0.2177  0.0921
 5859SOL     OW29212   0.118   0.369  14.417  1.0029  0.3600  0.8183
 5859SOL    HW129213   0.064   0.433  14.464  0.5127 -0.1663  0.9799
 5859SOL    HW229214   0.202   0.387  14.457  1.5952 -1.9626  0.6105
 5860SOL     OW29215   4.651   1.573   5.576 -0.0676  0.3431 -0.3389
 5860SOL    HW129216   4.597   1.646   5.546  1.4618  1.8345  0.5204
 5860SOL    HW229217   4.573   1.523   5.601 -0.6715  0.7760 -1.3503
 5861SOL     OW29218   3.264   1.446  16.257 -0.0218 -0.2374 -0.4977
 5861SOL    HW129219   3.171   1.424  16.267  0.2924 -1.0791  0.5415
 5861SOL    HW229220   3.289   1.395  16.179  2.2760  1.1131 -0.6398
 5862SOL     OW29221   0.403   3.127   5.506 -0.5557  0.1890 -0.3908
 5862SOL    HW129222   0.420   3.206   5.558 -1.3092  0.8660 -1.1876
 5862SOL    HW229223   0.485   3.084   5.533 -0.9955 -0.9611 -0.8746
 5863SOL     OW29224   2.236   1.887   4.017  0.3197  0.2887  0.5101
 5863SOL    HW129225   2.208   1.951   3.952 -1.3424  0.9888  1.9274
 5863SOL    HW229226   2.152   1.852   4.045  0.5216 -2.0445 -1.7605
 5864SOL     OW29227   2.518   3.051   6.379 -0.6654  0.2544  0.4914
 5864SOL    HW129228   2.430   3.017   6.397 -0.5076  0.8873  2.4449
 5864SOL    HW229229   2.495   3.132   6.335 -0.1322 -0.2931 -0.7980
 5865SOL     OW29230   1.165   1.406   2.641  0.9723  0.2487  0.2214
 5865SOL    HW129231   1.180   1.427   2.549  1.8077  0.3887  0.3919
 5865SOL    HW229232   1.209   1.482   2.679  0.2962  0.5522  0.3990
 5866SOL     OW29233   2.314   4.646   7.695 -0.7040  0.1522  0.0457
 5866SOL    HW129234   2.394   4.648   7.642 -0.5773  1.9024  0.3340
 5866SOL    HW229235   2.255   4.664   7.622  1.3306 -2.6289 -2.3108
 5867SOL     OW29236   1.254   4.691   2.698 -0.2182  0.4376  0.0516
 5867SOL    HW129237   1.222   4.677   2.787 -0.4635  1.4773  0.1261
 5867SOL    HW229238   1.248   4.607   2.652  0.0365  0.0724  0.6986
 5868SOL     OW29239   0.476   2.483   5.207 -0.0220  0.1792  0.0639
 5868SOL    HW129240   0.399   2.471   5.262 -0.7641 -0.7327 -1.1770
 5868SOL    HW229241   0.533   2.548   5.248  3.1030 -1.1352 -2.1858
 5869SOL     OW29242   1.119   3.150   8.174 -0.6248 -0.1496 -0.2385
 5869SOL    HW129243   1.063   3.218   8.212  1.4055  0.5386  1.5021
 5869SOL    HW229244   1.072   3.070   8.199 -0.8752 -0.3076 -1.2176
 5870SOL     OW29245   2.471   1.823   4.150 -0.1595 -0.0026 -0.5961
 5870SOL    HW129246   2.383   1.809   4.115  0.4324 -0.8666 -1.7159
 5870SOL    HW229247   2.477   1.918   4.156  0.3430 -0.0865  0.2507
 5871SOL     OW29248   3.504   0.447   5.302 -0.0412  0.1825 -0.3000
 5871SOL    HW129249   3.523   0.480   5.215 -1.2098  1.1916 -0.1756
 5871SOL    HW229250   3.413   0.418   5.301  0.6030 -1.9285  1.2315
 5872SOL     OW29251   0.004   0.838   6.860 -0.3215 -0.1679 -0.2963
 5872SOL    HW129252   4.713   0.853   6.769 -1.5258 -0.8233 -0.0476
 5872SOL    HW229253   4.657   0.833   6.907 -0.2404  1.5667  0.0357
 5873SOL     OW29254   2.632   0.893   4.362 -0.2518  0.0653 -0.5153
 5873SOL    HW129255   2.719   0.875   4.397 -1.1774  0.6720  2.1568
 5873SOL    HW229256   2.656   0.958   4.296 -2.3478  0.4198 -0.9371
 5874SOL     OW29257   4.710   3.544   2.887 -0.6107 -0.3823  0.0900
 5874SOL    HW129258   4.629   3.586   2.916  0.6258  1.5837  0.6597
 5874SOL    HW229259   0.018   3.528   2.971 -0.5101  1.9612  0.4641
 5875SOL     OW29260   3.554   1.458  15.932  0.1786 -0.1727 -0.0794
 5875SOL    HW129261   3.549   1.488  16.022 -1.0800 -0.9849  0.1252
 5875SOL    HW229262   3.522   1.532  15.881  2.0392  0.8596  0.2356
 5876SOL     OW29263   4.057   0.165  10.610  0.4081  0.0925 -0.2418
 5876SOL    HW129264   4.063   0.225  10.535 -1.8768 -0.1955 -0.6469
 5876SOL    HW229265   4.135   0.110  10.598  0.4852  0.7290 -2.6452
 5877SOL     OW29266   1.440   2.737  13.592 -0.6544  0.0798 -0.3276
 5877SOL    HW129267   1.379   2.739  13.666 -0.1815 -1.6619  0.1284
 5877SOL    HW229268   1.469   2.828  13.583  0.3137 -0.3117 -1.1843
 5878SOL     OW29269   3.215   2.497  12.560  0.7176  0.0810 -0.1557
 5878SOL    HW129270   3.283   2.511  12.495  0.3849  1.5924 -0.1833
 5878SOL    HW229271   3.261   2.472  12.640 -1.2265 -0.7388  0.7115
 5879SOL     OW29272   1.423   2.141   2.887 -0.1649  0.0682 -0.2298
 5879SOL    HW129273   1.338   2.097   2.891 -0.2039  0.2030  0.4296
 5879SOL    HW229274   1.446   2.120   2.978 -0.2242  0.6321 -0.0813
 5880SOL     OW29275   3.585   2.568   6.741  0.0645 -0.6502  0.2050
 5880SOL    HW129276   3.553   2.524   6.663  4.1167 -0.4788 -1.5558
 5880SOL    HW229277   3.677   2.554   6.720  0.5218  0.6211  1.2991
 5881SOL     OW29278   3.895   3.380   5.077  0.5152 -0.0111 -0.6606
 5881SOL    HW129279   3.933   3.294   5.059  1.4462  0.3276 -0.3615
 5881SOL    HW229280   3.826   3.361   5.014 -0.0182 -2.2350  0.5787
 5882SOL     OW29281   3.459   1.499  12.393 -0.1532 -0.0916  0.3649
 5882SOL    HW129282   3.422   1.411  12.387  0.1408 -0.3130  1.8636
 5882SOL    HW229283   3.501   1.476  12.476 -1.5844  0.7138  1.3207
 5883SOL     OW29284   1.843   2.216   5.724 -0.6514 -0.2551 -0.4755
 5883SOL    HW129285   1.756   2.255   5.720 -1.5265 -2.2503 -1.1989
 5883SOL    HW229286   1.826   2.137   5.776 -1.7448  1.5647  1.8964
 5884SOL     OW29287   3.848   2.330   2.274  0.3317  0.3030  0.0091
 5884SOL    HW129288   3.764   2.330   2.321 -0.3565 -2.2154 -1.2358
 5884SOL    HW229289   3.853   2.250   2.222  2.0674 -0.5345  1.4842
 5885SOL     OW29290   3.835   0.613   8.668 -0.1072 -0.0443 -0.2709
 5885SOL    HW129291   3.905   0.655   8.617  0.0831 -3.5895 -2.8371
 5885SOL    HW229292   3.888   0.543   8.707  0.7445  0.3379 -0.7328
 5886SOL     OW29293   0.306   2.421  13.712 -0.0959 -0.0188  0.3856
 5886SOL    HW129294   0.298   2.507  13.755 -1.0654  0.9931 -1.8131
 5886SOL    HW229295   0.284   2.437  13.621 -0.3357 -0.5536  0.3530
 5887SOL     OW29296   2.973   3.941  14.696 -0.1222  0.4331  0.0800
 5887SOL    HW129297   2.900   3.983  14.651 -0.6400  1.1444  1.5735
 5887SOL    HW229298   3.024   4.016  14.727 -0.6559  0.6298  0.4857
 5888SOL     OW29299   3.170   3.791  11.465 -0.2325  0.2925  0.2153
 5888SOL    HW129300   3.190   3.875  11.423  0.8142 -0.1850 -0.2587
 5888SOL    HW229301   3.111   3.827  11.531 -0.9456 -1.8668  0.7570
 5889SOL     OW29302   2.220   4.384   4.553  0.2420  0.2191  0.0540
 5889SOL    HW129303   2.187   4.420   4.471 -0.7828 -0.2334  0.2771
 5889SOL    HW229304   2.302   4.434   4.552  0.5976 -0.3737  0.0929
 5890SOL     OW29305   2.529   2.103   4.822  0.6218 -0.2404  0.3063
 5890SOL    HW129306   2.575   2.135   4.899 -1.5023 -0.4286  1.6448
 5890SOL    HW229307   2.442   2.137   4.840 -0.5685 -1.9421 -2.2294
 5891SOL     OW29308   1.192   0.365   3.718 -0.3335  0.4092  0.6382
 5891SOL    HW129309   1.110   0.317   3.716  0.6000 -1.2069  0.4818
 5891SOL    HW229310   1.172   0.430   3.650 -0.0210  0.5104  0.6420
 5892SOL     OW29311   1.291   4.252   2.349  0.1561  0.9185 -0.9275
 5892SOL    HW129312   1.226   4.254   2.279 -2.2252  0.8076  1.2828
 5892SOL    HW229313   1.265   4.339   2.379 -3.3120 -0.7194  0.8418
 5893SOL     OW29314   1.683   4.136   9.456 -0.4798 -0.2449  0.4059
 5893SOL    HW129315   1.651   4.225   9.473  0.1662 -0.3134  1.9810
 5893SOL    HW229316   1.629   4.085   9.516 -1.6559 -0.0133 -0.4593
 5894SOL     OW29317   2.469   3.298   4.523  0.1320  0.4106  0.1247
 5894SOL    HW129318   2.413   3.347   4.584  0.8589  0.2618  0.9249
 5894SOL    HW229319   2.531   3.370   4.509  1.8494 -0.5090  2.8627
 5895SOL     OW29320   4.080   0.277  17.073 -0.8780 -0.7811 -0.5030
 5895SOL    HW129321   4.028   0.348  17.110 -0.3151 -0.9773  0.6920
 5895SOL    HW229322   4.155   0.328  17.043 -0.0165 -1.4529  0.4619
 5896SOL     OW29323   1.230   2.319   7.898 -0.0761  0.4793 -0.4003
 5896SOL    HW129324   1.140   2.325   7.866 -0.0343 -2.0483 -0.9666
 5896SOL    HW229325   1.261   2.410   7.901 -1.3591  0.9531 -1.7160
 5897SOL     OW29326   3.019   3.365  10.774 -0.2854 -0.1872 -0.2493
 5897SOL    HW129327   2.965   3.354  10.851 -0.3409  0.1138 -0.2456
 5897SOL    HW229328   3.067   3.444  10.798 -0.3910  0.0898 -0.9362
 5898SOL     OW29329   3.260   2.696  16.559  0.4026 -1.2783 -0.0632
 5898SOL    HW129330   3.354   2.681  16.551  0.1663 -3.0850  0.7441
 5898SOL    HW229331   3.247   2.767  16.495  0.2401 -0.9336  0.3503
 5899SOL     OW29332   3.631   4.202   3.436  0.1273 -0.2558  0.3159
 5899SOL    HW129333   3.658   4.221   3.526 -1.5243  0.6727  0.6094
 5899SOL    HW229334   3.668   4.273   3.383  0.5427 -0.6099  0.1303
 5900SOL     OW29335   4.402   2.899   4.310 -0.0057  0.1718 -0.2976
 5900SOL    HW129336   4.310   2.896   4.337  0.6573  1.7279  2.0951
 5900SOL    HW229337   4.434   2.969   4.366  1.3798 -0.3891 -0.3657
 5901SOL     OW29338   3.673   2.621   2.864  0.9587 -0.0106  1.3662
 5901SOL    HW129339   3.725   2.578   2.931  3.1287 -1.5760 -1.3020
 5901SOL    HW229340   3.604   2.648   2.925  0.9468 -0.1989  1.4372
 5902SOL     OW29341   4.574   1.274  12.427  0.7655  0.4241  0.3175
 5902SOL    HW129342   4.626   1.195  12.444 -0.3199  0.1942  2.4917
 5902SOL    HW229343   4.588   1.277  12.332 -2.5694  1.6821 -0.1278
 5903SOL     OW29344   3.202   0.249   8.537 -0.6504  0.8809  0.0176
 5903SOL    HW129345   3.249   0.270   8.457 -1.6831 -0.5941 -0.9838
 5903SOL    HW229346   3.274   0.248   8.599 -1.1196 -0.8489  0.5295
 5904SOL     OW29347   1.859   2.438   3.240 -0.3214  0.2004 -0.1521
 5904SOL    HW129348   1.910   2.399   3.310  0.4172  0.7714 -0.3732
 5904SOL    HW229349   1.771   2.407   3.259  0.7323 -3.5064 -1.2474
 5905SOL     OW29350   4.359   3.271   2.758 -0.1145  0.0665 -0.2307
 5905SOL    HW129351   4.426   3.305   2.698 -1.6207 -0.9232 -2.4856
 5905SOL    HW229352   4.368   3.177   2.744 -0.0834 -0.1405  1.1962
 5906SOL     OW29353   0.747   4.137   6.626 -0.1971  0.0329 -0.2014
 5906SOL    HW129354   0.777   4.204   6.687 -3.1576 -0.9286  2.3483
 5906SOL    HW229355   0.827   4.133   6.574 -1.4321 -0.4421 -2.0985
 5907SOL     OW29356   0.037   4.444   7.112  0.5080  0.7783 -0.1497
 5907SOL    HW129357   4.719   4.517   7.082 -1.4346 -0.5123  0.1107
 5907SOL    HW229358   4.718   4.411   7.184 -0.1275 -0.0633 -1.0132
 5908SOL     OW29359   1.926   0.126  11.066  0.0507 -0.6061 -0.5160
 5908SOL    HW129360   1.909   0.106  10.974  2.2534 -0.7125 -0.8894
 5908SOL    HW229361   2.013   0.087  11.077 -0.3313 -1.5805 -0.9396
 5909SOL     OW29362   3.813   2.372   9.319 -0.0805  0.2464  0.1027
 5909SOL    HW129363   3.844   2.283   9.335 -1.6104 -0.3293 -0.0866
 5909SOL    HW229364   3.885   2.419   9.360  0.0150  0.7931 -0.6850
 5910SOL     OW29365   2.169   1.658   4.838  1.2167  0.3823 -0.1172
 5910SOL    HW129366   2.128   1.712   4.906  1.2235 -2.7750  2.4405
 5910SOL    HW229367   2.089   1.644   4.788  1.0360  1.6300 -0.1699
 5911SOL     OW29368   3.993   1.093   1.537 -0.4307  0.5189 -0.4319
 5911SOL    HW129369   4.027   1.080   1.448 -0.1329 -1.0727 -0.0709
 5911SOL    HW229370   3.905   1.056   1.529  0.3370 -1.2288 -0.7465
 5912SOL     OW29371   2.705   3.868  17.310 -0.0914 -0.1746 -0.3638
 5912SOL    HW129372   2.689   3.787  17.357 -0.2856  0.1008  0.0397
 5912SOL    HW229373   2.801   3.874  17.308 -0.0338 -1.3836 -1.3602
 5913SOL     OW29374   3.829   0.669  10.564  0.4674 -0.8473  0.3788
 5913SOL    HW129375   3.915   0.709  10.562  1.0094 -2.0085  0.6391
 5913SOL    HW229376   3.847   0.575  10.566  2.3887 -0.4732  0.0630
 5914SOL     OW29377   3.463   4.325   5.720 -0.2167  0.2040  0.1247
 5914SOL    HW129378   3.450   4.266   5.645  0.3397 -0.9354  0.9287
 5914SOL    HW229379   3.541   4.280   5.753  0.4137  2.0898  1.1625
 5915SOL     OW29380   1.542   3.049   8.217 -0.1763 -0.4898 -0.3632
 5915SOL    HW129381   1.573   2.990   8.148  0.1036  0.1480 -0.7817
 5915SOL    HW229382   1.593   3.005   8.285  0.5705 -1.1132 -1.3227
 5916SOL     OW29383   0.655   2.085   8.341  0.3341  0.3319 -0.5875
 5916SOL    HW129384   0.621   2.002   8.374 -1.4192  1.7815  1.1679
 5916SOL    HW229385   0.748   2.061   8.345  0.4688  1.3703  1.9298
 5917SOL     OW29386   0.198   1.195   1.971  0.0968  0.1236  0.2254
 5917SOL    HW129387   0.240   1.273   2.006  0.1272  0.6418 -0.9961
 5917SOL    HW229388   0.103   1.208   1.976  0.1163  0.6965 -0.9966
 5918SOL     OW29389   3.495   3.864   6.389 -0.0525  0.3684 -0.5850
 5918SOL    HW129390   3.437   3.849   6.464  0.3873 -1.3642 -0.5843
 5918SOL    HW229391   3.431   3.840   6.322  2.0150 -0.1693 -2.3616
 5919SOL     OW29392   1.164   2.060   0.716  0.2234 -0.1394  0.4714
 5919SOL    HW129393   1.135   2.006   0.642 -0.2925  0.2424  0.3975
 5919SOL    HW229394   1.138   2.006   0.790 -2.0928  0.1971 -0.1022
 5920SOL     OW29395   3.047   1.585   0.169  0.3582  0.0797 -0.0671
 5920SOL    HW129396   2.966   1.620   0.206  0.2849  0.5152 -0.6216
 5920SOL    HW229397   3.069   1.654   0.106 -3.3953 -0.4082 -1.9142
 5921SOL     OW29398   4.451   2.883  15.630  0.4279 -0.1747 -0.1675
 5921SOL    HW129399   4.523   2.942  15.653  0.7213  0.1113 -1.7601
 5921SOL    HW229400   4.484   2.806  15.583  0.1341 -0.6860  0.4856
 5922SOL     OW29401   0.882   3.447   7.971 -0.0576  0.1200  0.0449
 5922SOL    HW129402   0.851   3.462   8.061 -2.0639  0.9969 -0.8016
 5922SOL    HW229403   0.855   3.355   7.970  2.1899 -0.5668  1.4906
 5923SOL     OW29404   2.027   3.572   6.091  0.2467  0.1365  0.9541
 5923SOL    HW129405   2.084   3.539   6.021 -0.8926 -1.3256  0.7344
 5923SOL    HW229406   2.018   3.492   6.143  4.8567 -0.9324  0.1001
 5924SOL     OW29407   3.033   1.357   5.174 -0.0330 -0.3001  0.2566
 5924SOL    HW129408   3.122   1.337   5.202  0.2693 -1.6231 -1.6879
 5924SOL    HW229409   2.998   1.268   5.168 -1.1709  0.1253  0.5930
 5925SOL     OW29410   0.817   3.151   6.981  0.2864  0.1734  0.2852
 5925SOL    HW129411   0.794   3.244   6.987  0.8369  0.1195  3.0495
 5925SOL    HW229412   0.735   3.109   7.009 -0.6561  0.8565 -1.4187
 5926SOL     OW29413   0.717   2.808   2.350 -0.2217  0.2218 -0.2517
 5926SOL    HW129414   0.785   2.846   2.406  1.0204 -0.4552 -1.3040
 5926SOL    HW229415   0.652   2.836   2.415 -0.6293 -3.1092  0.7892
 5927SOL     OW29416   3.998   4.358  17.353  0.6844 -0.2478 -0.1065
 5927SOL    HW129417   4.018   4.413  17.277  3.3465  0.6327  1.2405
 5927SOL    HW229418   4.081   4.336  17.395  0.3830 -0.6632  0.2693
 5928SOL     OW29419   2.925   3.728  14.432 -0.1593  0.0334 -0.2891
 5928SOL    HW129420   3.019   3.740  14.422 -0.4452  0.6953 -2.2072
 5928SOL    HW229421   2.897   3.818  14.445 -0.2768  0.1272 -1.1594
 5929SOL     OW29422   3.110   2.637   7.453 -0.1378  0.6612  0.0812
 5929SOL    HW129423   3.067   2.609   7.533 -2.2611  1.9354 -0.6277
 5929SOL    HW229424   3.027   2.659   7.411 -0.4650  1.4841  1.1929
 5930SOL     OW29425   3.004   1.821   2.813  0.2313  0.6686 -0.7600
 5930SOL    HW129426   3.044   1.738   2.840 -1.4360 -0.1267 -0.7613
 5930SOL    HW229427   2.916   1.806   2.846 -0.1254 -2.6384 -3.2630
 5931SOL     OW29428   0.325   1.910   3.270 -0.0502  0.0385  0.2939
 5931SOL    HW129429   0.363   1.832   3.230  0.1672  0.1595  0.2681
 5931SOL    HW229430   0.240   1.869   3.285  0.9646 -1.3547  2.1985
 5932SOL     OW29431   1.824   1.612   8.940  0.1452 -0.5986  0.4698
 5932SOL    HW129432   1.790   1.583   8.856  1.5435  0.1577 -0.3421
 5932SOL    HW229433   1.833   1.706   8.928  3.7268 -0.6784  2.4461
 5933SOL     OW29434   4.036   0.511   2.660 -0.2509  0.0974 -0.0533
 5933SOL    HW129435   4.049   0.433   2.606 -0.6743  1.0855 -1.5801
 5933SOL    HW229436   4.053   0.477   2.748  0.7189  0.7050 -0.0007
 5934SOL     OW29437   3.863   1.953  16.002 -0.4270 -0.2582  0.1465
 5934SOL    HW129438   3.896   1.911  16.081  2.7125  1.7000 -0.1476
 5934SOL    HW229439   3.895   1.888  15.940 -1.3526 -0.3789 -0.2067
 5935SOL     OW29440   2.834   1.475   3.619 -0.0288  0.9890  0.2849
 5935SOL    HW129441   2.924   1.443   3.627 -0.2978  0.1503  0.0345
 5935SOL    HW229442   2.833   1.557   3.668  2.3787  0.9272  0.4391
 5936SOL     OW29443   1.119   0.370   6.350 -0.6168  0.0521  0.4958
 5936SOL    HW129444   1.155   0.285   6.376 -1.5684 -0.2590  0.8093
 5936SOL    HW229445   1.177   0.395   6.278 -0.4919  4.0541  2.0252
 5937SOL     OW29446   0.697   0.035   7.689 -0.1358 -0.2930 -0.4808
 5937SOL    HW129447   0.648   0.116   7.703  0.1961 -0.0475 -0.7493
 5937SOL    HW229448   0.720   0.042   7.597  2.2048 -0.3630  0.0900
 5938SOL     OW29449   3.536   2.837   5.551  0.5844  0.5800  0.5250
 5938SOL    HW129450   3.441   2.833   5.558  0.3393  2.6438 -1.5749
 5938SOL    HW229451   3.551   2.907   5.487 -0.8122  1.0676  0.7356
 5939SOL     OW29452   1.005   4.234   9.573  0.2846  0.0794 -0.0749
 5939SOL    HW129453   0.976   4.170   9.507 -1.2796 -0.4048  1.0795
 5939SOL    HW229454   1.044   4.176   9.639 -0.5012 -2.5153 -1.8770
 5940SOL     OW29455   0.605   3.570  15.826 -0.2008  0.1611 -0.3558
 5940SOL    HW129456   0.659   3.645  15.804  1.9064 -2.1921 -3.1161
 5940SOL    HW229457   0.651   3.535  15.902 -0.5133  0.8508  0.1572
 5941SOL     OW29458   4.495   0.309   2.221 -0.0508 -0.3806  0.9422
 5941SOL    HW129459   4.446   0.284   2.299 -1.3716 -0.1869  0.1670
 5941SOL    HW229460   4.435   0.285   2.150  0.2286  0.2749  0.4726
 5942SOL     OW29461   2.418   2.683   0.009 -0.4616 -0.3718 -0.1193
 5942SOL    HW129462   2.370   2.609   0.047 -1.1097  0.1965  0.1762
 5942SOL    HW229463   2.395   2.683  17.658 -1.0528  1.2339  0.0179
 5943SOL     OW29464   2.703   2.151  11.594  0.1214 -0.1306  0.8567
 5943SOL    HW129465   2.732   2.230  11.549 -0.9727  1.0103  2.1373
 5943SOL    HW229466   2.666   2.188  11.675 -0.5542 -0.7776  0.8479
 5944SOL     OW29467   2.302   3.844   6.709  0.2460 -0.2847 -0.1760
 5944SOL    HW129468   2.303   3.933   6.672 -0.3568 -0.2693 -0.1586
 5944SOL    HW229469   2.390   3.824   6.680  0.1575  0.7301 -1.1598
 5945SOL     OW29470   4.527   2.070  10.695 -0.4780 -0.3183 -0.1028
 5945SOL    HW129471   4.461   2.001  10.706  2.4726 -3.3895 -1.5767
 5945SOL    HW229472   4.604   2.034  10.739  0.8011  0.5396 -1.6696
 5946SOL     OW29473   1.733   1.595   3.595  0.7967 -0.0799 -0.0822
 5946SOL    HW129474   1.670   1.653   3.637  0.7279 -0.1729 -0.0578
 5946SOL    HW229475   1.710   1.520   3.651 -0.1840  0.3810  0.1212
 5947SOL     OW29476   1.007   4.186  15.978  0.3768  0.9119 -0.2140
 5947SOL    HW129477   0.921   4.184  16.020 -0.0748 -0.3372 -1.2047
 5947SOL    HW229478   0.984   4.183  15.885 -0.5399 -0.0252  0.0382
 5948SOL     OW29479   4.584   2.258   2.417 -0.4339  0.4848  0.3322
 5948SOL    HW129480   4.579   2.330   2.480 -0.5625 -0.2455  1.1513
 5948SOL    HW229481   4.678   2.244   2.416 -0.4360  0.5316 -0.5693
 5949SOL     OW29482   1.151   3.346   2.635  0.0684  0.8398 -0.0658
 5949SOL    HW129483   1.121   3.374   2.548 -2.5473 -0.6348  0.3657
 5949SOL    HW229484   1.099   3.395   2.698 -0.5500  0.1328 -0.0287
 5950SOL     OW29485   2.675   3.931   1.915 -0.7262  0.1103 -0.4401
 5950SOL    HW129486   2.673   3.837   1.894 -1.5986 -0.0431  0.3413
 5950SOL    HW229487   2.584   3.957   1.900 -1.0898 -1.6633 -1.3925
 5951SOL     OW29488   4.159   1.973  12.890 -0.2629 -0.2008 -0.0812
 5951SOL    HW129489   4.098   1.987  12.963 -0.3774 -0.6864 -0.0886
 5951SOL    HW229490   4.138   1.885  12.862  0.5979 -1.1753  2.3110
 5952SOL     OW29491   1.465   2.727   2.456  0.3168  0.3617  0.1390
 5952SOL    HW129492   1.457   2.786   2.381 -0.8041 -2.5996 -2.0524
 5952SOL    HW229493   1.493   2.793   2.519 -1.0158 -0.5612  1.6994
 5953SOL     OW29494   0.941   1.285   9.821  0.6302 -0.5310  0.3743
 5953SOL    HW129495   0.959   1.271   9.728 -0.5227  0.9754 -0.0975
 5953SOL    HW229496   0.867   1.347   9.820 -0.5099 -1.8801  2.6754
 5954SOL     OW29497   0.396   4.296  11.468  0.3781  0.0584  0.5838
 5954SOL    HW129498   0.358   4.382  11.486 -1.3199 -0.5558 -0.0533
 5954SOL    HW229499   0.472   4.295  11.526  0.2026  0.6331  0.8219
 5955SOL     OW29500   4.493   1.755   2.910 -0.1677  0.1964 -0.0422
 5955SOL    HW129501   4.423   1.718   2.963  0.1108  0.1232  0.2777
 5955SOL    HW229502   4.533   1.677   2.872 -0.4630 -0.7001  1.4760
 5956SOL     OW29503   2.469   3.206   8.461 -0.1196  0.5712  0.1961
 5956SOL    HW129504   2.536   3.210   8.392 -0.5803  0.8436 -0.2334
 5956SOL    HW229505   2.521   3.231   8.537  1.7476  0.5667 -1.0705
 5957SOL     OW29506   1.323   3.503   3.917  0.8069  0.0150  0.8045
 5957SOL    HW129507   1.278   3.588   3.922  1.2380  0.3161 -0.5065
 5957SOL    HW229508   1.346   3.496   3.824 -1.1680 -2.4603  0.5041
 5958SOL     OW29509   2.745   2.018   4.302 -0.2218 -0.3361  0.2263
 5958SOL    HW129510   2.794   2.100   4.302  0.0104 -0.4746  0.3516
 5958SOL    HW229511   2.673   2.037   4.243  0.9198 -2.0659 -1.7289
 5959SOL     OW29512   0.536   3.230   6.731  0.1861  0.8157  0.5573
 5959SOL    HW129513   0.450   3.200   6.760  0.2046  0.6284  0.4204
 5959SOL    HW229514   0.516   3.251   6.640  0.8976  2.0688  0.6868
 5960SOL     OW29515   2.295   4.194   8.004  0.0915  0.2175 -0.0367
 5960SOL    HW129516   2.200   4.184   8.009  0.0800  1.3700  2.2137
 5960SOL    HW229517   2.305   4.215   7.910 -1.4949  0.4867 -0.1406
 5961SOL     OW29518   0.209   2.278  10.184  0.3767 -0.2502  0.1923
 5961SOL    HW129519   0.167   2.205  10.230 -3.2475  0.7514 -1.4949
 5961SOL    HW229520   0.159   2.348  10.226  0.4617 -1.1409  1.7712
 5962SOL     OW29521   3.757   3.239   8.021 -0.4818  0.1147 -0.2792
 5962SOL    HW129522   3.809   3.314   8.051 -0.0443 -0.4037  0.2478
 5962SOL    HW229523   3.804   3.220   7.940  1.2884 -0.3072  0.8531
 5963SOL     OW29524   1.291   0.503  17.084  0.0534 -0.3262 -0.4840
 5963SOL    HW129525   1.240   0.583  17.095  2.3543  1.0135  0.4167
 5963SOL    HW229526   1.345   0.514  17.006  0.2899 -0.1869 -0.2998
 5964SOL     OW29527   0.100   2.394  14.082 -0.1099 -0.3717  0.6785
 5964SOL    HW129528   0.114   2.436  14.167  0.8014 -0.4107  0.5472
 5964SOL    HW229529   0.100   2.471  14.025  1.8992  0.0194  1.2153
 5965SOL     OW29530   3.202   2.308   4.917 -0.0938 -0.5296 -0.4896
 5965SOL    HW129531   3.250   2.235   4.879  0.2557  0.3005 -1.6368
 5965SOL    HW229532   3.165   2.350   4.840 -0.3381  2.8243  1.4463
 5966SOL     OW29533   1.946   2.922  13.011  0.1239  0.0387  0.0483
 5966SOL    HW129534   1.955   3.017  13.008  1.7178 -0.1582 -1.1848
 5966SOL    HW229535   2.002   2.898  13.085  1.5108  1.1777 -0.6354
 5967SOL     OW29536   3.080   1.154   5.396 -0.1469  0.1972  0.0607
 5967SOL    HW129537   3.028   1.113   5.327 -1.1418  2.0167 -0.2619
 5967SOL    HW229538   3.021   1.146   5.471  1.3537 -2.9474  0.8834
 5968SOL     OW29539   2.409   3.464   6.087 -0.2111 -0.5943 -0.0462
 5968SOL    HW129540   2.444   3.538   6.137 -0.0902 -0.5594 -0.1828
 5968SOL    HW229541   2.484   3.444   6.032  0.5335  0.5443  0.5674
 5969SOL     OW29542   4.313   4.414   8.995  0.1211  0.3608  0.3123
 5969SOL    HW129543   4.307   4.436   8.902 -1.3300 -2.2287 -0.1899
 5969SOL    HW229544   4.330   4.502   9.029 -1.2395 -0.2246  2.5321
 5970SOL     OW29545   2.878   3.509   4.808  0.3572 -0.5644 -0.1392
 5970SOL    HW129546   2.902   3.566   4.735  0.1542 -1.3432 -0.8160
 5970SOL    HW229547   2.864   3.563   4.885  2.0702  0.5843 -0.6245
 5971SOL     OW29548   3.012   3.168  15.418 -0.6803 -0.0351 -0.4982
 5971SOL    HW129549   2.980   3.257  15.429  0.4802  0.1201  1.5081
 5971SOL    HW229550   3.104   3.178  15.393 -0.8951 -0.8989 -1.6464
 5972SOL     OW29551   3.857   0.686   5.114  0.3090 -0.6446 -0.3549
 5972SOL    HW129552   3.903   0.609   5.147 -0.0360 -1.0801 -0.8885
 5972SOL    HW229553   3.921   0.716   5.049 -0.1284  2.9188  0.8324
 5973SOL     OW29554   3.544   0.009  12.019 -0.1117 -0.1273 -0.1002
 5973SOL    HW129555   3.528   4.730  12.112 -1.9656  0.6027 -0.2955
 5973SOL    HW229556   3.555   4.658  11.981 -0.6638  0.0458 -0.6545
 5974SOL     OW29557   0.550   1.748   0.678 -0.0867  0.4966  0.0873
 5974SOL    HW129558   0.498   1.792   0.610 -0.6915 -1.0724 -0.4729
 5974SOL    HW229559   0.478   1.703   0.723 -2.1305  3.5382 -0.1397
 5975SOL     OW29560   3.231   4.339  17.479 -0.6798  0.6955 -0.5021
 5975SOL    HW129561   3.205   4.262  17.530 -3.2579  0.7066 -1.8242
 5975SOL    HW229562   3.324   4.343  17.501 -0.0728 -0.8901 -2.7037
 5976SOL     OW29563   0.547   1.024   4.934  0.4193 -0.9465  0.6787
 5976SOL    HW129564   0.472   1.033   4.875  1.7806  0.9540 -0.7690
 5976SOL    HW229565   0.613   1.084   4.900  1.7617 -1.4100  2.4228
 5977SOL     OW29566   1.130   2.415   6.574  0.4213  0.0097  0.0055
 5977SOL    HW129567   1.120   2.504   6.540  1.3819 -0.0265 -0.3680
 5977SOL    HW229568   1.051   2.389   6.620 -1.4387  1.4674 -2.3705
 5978SOL     OW29569   4.272   0.238   8.625 -0.6351  0.2926  0.1094
 5978SOL    HW129570   4.301   0.161   8.673  0.2570  1.6924  1.8672
 5978SOL    HW229571   4.358   0.277   8.606 -0.8438  0.0851 -1.2265
 5979SOL     OW29572   0.110   2.596  13.858 -0.1661  0.2154  0.0941
 5979SOL    HW129573   0.120   2.650  13.937  1.1642  0.7113 -0.4157
 5979SOL    HW229574   0.117   2.666  13.793  1.1531 -0.5719 -0.6190
 5980SOL     OW29575   4.498   2.965   5.661 -0.3764 -0.4044 -0.3085
 5980SOL    HW129576   4.449   2.933   5.585 -1.0498 -0.1602  0.0170
 5980SOL    HW229577   4.564   3.015   5.614  3.3951 -1.5855  3.7428
 5981SOL     OW29578   4.532   3.231   5.790 -0.4511  0.0331  0.1125
 5981SOL    HW129579   4.526   3.136   5.775  1.8689  0.3619 -3.1434
 5981SOL    HW229580   4.613   3.230   5.841 -0.9453  0.0891  0.8843
 5982SOL     OW29581   4.170   2.848   5.263 -0.0936  0.2848  0.1505
 5982SOL    HW129582   4.153   2.858   5.169  0.6521 -0.1687 -0.0361
 5982SOL    HW229583   4.082   2.866   5.295  0.0418  3.7725 -1.4801
 5983SOL     OW29584   2.782   0.284   8.873  0.3584 -0.1862  0.4085
 5983SOL    HW129585   2.831   0.349   8.822  1.0394 -0.1937  1.0550
 5983SOL    HW229586   2.814   0.293   8.962 -0.3787  2.9053  0.3314
 5984SOL     OW29587   2.108   3.274   0.534 -0.4689  0.3051  0.0786
 5984SOL    HW129588   2.053   3.352   0.522  1.3674  1.4753 -0.6566
 5984SOL    HW229589   2.172   3.283   0.464 -1.6826 -1.4071 -1.2626
 5985SOL     OW29590   0.205   3.147   3.322  0.9907  0.4786  0.4848
 5985SOL    HW129591   0.163   3.129   3.406  1.6405  1.3196  0.9742
 5985SOL    HW229592   0.284   3.189   3.353  1.9205 -1.3398  0.6041
 5986SOL     OW29593   1.160   1.546  15.625 -0.1604 -0.2367 -0.6005
 5986SOL    HW129594   1.251   1.523  15.606 -0.6466 -2.3303 -0.3617
 5986SOL    HW229595   1.179   1.602  15.700  1.7447  1.1319 -2.1202
 5987SOL     OW29596   2.406   3.664   4.123  0.1789 -0.9792  0.6452
 5987SOL    HW129597   2.350   3.657   4.201 -0.3993  2.3838  0.5154
 5987SOL    HW229598   2.469   3.596   4.148  2.5003  1.2668  0.8494
 5988SOL     OW29599   4.334   1.224  11.821  0.0910 -0.3236  0.2721
 5988SOL    HW129600   4.393   1.159  11.858  1.4462  0.7743  0.0279
 5988SOL    HW229601   4.309   1.270  11.901  0.0657 -0.2718  0.2351
 5989SOL     OW29602   0.229   0.249   3.032 -1.1133  0.1427  0.7377
 5989SOL    HW129603   0.171   0.207   2.969 -0.8772 -0.2439  0.7793
 5989SOL    HW229604   0.221   0.192   3.109 -1.7798 -1.6119 -0.6459
 5990SOL     OW29605   3.014   1.106   6.611  0.4174  0.5981 -0.3103
 5990SOL    HW129606   3.100   1.102   6.653  1.0196  2.2606 -1.3968
 5990SOL    HW229607   3.022   1.119   6.516  1.7754 -0.1065 -0.2982
 5991SOL     OW29608   3.254   3.219   4.646 -0.2139 -0.1059  0.2696
 5991SOL    HW129609   3.218   3.257   4.567  0.6377 -2.2805 -1.1600
 5991SOL    HW229610   3.288   3.133   4.619 -0.8027 -0.8792  1.9837
 5992SOL     OW29611   0.185   2.112  15.969  0.5105 -0.8669 -0.3153
 5992SOL    HW129612   0.181   2.042  15.903  0.3411 -0.2799 -0.9325
 5992SOL    HW229613   0.262   2.161  15.940  0.0211  0.0620 -0.0347
 5993SOL     OW29614   0.677   3.102  13.631  0.2568  0.1584  0.3059
 5993SOL    HW129615   0.722   3.030  13.586 -1.6552 -2.0483  1.8899
 5993SOL    HW229616   0.651   3.158  13.559 -3.2974  0.9574  2.1993
 5994SOL     OW29617   4.180   0.527  10.592 -0.7531  0.0449  0.4025
 5994SOL    HW129618   4.249   0.480  10.545  0.8257  1.4385  1.3060
 5994SOL    HW229619   4.173   0.469  10.668 -0.2611  0.7802  1.0165
 5995SOL     OW29620   3.185   2.743  13.817  0.2727 -0.2702 -0.2615
 5995SOL    HW129621   3.187   2.781  13.904  1.5650  1.0414 -0.8638
 5995SOL    HW229622   3.278   2.719  13.818  0.1668 -0.5588  2.3819
 5996SOL     OW29623   0.219   2.486   7.510 -0.3277 -0.1161  0.8712
 5996SOL    HW129624   0.264   2.489   7.595  0.3304  2.0989  0.4377
 5996SOL    HW229625   0.178   2.399   7.517 -0.4843 -0.2300 -1.4871
 5997SOL     OW29626   1.075   3.536   6.261 -0.2258 -0.1871 -0.3056
 5997SOL    HW129627   1.110   3.590   6.190 -0.2506  0.8724  0.4750
 5997SOL    HW229628   1.019   3.601   6.303  0.7645 -1.1911  2.5966
 5998SOL     OW29629   1.427   2.165   0.184  0.5300  0.1385 -0.0170
 5998SOL    HW129630   1.406   2.209   0.266  1.7888  0.6528  0.0205
 5998SOL    HW229631   1.522   2.164   0.192  0.6147 -1.6353 -1.0522
 5999SOL     OW29632   2.709   3.160  13.857 -0.3615 -0.5841  0.0597
 5999SOL    HW129633   2.622   3.121  13.860 -0.1809 -1.1403 -2.1104
 5999SOL    HW229634   2.688   3.243  13.901 -1.3464 -0.4647 -0.6108
 6000SOL     OW29635   0.550   1.640  13.949 -0.1608 -0.0596 -0.0487
 6000SOL    HW129636   0.559   1.718  13.895 -1.7107  0.0026 -0.2149
 6000SOL    HW229637   0.470   1.601  13.914 -0.6078 -0.0315  0.9276
 6001SOL     OW29638   0.836   4.600   1.323  0.5773 -0.3978  0.2381
 6001SOL    HW129639   0.904   4.534   1.315  0.8914 -0.2363  1.5854
 6001SOL    HW229640   0.757   4.546   1.323 -0.4093  1.0389  0.6329
 6002SOL     OW29641   1.242   4.654   8.972 -0.4190  0.1516  0.3565
 6002SOL    HW129642   1.307   4.597   9.014  0.5990 -0.3886 -1.9819
 6002SOL    HW229643   1.213   4.609   8.893 -1.3261  3.4074 -1.1752
 6003SOL     OW29644   1.271   2.797   5.829 -0.1450 -0.4232  0.7156
 6003SOL    HW129645   1.195   2.787   5.887 -1.2588  1.9138 -0.3612
 6003SOL    HW229646   1.276   2.892   5.823  0.5489 -0.5437 -0.7699
 6004SOL     OW29647   3.854   1.603   8.698  0.1230 -0.4024 -0.5274
 6004SOL    HW129648   3.915   1.548   8.748 -2.4926 -0.8085  2.2472
 6004SOL    HW229649   3.909   1.681   8.685 -0.7485 -0.1770 -2.7634
 6005SOL     OW29650   3.274   3.000   8.987 -0.2330 -0.0672 -0.2450
 6005SOL    HW129651   3.193   2.956   8.963 -1.6632  2.9067 -0.8355
 6005SOL    HW229652   3.250   3.040   9.071  0.7428  0.3783 -0.1720
 6006SOL     OW29653   3.647   4.340   6.399 -0.2294  0.3892  0.7876
 6006SOL    HW129654   3.681   4.251   6.396 -0.4980  0.3611 -0.9510
 6006SOL    HW229655   3.553   4.330   6.382 -0.2735  0.7216  0.8242
 6007SOL     OW29656   4.227   1.543   1.124 -0.7559 -0.1267  0.9543
 6007SOL    HW129657   4.251   1.625   1.168 -0.2091  0.0762  0.2794
 6007SOL    HW229658   4.310   1.496   1.131 -1.1198 -0.3380  3.6844
 6008SOL     OW29659   2.780   0.092   9.363  0.1193  0.2829 -0.1361
 6008SOL    HW129660   2.790   0.187   9.357  0.6389  0.2579  0.4030
 6008SOL    HW229661   2.821   0.072   9.447 -0.9296 -1.4986 -0.0492
 6009SOL     OW29662   1.341   4.194   4.554 -0.8526 -0.0291  0.1484
 6009SOL    HW129663   1.254   4.152   4.550 -0.8006 -0.0435 -0.7379
 6009SOL    HW229664   1.357   4.175   4.646  0.6341 -0.6666 -0.2459
 6010SOL     OW29665   3.966   2.712   2.550 -0.6018 -0.0189  0.0019
 6010SOL    HW129666   4.037   2.668   2.502 -0.6111  0.2056 -0.2188
 6010SOL    HW229667   4.020   2.775   2.597  1.0001 -2.3772  1.3044
 6011SOL     OW29668   2.591   4.633   9.953 -0.5576 -0.1578 -0.1548
 6011SOL    HW129669   2.529   4.682   9.899 -1.1826 -3.4039 -2.4179
 6011SOL    HW229670   2.548   4.547   9.951 -0.0394 -0.5101  3.9385
 6012SOL     OW29671   3.222   3.611   2.753  0.6172 -0.3012 -0.1653
 6012SOL    HW129672   3.192   3.700   2.771  3.8746  0.8064 -0.3303
 6012SOL    HW229673   3.137   3.566   2.751  0.9525 -1.1228  3.1784
 6013SOL     OW29674   3.061   2.774   9.673 -0.2992  0.1846 -0.5149
 6013SOL    HW129675   3.124   2.806   9.607  0.9917 -2.4142 -0.5505
 6013SOL    HW229676   3.114   2.712   9.723  0.9069  0.1659 -1.7969
 6014SOL     OW29677   4.297   3.090   5.025 -0.2099 -0.0475  0.1664
 6014SOL    HW129678   4.319   3.183   5.021 -0.2518  0.0156  1.4611
 6014SOL    HW229679   4.374   3.054   4.980  0.3307 -0.4179  1.3993
 6015SOL     OW29680   2.391   2.007  12.105  0.0044 -0.1196  0.2615
 6015SOL    HW129681   2.423   1.972  12.022 -2.0046 -0.7703 -0.2332
 6015SOL    HW229682   2.330   2.074  12.075 -0.1241 -0.4143 -0.1255
 6016SOL     OW29683   2.599   1.997   7.658 -0.4243 -0.3962 -0.2609
 6016SOL    HW129684   2.638   1.920   7.699 -0.0838 -0.8884 -1.5110
 6016SOL    HW229685   2.671   2.058   7.645 -1.5521  1.5293  2.5249
 6017SOL     OW29686   3.984   0.422   8.803 -0.2373 -0.5348  0.3010
 6017SOL    HW129687   4.075   0.450   8.819 -0.7156  1.6368 -0.7657
 6017SOL    HW229688   3.952   0.407   8.892  3.1772 -1.8742  1.3393
 6018SOL     OW29689   3.054   1.610   0.995 -0.2610 -0.3432  0.0023
 6018SOL    HW129690   3.050   1.517   1.020 -0.8226 -0.2807  0.1268
 6018SOL    HW229691   2.981   1.646   1.045  0.9939  1.1050  0.7631
 6019SOL     OW29692   1.194   0.939  11.383  0.3749  0.0167 -0.3287
 6019SOL    HW129693   1.185   0.966  11.292 -0.1405 -1.1419 -0.6198
 6019SOL    HW229694   1.248   0.862  11.371  1.3641  0.1785  3.1716
 6020SOL     OW29695   3.431   0.817   2.812  0.1847  0.3350  0.1647
 6020SOL    HW129696   3.405   0.744   2.755  0.9485 -0.8652  1.3576
 6020SOL    HW229697   3.351   0.819   2.864 -0.2324 -2.5415 -0.3724
 6021SOL     OW29698   2.422   3.700  15.194 -0.0392 -0.1007  0.1645
 6021SOL    HW129699   2.374   3.692  15.112  1.3737  0.5900 -0.7321
 6021SOL    HW229700   2.497   3.749  15.161  0.0264 -1.5009 -1.7638
 6022SOL     OW29701   1.349   1.849   5.670 -0.0461 -0.1808 -0.4313
 6022SOL    HW129702   1.435   1.814   5.694 -0.4146 -1.3931 -0.8441
 6022SOL    HW229703   1.356   1.796   5.590 -0.5833 -2.1037  0.7905
 6023SOL     OW29704   4.405   3.917   8.006  0.0271  0.1729  0.2034
 6023SOL    HW129705   4.320   3.959   8.023 -0.4607  0.1297 -2.1229
 6023SOL    HW229706   4.386   3.894   7.915 -0.2164 -0.5266  0.4308
 6024SOL     OW29707   1.271   3.053   8.509  0.2289 -0.1106 -0.2692
 6024SOL    HW129708   1.282   3.036   8.603 -1.0613  0.6146  0.0084
 6024SOL    HW229709   1.335   3.124   8.499 -0.9623  0.6412 -2.5788
 6025SOL     OW29710   3.336   0.001  16.898  0.1013  0.1304 -0.0943
 6025SOL    HW129711   3.385   0.071  16.855  2.4953 -1.2738  0.4051
 6025SOL    HW229712   3.326   0.034  16.987 -1.0393 -2.0488  0.5956
 6026SOL     OW29713   2.604   1.378   6.731  0.5717 -0.6470 -0.3353
 6026SOL    HW129714   2.595   1.429   6.812  0.4198  1.3894 -1.6381
 6026SOL    HW229715   2.698   1.386   6.719  0.1199  2.7735 -1.6775
 6027SOL     OW29716   3.373   2.501   1.774  0.4201  0.5294  0.0325
 6027SOL    HW129717   3.353   2.408   1.775 -0.2081  0.6451 -1.3171
 6027SOL    HW229718   3.306   2.544   1.827 -0.9991 -1.7117  0.0658
 6028SOL     OW29719   1.263   0.843   5.473  0.2118  0.0259 -0.3341
 6028SOL    HW129720   1.343   0.880   5.435  0.9261  0.3715  1.5095
 6028SOL    HW229721   1.225   0.918   5.521  2.3924  1.4187 -0.7691
 6029SOL     OW29722   3.023   2.207   2.090  0.2505  0.1124 -0.7760
 6029SOL    HW129723   3.002   2.258   2.168  0.9104  0.4759 -0.8347
 6029SOL    HW229724   2.979   2.123   2.097  1.3135 -0.3159  0.7723
 6030SOL     OW29725   3.635   3.871  10.103 -0.3870 -0.1040 -0.0584
 6030SOL    HW129726   3.610   3.820  10.180  1.5199 -0.0910  0.5831
 6030SOL    HW229727   3.718   3.914  10.126  0.0548 -0.9212 -0.1194
 6031SOL     OW29728   0.704   1.214   0.723 -0.5772  0.5701  0.4041
 6031SOL    HW129729   0.672   1.136   0.678  0.5387 -0.9351  2.2084
 6031SOL    HW229730   0.636   1.274   0.694  0.8140  1.4900 -0.9824
 6032SOL     OW29731   1.783   2.211   3.578  0.4508 -0.7823  0.2225
 6032SOL    HW129732   1.859   2.248   3.534  0.1349  2.4046  2.3556
 6032SOL    HW229733   1.788   2.257   3.662 -0.5060 -1.6856  0.7877
 6033SOL     OW29734   3.137   3.505  13.143  0.0282  0.5011  0.0750
 6033SOL    HW129735   3.208   3.466  13.194  1.7036 -2.0651 -4.1974
 6033SOL    HW229736   3.064   3.516  13.203  0.3211  1.1260  0.3145
 6034SOL     OW29737   2.932   1.413  10.578 -0.8252  0.5233  0.1919
 6034SOL    HW129738   2.860   1.471  10.603 -1.5723 -0.8920  1.2840
 6034SOL    HW229739   2.979   1.423  10.660 -0.3161 -1.4469  0.1453
 6035SOL     OW29740   1.220   1.904  17.083  0.1575  0.0376  0.2912
 6035SOL    HW129741   1.151   1.858  17.034 -0.6763  1.1857  0.3992
 6035SOL    HW229742   1.264   1.951  17.012 -1.4299  1.1086  0.0142
 6036SOL     OW29743   1.868   4.427   4.318 -0.2693  0.3918  0.0980
 6036SOL    HW129744   1.851   4.414   4.411 -1.1552  2.8742  0.2691
 6036SOL    HW229745   1.824   4.354   4.273  0.1951  1.0765 -1.4768
 6037SOL     OW29746   4.123   1.451  16.632 -0.5090  0.0174  0.0726
 6037SOL    HW129747   4.095   1.532  16.674  1.1292 -1.0764  3.3075
 6037SOL    HW229748   4.032   1.420  16.635 -0.7094  0.6220  0.2596
 6038SOL     OW29749   1.181   3.559   5.652 -0.0171 -0.3310  0.2129
 6038SOL    HW129750   1.087   3.575   5.653  0.2853  1.3901  2.6213
 6038SOL    HW229751   1.189   3.571   5.558 -0.0116  0.5426  0.3257
 6039SOL     OW29752   1.813   2.454   5.138 -0.0627  0.1440  0.2411
 6039SOL    HW129753   1.862   2.509   5.200 -0.8147  1.4276 -0.3045
 6039SOL    HW229754   1.722   2.470   5.165  0.0657 -0.9686  1.3130
 6040SOL     OW29755   1.329   1.083   6.060  0.3033  0.1830 -0.1611
 6040SOL    HW129756   1.396   1.133   6.013 -2.2497  1.1272 -2.8287
 6040SOL    HW229757   1.305   1.150   6.124  0.2856 -0.2839  0.3220
 6041SOL     OW29758   1.973   1.400  17.612 -0.4260  1.0271  0.0566
 6041SOL    HW129759   1.934   1.316  17.636 -1.2522  0.6918 -2.4252
 6041SOL    HW229760   1.904   1.465  17.625 -0.8469  0.5100  0.3951
 6042SOL     OW29761   0.251   1.174   2.341 -0.1271 -0.6691  0.3268
 6042SOL    HW129762   0.233   1.266   2.363  0.3879 -0.8173  1.3889
 6042SOL    HW229763   0.303   1.177   2.260 -0.0600 -1.0641  0.3567
 6043SOL     OW29764   1.523   3.400   1.443  0.4416 -0.0923  0.4304
 6043SOL    HW129765   1.528   3.304   1.444  0.2014 -0.0973  1.2656
 6043SOL    HW229766   1.516   3.420   1.350  1.5686 -0.4550  0.2723
 6044SOL     OW29767   3.261   4.403   3.092  0.3678 -0.0658  0.4261
 6044SOL    HW129768   3.192   4.360   3.042  2.0228 -2.8342  0.5794
 6044SOL    HW229769   3.337   4.413   3.034  0.4927  1.6236  0.8672
 6045SOL     OW29770   1.815   0.158   4.549 -0.3909  0.2637  0.5042
 6045SOL    HW129771   1.736   0.174   4.497 -1.2916 -1.1672  1.4495
 6045SOL    HW229772   1.854   0.084   4.504  0.6879  1.9358 -1.2836
 6046SOL     OW29773   2.825   0.831   2.792 -0.3967  0.7074  0.4048
 6046SOL    HW129774   2.898   0.827   2.854 -1.3502  2.3787  1.6457
 6046SOL    HW229775   2.864   0.878   2.719  0.4831  1.2138  1.1990
 6047SOL     OW29776   0.371   4.410   4.241 -0.6395  0.0656 -0.6300
 6047SOL    HW129777   0.427   4.487   4.247  0.0780 -0.4478 -0.6999
 6047SOL    HW229778   0.308   4.424   4.170  0.0781  0.5946 -1.1616
 6048SOL     OW29779   0.980   3.197   0.405 -0.2687  0.2583  0.2765
 6048SOL    HW129780   0.997   3.209   0.311  1.4845  0.7551  0.6671
 6048SOL    HW229781   0.936   3.277   0.432 -0.2930  0.0985  0.7079
 6049SOL     OW29782   2.024   3.273   9.194  0.0294 -0.0730 -0.0484
 6049SOL    HW129783   1.956   3.312   9.139 -2.1472 -4.1898 -0.3020
 6049SOL    HW229784   2.021   3.181   9.167  1.0012 -0.4272  1.0357
 6050SOL     OW29785   4.152   4.079   8.043 -0.1413 -0.0030  0.1168
 6050SOL    HW129786   4.171   4.041   8.129 -0.6933 -0.0741  0.2132
 6050SOL    HW229787   4.066   4.122   8.051  0.1879  0.3157  2.1165
 6051SOL     OW29788   0.569   3.826  16.956 -0.3578 -0.3437  0.5978
 6051SOL    HW129789   0.625   3.865  17.023 -0.8303  0.9818  0.2324
 6051SOL    HW229790   0.613   3.864  16.880 -2.4809  1.0364  0.0317
 6052SOL     OW29791   0.045   4.703  16.282 -0.1075 -0.3781 -0.4920
 6052SOL    HW129792   0.126   4.724  16.235  0.6505 -2.3004 -0.0762
 6052SOL    HW229793   0.062   4.610  16.299 -1.2703 -0.6587 -0.9106
 6053SOL     OW29794   0.916   4.405   2.718 -0.0907  0.1134  0.2608
 6053SOL    HW129795   0.886   4.431   2.630 -1.4973  2.1958  1.3709
 6053SOL    HW229796   0.967   4.327   2.698  0.0699  0.9145 -2.4859
 6054SOL     OW29797   0.991   3.366  11.703  0.2043 -0.3743  0.3426
 6054SOL    HW129798   0.949   3.364  11.789 -0.4780 -0.0537  0.0091
 6054SOL    HW229799   0.912   3.375  11.650  1.4487  1.9219 -1.0679
 6055SOL     OW29800   4.548   0.964   0.432 -0.2459 -0.6089  0.3095
 6055SOL    HW129801   4.470   0.925   0.391 -1.0609  1.1556  0.1456
 6055SOL    HW229802   4.586   0.903   0.495  0.6763  0.8921  1.1908
 6056SOL     OW29803   4.292   0.636   8.584  0.1824 -0.6404 -0.3914
 6056SOL    HW129804   4.362   0.637   8.649  1.3780 -0.5443 -1.6831
 6056SOL    HW229805   4.251   0.721   8.602  1.4513 -0.0150 -0.4681
 6057SOL     OW29806   1.268   1.028   1.383  0.1691 -0.0927  0.6472
 6057SOL    HW129807   1.324   0.966   1.431 -1.0582 -1.6909  0.0388
 6057SOL    HW229808   1.199   1.050   1.445 -1.6473  0.1932 -1.4729
 6058SOL     OW29809   3.235   3.999   5.313  0.3149  0.2081 -0.0655
 6058SOL    HW129810   3.298   4.016   5.242  1.3464 -0.2288  0.7487
 6058SOL    HW229811   3.256   4.066   5.378 -0.5335  0.4257 -0.0172
 6059SOL     OW29812   1.962   3.866   9.169 -0.2351 -0.4256  0.2606
 6059SOL    HW129813   1.886   3.832   9.121 -1.3472  0.8182  1.1295
 6059SOL    HW229814   1.929   3.908   9.248  2.0245 -1.0241  1.5196
 6060SOL     OW29815   1.516   4.340   9.591  0.0414 -0.6355  0.1393
 6060SOL    HW129816   1.444   4.280   9.574  0.2083 -0.8140  0.0707
 6060SOL    HW229817   1.471   4.423   9.608  1.4692 -0.3828  2.6320
 6061SOL     OW29818   2.340   0.415   3.328 -0.4349  0.2829 -0.2848
 6061SOL    HW129819   2.299   0.337   3.291 -0.6404  0.1602  0.2148
 6061SOL    HW229820   2.289   0.434   3.406 -0.5263 -0.3026 -0.2028
 6062SOL     OW29821   1.067   1.044   5.107  0.6114  0.6234  0.5426
 6062SOL    HW129822   1.050   0.973   5.044  1.0412  0.9264  0.0814
 6062SOL    HW229823   1.020   1.010   5.183 -0.9473  0.5297 -0.4568
 6063SOL     OW29824   1.013   3.488   1.251  0.2337  0.0970  0.7687
 6063SOL    HW129825   1.084   3.533   1.204  0.9424  1.4705  3.1776
 6063SOL    HW229826   0.945   3.554   1.265 -1.4266 -1.5308  0.2998
 6064SOL     OW29827   1.954   3.794  13.484  0.3582  0.3469  0.4657
 6064SOL    HW129828   2.035   3.844  13.472  0.7003 -0.1184  0.7691
 6064SOL    HW229829   1.992   3.720  13.533  0.3397  0.2674  0.3604
 6065SOL     OW29830   0.307   1.902   0.889 -0.7968 -0.5474  0.2663
 6065SOL    HW129831   0.252   1.846   0.944 -2.1411 -2.3099 -2.8743
 6065SOL    HW229832   0.395   1.866   0.902 -0.2333  0.4846 -0.6591
 6066SOL     OW29833   4.064   0.161   3.989  0.6512 -0.1852 -0.3783
 6066SOL    HW129834   4.072   0.134   4.081  3.5033 -0.0285 -0.5920
 6066SOL    HW229835   4.017   0.085   3.953 -1.1396  0.8412 -0.2030
 6067SOL     OW29836   0.286   1.224   4.969  0.4770  0.2489  0.0931
 6067SOL    HW129837   0.265   1.290   5.035  1.0906 -1.7603  2.2883
 6067SOL    HW229838   0.196   1.201   4.946  1.5948 -1.9508 -2.1084
 6068SOL     OW29839   1.738   0.633   8.223 -0.1762 -0.0954  0.0411
 6068SOL    HW129840   1.813   0.574   8.216  0.9828  1.2645  1.2190
 6068SOL    HW229841   1.694   0.620   8.139 -2.1587 -2.3508  1.4049
 6069SOL     OW29842   2.706   4.641  15.084  0.1145  0.4272  0.3820
 6069SOL    HW129843   2.639   4.580  15.116 -0.2598  0.5891 -0.0881
 6069SOL    HW229844   2.649   4.676  15.015 -1.0664 -1.3717  0.4560
 6070SOL     OW29845   0.216   4.308   4.710 -0.1092  0.0332 -0.3002
 6070SOL    HW129846   0.219   4.213   4.700 -3.0213 -0.2035  1.2902
 6070SOL    HW229847   0.184   4.342   4.626  0.4241 -1.4208 -1.0852
 6071SOL     OW29848   0.361   1.482  14.942 -0.2996  0.0479  0.3672
 6071SOL    HW129849   0.391   1.391  14.937 -2.4584 -0.6582  0.0359
 6071SOL    HW229850   0.304   1.484  14.864  1.4826  1.3352 -0.9108
 6072SOL     OW29851   3.967   1.290  13.007  0.2269 -0.8793  0.4239
 6072SOL    HW129852   3.960   1.360  12.943  2.6273 -1.5826 -0.6094
 6072SOL    HW229853   3.959   1.330  13.094 -1.7540  1.6910 -0.9584
 6073SOL     OW29854   0.213   0.172  16.585 -0.0938  0.2750 -0.4525
 6073SOL    HW129855   0.265   0.240  16.542  0.7633  0.2781  0.5735
 6073SOL    HW229856   0.280   0.103  16.587 -0.4310 -0.0433 -0.0841
 6074SOL     OW29857   3.243   2.636   9.820  0.2582  0.1553 -0.6553
 6074SOL    HW129858   3.307   2.685   9.871 -0.5383  0.9394 -0.4038
 6074SOL    HW229859   3.262   2.555   9.868  1.3557  0.6311 -0.2780
 6075SOL     OW29860   0.502   1.636   8.139 -0.1551 -0.6372 -0.2248
 6075SOL    HW129861   0.554   1.606   8.064  0.5440 -0.6478  0.2551
 6075SOL    HW229862   0.474   1.560   8.189  0.2242 -0.6435 -0.0125
 6076SOL     OW29863   0.509   1.095   3.688 -0.4893  0.2168 -0.3599
 6076SOL    HW129864   0.530   1.004   3.709 -0.2373  0.2421 -0.5027
 6076SOL    HW229865   0.565   1.123   3.616  0.3798  1.3697  0.7445
 6077SOL     OW29866   1.974   0.721   3.591 -0.1199  0.5547  0.5609
 6077SOL    HW129867   1.881   0.711   3.569  0.9757 -1.0885 -3.4263
 6077SOL    HW229868   2.008   0.762   3.511  0.4297  1.8609  1.4729
 6078SOL     OW29869   1.418   1.192  11.272  0.1888  0.0160  0.1084
 6078SOL    HW129870   1.390   1.206  11.181 -0.0473 -1.7809 -0.0902
 6078SOL    HW229871   1.503   1.150  11.257 -0.0209  0.6209 -2.9404
 6079SOL     OW29872   0.322   3.418  10.475 -0.1822  0.5394 -0.1525
 6079SOL    HW129873   0.375   3.478  10.527  1.2707 -0.9568  0.0893
 6079SOL    HW229874   0.345   3.453  10.389  0.5592  0.4673  0.0122
 6080SOL     OW29875   2.084   3.295   6.673  0.1408 -0.1276  0.2823
 6080SOL    HW129876   2.166   3.340   6.650  0.1126  0.7282  1.8586
 6080SOL    HW229877   2.121   3.236   6.739  2.4151  1.6664  0.6341
 6081SOL     OW29878   2.262   2.435   3.335  0.0088 -0.1880 -0.2613
 6081SOL    HW129879   2.357   2.421   3.337 -0.1510 -1.0134  1.5250
 6081SOL    HW229880   2.251   2.480   3.251  0.4494 -1.3945 -0.9649
 6082SOL     OW29881   2.632   0.821  15.143 -0.0566 -0.1103 -0.6675
 6082SOL    HW129882   2.648   0.802  15.236 -1.7990  0.6521 -0.2150
 6082SOL    HW229883   2.702   0.879  15.110  0.0572 -0.6145 -1.2987
 6083SOL     OW29884   0.659   0.486   5.216  0.0134  0.4042 -0.5688
 6083SOL    HW129885   0.743   0.521   5.185 -0.3906  1.4251 -0.5409
 6083SOL    HW229886   0.597   0.534   5.161 -0.3847  0.1070 -0.3751
 6084SOL     OW29887   0.096   3.523   4.540  0.1543 -0.1863 -0.5916
 6084SOL    HW129888   0.106   3.550   4.449 -2.7092 -0.0892 -0.8979
 6084SOL    HW229889   0.009   3.481   4.543  0.0653  0.0116 -0.4050
 6085SOL     OW29890   2.475   0.905  15.514 -1.0043  0.2966 -0.3979
 6085SOL    HW129891   2.508   0.860  15.592 -2.2204  0.2593  0.1066
 6085SOL    HW229892   2.558   0.925  15.473 -1.5767  1.9336 -0.7398
 6086SOL     OW29893   3.708   2.528   5.207  0.2577  0.4234  0.4494
 6086SOL    HW129894   3.678   2.447   5.247  0.6980 -0.3611 -0.8117
 6086SOL    HW229895   3.760   2.487   5.138 -0.8475  0.8842 -0.6452
 6087SOL     OW29896   3.823   3.955   9.177  0.2069 -0.1061 -0.0310
 6087SOL    HW129897   3.763   4.013   9.224 -0.1007 -0.3193 -0.1702
 6087SOL    HW229898   3.903   3.967   9.230 -0.8565  3.8309  0.6996
 6088SOL     OW29899   0.464   4.194  16.688 -0.0058 -0.3838  0.2509
 6088SOL    HW129900   0.441   4.189  16.595 -1.2604  0.7131  0.5097
 6088SOL    HW229901   0.388   4.158  16.734  0.9807  1.1793  3.0639
 6089SOL     OW29902   3.296   3.312  10.544 -0.2031 -0.3784  0.0181
 6089SOL    HW129903   3.274   3.273  10.628 -0.4094 -2.6554 -1.0984
 6089SOL    HW229904   3.274   3.241  10.483 -0.8005 -1.3126  1.3181
 6090SOL     OW29905   1.138   1.880   4.755  0.0942 -0.0401 -0.3145
 6090SOL    HW129906   1.228   1.897   4.783 -0.6893  0.6485  1.8594
 6090SOL    HW229907   1.160   1.885   4.662  0.0785 -1.0573 -0.3744
 6091SOL     OW29908   0.224   2.220   4.931 -0.1294  0.6389  0.4029
 6091SOL    HW129909   0.237   2.314   4.918 -0.3684  0.4504 -1.2109
 6091SOL    HW229910   0.308   2.202   4.974 -0.1911  1.8877  1.0306
 6092SOL     OW29911   4.382   1.991   6.117 -0.1237 -0.0892 -0.4642
 6092SOL    HW129912   4.343   1.907   6.092 -0.3273 -0.4082  0.9237
 6092SOL    HW229913   4.322   2.015   6.188  1.1445 -0.1596  0.6410
 6093SOL     OW29914   1.320   0.652   9.030 -0.0010  0.5368  0.9254
 6093SOL    HW129915   1.326   0.744   9.056  0.8057 -0.1211  3.1186
 6093SOL    HW229916   1.410   0.649   8.999 -0.6893  0.1236 -1.0113
 6094SOL     OW29917   2.209   1.611   6.491  0.0534  0.0798 -0.4196
 6094SOL    HW129918   2.292   1.577   6.522 -0.8372 -1.0710  0.7145
 6094SOL    HW229919   2.244   1.697   6.466  1.5401  0.0152  1.4599
 6095SOL     OW29920   1.664   0.056   8.078  0.1037  0.1939 -0.2176
 6095SOL    HW129921   1.749   0.044   8.119  0.3409 -2.4938 -1.4947
 6095SOL    HW229922   1.672   0.143   8.039  1.9753  1.7957  3.7779
 6096SOL     OW29923   3.326   2.763   7.552 -0.8403 -0.1048  0.1003
 6096SOL    HW129924   3.332   2.710   7.632  0.2008 -0.4393 -0.1950
 6096SOL    HW229925   3.261   2.714   7.502  0.5028 -0.3714 -1.3844
 6097SOL     OW29926   3.143   0.367  11.982  0.0687  0.0274 -0.2395
 6097SOL    HW129927   3.078   0.427  12.019  0.9697  1.2764 -0.7326
 6097SOL    HW229928   3.129   0.291  12.039  0.4256 -0.5679 -0.9496
 6098SOL     OW29929   3.522   3.520  16.105 -0.5627  0.4489  0.2785
 6098SOL    HW129930   3.541   3.504  16.013 -1.2857 -0.0881  0.2209
 6098SOL    HW229931   3.550   3.442  16.153  1.8495  2.3657  1.9596
 6099SOL     OW29932   1.035   4.427  14.314 -0.4075 -0.1666 -0.6773
 6099SOL    HW129933   1.072   4.352  14.360 -1.0509 -0.9013 -1.3833
 6099SOL    HW229934   0.950   4.394  14.287 -0.2554 -1.7427  0.7474
 6100SOL     OW29935   0.390   0.298   4.635 -0.3914  0.3449  0.0275
 6100SOL    HW129936   0.306   0.283   4.591 -0.1297  0.0955 -0.3797
 6100SOL    HW229937   0.427   0.377   4.595  2.8769 -0.9680  0.4498
 6101SOL     OW29938   2.824   1.884   5.388 -0.1332 -0.3466 -0.1752
 6101SOL    HW129939   2.911   1.885   5.347 -0.6721  0.3860 -1.2855
 6101SOL    HW229940   2.772   1.858   5.312 -1.9359  0.6033  0.7465
 6102SOL     OW29941   4.413   2.904   8.173  0.3559 -0.3209 -0.8156
 6102SOL    HW129942   4.425   2.950   8.256 -1.0614  1.7561 -1.7598
 6102SOL    HW229943   4.417   2.817   8.213 -1.0971  0.2853  0.6176
 6103SOL     OW29944   2.642   2.697  15.637  0.6188 -0.3725 -0.4352
 6103SOL    HW129945   2.548   2.688  15.652  0.8175 -2.9710 -0.7439
 6103SOL    HW229946   2.666   2.776  15.685  0.3848 -0.9363  0.6262
 6104SOL     OW29947   4.726   2.167   5.154 -0.3219  0.1264  0.3974
 6104SOL    HW129948   0.001   2.146   5.061  0.1719  1.7370  0.0951
 6104SOL    HW229949   4.720   2.262   5.146 -0.0325  0.0991 -0.1751
 6105SOL     OW29950   2.773   2.935  16.578  0.4006  0.2941  0.2162
 6105SOL    HW129951   2.686   2.935  16.539  1.6048  0.4966 -2.4092
 6105SOL    HW229952   2.809   3.020  16.554  0.6440  0.1685  0.1381
 6106SOL     OW29953   3.054   4.234   1.647 -0.1427 -0.0301  0.5372
 6106SOL    HW129954   3.020   4.157   1.692 -0.0606 -0.1885  0.3279
 6106SOL    HW229955   3.128   4.190   1.606 -1.2499 -1.7653  0.4257
 6107SOL     OW29956   2.134   2.132   0.105 -0.6199 -0.0804  0.1844
 6107SOL    HW129957   2.184   2.084   0.038  0.4342 -0.8645  1.5455
 6107SOL    HW229958   2.063   2.068   0.108 -1.2385  0.6723  1.3604
 6108SOL     OW29959   2.805   3.333   1.491  0.2908 -0.2612 -0.3635
 6108SOL    HW129960   2.794   3.255   1.436 -2.0037  1.3039 -2.1146
 6108SOL    HW229961   2.895   3.316   1.521  0.1851  1.4688  0.9678
 6109SOL     OW29962   3.242   3.706  10.899 -0.5432  0.7170  0.3644
 6109SOL    HW129963   3.261   3.642  10.830  2.9408  1.3544  0.7014
 6109SOL    HW229964   3.224   3.783  10.846 -2.9218 -1.1389 -1.5161
 6110SOL     OW29965   4.260   2.821   7.444  0.6820  0.0596  0.5127
 6110SOL    HW129966   4.319   2.755   7.480 -0.5576  0.1702  2.7476
 6110SOL    HW229967   4.294   2.895   7.493  1.9124  0.5073 -1.0190
 6111SOL     OW29968   0.386   3.953   9.205  0.0190 -0.5125  0.1746
 6111SOL    HW129969   0.328   4.019   9.243 -0.4294 -0.0018 -1.4280
 6111SOL    HW229970   0.463   3.955   9.262  1.2339 -0.9343 -1.4762
 6112SOL     OW29971   1.435   3.959   4.996  0.0606  0.6041 -0.1416
 6112SOL    HW129972   1.473   4.026   5.053 -1.5201  0.5623  0.9620
 6112SOL    HW229973   1.400   3.897   5.060  0.8295 -0.1317 -0.4317
 6113SOL     OW29974   4.565   3.408   4.622 -0.0345 -0.4509 -0.4770
 6113SOL    HW129975   4.603   3.375   4.703  2.7466  2.9856 -0.3786
 6113SOL    HW229976   4.526   3.490   4.651  1.4845  0.6037 -1.4435
 6114SOL     OW29977   1.550   2.048   2.605 -0.0885  0.8219  0.3501
 6114SOL    HW129978   1.525   2.090   2.687 -4.5643 -0.5632 -0.3055
 6114SOL    HW229979   1.595   2.119   2.558 -2.5699  1.8239 -0.5451
 6115SOL     OW29980   1.759   0.638  10.498 -0.1271 -0.0452 -0.7142
 6115SOL    HW129981   1.765   0.587  10.579 -0.7269 -1.0523 -1.2942
 6115SOL    HW229982   1.684   0.692  10.521 -1.3590 -1.9695 -0.1784
 6116SOL     OW29983   1.315   0.173   6.779  0.0143  0.9188  0.1119
 6116SOL    HW129984   1.338   0.254   6.826  1.7276  0.3915  0.1671
 6116SOL    HW229985   1.395   0.123   6.788 -0.2191  0.4276 -0.5636
 6117SOL     OW29986   0.220   3.461   6.139 -0.4466 -0.3755  0.1897
 6117SOL    HW129987   0.145   3.521   6.131  0.0558  0.5983  2.6112
 6117SOL    HW229988   0.274   3.521   6.191  0.0976  1.0468 -2.0217
 6118SOL     OW29989   2.893   1.691   4.534  0.4747 -0.4166  0.8960
 6118SOL    HW129990   2.806   1.721   4.511  0.1230 -1.5843  0.7117
 6118SOL    HW229991   2.915   1.735   4.617  0.2686  1.1635  0.1210
 6119SOL     OW29992   0.306   3.914   4.271  0.1927  0.2745  0.3147
 6119SOL    HW129993   0.357   3.914   4.352  1.8157  1.4371 -0.7262
 6119SOL    HW229994   0.340   3.989   4.222  1.5802 -0.8765 -0.4590
 6120SOL     OW29995   1.802   1.275   8.095 -0.2514 -0.5522  0.3429
 6120SOL    HW129996   1.715   1.235   8.103 -0.9673  0.3717 -2.5133
 6120SOL    HW229997   1.784   1.369   8.098  1.0206 -0.4129  2.8131
 6121SOL     OW29998   4.126   2.175   0.135  0.3157  0.7267  0.5830
 6121SOL    HW129999   4.105   2.095   0.184  0.9416 -0.3802 -0.9460
 6121SOL    HW230000   4.213   2.195   0.168  1.0880 -1.5005 -0.0768
 6122SOL     OW30001   4.250   1.004   2.124 -0.0239  0.3496 -0.2247
 6122SOL    HW130002   4.154   1.009   2.126 -0.0526 -0.3796  0.2603
 6122SOL    HW230003   4.277   1.094   2.108  1.1351 -0.1850 -1.2753
 6123SOL     OW30004   2.241   4.731   4.210  0.0570  0.0584 -0.1369
 6123SOL    HW130005   2.335   0.012   4.208 -0.3619  2.2705 -1.0013
 6123SOL    HW230006   2.218   0.083   4.239 -1.0151  0.5567 -2.5410
 6124SOL     OW30007   1.054   2.126  12.162  1.0221  0.1402 -0.4614
 6124SOL    HW130008   1.127   2.175  12.200  0.0112  0.1260  1.5106
 6124SOL    HW230009   1.064   2.047  12.216  0.6243  1.2001  1.1756
 6125SOL     OW30010   2.468   0.530   7.950 -0.0829  0.0528  0.1768
 6125SOL    HW130011   2.402   0.593   7.920 -0.4847 -0.5997 -0.2886
 6125SOL    HW230012   2.432   0.509   8.037  0.0026  1.8853  0.6649
 6126SOL     OW30013   0.636   1.947   1.623  0.2728 -0.2489 -0.4819
 6126SOL    HW130014   0.677   2.027   1.591 -0.0877  0.6049  1.2120
 6126SOL    HW230015   0.552   1.952   1.577  0.0811  1.1453  0.0292
 6127SOL     OW30016   2.240   3.731   4.758  0.4961  0.1254  0.0887
 6127SOL    HW130017   2.190   3.689   4.828  1.4165  0.3506  0.8844
 6127SOL    HW230018   2.206   3.820   4.768  1.0359  0.1857  1.3857
 6128SOL     OW30019   3.035   1.917  13.504  0.1407 -0.7633 -0.1915
 6128SOL    HW130020   2.997   1.929  13.417  1.0257  1.8536 -0.2064
 6128SOL    HW230021   2.962   1.937  13.563  1.4159  0.5341  0.9594
 6129SOL     OW30022   0.038   0.447   4.389 -0.0251  0.1174 -0.4701
 6129SOL    HW130023   4.729   0.514   4.337 -2.1019  0.5022  1.8581
 6129SOL    HW230024   4.708   0.408   4.445  0.7752  0.6635  0.8639
 6130SOL     OW30025   3.203   2.554   5.824  0.2543  0.5772  0.2677
 6130SOL    HW130026   3.124   2.502   5.809 -1.0880  3.0913 -1.2887
 6130SOL    HW230027   3.243   2.546   5.737  0.9965  0.3834  0.6241
 6131SOL     OW30028   4.336   0.052   2.566  0.2015 -0.4766 -0.4708
 6131SOL    HW130029   4.404   0.093   2.619  1.7466 -2.8786 -0.5996
 6131SOL    HW230030   4.295   0.127   2.525  0.5333 -0.2695 -0.4259
 6132SOL     OW30031   0.653   1.663   4.155 -0.3320 -0.5329 -0.1538
 6132SOL    HW130032   0.638   1.680   4.062 -1.2527 -1.7771 -0.2260
 6132SOL    HW230033   0.720   1.596   4.159 -0.5031 -0.5651  1.9337
 6133SOL     OW30034   2.530   3.936   4.741  0.2625  0.2646 -0.0232
 6133SOL    HW130035   2.457   3.986   4.706 -0.5201  0.0127  1.2556
 6133SOL    HW230036   2.519   3.845   4.714  4.0831 -0.1433 -0.2568
 6134SOL     OW30037   0.102   2.935   5.616 -0.7422  0.1122 -0.2750
 6134SOL    HW130038   0.129   2.991   5.689 -1.5034  1.5078 -1.0817
 6134SOL    HW230039   0.059   2.999   5.561 -1.5728 -0.4484 -0.2675
 6135SOL     OW30040   3.424   3.793  14.256 -0.3140  0.3801 -0.2153
 6135SOL    HW130041   3.484   3.788  14.331  2.1349 -0.5646 -2.2772
 6135SOL    HW230042   3.449   3.712  14.214  2.2885 -0.3786  2.7977
 6136SOL     OW30043   0.505   0.071   1.427 -0.2643 -0.4675  0.0557
 6136SOL    HW130044   0.601   0.075   1.431 -0.3255  0.6617  0.7003
 6136SOL    HW230045   0.487   0.011   1.356  0.2493 -1.9917  1.2213
 6137SOL     OW30046   3.066   2.416   7.149  0.4614  0.1578  0.4612
 6137SOL    HW130047   3.044   2.509   7.151  0.0441  0.0920 -1.5511
 6137SOL    HW230048   2.987   2.368   7.126  1.7364 -0.8800 -1.7541
 6138SOL     OW30049   4.469   1.469  15.719  0.3717  0.3872 -0.0161
 6138SOL    HW130050   4.509   1.406  15.659  1.4610 -0.6625  1.8139
 6138SOL    HW230051   4.527   1.544  15.707  0.8496 -0.1181 -0.8483
 6139SOL     OW30052   0.827   0.352   4.285  0.3258 -0.2955  0.0354
 6139SOL    HW130053   0.776   0.297   4.344 -1.2544  0.4292 -0.6618
 6139SOL    HW230054   0.819   0.442   4.315 -1.1879 -0.4782  0.1703
 6140SOL     OW30055   2.662   0.273   2.714 -0.1867  0.1841  0.0737
 6140SOL    HW130056   2.567   0.268   2.704 -0.0442 -0.2706 -1.0885
 6140SOL    HW230057   2.677   0.188   2.756  2.6661  1.8158  2.3183
 6141SOL     OW30058   0.141   2.080   3.912 -0.0822 -0.3924 -0.3848
 6141SOL    HW130059   0.077   2.081   3.983  0.4493 -1.0496  0.0989
 6141SOL    HW230060   0.195   2.149   3.949  0.7454 -0.0597 -2.1790
 6142SOL     OW30061   1.516   3.441   8.477  0.1011 -0.0801 -0.2570
 6142SOL    HW130062   1.455   3.405   8.413  0.7300  1.4723 -1.7197
 6142SOL    HW230063   1.589   3.462   8.420 -1.1125 -1.4066 -2.2861
 6143SOL     OW30064   0.718   2.655   8.283  0.2490 -0.2983  0.6825
 6143SOL    HW130065   0.779   2.653   8.210  1.1141  0.5693  1.3830
 6143SOL    HW230066   0.768   2.605   8.348  0.2012  1.6089  2.1898
 6144SOL     OW30067   1.776   0.118   6.553  0.4039 -0.4768 -0.2684
 6144SOL    HW130068   1.781   0.077   6.466 -0.9757 -0.8153 -0.1795
 6144SOL    HW230069   1.867   0.108   6.581  0.4824 -1.3861 -0.8350
 6145SOL     OW30070   2.584   3.503  11.597 -0.5034  0.3499 -0.1137
 6145SOL    HW130071   2.660   3.544  11.557  0.2412  0.2642  1.1918
 6145SOL    HW230072   2.603   3.526  11.688 -0.5116 -2.2647  0.5722
 6146SOL     OW30073   4.597   0.886   0.857 -0.1398 -0.6539 -0.0637
 6146SOL    HW130074   4.633   0.828   0.790 -0.7760  1.0174 -1.8511
 6146SOL    HW230075   4.516   0.910   0.813  0.3810  1.4728  0.1403
 6147SOL     OW30076   1.923   0.059   5.966 -0.1981 -0.0217  0.3201
 6147SOL    HW130077   2.017   0.066   5.949 -0.4515  0.6709 -0.8002
 6147SOL    HW230078   1.909   0.136   6.021  2.3917 -0.1754  1.2238
 6148SOL     OW30079   1.210   1.108   7.761  0.3721 -0.1492  0.0357
 6148SOL    HW130080   1.139   1.064   7.807  0.5796  0.7108  1.1650
 6148SOL    HW230081   1.241   1.170   7.827  0.9722 -0.1420 -0.2520
 6149SOL     OW30082   1.493   4.247   8.552  0.0055 -0.8015  0.1852
 6149SOL    HW130083   1.402   4.262   8.528 -0.0207  0.1447  0.8746
 6149SOL    HW230084   1.492   4.155   8.526  1.2895 -0.3512 -1.5093
 6150SOL     OW30085   1.092   4.200   4.935 -0.1651 -0.5700  0.3797
 6150SOL    HW130086   1.030   4.128   4.924  1.0855 -1.2287 -2.6183
 6150SOL    HW230087   1.038   4.279   4.937  1.0899  0.3092 -0.4004
 6151SOL     OW30088   0.465   4.239  13.051 -0.0548 -0.2677  0.6444
 6151SOL    HW130089   0.469   4.148  13.021  1.4488 -0.1359  0.4497
 6151SOL    HW230090   0.370   4.252  13.054 -0.4378 -2.7548 -0.5207
 6152SOL     OW30091   1.334   2.429   2.132  0.3700 -0.0253 -0.4253
 6152SOL    HW130092   1.305   2.519   2.145  0.0628 -0.3017  0.7451
 6152SOL    HW230093   1.308   2.387   2.214  2.2017  0.0251  0.1976
 6153SOL     OW30094   2.146   2.553   2.167 -0.1626  0.5481 -0.7510
 6153SOL    HW130095   2.125   2.497   2.091  0.7381 -2.6565  1.3602
 6153SOL    HW230096   2.239   2.569   2.154 -0.0435  1.7300  1.5635
 6154SOL     OW30097   3.036   2.352  10.430 -0.0965  0.2542 -0.1818
 6154SOL    HW130098   3.069   2.387  10.347  0.2575 -1.5875 -0.8117
 6154SOL    HW230099   3.099   2.383  10.495  1.0644  1.4673 -1.8629
 6155SOL     OW30100   2.968   2.320  16.655  0.0407  1.0551 -0.1688
 6155SOL    HW130101   2.963   2.410  16.684  1.3072  0.6019  1.4310
 6155SOL    HW230102   2.999   2.270  16.731  0.1622 -1.2800 -1.7486
 6156SOL     OW30103   2.128   2.815   8.927 -0.1404  0.2733  0.4113
 6156SOL    HW130104   2.060   2.834   8.862  0.6398 -0.3725 -0.6062
 6156SOL    HW230105   2.207   2.816   8.872 -1.3111  0.6158 -1.2556
 6157SOL     OW30106   2.973   3.879   6.289 -0.1648  0.3036 -0.8614
 6157SOL    HW130107   2.926   3.797   6.272 -0.4317  0.6386 -1.7903
 6157SOL    HW230108   2.968   3.887   6.384  3.9248 -0.5884 -0.5898
 6158SOL     OW30109   4.373   4.430   8.033 -0.3196 -0.9199  0.5894
 6158SOL    HW130110   4.284   4.459   8.054 -0.4561  0.1582 -1.4690
 6158SOL    HW230111   4.394   4.478   7.953  1.2571 -0.7608  1.1032
 6159SOL     OW30112   4.134   0.478   6.556 -0.5822 -0.0303  0.2335
 6159SOL    HW130113   4.175   0.404   6.512  0.0720  0.3638  0.1929
 6159SOL    HW230114   4.040   0.470   6.539 -0.7739  0.2699  1.1429
 6160SOL     OW30115   0.351   2.124   8.786 -0.4631 -0.2508  0.7047
 6160SOL    HW130116   0.363   2.188   8.715 -1.7456  0.2391  0.9222
 6160SOL    HW230117   0.333   2.183   8.860  1.0414  1.0108  0.0756
 6161SOL     OW30118   2.058   2.302   3.036 -0.2217  0.6975 -0.0627
 6161SOL    HW130119   1.983   2.323   3.092 -0.7246 -1.2956 -0.0007
 6161SOL    HW230120   2.076   2.381   2.985 -1.8832 -0.0194 -1.7336
 6162SOL     OW30121   2.492   2.676   7.217 -0.2072 -0.4824 -0.3420
 6162SOL    HW130122   2.494   2.767   7.186  2.3068 -0.1180  0.8776
 6162SOL    HW230123   2.414   2.647   7.169  0.6045 -0.7374 -1.4929
 6163SOL     OW30124   1.166   2.040   2.792 -0.0645 -0.1441  0.4187
 6163SOL    HW130125   1.103   1.994   2.737  0.5165 -0.2064 -0.1866
 6163SOL    HW230126   1.118   2.121   2.809 -0.3489  0.0546 -1.3343
 6164SOL     OW30127   2.265   0.959   6.257 -0.4077 -0.6118  0.1775
 6164SOL    HW130128   2.216   0.947   6.338  0.4922  1.4883  1.0227
 6164SOL    HW230129   2.233   0.887   6.202 -2.4349  0.6661 -0.2818
 6165SOL     OW30130   4.619   1.679   7.642 -0.8009  0.0401 -0.1800
 6165SOL    HW130131   4.584   1.689   7.553  0.6729 -1.2194 -0.8935
 6165SOL    HW230132   4.578   1.755   7.684 -0.5744  0.1721 -0.1980
 6166SOL     OW30133   0.155   3.755   1.607 -0.7012 -0.3204  0.0430
 6166SOL    HW130134   0.081   3.794   1.559 -1.9108 -0.6803  1.6286
 6166SOL    HW230135   0.167   3.677   1.554  0.7637 -0.6242  0.8334
 6167SOL     OW30136   1.451   3.522  13.593 -0.7497  0.8948  0.2024
 6167SOL    HW130137   1.415   3.569  13.518  1.4029 -1.7502 -2.4754
 6167SOL    HW230138   1.503   3.593  13.630  1.7062 -1.5214  1.3894
 6168SOL     OW30139   3.255   1.482   2.697 -0.0436  0.0780  0.0636
 6168SOL    HW130140   3.346   1.512   2.707  0.5124 -1.6617  0.2231
 6168SOL    HW230141   3.247   1.431   2.777  1.4678 -0.4410 -0.1089
 6169SOL     OW30142   2.854   4.172  15.571 -0.0693 -0.0182  0.3656
 6169SOL    HW130143   2.897   4.194  15.489 -1.9090 -0.4798 -0.7390
 6169SOL    HW230144   2.907   4.098  15.601  1.8454  0.7350 -1.1914
 6170SOL     OW30145   2.224   3.126   8.395  0.0477 -0.4549 -0.3637
 6170SOL    HW130146   2.196   3.175   8.472  0.5320  1.0569 -1.1299
 6170SOL    HW230147   2.311   3.164   8.385  0.0512 -0.5237 -0.6075
 6171SOL     OW30148   2.443   2.008   5.909 -0.4476 -0.0337  0.3861
 6171SOL    HW130149   2.510   1.945   5.883 -1.5309 -1.6519  1.4722
 6171SOL    HW230150   2.458   2.002   6.003  0.7658  0.0714  0.1938
 6172SOL     OW30151   2.702   3.821   3.773 -0.2946  0.4148 -0.1533
 6172SOL    HW130152   2.752   3.752   3.728  0.6736  1.6333 -0.9228
 6172SOL    HW230153   2.717   3.791   3.863 -0.7059 -0.6778 -0.4445
 6173SOL     OW30154   3.116   2.830   8.179  0.2061 -0.2321 -0.5686
 6173SOL    HW130155   3.078   2.902   8.129 -0.1312  0.1757  0.2858
 6173SOL    HW230156   3.132   2.871   8.263  0.2751  0.3414 -0.8594
 6174SOL     OW30157   4.119   0.730   3.558  0.4355  0.2803 -0.3406
 6174SOL    HW130158   4.037   0.681   3.561 -0.4232  1.7073 -0.6525
 6174SOL    HW230159   4.117   0.763   3.468  0.3799  1.5080  0.1148
 6175SOL     OW30160   1.486   2.256   2.001 -0.2507 -0.0872 -0.4155
 6175SOL    HW130161   1.428   2.317   2.045 -0.5641  0.3686 -1.4608
 6175SOL    HW230162   1.561   2.313   1.985 -0.3600  0.4341  0.9822
 6176SOL     OW30163   3.658   2.417  16.496  0.2200  0.5348 -0.8740
 6176SOL    HW130164   3.702   2.336  16.469  0.7748  2.1996 -5.0007
 6176SOL    HW230165   3.696   2.428  16.583 -2.1750 -2.0490  0.5020
 6177SOL     OW30166   3.723   4.276   9.463 -0.4561  0.4073  0.2794
 6177SOL    HW130167   3.778   4.289   9.386 -0.2008 -1.8807  0.0721
 6177SOL    HW230168   3.695   4.185   9.453 -2.7942  1.2229 -0.6132
 6178SOL     OW30169   2.177   2.721  13.112  0.7220 -0.0038 -0.3787
 6178SOL    HW130170   2.175   2.784  13.040  0.2628 -1.4120 -1.5950
 6178SOL    HW230171   2.224   2.647  13.074 -1.4089 -1.8954  0.6856
 6179SOL     OW30172   0.788   2.544   5.611 -0.4354 -0.2340 -0.0948
 6179SOL    HW130173   0.805   2.451   5.594 -0.3008 -0.5399  1.6329
 6179SOL    HW230174   0.851   2.550   5.683 -2.7999  0.9448  1.8757
 6180SOL     OW30175   2.118   0.945   7.565  0.0451  0.2238 -0.0791
 6180SOL    HW130176   2.187   0.964   7.629  1.3674 -3.0658 -0.5141
 6180SOL    HW230177   2.174   0.929   7.488  0.7892  2.4321  0.0257
 6181SOL     OW30178   1.175   3.776   4.424  0.4065  0.3959 -0.7508
 6181SOL    HW130179   1.135   3.794   4.339 -0.3874  2.7299  0.1142
 6181SOL    HW230180   1.157   3.682   4.433 -0.9437  0.8055  0.8587
 6182SOL     OW30181   2.972   4.533   2.304  0.3691  0.2204 -0.0726
 6182SOL    HW130182   2.957   4.439   2.311 -1.0257  0.4999  0.5073
 6182SOL    HW230183   2.993   4.542   2.211  0.6335 -0.2880 -0.0596
 6183SOL     OW30184   0.227   1.858   5.530  0.9722  0.1530 -0.2363
 6183SOL    HW130185   0.248   1.796   5.460 -0.7401 -0.7744  0.0604
 6183SOL    HW230186   0.142   1.818   5.549  1.0962 -0.0924 -0.2037
 6184SOL     OW30187   2.186   1.310   2.489 -0.4703  0.1277 -0.3151
 6184SOL    HW130188   2.138   1.245   2.437 -0.6502 -0.7021  0.8911
 6184SOL    HW230189   2.212   1.377   2.427 -0.0771  2.2729  2.1999
 6185SOL     OW30190   3.767   4.538   2.003 -0.3442 -0.9358  0.2508
 6185SOL    HW130191   3.728   4.611   1.954 -1.0096 -1.3213  0.2049
 6185SOL    HW230192   3.853   4.574   2.026  0.1055 -1.1625 -1.0682
 6186SOL     OW30193   1.028   0.760  11.566  0.4416  0.5682  0.1451
 6186SOL    HW130194   1.116   0.770  11.529 -0.0907  1.1904 -0.9183
 6186SOL    HW230195   0.977   0.798  11.495 -0.4638 -1.9649 -0.5722
 6187SOL     OW30196   0.491   3.068  14.177 -0.2294  0.1001 -0.0938
 6187SOL    HW130197   0.490   2.973  14.168  0.8076 -0.2013  2.6763
 6187SOL    HW230198   0.485   3.073  14.273  2.5534 -0.8010  0.1430
 6188SOL     OW30199   3.262   1.103   6.723  0.2458 -0.1380  0.4129
 6188SOL    HW130200   3.358   1.110   6.723  0.2963 -0.8573 -0.7912
 6188SOL    HW230201   3.259   1.075   6.815 -2.1757  0.4710  0.5162
 6189SOL     OW30202   4.517   3.256   5.162  0.0873  0.2321  0.9247
 6189SOL    HW130203   4.545   3.347   5.164 -0.8051  0.5328 -0.3185
 6189SOL    HW230204   4.598   3.213   5.135 -1.7939 -1.8024 -1.5029
 6190SOL     OW30205   2.393   1.478   2.919  0.1642  0.2798  0.0528
 6190SOL    HW130206   2.408   1.572   2.917  1.3888  0.0530 -0.7750
 6190SOL    HW230207   2.399   1.452   3.011 -1.9899 -0.2595  0.0351
 6191SOL     OW30208   1.976   4.140   7.992 -0.2030 -0.6259  0.2749
 6191SOL    HW130209   1.922   4.062   8.004  1.5850 -1.5795  2.2377
 6191SOL    HW230210   1.940   4.163   7.906  0.7730 -1.0320 -0.2491
 6192SOL     OW30211   0.567   0.367  11.034  0.0627  0.3071  0.4823
 6192SOL    HW130212   0.590   0.459  11.039 -1.6032  0.7484  0.0636
 6192SOL    HW230213   0.654   0.326  11.031  0.2541  0.6951  0.8114
 6193SOL     OW30214   2.655   1.353   9.664  0.5343  0.0291 -0.3041
 6193SOL    HW130215   2.577   1.316   9.707  1.7261 -0.7838  1.1658
 6193SOL    HW230216   2.719   1.322   9.728 -0.3386 -2.4076 -0.6222
 6194SOL     OW30217   3.240   2.131   4.494 -0.0946  0.7143 -0.9975
 6194SOL    HW130218   3.282   2.193   4.434  0.3321  0.5238 -0.9016
 6194SOL    HW230219   3.150   2.137   4.463 -0.9648  1.8226  1.7077
 6195SOL     OW30220   2.698   1.292   5.415  0.4521 -0.0451 -0.5811
 6195SOL    HW130221   2.666   1.202   5.407  0.0382  0.0989 -0.5428
 6195SOL    HW230222   2.697   1.305   5.509 -0.0391  0.5158 -0.6598
 6196SOL     OW30223   4.387   1.771   3.715  0.2558 -0.5217 -1.3021
 6196SOL    HW130224   4.473   1.732   3.726 -0.1084 -0.9893 -0.0985
 6196SOL    HW230225   4.337   1.712   3.772  1.0827  0.8263  0.8350
 6197SOL     OW30226   0.573   3.439   2.505  0.3697  0.1218 -0.3082
 6197SOL    HW130227   0.604   3.512   2.558  0.8794 -1.3005  1.3867
 6197SOL    HW230228   0.654   3.392   2.485  0.0952  0.6447 -2.6295
 6198SOL     OW30229   3.130   0.799   5.894 -0.1612  0.1351  0.5402
 6198SOL    HW130230   3.204   0.799   5.833 -1.3296 -0.6540 -0.8611
 6198SOL    HW230231   3.106   0.709   5.873  0.3316  0.1159  0.0502
 6199SOL     OW30232   2.753   0.478   8.090  0.7417  0.2065 -0.1134
 6199SOL    HW130233   2.793   0.549   8.040  1.4442  0.0970  0.2936
 6199SOL    HW230234   2.665   0.516   8.086  0.9849  1.0716  3.5445
 6200SOL     OW30235   2.868   2.585   8.527  0.0397  0.5009  0.3881
 6200SOL    HW130236   2.858   2.491   8.518  0.7538  0.7149 -2.6701
 6200SOL    HW230237   2.930   2.593   8.455 -1.6193 -0.5421 -1.1640
 6201SOL     OW30238   0.905   1.167  10.486 -0.0213  0.1111  0.1992
 6201SOL    HW130239   0.865   1.109  10.422 -0.0046  1.0804 -0.6906
 6201SOL    HW230240   0.827   1.195  10.534  0.2152 -0.6675  1.0379
 6202SOL     OW30241   0.245   0.239  11.776 -0.0636 -0.1596 -0.1413
 6202SOL    HW130242   0.219   0.246  11.868  0.3243  3.0180 -0.2822
 6202SOL    HW230243   0.337   0.265  11.776 -0.4563  1.1966 -0.1882
 6203SOL     OW30244   0.834   2.388   8.384  0.1948 -0.2396 -0.0009
 6203SOL    HW130245   0.866   2.355   8.467  3.4070  0.9275 -0.7818
 6203SOL    HW230246   0.739   2.381   8.399 -0.0532  1.3389 -0.7864
 6204SOL     OW30247   0.718   4.586   6.622 -0.8565 -0.2853  0.1835
 6204SOL    HW130248   0.722   4.565   6.715 -0.0334 -1.7812 -0.1891
 6204SOL    HW230249   0.695   4.679   6.623  2.1333  0.4157  2.5564
 6205SOL     OW30250   2.877   1.611  10.862 -0.1606 -0.0828 -0.0806
 6205SOL    HW130251   2.929   1.531  10.856  0.3177  0.1239  1.2106
 6205SOL    HW230252   2.828   1.598  10.943  0.1967  1.0933  0.3284
 6206SOL     OW30253   4.607   3.687   6.225  0.1659  0.0672  0.2510
 6206SOL    HW130254   4.664   3.619   6.261  1.3643 -0.0713 -1.9269
 6206SOL    HW230255   4.609   3.760   6.288 -0.8239 -0.0991  0.4663
 6207SOL     OW30256   2.019   3.075   7.665 -0.1797 -0.1626  0.1309
 6207SOL    HW130257   2.033   3.089   7.571 -1.0325  0.3821  0.0837
 6207SOL    HW230258   1.949   3.010   7.657 -0.7296  0.3383  0.9370
 6208SOL     OW30259   3.300   2.989  14.184 -0.6854 -0.0403 -0.1026
 6208SOL    HW130260   3.266   2.928  14.118  1.0045  0.5185 -1.4728
 6208SOL    HW230261   3.270   3.073  14.148  0.5960  0.8987  1.0272
 6209SOL     OW30262   3.973   2.926  15.089  0.6057  0.3752  0.4803
 6209SOL    HW130263   3.999   3.014  15.115 -0.7768  1.1104 -0.6520
 6209SOL    HW230264   3.995   2.879  15.169  0.5660  1.1284  0.9301
 6210SOL     OW30265   3.349   0.413   3.666  0.1431 -0.0216  0.4340
 6210SOL    HW130266   3.274   0.471   3.650 -1.7089 -2.8289 -1.1448
 6210SOL    HW230267   3.331   0.359   3.589 -0.2701  1.2097 -0.3350
 6211SOL     OW30268   1.990   3.920   3.804  0.4391 -0.3775  0.6488
 6211SOL    HW130269   2.037   3.859   3.861 -3.4013 -2.7187  1.3592
 6211SOL    HW230270   1.980   3.866   3.725  2.0770 -0.9117  0.7954
 6212SOL     OW30271   4.437   2.639   7.502 -0.3569  0.0378 -0.4287
 6212SOL    HW130272   4.506   2.673   7.559 -1.4327  1.2400  0.1701
 6212SOL    HW230273   4.486   2.606   7.427 -0.4736 -1.9544  0.3633
 6213SOL     OW30274   2.009   0.134   0.108 -0.0617  0.3616  0.2337
 6213SOL    HW130275   2.067   0.124   0.032  0.6253 -0.9468  0.9337
 6213SOL    HW230276   2.015   0.049   0.152  1.9517  0.9528  1.1095
 6214SOL     OW30277   4.320   3.528  12.295 -0.6176 -1.1821  0.2345
 6214SOL    HW130278   4.270   3.588  12.350 -0.3741  0.3704 -1.2201
 6214SOL    HW230279   4.253   3.483  12.243  1.1598 -0.2473 -2.9326
 6215SOL     OW30280   4.022   3.649   5.970  0.0861 -0.2435 -0.4391
 6215SOL    HW130281   4.076   3.578   6.004  1.0029  0.6421 -0.0262
 6215SOL    HW230282   3.970   3.691   6.039 -0.5157  0.5604 -1.3636
 6216SOL     OW30283   3.763   1.684   4.095 -0.1918  0.4468 -0.0486
 6216SOL    HW130284   3.752   1.623   4.168 -3.0648  1.0128 -0.0224
 6216SOL    HW230285   3.816   1.751   4.139  0.9270 -1.5976  1.6909
 6217SOL     OW30286   0.903   1.692   2.420  0.1784 -0.4795  0.1442
 6217SOL    HW130287   0.913   1.634   2.344 -0.7342 -0.2906 -0.1105
 6217SOL    HW230288   0.832   1.745   2.386 -0.2525 -0.1972  1.5016
 6218SOL     OW30289   3.770   2.778   4.613  0.2538 -0.2064 -0.3230
 6218SOL    HW130290   3.810   2.864   4.612 -0.8671  0.3251  0.3894
 6218SOL    HW230291   3.834   2.720   4.571  0.4328 -0.5505  0.4276
 6219SOL     OW30292   2.617   2.850  12.498  0.0163  0.3340  0.1640
 6219SOL    HW130293   2.585   2.939  12.512 -0.8245 -0.4014  2.8125
 6219SOL    HW230294   2.627   2.819  12.588  1.6816 -1.1087 -0.5096
 6220SOL     OW30295   4.555   1.884   4.880  0.0123 -0.2348  0.1007
 6220SOL    HW130296   4.634   1.938   4.883  0.7509 -1.3113  0.1836
 6220SOL    HW230297   4.488   1.950   4.864 -0.5270 -0.9612 -0.6342
 6221SOL     OW30298   3.953   2.423   4.173  0.5968 -0.1993 -0.3116
 6221SOL    HW130299   4.001   2.340   4.183  0.5773 -0.3883 -1.7986
 6221SOL    HW230300   3.999   2.452   4.094  0.0331 -1.1846 -0.9988
 6222SOL     OW30301   4.703   2.163  13.991  0.5390 -0.1551 -0.0024
 6222SOL    HW130302   4.724   2.182  13.900  0.3903  1.7722  0.3600
 6222SOL    HW230303   4.725   2.247  14.032 -1.1801 -0.3967  1.4086
 6223SOL     OW30304   0.978   2.030   7.312  0.3187  0.2809  0.0163
 6223SOL    HW130305   1.033   2.094   7.357  1.9779 -0.8097 -0.4428
 6223SOL    HW230306   0.892   2.067   7.331  0.5368  0.9824 -0.3633
 6224SOL     OW30307   2.300   1.323   4.738 -0.1393  0.5468 -0.0301
 6224SOL    HW130308   2.382   1.308   4.785 -0.3058 -1.2743 -0.2963
 6224SOL    HW230309   2.336   1.355   4.656  0.6427  0.6375  0.3461
 6225SOL     OW30310   2.127   4.723   9.937 -1.2335 -0.2945  0.4196
 6225SOL    HW130311   2.136   0.082   9.950  0.6712 -0.4821  0.4658
 6225SOL    HW230312   2.099   4.718   9.846  3.5402  0.2719 -1.0929
 6226SOL     OW30313   0.851   0.628   3.642 -0.4077  0.2265 -0.3467
 6226SOL    HW130314   0.913   0.673   3.698  0.9197 -2.5207  0.3763
 6226SOL    HW230315   0.872   0.535   3.651  0.4912  0.3328 -1.4170
 6227SOL     OW30316   2.420   3.005   3.761  0.3083  0.2954 -0.0631
 6227SOL    HW130317   2.388   3.088   3.796 -1.5870 -0.5256  0.1947
 6227SOL    HW230318   2.402   2.947   3.835 -2.0000  0.2800 -0.6248
 6228SOL     OW30319   1.379   2.062   0.908  0.1093 -0.1389 -0.3958
 6228SOL    HW130320   1.439   2.137   0.915 -0.0528 -0.0893  0.4557
 6228SOL    HW230321   1.340   2.075   0.821  0.1312  0.8120 -0.2655
 6229SOL     OW30322   4.654   4.519   2.067 -0.2414 -0.0558  0.6597
 6229SOL    HW130323   4.707   4.568   2.130 -1.3475 -1.3884  2.6333
 6229SOL    HW230324   4.685   4.430   2.084 -2.8130 -1.1033 -0.1885
 6230SOL     OW30325   1.761   2.445   4.835 -0.2247  0.0617  0.1958
 6230SOL    HW130326   1.807   2.528   4.848 -1.1333  0.5615  0.2344
 6230SOL    HW230327   1.686   2.458   4.893  0.5179  1.0471  0.9368
 6231SOL     OW30328   0.141   4.264   7.701 -0.0228 -0.2109  0.0021
 6231SOL    HW130329   0.058   4.305   7.675 -0.6189  0.1476  2.4474
 6231SOL    HW230330   0.180   4.308   7.776 -1.4872 -1.5580  1.5449
 6232SOL     OW30331   3.231   1.727  13.662  0.1124 -0.5405  0.6970
 6232SOL    HW130332   3.230   1.820  13.684 -1.7259 -0.0961 -1.2572
 6232SOL    HW230333   3.163   1.721  13.595  0.9641  0.5005 -0.2572
 6233SOL     OW30334   1.494   4.654  10.919 -0.2567 -0.2276 -0.2807
 6233SOL    HW130335   1.565   4.715  10.899 -1.0473  1.1417  1.0497
 6233SOL    HW230336   1.428   4.679  10.854  0.0120 -0.1040 -0.5034
 6234SOL     OW30337   0.818   2.952   4.571 -0.3863 -0.0186 -0.1749
 6234SOL    HW130338   0.858   2.885   4.516 -1.6267 -2.2862  1.6859
 6234SOL    HW230339   0.726   2.962   4.546 -0.5169 -0.8507 -0.0164
 6235SOL     OW30340   1.144   1.902  15.640 -0.1141  0.2049 -0.1839
 6235SOL    HW130341   1.229   1.930  15.674 -0.7249 -0.5717  1.9841
 6235SOL    HW230342   1.080   1.953  15.689  0.6130  1.8393 -0.9237
 6236SOL     OW30343   0.044   4.096   5.025  0.1858  0.1204 -0.6045
 6236SOL    HW130344   0.061   4.183   5.061  0.5449  0.2116 -0.9960
 6236SOL    HW230345   4.685   4.089   5.033  0.2895 -0.9017 -0.1974
 6237SOL     OW30346   4.364   3.783   0.527 -0.0545 -0.0731  0.1168
 6237SOL    HW130347   4.407   3.789   0.612 -0.5991  0.3728  0.3681
 6237SOL    HW230348   4.299   3.714   0.540  0.3816 -0.1945  1.6209
 6238SOL     OW30349   4.184   1.959   1.295  0.3403 -1.2089  0.4136
 6238SOL    HW130350   4.247   1.898   1.256 -1.5268 -1.0569 -2.8756
 6238SOL    HW230351   4.127   1.893   1.335 -1.9846  1.7246  1.8786
 6239SOL     OW30352   1.508   0.137  15.964  0.0472 -0.0419  0.8608
 6239SOL    HW130353   1.504   0.232  15.970  0.9549  0.1293 -1.0455
 6239SOL    HW230354   1.573   0.129  15.894  0.0528  2.8297  0.5636
 6240SOL     OW30355   3.264   4.255  14.005 -0.1684  0.1362 -0.2044
 6240SOL    HW130356   3.296   4.229  14.092  1.7951 -2.4141 -1.6787
 6240SOL    HW230357   3.224   4.339  14.027  1.0236  0.9141 -0.9903
 6241SOL     OW30358   4.696   3.144   5.511 -0.4089  0.1858  0.4935
 6241SOL    HW130359   4.687   3.236   5.536 -1.0659  0.1914  0.2491
 6241SOL    HW230360   0.043   3.151   5.463 -0.7737 -1.1963 -0.3324
 6242SOL     OW30361   3.602   4.087  15.420 -0.6020 -0.0183 -0.6643
 6242SOL    HW130362   3.683   4.102  15.371 -0.5694  0.1066 -0.5739
 6242SOL    HW230363   3.631   4.108  15.509  0.4046 -0.7564 -0.8178
 6243SOL     OW30364   0.406   4.029   5.758 -0.1334 -0.0294 -0.0366
 6243SOL    HW130365   0.400   3.934   5.750  1.1598 -0.1402  0.2955
 6243SOL    HW230366   0.490   4.046   5.801  0.7302  0.1698 -1.8043
 6244SOL     OW30367   0.320   2.932  11.171 -0.4154  0.7611 -0.1541
 6244SOL    HW130368   0.264   2.923  11.093 -1.6010  3.4276  0.4060
 6244SOL    HW230369   0.357   3.020  11.168  1.3111  0.0827  1.5622
 6245SOL     OW30370   3.430   0.260  11.511  0.5776 -0.3741  0.0527
 6245SOL    HW130371   3.379   0.179  11.504  0.1159 -0.0368 -0.5711
 6245SOL    HW230372   3.500   0.240  11.573  2.3834  1.7463 -1.2984
 6246SOL     OW30373   1.686   3.275   6.548  0.3677  0.3409 -0.1155
 6246SOL    HW130374   1.760   3.327   6.577  1.4097 -1.6293  0.7629
 6246SOL    HW230375   1.628   3.341   6.510  0.2808  0.6971  0.6319
 6247SOL     OW30376   4.254   2.264   4.261 -0.4610 -0.2474 -0.1726
 6247SOL    HW130377   4.297   2.218   4.189  2.7001  0.7895  1.0298
 6247SOL    HW230378   4.303   2.212   4.325 -0.1266 -1.4083 -1.3618
 6248SOL     OW30379   3.301   2.721   2.320  0.1182  0.0243 -0.1378
 6248SOL    HW130380   3.266   2.653   2.263 -1.1627  0.5421  0.0442
 6248SOL    HW230381   3.393   2.693   2.322  0.0540 -0.3759 -2.7991
 6249SOL     OW30382   3.336   2.383   9.165 -0.2313 -0.3833  0.5315
 6249SOL    HW130383   3.376   2.338   9.239  3.3295 -1.0255 -1.8073
 6249SOL    HW230384   3.412   2.369   9.109 -1.0870 -1.5970 -0.3426
 6250SOL     OW30385   0.745   0.637   4.388 -0.1142 -0.0240  0.3846
 6250SOL    HW130386   0.777   0.725   4.372  1.5554 -0.7870 -0.4961
 6250SOL    HW230387   0.655   0.654   4.413  0.3829  0.7188  1.6906
 6251SOL     OW30388   3.315   3.947  13.584  0.3042 -0.2495  0.2480
 6251SOL    HW130389   3.225   3.913  13.591 -0.2364  1.4092  1.2709
 6251SOL    HW230390   3.361   3.886  13.641  1.3683  0.9623  0.6812
 6252SOL     OW30391   4.518   3.929   7.147 -0.2737  0.2043 -0.6900
 6252SOL    HW130392   4.475   3.861   7.199 -0.2223  0.4460 -0.3278
 6252SOL    HW230393   4.533   3.989   7.220  2.0235 -1.7054  0.4347
 6253SOL     OW30394   3.309   1.835  13.030 -0.2605 -0.1341  0.3679
 6253SOL    HW130395   3.285   1.924  13.054  1.0092  0.3898 -0.3232
 6253SOL    HW230396   3.282   1.786  13.108  1.6793 -1.4479  0.2104
 6254SOL     OW30397   2.563   2.743   6.921  0.0456 -0.3091  0.2092
 6254SOL    HW130398   2.620   2.685   6.972 -1.4277  1.2658  3.6581
 6254SOL    HW230399   2.558   2.825   6.969 -0.3558  0.6374 -1.4472
 6255SOL     OW30400   0.313   3.382   1.818 -0.4686 -0.5607 -0.0959
 6255SOL    HW130401   0.325   3.472   1.850  0.7298 -0.7675  0.0568
 6255SOL    HW230402   0.369   3.371   1.741  1.0612  0.6292  0.8473
 6256SOL     OW30403   4.251   2.957   0.899  0.3217  0.0942  0.4455
 6256SOL    HW130404   4.315   2.936   0.967 -2.1283 -2.0586  2.0908
 6256SOL    HW230405   4.212   3.038   0.931  0.5857  0.0287  0.9483
 6257SOL     OW30406   3.296   1.461   3.454 -0.5093 -0.3112  0.0128
 6257SOL    HW130407   3.349   1.522   3.506  0.8299 -1.6524  0.2341
 6257SOL    HW230408   3.251   1.529   3.405 -2.0356  0.1900  2.1159
 6258SOL     OW30409   3.861   4.713  12.748 -0.7340  0.5371  0.5001
 6258SOL    HW130410   3.840   0.062  12.709  1.5630  1.2772  0.8821
 6258SOL    HW230411   3.785   4.691  12.802  1.3223 -2.5403  2.1593
 6259SOL     OW30412   2.270   0.933   8.776  0.0255  0.0567 -0.2852
 6259SOL    HW130413   2.265   0.898   8.688 -0.6145 -1.4480  0.3617
 6259SOL    HW230414   2.353   0.981   8.767  0.1172  0.2610  1.4871
 6260SOL     OW30415   3.032   4.264   9.553 -0.0927 -0.2536  0.0257
 6260SOL    HW130416   3.091   4.198   9.517  1.0937  0.2775  0.9592
 6260SOL    HW230417   3.097   4.328   9.582  0.7742 -0.9805 -0.3041
 6261SOL     OW30418   3.264   2.948   2.753  0.2941 -0.3329 -0.1849
 6261SOL    HW130419   3.299   2.869   2.712  1.7440 -0.1001  0.6059
 6261SOL    HW230420   3.325   2.967   2.824 -0.5901 -0.5764  0.6538
 6262SOL     OW30421   1.028   0.536   7.924  0.1262  0.0791  0.0485
 6262SOL    HW130422   0.968   0.483   7.871  0.0744 -0.2955  0.4810
 6262SOL    HW230423   1.034   0.617   7.873  1.3430 -0.2109 -0.2596
 6263SOL     OW30424   2.003   1.672   1.712  0.1381 -0.1131 -0.2038
 6263SOL    HW130425   2.084   1.632   1.682  0.2419 -0.8591  1.0757
 6263SOL    HW230426   1.945   1.605   1.674 -0.5256  0.0848  0.4488
 6264SOL     OW30427   2.742   0.079  16.498  0.4769 -0.3007 -0.2651
 6264SOL    HW130428   2.775   0.123  16.420 -0.9740  3.2290  1.1226
 6264SOL    HW230429   2.823   0.036  16.523  0.4513 -0.8824 -1.1970
 6265SOL     OW30430   2.019   1.036   5.138 -0.0808  0.2555  0.4437
 6265SOL    HW130431   2.091   1.019   5.078  0.0454  2.6051 -0.0841
 6265SOL    HW230432   2.048   1.110   5.191 -0.5107  0.9176 -0.2281
 6266SOL     OW30433   3.917   2.687   7.994 -0.1045 -0.2482  0.5422
 6266SOL    HW130434   3.857   2.759   8.015  0.3753 -0.4116  2.5385
 6266SOL    HW230435   3.997   2.713   8.040  0.5716  1.3813 -1.5750
 6267SOL     OW30436   3.431   2.814   7.979  0.0043 -0.0962  0.2692
 6267SOL    HW130437   3.367   2.876   7.944  0.4612  1.9168  2.9473
 6267SOL    HW230438   3.391   2.740   7.935 -0.0292  0.4332 -0.5815
 6268SOL     OW30439   2.997   1.438   4.123  0.0899 -0.1614  0.1686
 6268SOL    HW130440   3.090   1.445   4.145  0.5271 -1.9397 -1.1750
 6268SOL    HW230441   2.982   1.488   4.043  0.0323  0.7292  0.7291
 6269SOL     OW30442   3.555   4.081  12.259 -0.3113  0.3254 -0.2684
 6269SOL    HW130443   3.490   4.124  12.314 -0.2402 -1.2896  1.0861
 6269SOL    HW230444   3.626   4.060  12.320 -0.8510 -1.6696 -0.3440
 6270SOL     OW30445   2.225   0.407   6.671 -0.4525  0.2106 -0.2200
 6270SOL    HW130446   2.206   0.446   6.586 -0.8355  2.1498  0.7559
 6270SOL    HW230447   2.316   0.385   6.650 -0.6449  1.2141 -2.0984
 6271SOL     OW30448   2.125   1.479   7.182  0.3648  0.4972 -0.0442
 6271SOL    HW130449   2.136   1.384   7.187 -1.5612  0.2123 -0.9474
 6271SOL    HW230450   2.218   1.499   7.189  0.1551  1.7219 -0.7009
 6272SOL     OW30451   1.967   1.631   0.227  0.0832 -0.0047  0.4254
 6272SOL    HW130452   1.926   1.579   0.296 -0.9597  1.5256  0.9488
 6272SOL    HW230453   2.036   1.574   0.194  0.9302  0.9211  0.6095
 6273SOL     OW30454   3.445   3.545  17.303 -0.4198 -0.9171 -0.1579
 6273SOL    HW130455   3.366   3.567  17.352 -0.7722 -1.8703 -0.2994
 6273SOL    HW230456   3.410   3.493  17.230  0.2322  0.6456 -1.5952
 6274SOL     OW30457   2.807   1.401   4.996  0.2772 -0.3127 -0.2893
 6274SOL    HW130458   2.866   1.404   4.920  1.0627 -1.7547  0.2528
 6274SOL    HW230459   2.872   1.379   5.064 -1.8072 -1.6592  1.2638
 6275SOL     OW30460   1.800   4.072   8.855 -0.1705  0.4478  0.3729
 6275SOL    HW130461   1.755   4.105   8.778 -0.8106  0.7190  0.8610
 6275SOL    HW230462   1.760   4.115   8.931  1.0790  2.2285  0.0223
 6276SOL     OW30463   1.068   0.980   5.659 -0.1455  0.4520  0.2573
 6276SOL    HW130464   1.004   1.045   5.630 -0.0867 -0.0113 -0.9275
 6276SOL    HW230465   1.015   0.913   5.701  0.4056  0.4390  0.9282
 6277SOL     OW30466   2.667   3.400   8.315  0.2786 -0.3691  0.2471
 6277SOL    HW130467   2.742   3.452   8.285  0.0717  0.3711  1.0008
 6277SOL    HW230468   2.647   3.341   8.243 -0.4240  0.9441 -0.6304
 6278SOL     OW30469   2.722   3.555   1.592  0.0680  0.3043  0.3631
 6278SOL    HW130470   2.641   3.564   1.544 -0.2159  1.7117  1.1097
 6278SOL    HW230471   2.745   3.468   1.558  0.2589 -0.5668  2.6627
 6279SOL     OW30472   1.821   0.456   4.355 -0.2494 -0.2664  0.0274
 6279SOL    HW130473   1.805   0.424   4.266  3.5197 -2.1436  0.0107
 6279SOL    HW230474   1.912   0.485   4.355 -1.4822  3.6100  1.3349
 6280SOL     OW30475   1.296   4.205   0.521 -0.7003 -0.1041 -0.0483
 6280SOL    HW130476   1.302   4.137   0.454 -1.5159 -0.0811 -0.1423
 6280SOL    HW230477   1.385   4.197   0.556 -1.9542 -0.6868  3.0083
 6281SOL     OW30478   4.171   1.566   9.519  0.3625 -0.2163 -0.5336
 6281SOL    HW130479   4.169   1.561   9.615  0.3427  0.5759 -0.4999
 6281SOL    HW230480   4.212   1.484   9.490  0.5450  0.0803 -1.1139
 6282SOL     OW30481   4.496   4.441   3.869 -0.7392  0.0025  0.0561
 6282SOL    HW130482   4.414   4.407   3.835 -1.2808  0.2118  1.1575
 6282SOL    HW230483   4.556   4.403   3.804  0.2474  1.9601 -0.1647
 6283SOL     OW30484   1.159   4.537   5.946  0.1262  0.2593 -0.1108
 6283SOL    HW130485   1.151   4.564   5.855 -0.6837  1.6202  0.3506
 6283SOL    HW230486   1.087   4.474   5.954 -0.4207  1.2135  2.8641
 6284SOL     OW30487   4.363   3.811   3.154  0.1463 -0.2469 -0.8511
 6284SOL    HW130488   4.342   3.820   3.061 -0.2015 -0.2840 -0.7752
 6284SOL    HW230489   4.295   3.857   3.202 -0.6292 -1.6701 -0.5844
 6285SOL     OW30490   1.401   3.313   4.141 -0.0450  0.3064 -0.3735
 6285SOL    HW130491   1.360   3.375   4.081 -0.8916 -1.1061 -1.2463
 6285SOL    HW230492   1.377   3.228   4.104  0.5995  0.8957 -2.1625
 6286SOL     OW30493   0.861   0.405  17.428  0.0118 -0.0045  0.2845
 6286SOL    HW130494   0.775   0.445  17.442  0.4929  1.0017  0.3134
 6286SOL    HW230495   0.842   0.353  17.350  1.4240  2.0767 -1.4358
 6287SOL     OW30496   4.359   1.721   7.134  0.6766 -0.3371 -0.4257
 6287SOL    HW130497   4.310   1.659   7.188 -1.3709  0.8736 -0.8967
 6287SOL    HW230498   4.414   1.760   7.202 -1.7534  1.7437  0.3218
 6288SOL     OW30499   3.586   0.582   8.540  0.0684 -0.7154 -0.4030
 6288SOL    HW130500   3.647   0.615   8.606 -2.1147  0.9146  0.7818
 6288SOL    HW230501   3.656   0.557   8.480  1.6390 -1.3023  1.6608
 6289SOL     OW30502   3.942   2.107   4.248  0.2678  0.5226  0.6612
 6289SOL    HW130503   3.909   2.089   4.160 -1.7966 -1.9018  1.9512
 6289SOL    HW230504   3.961   2.015   4.267 -0.4865  0.4534  1.0506
 6290SOL     OW30505   2.774   0.015  13.125  0.0518  0.2551 -0.2617
 6290SOL    HW130506   2.783   0.066  13.205  2.0943 -2.0675  1.0010
 6290SOL    HW230507   2.841   4.682  13.128  0.4877  0.6441 -0.8967
 6291SOL     OW30508   1.735   2.862   5.974 -0.4436 -0.3377  0.1790
 6291SOL    HW130509   1.739   2.936   5.913  0.2364  1.1890  2.0820
 6291SOL    HW230510   1.648   2.872   6.013 -0.7982  0.2105 -0.7701
 6292SOL     OW30511   0.839   2.692   2.607  0.3853 -0.3804 -0.6422
 6292SOL    HW130512   0.884   2.776   2.600 -0.4995  0.1886  0.4414
 6292SOL    HW230513   0.747   2.717   2.615 -0.0800 -3.4864  3.4280
 6293SOL     OW30514   0.077   0.004   4.204  0.0021  0.4499  0.2031
 6293SOL    HW130515   0.037   4.665   4.159  1.2734  0.5158 -1.0162
 6293SOL    HW230516   0.034   4.733   4.290  0.2553 -0.9410  0.2150
 6294SOL     OW30517   1.638   4.427   2.936  0.4738  0.0596  0.3207
 6294SOL    HW130518   1.590   4.422   3.019  1.2309 -1.1373  0.6936
 6294SOL    HW230519   1.561   4.425   2.879  1.2921  1.3954 -0.8288
 6295SOL     OW30520   2.628   2.612  17.029  0.1025 -0.3371  0.2340
 6295SOL    HW130521   2.686   2.538  17.049 -0.7281 -1.6548 -2.2146
 6295SOL    HW230522   2.561   2.562  16.983 -1.7720  2.8452 -0.4764
 6296SOL     OW30523   1.795   4.402   4.583  0.2066  0.3949  0.6101
 6296SOL    HW130524   1.746   4.354   4.650 -2.4782  4.1478  1.2835
 6296SOL    HW230525   1.851   4.464   4.630  1.0174  0.7531 -0.8481
 6297SOL     OW30526   1.959   4.490   8.899  0.6519  0.0204  0.0614
 6297SOL    HW130527   1.992   4.426   8.962  0.6844 -1.7898 -1.8147
 6297SOL    HW230528   1.967   4.572   8.949  0.4428 -1.1606  2.0122
 6298SOL     OW30529   1.701   0.572  12.884  0.1269 -0.4478  0.5248
 6298SOL    HW130530   1.634   0.506  12.872 -0.8664  0.9841 -1.8247
 6298SOL    HW230531   1.773   0.555  12.823 -1.2407 -0.9860 -0.9327
 6299SOL     OW30532   0.722   3.152  16.160  0.4125 -0.1422  0.1847
 6299SOL    HW130533   0.790   3.174  16.223  1.6906  1.3734 -1.7144
 6299SOL    HW230534   0.765   3.078  16.117 -0.2039  0.9214 -2.3060
 6300SOL     OW30535   2.736   2.762   4.932  0.3967  0.5486  0.1584
 6300SOL    HW130536   2.743   2.830   4.999 -0.3104  1.5367 -0.7709
 6300SOL    HW230537   2.804   2.788   4.870  0.4361 -1.5256 -0.6829
 6301SOL     OW30538   3.889   2.508   6.412  0.1872 -0.3633 -0.0104
 6301SOL    HW130539   3.976   2.469   6.424  0.3947  0.2334  0.4213
 6301SOL    HW230540   3.904   2.546   6.326  0.0425 -0.5281 -0.1068
 6302SOL     OW30541   4.530   2.082   7.455 -0.2180  0.4625 -0.6054
 6302SOL    HW130542   4.595   2.075   7.386  2.0532 -0.0569  1.5866
 6302SOL    HW230543   4.589   2.075   7.530 -1.2347  0.0276  0.1569
 6303SOL     OW30544   0.986   2.307   6.037  0.3761 -0.4149 -0.2533
 6303SOL    HW130545   1.038   2.317   5.957 -0.8336 -0.6720 -1.0709
 6303SOL    HW230546   1.047   2.281   6.106  1.5759  0.2591 -1.0548
 6304SOL     OW30547   1.293   2.218  12.306  0.0689  0.4606 -0.1920
 6304SOL    HW130548   1.346   2.295  12.328 -0.0085  0.9647 -1.7829
 6304SOL    HW230549   1.337   2.186  12.227 -0.1697 -1.2030  0.3460
 6305SOL     OW30550   2.846   2.625   9.942  0.1218  0.5516  0.4144
 6305SOL    HW130551   2.924   2.612   9.997  1.8818  1.0892 -1.9311
 6305SOL    HW230552   2.776   2.633  10.007  0.0759 -1.8644  0.6586
 6306SOL     OW30553   1.685   1.965  10.206 -0.0967  0.4164 -0.0768
 6306SOL    HW130554   1.704   2.056  10.185  0.0198  0.8652  1.9366
 6306SOL    HW230555   1.601   1.976  10.250  0.3079  0.6081  0.6522
 6307SOL     OW30556   3.601   1.891   6.656  0.2924  0.1322 -0.4703
 6307SOL    HW130557   3.655   1.854   6.586 -0.0840  0.1321 -0.7554
 6307SOL    HW230558   3.617   1.825   6.724 -0.0960 -0.9268 -1.3986
 6308SOL     OW30559   4.419   1.682   2.183 -0.2965  0.0681 -0.2760
 6308SOL    HW130560   4.514   1.694   2.191 -0.5925  0.4956  2.6106
 6308SOL    HW230561   4.401   1.665   2.091 -1.5349 -1.7592  0.3251
 6309SOL     OW30562   3.231   4.274   5.906 -0.2859 -0.0558 -0.9833
 6309SOL    HW130563   3.312   4.291   5.857 -0.0637  0.8756 -0.3055
 6309SOL    HW230564   3.277   4.230   5.978  0.2250  1.2329 -0.5140
 6310SOL     OW30565   3.778   2.869   6.593 -0.0258 -0.3921  0.3162
 6310SOL    HW130566   3.723   2.836   6.522 -1.8746 -0.9203  1.9734
 6310SOL    HW230567   3.796   2.783   6.632  1.3182 -0.2741 -0.0526
 6311SOL     OW30568   0.072   1.955   8.200  0.3914 -0.3181 -0.6558
 6311SOL    HW130569   0.165   1.945   8.219  0.2501  0.8061  0.5531
 6311SOL    HW230570   0.053   2.044   8.230  1.6216  0.0949 -1.0970
 6312SOL     OW30571   0.562   0.262   1.892  0.5487 -0.4563 -0.3782
 6312SOL    HW130572   0.609   0.184   1.861  2.2815  0.6544 -0.5854
 6312SOL    HW230573   0.572   0.320   1.816  0.5057 -0.1962 -0.1848
 6313SOL     OW30574   3.249   1.858   8.363 -0.4654 -0.4906 -0.0016
 6313SOL    HW130575   3.232   1.779   8.414  0.6796  0.9141  2.5404
 6313SOL    HW230576   3.329   1.887   8.406 -0.2721  0.7986 -1.2157
 6314SOL     OW30577   2.973   3.079  10.605 -0.0383 -0.5810 -0.2936
 6314SOL    HW130578   2.930   3.153  10.562  0.2947 -1.4573 -2.1129
 6314SOL    HW230579   2.918   3.007  10.576 -0.7865  0.6650 -1.9353
 6315SOL     OW30580   4.150   2.555   5.068 -0.2409  0.4069 -1.0287
 6315SOL    HW130581   4.203   2.600   5.134 -0.1798 -0.2638 -0.6236
 6315SOL    HW230582   4.064   2.595   5.081 -0.8146 -0.7357 -1.4150
 6316SOL     OW30583   3.793   1.101   6.369  0.0428 -0.2157 -0.3855
 6316SOL    HW130584   3.856   1.126   6.301  0.0295 -0.2288 -0.4026
 6316SOL    HW230585   3.846   1.080   6.446  0.3534  1.5263 -0.1359
 6317SOL     OW30586   2.340   4.171   8.709  0.2951 -0.1947 -0.1628
 6317SOL    HW130587   2.256   4.201   8.674  0.9622  1.4983 -0.3098
 6317SOL    HW230588   2.399   4.245   8.699  1.5859 -1.0731  1.0399
 6318SOL     OW30589   4.386   3.361   0.251 -0.2186  0.3940  0.0854
 6318SOL    HW130590   4.431   3.407   0.322  0.2840  2.0107 -1.2850
 6318SOL    HW230591   4.421   3.273   0.266  0.1980  0.1826 -2.1360
 6319SOL     OW30592   2.103   1.695  13.004 -0.1428  0.0598  0.1678
 6319SOL    HW130593   2.198   1.680  13.003  0.0724  1.4654 -1.2580
 6319SOL    HW230594   2.067   1.612  13.034  0.1306 -0.2915 -0.4914
 6320SOL     OW30595   0.017   1.033   3.399  0.1732 -0.5334  0.2572
 6320SOL    HW130596   0.098   0.984   3.385  1.8959  2.5327 -0.5937
 6320SOL    HW230597   4.687   0.965   3.381  0.6314 -0.9136  0.0173
 6321SOL     OW30598   2.735   3.302   6.633 -0.3885  0.4677 -0.5938
 6321SOL    HW130599   2.708   3.211   6.632 -0.0678  0.3787 -1.2493
 6321SOL    HW230600   2.801   3.300   6.702  0.3076 -0.3646 -1.2897
 6322SOL     OW30601   2.481   0.004   2.498 -0.1004 -0.8735 -0.0377
 6322SOL    HW130602   2.538   4.696   2.435  0.5589 -1.0390  0.6724
 6322SOL    HW230603   2.534   0.003   2.578  0.8873  2.0206 -0.6457
 6323SOL     OW30604   0.375   2.257  17.572  0.2744 -0.1133 -0.3962
 6323SOL    HW130605   0.379   2.195  17.644  0.8884  1.9916  1.3700
 6323SOL    HW230606   0.467   2.264  17.547  0.7458  0.5146  1.5508
 6324SOL     OW30607   1.846   0.350   1.824 -0.9946 -0.1325  0.4119
 6324SOL    HW130608   1.922   0.383   1.777 -1.2002  1.4817  1.1880
 6324SOL    HW230609   1.872   0.313   1.909 -0.7496 -0.7889  0.0485
 6325SOL     OW30610   1.000   2.027  12.530  0.2550 -0.0705 -0.2523
 6325SOL    HW130611   1.046   1.980  12.460  0.9181 -0.7573  0.6505
 6325SOL    HW230612   1.079   2.047  12.579 -0.4357 -3.1134  2.0591
 6326SOL     OW30613   4.632   4.223  16.871 -0.1645 -0.2771 -0.4667
 6326SOL    HW130614   4.605   4.179  16.790 -0.1655  0.6128 -0.9578
 6326SOL    HW230615   4.593   4.158  16.930 -1.2651  0.5192 -0.3115
 6327SOL     OW30616   1.840   3.678   4.778  0.1696 -0.2463 -0.0982
 6327SOL    HW130617   1.768   3.739   4.794  0.7799  0.5542 -0.4230
 6327SOL    HW230618   1.827   3.623   4.855  2.2981  0.9045  1.0553
 6328SOL     OW30619   2.516   0.972  15.856 -0.1337  0.4278  0.0808
 6328SOL    HW130620   2.447   1.017  15.807  2.4043  1.4776 -2.6025
 6328SOL    HW230621   2.540   0.903  15.794 -0.2865 -1.4185  2.0939
 6329SOL     OW30622   4.499   3.877   0.785  0.1716  0.4280 -0.1892
 6329SOL    HW130623   4.514   3.934   0.860 -0.6911  1.8564 -1.1071
 6329SOL    HW230624   4.525   3.794   0.826  0.3801  0.3876 -0.4058
 6330SOL     OW30625   0.900   2.608   2.284 -0.2856  0.0775  0.6240
 6330SOL    HW130626   0.841   2.669   2.328 -1.9866 -1.8797  1.0781
 6330SOL    HW230627   0.959   2.589   2.357  0.1726  0.4618  0.3515
 6331SOL     OW30628   3.725   1.780   5.568 -0.3164  0.0495 -0.4874
 6331SOL    HW130629   3.667   1.798   5.642  1.2817 -1.4709  1.1347
 6331SOL    HW230630   3.671   1.723   5.513 -0.5174 -0.7129  0.4913
 6332SOL     OW30631   4.457   4.243   6.634  0.0653  0.4333  0.1352
 6332SOL    HW130632   4.505   4.254   6.552  1.1925  2.2548  1.0495
 6332SOL    HW230633   4.528   4.255   6.697 -1.5142 -0.5024  2.1159
 6333SOL     OW30634   3.923   4.056   1.572 -0.0828 -0.0181  0.4412
 6333SOL    HW130635   3.986   4.032   1.640 -1.1312 -1.5600  0.8804
 6333SOL    HW230636   3.893   4.142   1.602 -1.1292 -0.8649  1.8273
 6334SOL     OW30637   0.360   2.321  10.408 -0.2132  0.1422  0.7545
 6334SOL    HW130638   0.328   2.291  10.323 -1.9028 -2.3346  2.2482
 6334SOL    HW230639   0.429   2.262  10.436 -0.6068 -1.1522 -0.9954
 6335SOL     OW30640   1.374   3.108   8.745  0.2459 -0.0655  0.2906
 6335SOL    HW130641   1.440   3.177   8.751  2.3196 -2.0010  0.2725
 6335SOL    HW230642   1.382   3.071   8.833 -0.6065 -0.4936  0.1854
 6336SOL     OW30643   4.585   4.269   6.387  0.1135 -0.1757  0.5035
 6336SOL    HW130644   4.656   4.287   6.324  0.1063  0.7433  0.7622
 6336SOL    HW230645   4.531   4.212   6.332 -1.6103 -0.4404  2.4988
 6337SOL     OW30646   0.207   3.017   5.850 -0.7732  0.9297 -0.0488
 6337SOL    HW130647   0.292   3.017   5.893  0.0088  1.9469 -1.5824
 6337SOL    HW230648   0.159   3.094   5.880 -1.1046  0.3165  0.9919
 6338SOL     OW30649   3.141   2.872  11.261  0.3518 -0.1322  0.1512
 6338SOL    HW130650   3.050   2.902  11.271  0.2820 -0.5148  0.6290
 6338SOL    HW230651   3.177   2.905  11.343  0.1863 -0.1445  0.2283
 6339SOL     OW30652   2.053   0.210   2.834  0.2380  0.0403  0.0211
 6339SOL    HW130653   2.028   0.147   2.766 -2.1604 -0.6502  1.5481
 6339SOL    HW230654   2.032   0.165   2.916 -1.4377  1.7921  0.5521
 6340SOL     OW30655   0.508   2.459   4.411  0.7270  0.6430  0.2722
 6340SOL    HW130656   0.424   2.439   4.453  0.4996 -0.6865 -0.8327
 6340SOL    HW230657   0.552   2.480   4.493 -1.2798 -0.8084  1.7247
 6341SOL     OW30658   0.354   4.029   7.788  0.1067  0.2563 -0.0950
 6341SOL    HW130659   0.334   4.085   7.863  0.6653  0.5244 -0.1487
 6341SOL    HW230660   0.439   3.992   7.810  0.5046  2.1749  1.5829
 6342SOL     OW30661   0.207   1.807  10.686 -0.1703 -0.3426 -0.3308
 6342SOL    HW130662   0.175   1.793  10.776  3.8998  1.5322  1.3941
 6342SOL    HW230663   0.271   1.876  10.703 -0.4754 -0.9619  3.3454
 6343SOL     OW30664   1.663   2.761   3.978  0.7823 -0.1969 -0.2780
 6343SOL    HW130665   1.718   2.731   3.906  0.9680  2.2443 -1.1485
 6343SOL    HW230666   1.579   2.779   3.937  0.6245  0.6345  0.4004
 6344SOL     OW30667   2.277   0.287   4.607  0.2646 -0.3020  0.2216
 6344SOL    HW130668   2.292   0.358   4.545  0.1597 -0.4633  0.0115
 6344SOL    HW230669   2.368   0.260   4.618 -0.0569 -0.6428  2.0806
 6345SOL     OW30670   1.854   1.812   7.521  0.2515  0.5968 -0.0026
 6345SOL    HW130671   1.858   1.741   7.458  2.9587 -0.0662  0.9095
 6345SOL    HW230672   1.775   1.798   7.572 -0.1633 -1.9547 -1.3752
 6346SOL     OW30673   3.719   2.965   5.767  0.1278 -0.2880  0.7365
 6346SOL    HW130674   3.701   2.922   5.683  0.5320 -0.2487  0.6298
 6346SOL    HW230675   3.815   2.969   5.763  0.0417  1.6595  0.6628
 6347SOL     OW30676   1.864   1.099  12.475 -0.1277  0.1805  0.1482
 6347SOL    HW130677   1.784   1.114  12.527  1.1705 -1.6560  2.7047
 6347SOL    HW230678   1.837   1.069  12.388  0.0531  1.7767 -0.4503
 6348SOL     OW30679   1.377   0.528  15.184  0.1315  0.1802 -0.0959
 6348SOL    HW130680   1.383   0.574  15.268 -2.0380  0.4589 -0.0865
 6348SOL    HW230681   1.313   0.580  15.135 -0.3330  2.2468  2.6673
 6349SOL     OW30682   2.574   1.222   7.257 -0.4240  0.1286 -0.0334
 6349SOL    HW130683   2.629   1.284   7.304 -1.4635 -0.4255  1.9364
 6349SOL    HW230684   2.642   1.156   7.247 -0.8095 -0.4570  1.1540
 6350SOL     OW30685   2.813   3.184   2.305  0.3662  0.0830  0.1220
 6350SOL    HW130686   2.756   3.249   2.346 -1.4942 -0.2302 -2.0113
 6350SOL    HW230687   2.791   3.196   2.213 -1.1059  1.8111  0.7122
 6351SOL     OW30688   2.454   1.102   8.334  0.0326  0.1163 -0.2605
 6351SOL    HW130689   2.364   1.131   8.349 -0.0961  0.1465 -1.1133
 6351SOL    HW230690   2.441   1.046   8.258 -0.8011 -0.1607  0.0844
 6352SOL     OW30691   4.337   2.204   9.362  0.2728  0.0476  0.5771
 6352SOL    HW130692   4.416   2.228   9.410  0.2025  1.4344  0.0081
 6352SOL    HW230693   4.283   2.164   9.430 -1.3321 -1.9328 -1.8637
 6353SOL     OW30694   1.183   4.419   7.636  0.3002 -0.0901 -0.1329
 6353SOL    HW130695   1.174   4.339   7.583  1.8469  1.4534 -2.7200
 6353SOL    HW230696   1.236   4.394   7.712 -0.1740 -0.4505  0.0769
 6354SOL     OW30697   2.983   3.366   1.141 -0.3033  0.2185  0.5936
 6354SOL    HW130698   2.964   3.272   1.137  0.4660  0.0906 -0.1692
 6354SOL    HW230699   3.050   3.371   1.209 -0.5030 -0.3327  0.8346
 6355SOL     OW30700   0.848   4.190   9.843  0.6799 -0.3018 -0.5797
 6355SOL    HW130701   0.923   4.133   9.827  1.1478 -0.7410  3.1343
 6355SOL    HW230702   0.901   4.270   9.849  4.3433 -3.0909  5.0160
 6356SOL     OW30703   1.832   0.359  11.845 -0.1400  0.1117 -0.2473
 6356SOL    HW130704   1.809   0.402  11.762 -1.1905  1.8130  0.9262
 6356SOL    HW230705   1.752   0.365  11.896 -0.5913  1.2212 -1.0872
 6357SOL     OW30706   0.194   0.686   2.483 -0.1049  0.3340  0.5647
 6357SOL    HW130707   0.240   0.749   2.538  0.7558 -1.2419  1.6615
 6357SOL    HW230708   0.256   0.663   2.413 -1.0197 -1.8190  0.4519
 6358SOL     OW30709   0.211   1.504   7.669 -0.1103  0.4941  0.0564
 6358SOL    HW130710   0.210   1.479   7.761  0.8521 -1.8968 -0.5784
 6358SOL    HW230711   0.201   1.422   7.621  2.2414 -0.1216  0.6190
 6359SOL     OW30712   1.173   3.158   1.895 -0.2550 -0.6187 -0.4105
 6359SOL    HW130713   1.140   3.069   1.907 -1.5192 -0.5310 -3.2677
 6359SOL    HW230714   1.190   3.141   1.802 -1.8374 -2.1501 -0.4279
 6360SOL     OW30715   4.381   1.472  11.117  0.1840 -0.0375  0.0479
 6360SOL    HW130716   4.349   1.459  11.206 -1.9529  1.3581 -0.5390
 6360SOL    HW230717   4.346   1.398  11.069  1.6760 -0.9071  0.2966
 6361SOL     OW30718   1.465   3.913  10.134 -0.0833  0.4793  0.1489
 6361SOL    HW130719   1.533   3.971  10.102 -0.7086  1.8703  1.3178
 6361SOL    HW230720   1.504   3.832  10.166  1.3526  0.6089 -1.2935
 6362SOL     OW30721   4.031   0.583   1.150  0.2663 -0.0464  0.2868
 6362SOL    HW130722   4.023   0.671   1.113  0.5055 -0.6195 -1.1114
 6362SOL    HW230723   4.112   0.592   1.199  0.2319 -1.4711  0.6049
 6363SOL     OW30724   4.078   4.249   8.848 -0.1092  0.0810 -0.6471
 6363SOL    HW130725   4.057   4.157   8.867 -1.9474  0.2624 -1.7285
 6363SOL    HW230726   3.989   4.286   8.850 -0.1818 -0.2985  2.8566
 6364SOL     OW30727   2.766   1.078  14.997  0.3658  0.2663  0.6186
 6364SOL    HW130728   2.697   1.109  14.939 -0.3508 -0.3033  1.1535
 6364SOL    HW230729   2.790   0.992  14.963 -0.1903  0.2941  0.1644
 6365SOL     OW30730   4.562   3.447   2.095 -0.1092  0.0088 -0.2397
 6365SOL    HW130731   4.609   3.445   2.178 -1.8420 -2.5683  0.6628
 6365SOL    HW230732   4.502   3.521   2.104  1.3351  1.0302  0.8776
 6366SOL     OW30733   3.945   4.371  13.173  0.0889 -0.3266 -0.1145
 6366SOL    HW130734   4.037   4.386  13.194 -0.3465 -0.0476  1.6132
 6366SOL    HW230735   3.908   4.418  13.248 -0.7135 -1.5936  0.2842
 6367SOL     OW30736   4.249   3.447   2.406  0.2052  0.3840  0.1565
 6367SOL    HW130737   4.179   3.437   2.470 -2.0260 -0.2600 -2.3750
 6367SOL    HW230738   4.231   3.368   2.354 -0.5413 -0.2492  1.3615
 6368SOL     OW30739   1.225   1.629   5.844  0.2860  0.2845 -0.5258
 6368SOL    HW130740   1.266   1.621   5.930 -0.3015 -0.3612 -0.3023
 6368SOL    HW230741   1.164   1.701   5.861 -0.9759 -1.1482  1.0131
 6369SOL     OW30742   1.123   0.907   6.606 -0.0301  0.0987  0.5305
 6369SOL    HW130743   1.042   0.864   6.579 -0.2943  0.0346  1.4329
 6369SOL    HW230744   1.152   0.864   6.686  1.9750 -2.9184 -1.8575
 6370SOL     OW30745   0.538   4.538  14.701 -0.8754  0.1231  0.2703
 6370SOL    HW130746   0.492   4.592  14.637  2.4307  0.1554 -2.0799
 6370SOL    HW230747   0.573   4.606  14.759  0.5637 -0.2204 -0.1970
 6371SOL     OW30748   3.125   3.548   5.247  0.2825 -0.1802 -0.4441
 6371SOL    HW130749   3.080   3.614   5.300  1.4040  0.2368  0.0052
 6371SOL    HW230750   3.217   3.566   5.268  0.2676 -0.3665 -0.2284
 6372SOL     OW30751   3.186   1.300  15.294 -0.5409  0.4430  0.4153
 6372SOL    HW130752   3.218   1.354  15.222 -1.9810 -2.0443 -2.1128
 6372SOL    HW230753   3.110   1.255  15.255  0.3838 -0.1671 -0.6971
 6373SOL     OW30754   1.898   3.367   0.924  0.1842  0.1288 -0.1024
 6373SOL    HW130755   1.895   3.460   0.944 -1.5625  0.2056 -0.7592
 6373SOL    HW230756   1.981   3.371   0.876  1.5348 -3.1913  1.9344
 6374SOL     OW30757   3.064   0.369   4.851  0.0624  0.3575  0.3325
 6374SOL    HW130758   3.102   0.305   4.913 -0.4184 -0.7074 -0.4692
 6374SOL    HW230759   3.052   0.313   4.775 -1.0725  0.8151  0.1847
 6375SOL     OW30760   0.858   1.923   8.547 -0.1771 -0.2410  0.4821
 6375SOL    HW130761   0.872   1.943   8.454 -0.5354 -0.0597  0.4630
 6375SOL    HW230762   0.793   1.853   8.549 -0.7393  0.2079 -1.1572
 6376SOL     OW30763   2.074   1.693   5.528 -0.2120 -0.5812 -0.0571
 6376SOL    HW130764   2.166   1.701   5.550  0.0648 -1.6780 -0.7722
 6376SOL    HW230765   2.078   1.600   5.506  2.5404 -0.7327  1.0848
 6377SOL     OW30766   3.338   3.859   6.630 -0.1625  0.0461 -0.0159
 6377SOL    HW130767   3.350   3.824   6.718 -1.0501 -1.0222 -0.3182
 6377SOL    HW230768   3.279   3.932   6.650 -1.8505 -1.1572 -0.5936
 6378SOL     OW30769   3.690   0.420   2.356  0.2604 -0.1217  0.2698
 6378SOL    HW130770   3.621   0.452   2.297 -0.8007  0.0865  1.6105
 6378SOL    HW230771   3.652   0.333   2.362 -1.7398  0.5813 -2.3005
 6379SOL     OW30772   2.070   1.304   3.262  0.1482 -0.4007  0.7212
 6379SOL    HW130773   2.060   1.373   3.196 -1.9328 -0.1111  1.3442
 6379SOL    HW230774   2.006   1.334   3.327  0.8404  0.6289  0.9272
 6380SOL     OW30775   3.154   3.295   7.523  0.2806  0.3372  0.4430
 6380SOL    HW130776   3.075   3.247   7.502  1.8445 -1.0210 -2.3888
 6380SOL    HW230777   3.217   3.223   7.524 -1.5173 -1.2242  0.7479
 6381SOL     OW30778   3.936   2.416   7.982  0.0883 -0.0097  0.2981
 6381SOL    HW130779   3.848   2.415   8.021  1.4726 -3.4655  3.3134
 6381SOL    HW230780   3.949   2.511   7.985 -0.2436  0.0364  0.2319
 6382SOL     OW30781   1.812   1.176  12.797 -0.8130  0.0839  0.3196
 6382SOL    HW130782   1.825   1.083  12.781  3.6002  0.5140  1.2915
 6382SOL    HW230783   1.723   1.190  12.766 -1.1703  0.7677  1.6104
 6383SOL     OW30784   1.809   2.123  10.956 -0.3118 -0.2190 -0.0677
 6383SOL    HW130785   1.822   2.154  11.045  0.0115  0.7613 -0.4654
 6383SOL    HW230786   1.764   2.042  10.979 -1.7226 -0.1090 -2.4588
 6384SOL     OW30787   2.196   3.456   5.607 -0.2133  0.3889  0.5002
 6384SOL    HW130788   2.161   3.544   5.625  0.8695  0.7156  1.0342
 6384SOL    HW230789   2.220   3.457   5.514 -1.4708 -1.5252  0.1645
 6385SOL     OW30790   3.585   2.939   6.043  0.6948  0.2506 -0.1254
 6385SOL    HW130791   3.521   3.010   6.055 -0.4692 -1.1143  1.7634
 6385SOL    HW230792   3.629   2.959   5.960  0.4804 -1.4355 -0.6436
 6386SOL     OW30793   4.415   0.033   4.316 -0.4128  0.8482  0.8961
 6386SOL    HW130794   4.447   4.690   4.360 -0.9605  0.4852  0.6432
 6386SOL    HW230795   4.468   0.098   4.363  0.0392  0.7966  0.4485
 6387SOL     OW30796   1.523   2.902   8.599  0.0496  0.0049 -0.0564
 6387SOL    HW130797   1.475   2.958   8.660  1.1748  1.5583 -0.5993
 6387SOL    HW230798   1.599   2.885   8.655 -0.4792  0.0027  0.6629
 6388SOL     OW30799   3.297   2.161   6.668  0.0963  0.1681  0.0078
 6388SOL    HW130800   3.233   2.158   6.739  0.1760 -0.1090  0.0672
 6388SOL    HW230801   3.331   2.071   6.667 -0.3603 -0.0133  0.7758
 6389SOL     OW30802   3.430   0.091   0.885 -0.1236  0.1925  0.0740
 6389SOL    HW130803   3.395   0.160   0.829  1.3961  1.5060  0.7285
 6389SOL    HW230804   3.426   0.021   0.820 -1.0020  0.4738 -0.1667
 6390SOL     OW30805   3.321   4.058   7.713 -0.0452  0.1000  0.6242
 6390SOL    HW130806   3.300   3.989   7.776 -0.3081 -1.1642 -0.8235
 6390SOL    HW230807   3.246   4.109   7.741  0.8785  1.5355  0.4808
 6391SOL     OW30808   2.154   1.379  13.165  0.5001  0.1288  0.3350
 6391SOL    HW130809   2.241   1.382  13.124 -1.3144  1.4485 -3.4133
 6391SOL    HW230810   2.171   1.375  13.260 -1.0515 -0.0272  0.5931
 6392SOL     OW30811   2.634   2.755   7.959 -0.2053  0.3415 -0.6336
 6392SOL    HW130812   2.625   2.680   8.018 -0.4410  0.5398 -0.4211
 6392SOL    HW230813   2.695   2.814   8.003 -0.1408  0.0067 -0.2719
 6393SOL     OW30814   1.034   3.567   7.264  0.5924 -0.4013  0.2242
 6393SOL    HW130815   1.008   3.659   7.258 -0.0602 -0.6008  0.0036
 6393SOL    HW230816   0.951   3.520   7.272  1.4506 -2.3678 -2.0295
 6394SOL     OW30817   4.673   1.831   1.514 -0.4061 -0.4259 -0.4207
 6394SOL    HW130818   4.623   1.878   1.581 -0.0490  1.2648 -1.3491
 6394SOL    HW230819   4.647   1.871   1.431 -0.1887 -1.1904 -0.8612
 6395SOL     OW30820   2.408   1.435   7.158  0.0678  0.3409  0.5735
 6395SOL    HW130821   2.480   1.373   7.167 -1.6894 -1.5484  1.5113
 6395SOL    HW230822   2.380   1.416   7.068  0.0262  0.1776  0.6217
 6396SOL     OW30823   2.612   2.229   9.007 -0.2989  0.2439  0.0677
 6396SOL    HW130824   2.587   2.137   8.997  2.1595 -0.3868 -0.3153
 6396SOL    HW230825   2.601   2.240   9.101  1.1717 -1.4015  0.4352
 6397SOL     OW30826   2.713   4.652   2.299  0.2649  0.1290 -0.4936
 6397SOL    HW130827   2.745   4.679   2.385 -0.6289  1.5057 -0.5951
 6397SOL    HW230828   2.783   4.594   2.268  1.8743  1.8781 -0.1222
 6398SOL     OW30829   0.011   3.905  12.297  0.0917 -0.5966 -0.7824
 6398SOL    HW130830   4.694   3.828  12.277 -0.1485 -0.5794 -0.2162
 6398SOL    HW230831   4.677   3.969  12.315  1.8602  1.0812  0.1855
 6399SOL     OW30832   2.506   2.113   4.164 -0.4695  0.5854 -0.0712
 6399SOL    HW130833   2.576   2.176   4.145  0.6184 -0.1050  1.6605
 6399SOL    HW230834   2.440   2.169   4.204 -0.5878 -1.6616  2.8158
 6400SOL     OW30835   3.104   1.773   4.214 -0.0613  0.1963  0.7877
 6400SOL    HW130836   3.181   1.735   4.173 -0.7391 -0.2603 -0.0440
 6400SOL    HW230837   3.111   1.732   4.300  1.7386 -0.2229  0.4320
 6401SOL     OW30838   2.793   3.372   8.049  0.1143  0.3753 -0.2091
 6401SOL    HW130839   2.740   3.295   8.026  0.8510 -0.4512  0.8685
 6401SOL    HW230840   2.849   3.370   7.971 -1.6177  0.7150 -1.4829
 6402SOL     OW30841   3.692   0.797   2.900  0.6201  0.1011  0.4479
 6402SOL    HW130842   3.603   0.803   2.866 -0.0937  1.1218  2.4996
 6402SOL    HW230843   3.675   0.726   2.962 -0.4119 -1.4009 -1.5483
 6403SOL     OW30844   1.533   3.170   1.631 -0.3136 -0.2487 -0.2863
 6403SOL    HW130845   1.551   3.122   1.551 -1.9079  1.0503 -1.4241
 6403SOL    HW230846   1.459   3.126   1.672 -0.7937  0.2896 -0.5700
 6404SOL     OW30847   3.300   1.649   5.258  0.5798 -0.2516 -0.0935
 6404SOL    HW130848   3.218   1.611   5.289  0.1958  0.9723  0.3941
 6404SOL    HW230849   3.305   1.719   5.323  2.3118  0.7794 -1.3546
 6405SOL     OW30850   1.240   2.368   8.683  0.7523 -0.2148  0.1231
 6405SOL    HW130851   1.200   2.351   8.768 -0.3788 -0.1552 -0.3915
 6405SOL    HW230852   1.333   2.369   8.702  0.8132  0.8546 -0.1856
 6406SOL     OW30853   0.088   2.517   3.837 -0.1517  0.1918 -0.5039
 6406SOL    HW130854   0.013   2.571   3.862  0.2503  0.3518  0.4022
 6406SOL    HW230855   0.117   2.488   3.924 -0.8888 -0.5855 -0.5294
 6407SOL     OW30856   3.347   1.408   6.742  0.5291  0.2770  0.2412
 6407SOL    HW130857   3.439   1.381   6.752  0.1039 -1.6978 -1.1148
 6407SOL    HW230858   3.339   1.405   6.647  2.4470 -0.7799  0.1045
 6408SOL     OW30859   2.604   1.390   5.925  0.6648 -0.1391 -0.6321
 6408SOL    HW130860   2.674   1.456   5.920  0.6548 -0.2416 -1.8909
 6408SOL    HW230861   2.654   1.310   5.939  1.1343 -0.0095 -1.5863
 6409SOL     OW30862   1.307   3.134   3.669 -0.2146  0.1437 -0.6734
 6409SOL    HW130863   1.262   3.171   3.594  2.0347  0.8532 -1.6722
 6409SOL    HW230864   1.227   3.117   3.719 -1.1278 -0.0645 -2.2086
 6410SOL     OW30865   3.986   2.144   9.266  0.5342  0.2847  0.0172
 6410SOL    HW130866   3.908   2.116   9.314 -0.4352  1.6336 -0.7656
 6410SOL    HW230867   4.044   2.092   9.321  0.2596  0.9148  0.9089
 6411SOL     OW30868   4.211   1.312   3.262 -0.3193 -0.0627 -0.0710
 6411SOL    HW130869   4.264   1.286   3.187 -1.7956 -0.6358 -0.9059
 6411SOL    HW230870   4.133   1.260   3.243 -0.1690  0.1771 -1.3423
 6412SOL     OW30871   3.412   4.043  10.083  0.3310  0.1892 -0.1362
 6412SOL    HW130872   3.446   4.127  10.113 -1.0752  0.2819  1.1838
 6412SOL    HW230873   3.488   3.987  10.096  1.1447  1.0003 -1.4259
 6413SOL     OW30874   2.891   0.051   7.288  0.3751 -0.0080  0.3636
 6413SOL    HW130875   2.824   4.719   7.302  0.5589  0.1276  1.8735
 6413SOL    HW230876   2.967   4.730   7.276  1.5602  1.3222  1.6993
 6414SOL     OW30877   2.536   1.984   9.105 -0.4184  0.5386  0.3638
 6414SOL    HW130878   2.563   1.892   9.100  0.7538  0.9119 -0.0820
 6414SOL    HW230879   2.605   2.020   9.161  2.2021 -0.8185 -1.9940
 6415SOL     OW30880   3.281   3.130  16.625 -0.7405  0.5725 -0.2158
 6415SOL    HW130881   3.203   3.086  16.592 -0.4978  1.2185 -1.6867
 6415SOL    HW230882   3.341   3.059  16.601 -1.1563  0.8463 -2.1328
 6416SOL     OW30883   2.978   3.947   4.488 -0.4043  0.2636  0.6805
 6416SOL    HW130884   2.887   3.976   4.492  0.2068  2.3344 -0.7779
 6416SOL    HW230885   2.978   3.902   4.403 -0.1658  2.5430 -0.5322
 6417SOL     OW30886   3.710   0.468  13.998 -0.7251  0.1562  0.0819
 6417SOL    HW130887   3.781   0.533  13.992 -2.8464  2.5287  0.8288
 6417SOL    HW230888   3.648   0.501  14.063 -2.4179  1.4310 -2.1795
 6418SOL     OW30889   0.410   3.327   3.435 -0.5289 -0.5897 -0.7123
 6418SOL    HW130890   0.372   3.409   3.467  0.9941  0.3735 -1.3178
 6418SOL    HW230891   0.501   3.332   3.466 -0.8368 -0.7910  0.2172
 6419SOL     OW30892   1.867   4.618  16.621 -0.4056 -0.1515 -0.2918
 6419SOL    HW130893   1.937   4.553  16.622  1.6418  2.0637 -0.4833
 6419SOL    HW230894   1.809   4.593  16.693  1.4465 -0.4584  1.0845
 6420SOL     OW30895   4.662   1.860   2.186 -0.3644 -0.4475  0.3557
 6420SOL    HW130896   4.727   1.873   2.117 -1.6668 -1.1243 -0.9963
 6420SOL    HW230897   4.606   1.936   2.175 -2.2746 -1.9069  0.1335
 6421SOL     OW30898   1.489   2.046   5.273 -0.6551  0.4959 -0.8407
 6421SOL    HW130899   1.543   2.034   5.352 -0.9146  0.6724 -0.6363
 6421SOL    HW230900   1.449   2.128   5.303  2.0321  1.5226  0.0005
 6422SOL     OW30901   0.336   0.334  16.267  0.1277  0.2812 -0.1469
 6422SOL    HW130902   0.330   0.366  16.357 -1.1511 -2.3170  0.6986
 6422SOL    HW230903   0.306   0.404  16.210  0.2895  0.9703  0.6242
 6423SOL     OW30904   2.430   4.253  15.079 -0.9748  0.5965 -0.2796
 6423SOL    HW130905   2.357   4.293  15.032  0.9008 -0.5389 -4.0895
 6423SOL    HW230906   2.423   4.159  15.061 -0.9210  0.6155 -0.3995
 6424SOL     OW30907   0.516   2.882   5.332 -0.3938 -0.2995  0.3990
 6424SOL    HW130908   0.563   2.799   5.334  2.1064  1.0792 -0.5623
 6424SOL    HW230909   0.458   2.870   5.407 -1.0511  1.0983  0.1218
 6425SOL     OW30910   1.417   1.681   5.458  0.0027  0.4604 -0.2180
 6425SOL    HW130911   1.512   1.665   5.455  0.0141  0.2313  1.2267
 6425SOL    HW230912   1.379   1.596   5.479  0.3927  0.6814  1.3750
 6426SOL     OW30913   3.447   2.673  13.822  0.1841 -0.2469  0.3984
 6426SOL    HW130914   3.495   2.671  13.905  0.1012  0.4231  0.4591
 6426SOL    HW230915   3.490   2.604  13.771 -0.0318  0.0398 -0.1673
 6427SOL     OW30916   4.307   3.483  10.670 -0.1089  0.0528  0.3122
 6427SOL    HW130917   4.320   3.389  10.683  0.0904  0.1304  0.6901
 6427SOL    HW230918   4.292   3.504  10.763  2.9051 -1.3979  1.1198
 6428SOL     OW30919   0.371   2.648   2.331  0.2837  0.7580 -0.0898
 6428SOL    HW130920   0.449   2.642   2.275  1.2387 -0.2788  1.3586
 6428SOL    HW230921   0.384   2.733   2.374 -0.6056  0.4392  0.8028
 6429SOL     OW30922   1.856   1.032   6.542  0.2394 -0.6170 -0.5347
 6429SOL    HW130923   1.771   1.067   6.514  0.2601 -1.4009 -1.5450
 6429SOL    HW230924   1.919   1.069   6.481 -0.2253 -0.0887 -0.6995
 6430SOL     OW30925   2.265   4.723   4.820  0.0630  0.0845  0.0882
 6430SOL    HW130926   2.201   4.692   4.884 -0.7059  0.2907 -0.5751
 6430SOL    HW230927   2.304   0.066   4.857 -2.1483  0.2172  2.1048
 6431SOL     OW30928   2.327   3.972   7.736 -0.0068  0.0834 -0.5639
 6431SOL    HW130929   2.252   3.999   7.682  0.1719  1.3717 -0.1875
 6431SOL    HW230930   2.292   3.904   7.793 -4.7227  3.1565  0.3033
 6432SOL     OW30931   3.178   3.822  14.453 -0.2663 -0.0976  0.3442
 6432SOL    HW130932   3.164   3.906  14.499  0.5347  0.1470  0.1451
 6432SOL    HW230933   3.272   3.808  14.440 -0.6002  0.1911 -2.2609
 6433SOL     OW30934   0.108   4.646   0.656  0.0609 -0.4391 -0.5003
 6433SOL    HW130935   0.132   4.712   0.591  1.3413 -1.2829 -0.8677
 6433SOL    HW230936   0.015   4.663   0.641 -0.1852 -0.2811  1.1677
 6434SOL     OW30937   0.328   1.157   8.065  0.0805  0.2978 -0.0677
 6434SOL    HW130938   0.396   1.136   8.002 -0.5508 -1.4010 -0.1594
 6434SOL    HW230939   0.341   1.083   8.124 -0.0744  0.8735  0.6923
 6435SOL     OW30940   4.020   1.705   7.211  0.2670  0.2292  0.0686
 6435SOL    HW130941   3.934   1.693   7.172  0.4222 -1.8925  0.3853
 6435SOL    HW230942   4.006   1.795   7.240 -1.3574 -0.3721  1.1446
 6436SOL     OW30943   0.034   4.006   8.282 -0.1748  0.2489 -0.2407
 6436SOL    HW130944   0.051   3.929   8.337 -0.8733 -0.7135 -1.3712
 6436SOL    HW230945   4.679   4.016   8.310  0.0019 -3.9772  1.8249
 6437SOL     OW30946   0.701   0.597   4.884  0.3021 -0.6584 -0.3627
 6437SOL    HW130947   0.767   0.667   4.880  0.5263 -0.8019  0.8850
 6437SOL    HW230948   0.713   0.566   4.794 -0.4944 -1.5508 -0.1580
 6438SOL     OW30949   3.704   3.606   5.944  0.1397  0.2020 -0.7557
 6438SOL    HW130950   3.672   3.517   5.959  0.1868  0.5640  1.4679
 6438SOL    HW230951   3.788   3.592   5.899  1.7357  1.9812  1.7285
 6439SOL     OW30952   1.552   4.690   5.906  0.0504  0.8330  0.2822
 6439SOL    HW130953   1.461   4.663   5.893  0.1537 -0.0195  1.2770
 6439SOL    HW230954   1.544   4.723   5.996 -0.9857 -0.3055  0.6014
 6440SOL     OW30955   0.313   0.950   2.018 -0.7796 -0.0691 -0.1487
 6440SOL    HW130956   0.308   0.920   1.927  2.3470  1.1193 -0.7146
 6440SOL    HW230957   0.282   1.040   2.007  0.3274  0.3848  0.4358
 6441SOL     OW30958   1.412   0.012   0.575  0.6711  0.2047 -0.4929
 6441SOL    HW130959   1.403   4.663   0.529  0.9166 -0.1670  0.1445
 6441SOL    HW230960   1.418   0.075   0.503  0.5973  2.1551  1.2342
 6442SOL     OW30961   4.551   4.705   8.752 -0.6755 -1.0671 -0.2856
 6442SOL    HW130962   4.467   4.688   8.794 -1.9153 -2.0113 -3.2078
 6442SOL    HW230963   4.613   4.701   8.825 -1.1746  1.0013  0.2561
 6443SOL     OW30964   0.035   1.489   0.833 -0.1543 -0.0425 -0.2678
 6443SOL    HW130965   0.029   1.550   0.760 -0.8399  0.3530  0.1215
 6443SOL    HW230966   4.700   1.426   0.819 -0.5673 -0.2522  2.6090
 6444SOL     OW30967   1.270   3.661   8.134 -0.5184  0.4623  0.8681
 6444SOL    HW130968   1.190   3.634   8.181 -0.1289 -2.3384 -0.0617
 6444SOL    HW230969   1.291   3.574   8.099 -2.2267  0.0430  0.8406
 6445SOL     OW30970   0.548   4.712  14.374 -0.8818  0.3942 -0.2184
 6445SOL    HW130971   0.497   4.636  14.347  0.6297 -0.4954 -0.6103
 6445SOL    HW230972   0.626   4.668  14.409 -1.6559 -0.5557  0.3008
 6446SOL     OW30973   4.001   1.471  15.672  0.5409 -0.6767 -0.6049
 6446SOL    HW130974   3.917   1.448  15.710 -0.1379  3.9442  0.6458
 6446SOL    HW230975   4.030   1.389  15.632  0.5081 -0.3129 -1.3736
 6447SOL     OW30976   2.052   0.141   6.622 -0.6206 -0.0240  0.8018
 6447SOL    HW130977   2.054   0.224   6.575 -1.2001 -0.5233 -0.1231
 6447SOL    HW230978   2.138   0.102   6.604 -0.4205  0.0285  1.6458
 6448SOL     OW30979   1.758   3.776  12.660  0.2083  0.1663  0.4595
 6448SOL    HW130980   1.682   3.753  12.714 -0.1523  2.3587  0.9038
 6448SOL    HW230981   1.723   3.857  12.622 -0.5879  0.7671  2.4775
 6449SOL     OW30982   0.614   2.528   4.632 -0.1325 -0.1544 -0.1338
 6449SOL    HW130983   0.572   2.600   4.679 -1.6420 -0.0781 -1.5925
 6449SOL    HW230984   0.700   2.560   4.606  0.4860 -1.3646  0.4049
 6450SOL     OW30985   3.417   0.168   9.465 -0.4748  0.7968 -0.0984
 6450SOL    HW130986   3.337   0.136   9.424 -0.1191 -2.4858  1.7936
 6450SOL    HW230987   3.390   0.260   9.471  2.4118  1.6916 -0.5537
 6451SOL     OW30988   0.337   3.466  14.024 -0.3403  0.8482 -0.7424
 6451SOL    HW130989   0.247   3.499  14.026 -0.4621  0.4420  0.5043
 6451SOL    HW230990   0.372   3.499  13.941  0.2759 -0.5182 -1.0250
 6452SOL     OW30991   4.167   4.003   0.546 -0.2111 -0.4471  0.1229
 6452SOL    HW130992   4.242   3.950   0.521  0.9824  1.4729 -0.3553
 6452SOL    HW230993   4.151   3.969   0.634  2.0961 -1.2267  0.2346
 6453SOL     OW30994   0.379   4.094  13.852  0.2909 -0.1096 -0.4014
 6453SOL    HW130995   0.294   4.075  13.813  0.1854 -1.0788  0.3016
 6453SOL    HW230996   0.355   4.119  13.941  3.1517 -2.8683  1.1526
 6454SOL     OW30997   0.054   2.178   6.694 -0.8314  0.7639 -0.5727
 6454SOL    HW130998   0.038   2.221   6.778 -0.1420 -0.3862  0.1495
 6454SOL    HW230999   0.134   2.223   6.666 -0.9341  0.2161 -1.7500
 6455SOL     OW31000   1.865   3.789   9.620  0.3869 -0.1592  0.0269
 6455SOL    HW131001   1.936   3.766   9.680 -0.9425 -0.2935  1.5532
 6455SOL    HW231002   1.797   3.727   9.646  0.6576  0.6625  2.6898
 6456SOL     OW31003   3.648   1.239   4.669 -0.4745  0.3577 -0.7603
 6456SOL    HW131004   3.555   1.237   4.648 -0.6057 -3.4679  0.2003
 6456SOL    HW231005   3.640   1.327   4.705  3.9701  0.8997 -1.1312
 6457SOL     OW31006   0.037   3.457   0.732 -0.1016 -0.0922  0.2479
 6457SOL    HW131007   0.031   3.374   0.779 -0.1587  0.8235  1.8599
 6457SOL    HW231008   0.118   3.429   0.689 -0.2202  1.2975 -0.9033
 6458SOL     OW31009   3.011   1.037   7.520 -0.0468 -0.3464  0.1862
 6458SOL    HW131010   2.951   1.039   7.595 -0.0796 -0.0159  0.1514
 6458SOL    HW231011   2.987   0.960   7.470  0.3846  1.3893 -2.6778
 6459SOL     OW31012   0.602   1.955   0.856  0.1718 -0.2708 -0.2277
 6459SOL    HW131013   0.657   1.904   0.916  1.1309  1.0065 -0.0304
 6459SOL    HW231014   0.575   1.884   0.797 -1.3697 -1.2056  1.6155
 6460SOL     OW31015   1.375   2.488  15.279  0.5274  0.5205 -0.6112
 6460SOL    HW131016   1.391   2.510  15.187  0.2619  1.1143 -0.5190
 6460SOL    HW231017   1.397   2.396  15.291  0.2132  0.6394  0.8644
 6461SOL     OW31018   2.880   3.128   0.316  0.3452 -0.1907  0.1409
 6461SOL    HW131019   2.895   3.047   0.266  1.4808  0.3511 -0.3913
 6461SOL    HW231020   2.930   3.113   0.396 -0.1173 -0.2161  0.4186
 6462SOL     OW31021   0.993   3.671   2.514  0.4557 -0.1141 -0.4331
 6462SOL    HW131022   0.984   3.747   2.457  2.2317  2.0165  2.1095
 6462SOL    HW231023   0.952   3.710   2.591 -1.2243 -1.6715 -0.5197
 6463SOL     OW31024   2.384   1.042   2.190 -0.1808 -0.2696  0.0005
 6463SOL    HW131025   2.477   1.023   2.197 -0.1802 -0.3965 -0.3368
 6463SOL    HW231026   2.352   0.984   2.259 -1.8480 -0.9728 -1.3582
 6464SOL     OW31027   2.099   3.219   4.993  0.0270  0.0729 -0.1745
 6464SOL    HW131028   2.187   3.254   4.981 -0.0373 -0.1145 -1.1759
 6464SOL    HW231029   2.103   3.137   4.944  2.1817  0.0465  0.0834
 6465SOL     OW31030   4.506   0.335  16.999  0.0862  0.2161 -0.3373
 6465SOL    HW131031   4.547   0.396  16.937 -0.0623  0.8550  0.2022
 6465SOL    HW231032   4.460   0.388  17.063 -0.6135 -2.3708  1.3163
 6466SOL     OW31033   0.957   3.152   6.587  0.3435 -0.1365 -0.2799
 6466SOL    HW131034   0.869   3.123   6.612 -0.5231  1.1843 -1.8124
 6466SOL    HW231035   0.945   3.246   6.581  1.5644  0.0825  0.6464
 6467SOL     OW31036   3.077   0.590   3.219  0.3744  0.3178 -0.2470
 6467SOL    HW131037   3.007   0.655   3.224 -0.5464 -0.7011  0.2381
 6467SOL    HW231038   3.041   0.540   3.145  1.5655 -0.1734 -0.5089
 6468SOL     OW31039   2.988   1.468   8.444  0.6358 -0.1054 -0.2644
 6468SOL    HW131040   2.920   1.497   8.505  1.2702  0.6159  0.0933
 6468SOL    HW231041   3.033   1.550   8.424  0.7506 -0.2065 -0.4249
 6469SOL     OW31042   0.469   1.320   6.745  0.5881  0.1042  0.4868
 6469SOL    HW131043   0.551   1.316   6.793  0.5690  0.2808  0.5321
 6469SOL    HW231044   0.496   1.361   6.664  1.6837 -0.8535  0.3698
 6470SOL     OW31045   0.841   1.576   7.898  0.0777  0.0636  0.7009
 6470SOL    HW131046   0.789   1.610   7.825  2.0215 -1.3257 -1.3234
 6470SOL    HW231047   0.926   1.563   7.855  0.0020  3.9119 -0.6709
 6471SOL     OW31048   4.353   4.568  12.810 -0.6952  0.2643 -0.1917
 6471SOL    HW131049   4.386   4.526  12.889 -0.8784  0.1749 -0.1628
 6471SOL    HW231050   4.264   4.577  12.844 -0.2935  1.9917  0.3796
 6472SOL     OW31051   3.380   4.698   8.685  0.0338 -0.4536 -0.6440
 6472SOL    HW131052   3.356   4.649   8.606  0.1312 -0.1591 -0.8539
 6472SOL    HW231053   3.448   4.644   8.725  0.7573 -0.3332 -1.7337
 6473SOL     OW31054   3.768   1.736   3.554  0.0805 -0.4032 -0.6998
 6473SOL    HW131055   3.755   1.717   3.647  1.9169  0.4136 -0.2710
 6473SOL    HW231056   3.860   1.760   3.563  0.0974  0.0958 -2.1261
 6474SOL     OW31057   1.227   4.131  16.773 -0.1182 -0.5961  0.5170
 6474SOL    HW131058   1.271   4.090  16.847  1.2724  1.9570  1.0923
 6474SOL    HW231059   1.223   4.058  16.710 -0.7794 -0.5654  0.5271
 6475SOL     OW31060   2.745   1.485   6.387 -1.1137  0.0443  0.5325
 6475SOL    HW131061   2.819   1.544   6.398 -1.0078 -0.1633  0.9310
 6475SOL    HW231062   2.781   1.405   6.426  2.1892  0.4537 -1.6570
 6476SOL     OW31063   4.061   3.041   1.602 -0.0484  0.1286 -0.5760
 6476SOL    HW131064   4.093   3.120   1.559  2.2389  0.1928  1.2477
 6476SOL    HW231065   3.967   3.043   1.584 -0.1549  0.3167  0.0002
 6477SOL     OW31066   4.702   0.600   6.564 -0.3733 -0.5027 -0.4299
 6477SOL    HW131067   0.008   0.558   6.489  1.4293 -2.4975  1.6666
 6477SOL    HW231068   4.728   0.691   6.549 -0.0109 -0.9393 -2.4497
 6478SOL     OW31069   3.799   3.491   7.427 -0.5546  0.5348 -0.2308
 6478SOL    HW131070   3.797   3.558   7.359 -0.8438  0.6643 -0.0968
 6478SOL    HW231071   3.802   3.538   7.510 -0.0305  0.0578  0.0154
 6479SOL     OW31072   0.662   4.070   2.695 -0.2583 -0.5307 -0.2847
 6479SOL    HW131073   0.646   3.976   2.704 -0.7660 -0.2452  1.8079
 6479SOL    HW231074   0.732   4.082   2.760 -0.5786  0.6715 -0.1672
 6480SOL     OW31075   2.640   4.556   6.065 -0.5727  0.0691  0.0060
 6480SOL    HW131076   2.603   4.611   5.997 -0.1244  2.4281  1.6848
 6480SOL    HW231077   2.681   4.626   6.117 -2.2375  0.0457  1.3348
 6481SOL     OW31078   1.027   0.294   8.287 -0.4119  0.2403  0.2577
 6481SOL    HW131079   1.096   0.253   8.234  1.0123  2.1568  0.6370
 6481SOL    HW231080   1.054   0.270   8.376 -0.8111  2.7866  1.0562
 6482SOL     OW31081   3.262   0.139   1.763 -0.0614 -0.3562  0.1322
 6482SOL    HW131082   3.300   0.213   1.715 -0.5305  1.8825  3.2301
 6482SOL    HW231083   3.333   0.126   1.825  0.7003 -0.1766 -0.6979
 6483SOL     OW31084   1.252   1.870   5.304 -0.0116 -0.1756  0.3608
 6483SOL    HW131085   1.308   1.802   5.341  0.7216  1.4654  2.2645
 6483SOL    HW231086   1.316   1.937   5.280 -2.2854  1.6503 -0.7142
 6484SOL     OW31087   4.082   4.124   2.215 -0.5957  0.0323  0.2321
 6484SOL    HW131088   4.019   4.196   2.218  1.3585  1.8288 -2.0616
 6484SOL    HW231089   4.053   4.071   2.140 -0.9842  0.6251 -0.0403
 6485SOL     OW31090   4.619   2.777  12.526  0.0918 -0.1659 -0.5995
 6485SOL    HW131091   4.559   2.836  12.573 -0.3441 -0.7085 -0.4825
 6485SOL    HW231092   4.703   2.800  12.566 -0.4822 -1.6454  1.4288
 6486SOL     OW31093   1.728   4.191   8.250 -0.2006  0.1283  0.4423
 6486SOL    HW131094   1.741   4.114   8.306  0.3473 -0.2043 -0.1437
 6486SOL    HW231095   1.811   4.238   8.254 -1.6421  2.4515  2.8928
 6487SOL     OW31096   1.560   2.959   5.674  0.2343 -0.1253 -0.4272
 6487SOL    HW131097   1.588   2.989   5.588 -1.3810 -1.0182 -1.2740
 6487SOL    HW231098   1.629   3.007   5.719 -1.7422  1.7466  0.6214
 6488SOL     OW31099   4.484   3.558   3.634  0.4076 -0.2964 -0.2712
 6488SOL    HW131100   4.558   3.498   3.649 -0.8242 -2.0433 -1.1709
 6488SOL    HW231101   4.454   3.533   3.547 -0.3639 -0.4781  0.0477
 6489SOL     OW31102   2.227   3.577   5.022 -0.3946 -0.1937 -0.8629
 6489SOL    HW131103   2.255   3.487   5.003  1.1396  0.5117 -1.9510
 6489SOL    HW231104   2.314   3.611   5.045 -1.4437  1.2480  0.9440
 6490SOL     OW31105   0.041   0.696   8.481 -0.2040 -1.0287 -0.1084
 6490SOL    HW131106   4.686   0.716   8.505  0.3099  0.6100  0.4461
 6490SOL    HW231107   0.022   0.723   8.391  2.1308 -2.2097 -0.9517
 6491SOL     OW31108   3.694   3.287   3.376  0.4339  0.3332  0.0661
 6491SOL    HW131109   3.643   3.362   3.345  1.5331  1.2913  0.5839
 6491SOL    HW231110   3.636   3.250   3.442  0.2914  0.9868  0.3085
 6492SOL     OW31111   2.079   1.251   7.049  0.0579  0.2529 -0.3392
 6492SOL    HW131112   2.052   1.326   6.996  0.8329  0.8772  0.1540
 6492SOL    HW231113   1.999   1.199   7.050 -0.4175  0.9839 -0.3845
 6493SOL     OW31114   4.180   2.346  17.415 -0.2173 -0.1275  0.3274
 6493SOL    HW131115   4.097   2.386  17.388 -0.2498 -1.4547 -1.4931
 6493SOL    HW231116   4.159   2.283  17.484  0.2249 -1.9918 -1.2507
 6494SOL     OW31117   2.209   4.225  10.670 -0.3038 -0.3761  0.1304
 6494SOL    HW131118   2.288   4.194  10.626 -0.2269  0.3970 -0.2735
 6494SOL    HW231119   2.146   4.168  10.625  1.6441 -2.2844 -0.1727
 6495SOL     OW31120   0.044   2.245  11.746  0.5685  0.0448 -0.0764
 6495SOL    HW131121   0.018   2.160  11.781  1.9527 -0.6160 -0.6158
 6495SOL    HW231122   0.057   2.223  11.653  1.0517 -0.1811  0.0450
 6496SOL     OW31123   1.853   4.127   3.397 -0.1047  0.4743 -0.7497
 6496SOL    HW131124   1.816   4.041   3.376  1.7069 -0.4121 -0.3749
 6496SOL    HW231125   1.944   4.115   3.369 -0.1277 -1.4355 -0.0059
 6497SOL     OW31126   4.252   1.806   4.023 -0.3386 -0.1649  0.0664
 6497SOL    HW131127   4.247   1.716   3.991  0.8258  1.1218 -3.7221
 6497SOL    HW231128   4.305   1.794   4.102  0.1212 -0.7595 -0.3336
 6498SOL     OW31129   0.359   4.415  14.131  0.0267  0.2502  0.1034
 6498SOL    HW131130   0.292   4.482  14.117  0.6660  0.9166  0.2042
 6498SOL    HW231131   0.313   4.336  14.105  1.5999 -0.0639 -1.7478
 6499SOL     OW31132   2.804   0.186   6.543  0.1288  0.2485 -0.1987
 6499SOL    HW131133   2.820   0.280   6.534 -2.8774  0.7987  0.4350
 6499SOL    HW231134   2.887   0.154   6.580  0.2813  0.3036 -0.4927
 6500SOL     OW31135   0.699   0.618  11.074 -0.2032  0.3556 -0.0263
 6500SOL    HW131136   0.722   0.672  10.999  0.6403  1.0801  0.7525
 6500SOL    HW231137   0.701   0.679  11.147  0.9608 -0.1094  0.3231
 6501SOL     OW31138   3.395   3.146   3.050  0.3515 -0.0858  0.3167
 6501SOL    HW131139   3.347   3.224   3.022  1.5791  0.9501  1.0932
 6501SOL    HW231140   3.388   3.175   3.141  0.5471  0.7762  0.0592
 6502SOL     OW31141   0.924   3.782   6.031 -0.3314 -0.1866  0.0363
 6502SOL    HW131142   1.019   3.772   6.045 -0.2342  1.6522  0.6950
 6502SOL    HW231143   0.906   3.868   6.068 -2.3889 -0.4509 -0.3898
 6503SOL     OW31144   1.789   1.050  16.362  0.2051 -0.0720  0.2500
 6503SOL    HW131145   1.882   1.042  16.383  0.2812 -1.8876 -0.7397
 6503SOL    HW231146   1.734   0.993  16.415 -1.6931  0.9282 -0.6586
 6504SOL     OW31147   1.746   3.541   9.259 -0.4196  0.2578 -0.0260
 6504SOL    HW131148   1.763   3.521   9.167 -3.1303  1.6673 -0.8084
 6504SOL    HW231149   1.686   3.614   9.244 -1.7104 -0.6597  0.6603
 6505SOL     OW31150   2.101   2.393   7.118  0.1173 -0.5950 -0.4805
 6505SOL    HW131151   2.029   2.400   7.181  0.1731  0.0457 -0.4872
 6505SOL    HW231152   2.053   2.405   7.036  2.9544 -0.4347 -2.1315
 6506SOL     OW31153   3.501   2.679  16.402  0.3974  0.1934  0.2061
 6506SOL    HW131154   3.564   2.619  16.442  0.5388 -0.2899 -0.7373
 6506SOL    HW231155   3.485   2.627  16.323  1.8300 -0.9058  0.6430
 6507SOL     OW31156   4.256   3.311   5.579  0.1341  0.1283 -0.4175
 6507SOL    HW131157   4.321   3.275   5.518  1.3865 -1.3780  1.8073
 6507SOL    HW231158   4.243   3.234   5.635 -0.7922  0.5895 -0.0087
 6508SOL     OW31159   4.701   4.729   4.464 -0.0534  0.5552  0.0334
 6508SOL    HW131160   0.007   4.700   4.545 -0.8153 -0.6026  0.0134
 6508SOL    HW231161   4.630   4.665   4.461 -0.2016  0.7901 -1.3701
 6509SOL     OW31162   4.681   3.366   6.899 -0.3471  0.1595  0.4575
 6509SOL    HW131163   4.596   3.324   6.885 -0.8310  1.1877  0.3057
 6509SOL    HW231164   4.666   3.460   6.894 -2.9285 -0.1989  1.6654
 6510SOL     OW31165   2.776   0.550   2.935  0.3094  0.0638  0.0798
 6510SOL    HW131166   2.720   0.618   2.972 -0.2995  0.1886 -1.0540
 6510SOL    HW231167   2.709   0.509   2.880 -0.4021  0.0667  0.9577
 6511SOL     OW31168   2.364   1.445   3.180 -0.2967 -0.0934 -0.5173
 6511SOL    HW131169   2.339   1.523   3.229 -0.7922  0.7482 -2.1301
 6511SOL    HW231170   2.335   1.375   3.240 -1.0577 -0.2225 -1.0394
 6512SOL     OW31171   2.933   3.176   7.449 -0.2358  0.4923 -0.4565
 6512SOL    HW131172   2.866   3.236   7.416 -0.1051 -0.2353 -2.0625
 6512SOL    HW231173   2.918   3.100   7.392 -0.3336 -0.4164  0.7976
 6513SOL     OW31174   0.393   0.324   1.412 -0.0115  0.3457 -0.7073
 6513SOL    HW131175   0.445   0.245   1.395  1.0402  0.6501  1.0927
 6513SOL    HW231176   0.308   0.281   1.407  0.5490 -1.0743  2.0197
 6514SOL     OW31177   0.146   3.882   6.989  0.1968 -0.0354 -0.2438
 6514SOL    HW131178   0.071   3.940   6.973 -0.7057 -1.4344 -1.0629
 6514SOL    HW231179   0.114   3.842   7.069  1.0484  0.5540  0.3951
 6515SOL     OW31180   0.311   2.456  15.520 -0.0515  0.4263  0.1183
 6515SOL    HW131181   0.254   2.396  15.471 -1.2209  1.9333 -0.3679
 6515SOL    HW231182   0.305   2.536  15.467  1.7112 -0.5844 -1.5832
 6516SOL     OW31183   2.017   1.965   1.682  0.3490  0.0779 -0.6006
 6516SOL    HW131184   2.106   1.978   1.650 -0.0954  2.5660 -0.7863
 6516SOL    HW231185   2.007   1.877   1.719  0.4970  0.9189  1.4238
 6517SOL     OW31186   2.639   4.133   2.249 -0.1724  0.2177  0.0651
 6517SOL    HW131187   2.547   4.107   2.240  0.0394 -0.4278 -0.2172
 6517SOL    HW231188   2.682   4.051   2.270  0.8290  0.9781  0.9661
 6518SOL     OW31189   2.042   1.550   3.108  0.1955 -0.3306  0.8487
 6518SOL    HW131190   1.961   1.594   3.134 -0.9595 -0.4055 -2.6432
 6518SOL    HW231191   2.059   1.601   3.029 -2.5737  1.6333  1.5399
 6519SOL     OW31192   3.968   1.835  10.843 -0.2956  0.0595 -0.4554
 6519SOL    HW131193   4.035   1.793  10.789  0.1118  0.7478 -0.4877
 6519SOL    HW231194   4.012   1.919  10.859  0.4874 -0.6103  0.8953
 6520SOL     OW31195   3.639   2.617   8.829 -0.1915 -0.4291  0.3034
 6520SOL    HW131196   3.588   2.677   8.883  0.2379  0.2624 -0.0543
 6520SOL    HW231197   3.728   2.618   8.864  0.1124  0.7000 -0.5010
 6521SOL     OW31198   1.372   2.314  13.282  0.1036  0.3565  0.3282
 6521SOL    HW131199   1.398   2.365  13.358 -0.4775  0.0838  0.7107
 6521SOL    HW231200   1.335   2.235  13.323 -0.2510 -0.5988 -1.8421
 6522SOL     OW31201   2.608   2.410   7.075 -0.2591  0.0900 -0.1769
 6522SOL    HW131202   2.593   2.495   7.116 -1.6803 -1.3537  2.2421
 6522SOL    HW231203   2.526   2.387   7.030 -0.1402  0.1108 -0.4044
 6523SOL     OW31204   3.540   4.378   5.373  0.0986  0.5469 -0.2216
 6523SOL    HW131205   3.593   4.298   5.375 -2.0803 -0.9219 -1.3250
 6523SOL    HW231206   3.471   4.356   5.434 -2.6892 -0.6694 -3.8401
 6524SOL     OW31207   2.062   2.364  17.682 -0.9043  0.3210 -0.1606
 6524SOL    HW131208   2.041   2.309  17.607 -0.8782  1.0740 -0.7276
 6524SOL    HW231209   2.099   2.301   0.002 -1.3241 -1.0903 -1.3750
 6525SOL     OW31210   3.020   0.651   5.451  0.0166  0.3727 -0.1403
 6525SOL    HW131211   2.954   0.592   5.416  0.8684  0.1911 -1.4741
 6525SOL    HW231212   3.040   0.698   5.370  0.9599  2.1242  1.1161
 6526SOL     OW31213   4.463   4.657   3.003 -0.8698  0.4240  0.0879
 6526SOL    HW131214   4.523   4.594   2.962  0.2849  1.3382  0.3801
 6526SOL    HW231215   4.516   4.686   3.076  2.0367  0.5835 -2.0847
 6527SOL     OW31216   3.136   4.378   7.695  0.1011 -0.5439  0.2541
 6527SOL    HW131217   3.123   4.326   7.774  1.9664 -2.4420 -0.6875
 6527SOL    HW231218   3.049   4.403   7.665  0.6529 -0.8937 -1.6489
 6528SOL     OW31219   1.014   1.690   4.863 -0.4427  0.8960 -0.3453
 6528SOL    HW131220   1.084   1.642   4.907 -1.3351  0.9690  1.1322
 6528SOL    HW231221   1.052   1.767   4.821  0.7935  0.4277 -0.0808
 6529SOL     OW31222   3.500   3.006   6.336  0.0767  0.0111  0.6228
 6529SOL    HW131223   3.410   3.025   6.310 -0.0863 -1.4654  0.1100
 6529SOL    HW231224   3.512   2.917   6.301  3.6273  1.9049 -2.9299
 6530SOL     OW31225   1.528   3.394   9.349 -0.2064 -0.0874  0.3013
 6530SOL    HW131226   1.540   3.353   9.435  0.2445  2.4340  1.4683
 6530SOL    HW231227   1.618   3.417   9.327 -0.3797  1.0929  0.8326
 6531SOL     OW31228   3.394   4.036   8.188  0.3624  0.3451 -0.3022
 6531SOL    HW131229   3.384   4.000   8.276  3.8895  1.1747  0.4250
 6531SOL    HW231230   3.375   4.128   8.206  3.6554  1.2605 -1.5076
 6532SOL     OW31231   2.415   1.613   6.874 -0.6929  0.4343  0.6675
 6532SOL    HW131232   2.386   1.696   6.913 -3.6945  0.0804 -0.8994
 6532SOL    HW231233   2.478   1.646   6.809 -0.4633 -1.6967 -0.1693
 6533SOL     OW31234   0.031   0.035  12.307 -0.3035 -0.4005 -0.7238
 6533SOL    HW131235   4.710   0.080  12.370  2.4932  0.7987  0.8936
 6533SOL    HW231236   0.001   4.680  12.315 -2.3509  0.1071 -2.4492
 6534SOL     OW31237   0.696   0.105   5.147 -0.2594  0.1187 -0.9487
 6534SOL    HW131238   0.764   0.171   5.138  1.3234 -1.8393 -3.1882
 6534SOL    HW231239   0.674   0.086   5.055  0.3854  0.0474 -1.0884
 6535SOL     OW31240   0.852   4.536   5.196  0.3600 -0.0000 -0.3535
 6535SOL    HW131241   0.811   4.545   5.282  1.6638  0.4303  0.2416
 6535SOL    HW231242   0.930   4.593   5.199 -1.8892  3.0685 -0.5474
 6536SOL     OW31243   1.421   1.528   8.663 -0.3968 -0.0387  0.6053
 6536SOL    HW131244   1.369   1.587   8.717 -1.6042 -0.0689 -0.5049
 6536SOL    HW231245   1.365   1.451   8.669 -2.6611  1.5972  0.8223
 6537SOL     OW31246   3.001   0.374   3.384  0.1801 -0.4774 -0.0630
 6537SOL    HW131247   2.957   0.329   3.312  1.5630  1.2775 -1.9801
 6537SOL    HW231248   3.051   0.446   3.346 -0.7137 -0.0395 -0.4162
 6538SOL     OW31249   1.200   0.541   9.526 -0.0069  0.9847  0.0429
 6538SOL    HW131250   1.271   0.506   9.580 -0.6317  2.8461  2.0728
 6538SOL    HW231251   1.129   0.478   9.536  0.9843 -0.3743 -1.2757
 6539SOL     OW31252   4.519   3.172   3.834  0.2978 -0.1692  0.3435
 6539SOL    HW131253   4.441   3.208   3.791 -1.2236 -3.3943  0.3728
 6539SOL    HW231254   4.571   3.240   3.790  1.9783 -1.2417  0.6962
 6540SOL     OW31255   0.088   0.049   3.332  0.3411  0.0710 -0.5352
 6540SOL    HW131256   0.043   0.060   3.416  3.7788  0.0123  1.3249
 6540SOL    HW231257   0.179   0.064   3.356  0.6407 -0.6560 -1.2111
 6541SOL     OW31258   2.926   2.498   3.635 -0.6748  0.4332  0.1519
 6541SOL    HW131259   2.923   2.473   3.542 -4.1033 -0.6513  0.5667
 6541SOL    HW231260   2.838   2.503   3.670 -1.0388 -0.7292 -0.5872
 6542SOL     OW31261   3.165   0.213   9.074 -0.2255  0.5802 -0.6178
 6542SOL    HW131262   3.169   0.165   8.991  2.2115  0.0508 -0.1885
 6542SOL    HW231263   3.159   0.138   9.133  0.9141  1.3898  0.5263
 6543SOL     OW31264   0.668   2.640   4.938 -0.0950 -0.2291 -0.4487
 6543SOL    HW131265   0.750   2.609   4.900 -0.3529 -0.6371 -0.6779
 6543SOL    HW231266   0.701   2.707   4.998 -0.0622 -0.7818  0.1581
 6544SOL     OW31267   0.976   3.843   6.734 -0.1827 -0.2501  0.1323
 6544SOL    HW131268   1.060   3.883   6.759  0.0186  0.5337 -1.8561
 6544SOL    HW231269   0.926   3.906   6.786 -2.4170 -1.1441 -0.9826
 6545SOL     OW31270   1.750   1.944   1.928  0.8714  0.4973 -0.1777
 6545SOL    HW131271   1.724   1.966   2.018 -1.5368 -0.2975 -0.6742
 6545SOL    HW231272   1.829   1.890   1.932 -0.5817 -1.7452 -1.4566
 6546SOL     OW31273   4.066   4.428   5.598  0.4523 -0.2982  0.4560
 6546SOL    HW131274   4.059   4.333   5.586 -1.1185 -0.0953 -0.2357
 6546SOL    HW231275   4.159   4.433   5.619 -0.1726  0.0711  3.1807
 6547SOL     OW31276   3.811   0.393  10.518  0.7805  0.3184  0.2926
 6547SOL    HW131277   3.750   0.336  10.470  1.9994 -0.8983  0.2090
 6547SOL    HW231278   3.890   0.373  10.468  0.3758  0.2628 -0.3339
 6548SOL     OW31279   1.151   3.747   2.105  0.7471 -0.0940 -0.3594
 6548SOL    HW131280   1.172   3.724   2.014  1.3334 -0.3926 -0.1463
 6548SOL    HW231281   1.067   3.704   2.119 -0.4447  2.5371  0.3887
 6549SOL     OW31282   1.084   2.572   7.223  0.0084  0.1149 -0.0249
 6549SOL    HW131283   1.130   2.539   7.146 -2.9569  1.4542 -2.3516
 6549SOL    HW231284   1.043   2.653   7.192  1.2249  0.5894 -0.3567
 6550SOL     OW31285   2.880   2.095   7.304  0.4047  0.1624  0.1013
 6550SOL    HW131286   2.951   2.063   7.359 -0.6611 -0.8602  0.8708
 6550SOL    HW231287   2.875   2.186   7.334  1.4953 -0.6610  2.7350
 6551SOL     OW31288   1.596   0.120   8.653 -0.5491 -0.0786 -0.8917
 6551SOL    HW131289   1.571   0.074   8.573  1.2982 -3.0296  0.2133
 6551SOL    HW231290   1.584   0.206   8.614 -0.8476 -0.4814 -1.6834
 6552SOL     OW31291   0.861   1.883   5.414 -0.6764  0.0335  0.1043
 6552SOL    HW131292   0.799   1.946   5.451 -1.9250 -1.4974  0.5946
 6552SOL    HW231293   0.802   1.834   5.357 -0.9151  0.4465 -0.0064
 6553SOL     OW31294   0.961   3.819   7.261 -0.8509 -0.0532 -0.6458
 6553SOL    HW131295   0.986   3.863   7.179 -2.5562  0.5667 -0.8380
 6553SOL    HW231296   0.877   3.861   7.280 -1.0961 -0.4701 -0.8032
 6554SOL     OW31297   4.372   1.007   4.127  0.2478 -0.2819  0.8868
 6554SOL    HW131298   4.284   0.969   4.118  0.3383 -0.8650  2.3686
 6554SOL    HW231299   4.348   1.080   4.185  1.8173  0.6533  0.3716
 6555SOL     OW31300   1.679   0.339   1.329  0.6621  0.1607  0.3748
 6555SOL    HW131301   1.755   0.389   1.359  0.8720  1.3880 -2.2297
 6555SOL    HW231302   1.714   0.293   1.253 -0.4571  1.8607 -1.1480
 6556SOL     OW31303   0.448   2.896   2.914  0.1600 -0.1587  0.6534
 6556SOL    HW131304   0.481   2.862   2.997 -0.6402 -3.3289 -0.2850
 6556SOL    HW231305   0.426   2.980   2.953 -1.6277  0.1690 -1.0408
 6557SOL     OW31306   0.259   2.608  12.804  0.0016 -0.1364  0.2077
 6557SOL    HW131307   0.208   2.653  12.737 -1.2213 -0.6212  0.8169
 6557SOL    HW231308   0.223   2.521  12.819 -2.7220  1.3600  2.3393
 6558SOL     OW31309   4.625   1.380  10.490  0.5625 -0.3566  0.3146
 6558SOL    HW131310   4.654   1.432  10.565  1.6214 -1.5505  0.7323
 6558SOL    HW231311   4.633   1.436  10.413 -0.6013  0.2714  0.6488
 6559SOL     OW31312   0.444   3.652   2.038  0.8847 -0.2452 -0.6514
 6559SOL    HW131313   0.396   3.593   2.097  1.4739 -0.0596  0.0103
 6559SOL    HW231314   0.370   3.659   1.978  0.0677 -3.1382 -0.0082
 6560SOL     OW31315   1.048   0.473   6.949  0.2485 -0.4583  0.5253
 6560SOL    HW131316   1.036   0.389   6.994  0.5068  0.4526  2.2669
 6560SOL    HW231317   1.140   0.466   6.923  1.1176  0.8014  3.3773
 6561SOL     OW31318   4.372   4.581  11.803 -0.2726  0.2512 -0.1537
 6561SOL    HW131319   4.416   4.593  11.719 -1.4302 -0.6540 -0.8700
 6561SOL    HW231320   4.384   4.490  11.828  0.6225  1.0473  2.3512
 6562SOL     OW31321   3.444   0.244   5.590 -0.5149  0.3324 -0.5618
 6562SOL    HW131322   3.486   0.208   5.667  0.9551  0.4437 -1.3137
 6562SOL    HW231323   3.504   0.315   5.568 -0.6146  0.5189 -0.2283
 6563SOL     OW31324   4.124   2.206   3.587  0.2056  0.0954  0.3597
 6563SOL    HW131325   4.149   2.232   3.499  0.9280 -1.5949  0.0635
 6563SOL    HW231326   4.189   2.135   3.591  2.1791  1.8992  0.2256
 6564SOL     OW31327   4.483   2.081   6.660  0.4764  0.4576 -0.6565
 6564SOL    HW131328   4.491   2.134   6.580  2.8221 -0.1171 -0.8137
 6564SOL    HW231329   4.472   1.996   6.618 -1.1635 -0.8184  2.3587
 6565SOL     OW31330   0.445   2.937   3.967 -0.3104  0.8741  0.9642
 6565SOL    HW131331   0.395   2.855   3.970 -1.0123  1.2723  0.1894
 6565SOL    HW231332   0.486   2.923   4.053 -0.9841 -0.2721  1.1009
 6566SOL     OW31333   1.291   0.540   3.266  0.2792 -0.0560  0.2523
 6566SOL    HW131334   1.197   0.547   3.249 -0.0102 -3.7940  0.3233
 6566SOL    HW231335   1.307   0.447   3.251 -1.6283 -0.7302  2.4944
 6567SOL     OW31336   4.632   2.279  11.994  0.5002 -0.5690  0.3982
 6567SOL    HW131337   4.654   2.321  12.077 -1.0854  0.0498  0.5056
 6567SOL    HW231338   4.687   2.323  11.930 -2.7183  1.0540 -1.2496
 6568SOL     OW31339   0.792   0.993   9.603  0.5560  0.1247  0.1490
 6568SOL    HW131340   0.699   1.014   9.593  0.2398 -0.6304  1.4981
 6568SOL    HW231341   0.827   1.081   9.593 -2.6832  1.0593 -3.0402
 6569SOL     OW31342   3.489   2.883   1.906  0.3285  0.0466  0.4780
 6569SOL    HW131343   3.534   2.839   1.978 -2.1437  0.6668  2.4245
 6569SOL    HW231344   3.399   2.859   1.926  0.4526  0.6189  1.6949
 6570SOL     OW31345   3.185   2.617   9.019 -0.0728  0.4331 -0.0286
 6570SOL    HW131346   3.140   2.551   8.967 -0.3242  0.6352 -0.0626
 6570SOL    HW231347   3.277   2.610   8.994  0.3761 -0.4568  1.7902
 6571SOL     OW31348   2.520   1.913  11.539  0.9044  0.3140 -0.3031
 6571SOL    HW131349   2.559   1.839  11.585 -0.4430  0.7093  1.5197
 6571SOL    HW231350   2.545   1.986  11.595 -1.3120 -1.5972  3.1861
 6572SOL     OW31351   0.809   2.772   6.098  0.3266 -0.4707  0.0486
 6572SOL    HW131352   0.741   2.806   6.040 -0.1575 -1.5672 -0.0213
 6572SOL    HW231353   0.764   2.693   6.128  1.8213 -0.9074  1.1544
 6573SOL     OW31354   3.671   2.244   4.281 -0.5801 -0.0986 -0.1225
 6573SOL    HW131355   3.646   2.205   4.197 -0.3019  0.2245 -0.3556
 6573SOL    HW231356   3.749   2.194   4.304 -1.5914 -1.9084 -0.5739
 6574SOL     OW31357   1.863   3.815   2.107 -0.4290  0.2890  0.2623
 6574SOL    HW131358   1.838   3.727   2.079  0.9346  0.4204 -1.3813
 6574SOL    HW231359   1.830   3.869   2.035 -1.2901 -0.7404 -0.1228
 6575SOL     OW31360   2.414   0.232   1.949 -0.5630 -0.0711  0.4743
 6575SOL    HW131361   2.398   0.162   1.886 -0.8955  2.4372 -2.2403
 6575SOL    HW231362   2.359   0.207   2.022 -0.0427  0.5283  1.0694
 6576SOL     OW31363   1.932   3.419   9.420 -0.1459 -0.2177  0.0341
 6576SOL    HW131364   1.876   3.478   9.369 -1.1419 -0.7930  0.4817
 6576SOL    HW231365   1.999   3.388   9.359  0.5467 -0.8011  1.0789
 6577SOL     OW31366   2.330   3.213   2.445 -0.4808  0.7837 -0.0007
 6577SOL    HW131367   2.408   3.264   2.468 -1.0932  1.7512 -0.0480
 6577SOL    HW231368   2.364   3.150   2.382  1.3395  1.0832  0.7000
 6578SOL     OW31369   4.475   1.095  10.802  0.2536  0.0303 -0.0405
 6578SOL    HW131370   4.550   1.035  10.806 -2.8823 -3.8222  0.2444
 6578SOL    HW231371   4.490   1.134  10.716 -1.2413 -0.7154 -0.6420
 6579SOL     OW31372   1.686   1.100   6.196  0.2464 -0.5558 -0.4938
 6579SOL    HW131373   1.701   1.125   6.288 -0.7305  2.8597 -1.2519
 6579SOL    HW231374   1.764   1.128   6.148  0.7826  0.8109  1.1286
 6580SOL     OW31375   4.110   3.430   6.103 -0.1491 -0.1548 -0.9390
 6580SOL    HW131376   4.201   3.402   6.115  0.0043  2.0879  3.2856
 6580SOL    HW231377   4.053   3.364   6.140 -0.0386  0.5396  0.4990
 6581SOL     OW31378   3.365   1.660   8.122 -0.0808 -0.2812  0.4641
 6581SOL    HW131379   3.392   1.656   8.214 -3.7608 -1.1980  1.5462
 6581SOL    HW231380   3.342   1.753   8.119 -2.4582 -0.9210 -1.4719
 6582SOL     OW31381   0.221   4.551   3.249  0.0488 -0.1917 -0.0138
 6582SOL    HW131382   0.256   4.632   3.285  0.4096  0.3141 -1.5083
 6582SOL    HW231383   0.127   4.563   3.264  0.2858  0.8309  0.6618
 6583SOL     OW31384   1.084   3.236  13.622  0.5724 -0.4158 -0.2383
 6583SOL    HW131385   1.105   3.322  13.586 -0.6483 -0.1000 -0.1756
 6583SOL    HW231386   1.069   3.188  13.540  0.1397 -1.2350  0.3312
 6584SOL     OW31387   4.510   1.459   6.991  0.4226  0.1424  0.3146
 6584SOL    HW131388   4.585   1.468   7.050  1.7129 -1.5415 -1.0930
 6584SOL    HW231389   4.518   1.550   6.959 -1.6305  0.3939  0.5640
 6585SOL     OW31390   1.003   1.414  10.398 -0.3463 -0.1458  0.9122
 6585SOL    HW131391   0.957   1.405  10.315  4.1915 -0.3059 -1.5842
 6585SOL    HW231392   0.996   1.323  10.425  3.4432 -0.8230 -0.4809
 6586SOL     OW31393   0.108   0.022  13.364  0.1891  0.0703 -0.6486
 6586SOL    HW131394   0.165   0.040  13.440 -1.3190 -1.6707  0.8990
 6586SOL    HW231395   0.077   0.112  13.355 -3.1059 -0.9910  0.1077
 6587SOL     OW31396   2.342   2.607   5.091 -0.2877 -0.3750  0.0500
 6587SOL    HW131397   2.389   2.528   5.117 -1.3732 -0.6586  1.1580
 6587SOL    HW231398   2.409   2.645   5.034 -3.0636  0.1339 -2.8099
 6588SOL     OW31399   3.711   0.840   5.837  0.4474  0.1398  0.6574
 6588SOL    HW131400   3.698   0.927   5.876 -0.3846  0.8067 -1.0948
 6588SOL    HW231401   3.702   0.860   5.744  2.6719  0.3684  0.4888
 6589SOL     OW31402   1.987   0.140  15.378  0.4834 -0.0772 -0.2976
 6589SOL    HW131403   1.989   0.162  15.285  0.7837  1.8524  0.1677
 6589SOL    HW231404   2.077   0.117  15.401  0.4125  0.1577  0.2042
 6590SOL     OW31405   2.826   2.985  16.851  0.0630  0.2669  0.2105
 6590SOL    HW131406   2.805   2.992  16.758 -1.0928 -0.4620  0.4161
 6590SOL    HW231407   2.792   3.072  16.873  1.4272  1.1367 -1.1257
 6591SOL     OW31408   3.551   2.373   6.218  0.3777 -0.1355 -0.4255
 6591SOL    HW131409   3.592   2.287   6.213 -0.2515 -0.5369  1.3326
 6591SOL    HW231410   3.531   2.378   6.124  1.2351  0.6520 -0.5764
 6592SOL     OW31411   4.341   3.035   7.600 -0.4084 -0.5391 -0.4569
 6592SOL    HW131412   4.398   3.098   7.643 -0.7244 -0.7645  0.2959
 6592SOL    HW231413   4.279   3.017   7.671  1.7341  0.1161  1.5659
 6593SOL     OW31414   2.291   4.325   2.328 -0.5157 -0.0845  0.5015
 6593SOL    HW131415   2.351   4.358   2.261 -0.3846  0.8664  1.0970
 6593SOL    HW231416   2.240   4.259   2.279 -0.3681  3.3262 -4.2670
 6594SOL     OW31417   2.769   2.493   9.437 -0.3246  0.1377 -0.0161
 6594SOL    HW131418   2.823   2.513   9.514  1.7878  1.5992 -1.8996
 6594SOL    HW231419   2.687   2.537   9.461 -0.2355 -0.3954  1.2809
 6595SOL     OW31420   1.833   2.826   8.249  0.8109  0.1999 -0.0461
 6595SOL    HW131421   1.887   2.847   8.325  0.4934  1.2887 -0.1199
 6595SOL    HW231422   1.785   2.908   8.238 -2.1561 -1.5411 -0.0977
 6596SOL     OW31423   0.504   2.177   1.454  0.2558  0.0342 -0.4462
 6596SOL    HW131424   0.564   2.169   1.379  1.3449 -1.5001  0.5964
 6596SOL    HW231425   0.556   2.221   1.521 -0.9594 -0.0129  0.5171
 6597SOL     OW31426   0.086   3.998   7.632  0.5469  0.2776  0.3140
 6597SOL    HW131427   0.083   4.094   7.625 -2.2980  0.2689  1.4192
 6597SOL    HW231428   0.117   3.986   7.722  1.2302  1.2403  0.2050
 6598SOL     OW31429   2.918   1.964   8.124  0.0392 -0.1277 -0.2190
 6598SOL    HW131430   2.864   1.921   8.190  0.9938 -1.4394 -0.2820
 6598SOL    HW231431   2.959   2.039   8.167 -0.9364 -0.7894  1.8885
 6599SOL     OW31432   1.035   4.249  15.681  0.3385  0.3923  0.0061
 6599SOL    HW131433   1.042   4.287  15.594  2.4691  1.7478  0.7768
 6599SOL    HW231434   1.129   4.232  15.692  0.2158 -0.9961 -1.0067
 6600SOL     OW31435   4.025   0.120   4.799  0.0218  0.1221 -0.4395
 6600SOL    HW131436   4.035   0.100   4.706 -0.9251 -0.0746 -0.4969
 6600SOL    HW231437   4.061   0.044   4.846  1.5875 -0.4619 -2.5631
 6601SOL     OW31438   3.354   1.304   7.292 -0.2352  0.1415  0.0470
 6601SOL    HW131439   3.322   1.267   7.374  0.3494 -1.5353 -0.4787
 6601SOL    HW231440   3.432   1.251   7.272  0.2040 -0.1619  2.4947
 6602SOL     OW31441   4.162   4.452   3.297 -0.3129  0.3197  0.6594
 6602SOL    HW131442   4.166   4.492   3.210  1.7347 -1.0538  0.1214
 6602SOL    HW231443   4.126   4.527   3.345 -0.2039  1.3662 -0.8783
 6603SOL     OW31444   1.363   1.613   8.350  0.3390 -0.1715  0.0820
 6603SOL    HW131445   1.396   1.524   8.365  0.5500 -0.6237 -3.0682
 6603SOL    HW231446   1.342   1.654   8.434 -0.0038 -0.6663  0.2387
 6604SOL     OW31447   1.613   4.145  13.578 -0.3020  0.0701  0.2043
 6604SOL    HW131448   1.524   4.139  13.542 -0.2172 -0.4283  0.0796
 6604SOL    HW231449   1.651   4.060  13.557  1.1042  0.3234  1.7790
 6605SOL     OW31450   1.759   2.477   8.388 -0.2518 -0.5244  0.4286
 6605SOL    HW131451   1.733   2.453   8.477 -0.8433  1.6669  0.8397
 6605SOL    HW231452   1.675   2.515   8.362  1.1513  0.4724 -2.6861
 6606SOL     OW31453   3.469   1.356   7.002  0.2729  0.0821  0.7239
 6606SOL    HW131454   3.509   1.305   6.930  3.0485  1.9350  0.9622
 6606SOL    HW231455   3.387   1.374   6.955 -0.0997  3.0840  2.5837
 6607SOL     OW31456   1.166   2.107   1.118 -0.0723  0.2578  0.4395
 6607SOL    HW131457   1.198   2.134   1.032 -0.5687 -0.1350  0.1260
 6607SOL    HW231458   1.246   2.102   1.169 -1.6364  0.2069  2.8857
 6608SOL     OW31459   0.773   3.714   9.263 -0.0326  0.0003  0.1080
 6608SOL    HW131460   0.834   3.661   9.314  0.9223  0.0772 -0.9351
 6608SOL    HW231461   0.729   3.756   9.336  0.8081 -0.8357  1.0950
 6609SOL     OW31462   3.049   0.271   4.103  0.4146 -0.2406  0.2656
 6609SOL    HW131463   2.969   0.232   4.138  0.4652 -0.2306  0.3906
 6609SOL    HW231464   3.009   0.322   4.033  0.1071 -0.2625  0.4291
 6610SOL     OW31465   1.521   4.388   5.013  0.5451 -0.0684 -0.5501
 6610SOL    HW131466   1.434   4.422   4.994  1.3363  2.5413  0.5448
 6610SOL    HW231467   1.566   4.465   5.048 -0.9677  0.6494 -0.1808
 6611SOL     OW31468   4.017   2.592  16.789  0.2880 -0.3071  0.2878
 6611SOL    HW131469   3.991   2.500  16.788 -0.1773 -0.1956  2.4096
 6611SOL    HW231470   3.982   2.615  16.875 -0.5672  0.9175 -0.3966
 6612SOL     OW31471   3.677   0.473  13.293  0.7271  0.0219  0.4704
 6612SOL    HW131472   3.654   0.388  13.255 -1.6084  0.7950  0.1405
 6612SOL    HW231473   3.626   0.473  13.373  2.7497 -1.8826  1.7656
 6613SOL     OW31474   0.806   0.191   1.761 -0.4476 -0.2944  0.1265
 6613SOL    HW131475   0.778   0.244   1.687  0.6034  0.3987  0.2337
 6613SOL    HW231476   0.832   0.250   1.832  1.0739 -0.5007 -0.2731
 6614SOL     OW31477   3.426   3.378   0.425 -0.2123  0.0131  0.0699
 6614SOL    HW131478   3.508   3.344   0.460 -0.1045 -0.0983 -0.2935
 6614SOL    HW231479   3.444   3.374   0.331  0.1326 -3.4206  0.3077
 6615SOL     OW31480   0.898   1.030   3.759 -0.0842 -0.2712 -0.3815
 6615SOL    HW131481   0.908   1.098   3.692  0.5809  0.1534  0.1538
 6615SOL    HW231482   0.987   0.994   3.754 -0.0575 -0.3962  1.0883
 6616SOL     OW31483   3.936   3.523  16.647 -0.2218  0.3297  0.1038
 6616SOL    HW131484   3.985   3.561  16.574 -0.0392 -2.0547 -1.0247
 6616SOL    HW231485   4.009   3.506  16.707  1.4445  1.0380 -1.6845
 6617SOL     OW31486   0.862   2.080   6.629 -0.0220 -0.1894  0.0048
 6617SOL    HW131487   0.928   2.038   6.685 -0.5086 -1.0477 -0.0637
 6617SOL    HW231488   0.859   2.023   6.552 -0.1602  1.5131 -1.2525
 6618SOL     OW31489   0.903   2.123  14.624  0.3091 -0.0112 -0.1817
 6618SOL    HW131490   0.894   2.112  14.718  1.3376  0.9852  0.0462
 6618SOL    HW231491   0.810   2.135  14.610  0.2103 -2.5023 -1.6377
 6619SOL     OW31492   0.616   2.464   7.873  0.4418 -0.3344 -0.2966
 6619SOL    HW131493   0.654   2.379   7.848 -0.6064 -1.1336  0.8128
 6619SOL    HW231494   0.595   2.452   7.965 -0.7172 -2.9484 -0.8788
 6620SOL     OW31495   1.700   2.071   6.635 -0.2185  0.2641 -0.8527
 6620SOL    HW131496   1.620   2.069   6.687  1.4396 -1.8097  1.6039
 6620SOL    HW231497   1.693   2.022   6.554  0.9909  2.2183 -2.1646
 6621SOL     OW31498   0.332   3.528   3.878 -0.6210  0.3937  0.0714
 6621SOL    HW131499   0.395   3.497   3.813 -1.3666 -0.6816 -0.1408
 6621SOL    HW231500   0.388   3.575   3.939 -1.3568  1.8073 -0.3356
 6622SOL     OW31501   0.220   3.973   1.754 -0.0024  0.2757  0.0058
 6622SOL    HW131502   0.179   3.901   1.706 -1.5747  1.3167 -0.2183
 6622SOL    HW231503   0.295   3.982   1.697 -2.0946  0.3126 -2.7311
 6623SOL     OW31504   2.305   4.562  15.379 -0.2347 -0.3549  0.5150
 6623SOL    HW131505   2.227   4.507  15.388 -1.0681  0.6132 -0.8359
 6623SOL    HW231506   2.341   4.547  15.466 -0.4507  0.7437  0.7916
 6624SOL     OW31507   0.029   1.025   7.995  0.4294 -0.0547 -0.0798
 6624SOL    HW131508   0.029   1.110   7.951  3.6403  0.4664  0.9447
 6624SOL    HW231509   0.110   0.981   7.972  0.3424  0.8050 -2.0780
 6625SOL     OW31510   0.384   0.606   8.198  0.1672  0.0990  0.2923
 6625SOL    HW131511   0.328   0.553   8.255  0.0485 -2.4102 -2.2047
 6625SOL    HW231512   0.472   0.589   8.232 -0.4902 -1.7384  1.0816
 6626SOL     OW31513   4.156   0.824  12.054 -0.2018 -0.1595  0.6815
 6626SOL    HW131514   4.142   0.912  12.020  0.9102 -0.5533 -0.7990
 6626SOL    HW231515   4.106   0.771  11.991  0.5496 -0.7318  0.5595
 6627SOL     OW31516   0.147   1.290   4.474  0.2486  0.0354  0.0982
 6627SOL    HW131517   0.057   1.286   4.442 -0.3430 -1.5819  1.9457
 6627SOL    HW231518   0.143   1.335   4.558 -1.8148  0.4131 -0.1974
 6628SOL     OW31519   2.900   3.430   6.468 -0.0385  0.1756 -0.1122
 6628SOL    HW131520   2.961   3.432   6.542 -1.8413 -0.2502  1.4064
 6628SOL    HW231521   2.838   3.366   6.504  2.1875 -1.3218  1.0327
 6629SOL     OW31522   4.331   2.858   5.480 -0.2324  0.0476  0.3953
 6629SOL    HW131523   4.252   2.848   5.533 -0.2557  1.8168  0.6916
 6629SOL    HW231524   4.300   2.876   5.391  0.5531 -0.9927 -0.0849
 6630SOL     OW31525   3.734   2.777   7.746 -0.4453 -0.6151 -0.0830
 6630SOL    HW131526   3.782   2.694   7.739 -1.6841 -1.1391 -2.2589
 6630SOL    HW231527   3.651   2.756   7.704 -1.3993  0.5387  1.2363
 6631SOL     OW31528   0.854   0.430   6.746  0.2974  0.2405  0.1854
 6631SOL    HW131529   0.908   0.456   6.821 -1.2575 -0.3107  1.4842
 6631SOL    HW231530   0.913   0.378   6.691 -1.5182  1.3352 -2.7778
 6632SOL     OW31531   0.624   4.186   9.669  0.5405  0.3243  0.2302
 6632SOL    HW131532   0.615   4.095   9.639  1.4472  0.4751 -0.5212
 6632SOL    HW231533   0.697   4.186   9.732 -0.8022 -1.8261  1.8014
 6633SOL     OW31534   2.471   1.228  17.430 -0.3194 -0.0913 -0.0743
 6633SOL    HW131535   2.493   1.137  17.408 -2.8502 -0.4760 -0.9985
 6633SOL    HW231536   2.447   1.223  17.522  2.6450  2.0582  0.8197
 6634SOL     OW31537   3.313   0.131   7.656  0.3466  0.6372  0.2789
 6634SOL    HW131538   3.279   0.194   7.593  1.8363 -0.8962 -2.0572
 6634SOL    HW231539   3.274   0.162   7.738 -1.8313 -4.5782  1.1997
 6635SOL     OW31540   2.471   4.010   2.866  0.1230 -0.1657 -0.0441
 6635SOL    HW131541   2.463   4.025   2.961  2.0714  0.7384 -0.0271
 6635SOL    HW231542   2.557   4.048   2.850  0.3887 -0.9678 -0.4556
 6636SOL     OW31543   1.608   3.988   6.450 -0.3745 -0.1123 -0.0993
 6636SOL    HW131544   1.628   3.897   6.428 -1.7700 -0.2101 -0.9976
 6636SOL    HW231545   1.684   4.013   6.502  0.1807 -0.5465 -0.7086
 6637SOL     OW31546   1.631   0.513   7.351 -0.5548 -0.3281  0.0609
 6637SOL    HW131547   1.645   0.418   7.344 -0.4655 -0.2902 -0.2696
 6637SOL    HW231548   1.709   0.546   7.308 -0.5367 -1.9749 -1.1727
 6638SOL     OW31549   1.510   1.795   2.504  0.4567  0.1507  0.0618
 6638SOL    HW131550   1.515   1.807   2.409  2.4766 -1.4709 -0.0385
 6638SOL    HW231551   1.524   1.885   2.534  1.1667  0.3151 -0.7753
 6639SOL     OW31552   4.347   2.119   5.535 -0.5567 -0.6540  0.3681
 6639SOL    HW131553   4.310   2.055   5.595 -3.5438 -0.8295 -1.6373
 6639SOL    HW231554   4.414   2.070   5.487 -0.2693 -0.1226  0.2167
 6640SOL     OW31555   4.481   3.422   0.006  0.4586 -0.2164  0.0180
 6640SOL    HW131556   4.506   3.508   0.039 -0.2636 -0.4715  1.2258
 6640SOL    HW231557   4.434   3.383   0.080 -0.2810  0.1749 -0.2430
 6641SOL     OW31558   0.452   3.257   3.931  0.1223  0.0299  0.5758
 6641SOL    HW131559   0.359   3.236   3.924  0.2719 -0.6820  0.7946
 6641SOL    HW231560   0.470   3.235   4.022  0.7915 -1.1231  0.1599
 6642SOL     OW31561   3.334   1.107  16.931  0.5253  0.4398 -0.3317
 6642SOL    HW131562   3.259   1.055  16.960  1.8219 -1.2081  0.1063
 6642SOL    HW231563   3.403   1.041  16.919 -0.1887 -0.6295  1.4164
 6643SOL     OW31564   3.437   3.785  16.107  0.4104 -0.1746  0.0646
 6643SOL    HW131565   3.476   3.699  16.094 -0.2409 -0.1543 -1.9159
 6643SOL    HW231566   3.391   3.771  16.190 -1.8836  0.0980 -1.1528
 6644SOL     OW31567   0.542   2.040   4.329 -0.3860 -0.0136  0.0519
 6644SOL    HW131568   0.613   2.009   4.273 -0.2785 -0.8254  0.6218
 6644SOL    HW231569   0.586   2.060   4.412 -0.5561 -0.5513  0.2690
 6645SOL     OW31570   3.683   2.985   7.167  0.3417  0.0777  0.5701
 6645SOL    HW131571   3.617   2.960   7.231 -0.7025 -0.0381 -0.5395
 6645SOL    HW231572   3.755   2.922   7.163 -0.2593 -0.5196 -0.8778
 6646SOL     OW31573   0.356   0.964  10.282  0.3501  0.2009 -0.0496
 6646SOL    HW131574   0.356   0.889  10.224 -0.4748  0.4815 -0.4027
 6646SOL    HW231575   0.262   0.967  10.300  0.0606  0.9526 -1.7190
 6647SOL     OW31576   0.850   4.476   3.832 -0.6886 -0.1117  0.3396
 6647SOL    HW131577   0.876   4.568   3.830  1.3975 -0.6858  0.3550
 6647SOL    HW231578   0.803   4.483   3.916  1.8048  2.7148  1.4994
 6648SOL     OW31579   4.466   3.904   1.094 -0.1410 -0.0342  0.0159
 6648SOL    HW131580   4.539   3.959   1.066 -0.2930 -0.2017 -0.7270
 6648SOL    HW231581   4.409   3.966   1.139 -1.0998 -1.5898  0.9325
 6649SOL     OW31582   3.099   2.976  16.518  0.1674  0.4255 -0.4397
 6649SOL    HW131583   3.101   2.929  16.434  2.0144  1.5102 -1.0013
 6649SOL    HW231584   3.014   2.941  16.545  2.3392 -4.2278  0.4216
 6650SOL     OW31585   0.775   2.427  17.357 -0.5131 -0.1121 -0.4686
 6650SOL    HW131586   0.795   2.445  17.266 -1.2788 -0.2605 -0.6590
 6650SOL    HW231587   0.856   2.450  17.403 -0.2821  0.3284 -1.0973
 6651SOL     OW31588   2.307   2.534   3.603  0.3445 -0.7508  0.2532
 6651SOL    HW131589   2.267   2.620   3.620  0.6610 -0.0825 -2.3268
 6651SOL    HW231590   2.278   2.516   3.513 -0.0903  1.3164 -0.0214
 6652SOL     OW31591   2.463   3.210   4.116 -0.1817 -0.0234  0.2304
 6652SOL    HW131592   2.517   3.175   4.187 -0.9471 -0.9124  0.3728
 6652SOL    HW231593   2.385   3.159   4.139 -0.8217 -0.9083 -3.9005
 6653SOL     OW31594   3.070   1.150   2.810 -0.3721 -0.0689  0.5598
 6653SOL    HW131595   3.007   1.131   2.879 -0.7107 -1.5108 -0.1536
 6653SOL    HW231596   3.081   1.060   2.783  0.3112 -0.3939  1.8984
 6654SOL     OW31597   4.398   0.954   7.201 -0.1197 -0.6353 -0.3240
 6654SOL    HW131598   4.306   0.970   7.184 -0.5899 -0.3855  2.3945
 6654SOL    HW231599   4.421   1.032   7.251  1.9829  0.3467 -2.8119
 6655SOL     OW31600   0.337   1.302   3.404  0.1570 -0.1809 -0.1031
 6655SOL    HW131601   0.374   1.359   3.337  1.9668  1.3245  2.2195
 6655SOL    HW231602   0.363   1.213   3.381  0.8419 -0.2009  0.7917
 6656SOL     OW31603   0.990   1.789  10.503 -0.4914 -0.6979  0.2945
 6656SOL    HW131604   0.921   1.795  10.569 -0.4738 -0.9436  0.3361
 6656SOL    HW231605   0.996   1.882  10.482  0.7854 -0.3793  2.0569
 6657SOL     OW31606   0.676   1.581   0.944 -0.7834  0.0286  0.7102
 6657SOL    HW131607   0.753   1.538   0.981 -0.6303  0.0723  0.4399
 6657SOL    HW231608   0.619   1.512   0.908 -2.9990  2.2296 -0.0069
 6658SOL     OW31609   1.431   3.906   1.916  0.1841  0.9293 -0.3034
 6658SOL    HW131610   1.409   3.946   2.000 -0.1217 -0.3919  0.2606
 6658SOL    HW231611   1.355   3.851   1.894 -1.3497  2.3799  1.3993
 6659SOL     OW31612   3.050   0.860   7.298 -0.2578 -0.2028 -0.4037
 6659SOL    HW131613   3.128   0.815   7.328  0.2167  1.4406  0.8522
 6659SOL    HW231614   3.078   0.939   7.252  0.6102 -1.8565 -2.6786
 6660SOL     OW31615   0.814   0.856   4.248  0.0461  0.7642  0.2696
 6660SOL    HW131616   0.890   0.818   4.204 -2.3417 -2.4935 -1.0961
 6660SOL    HW231617   0.802   0.940   4.204  2.6418  0.4204 -1.0961
 6661SOL     OW31618   3.192   0.942   4.887  0.1243 -0.1706  0.0631
 6661SOL    HW131619   3.196   0.846   4.884  0.6654 -0.1708  1.1284
 6661SOL    HW231620   3.240   0.972   4.810  2.1701 -0.3551  1.2825
 6662SOL     OW31621   0.174   3.082   4.820 -0.4818 -0.2962 -0.4184
 6662SOL    HW131622   0.165   3.065   4.914 -0.9706  2.0371 -0.0286
 6662SOL    HW231623   0.204   3.173   4.813  3.4044 -1.5781 -0.6775
 6663SOL     OW31624   0.292   0.248   5.090 -0.2473 -0.0313  0.0838
 6663SOL    HW131625   0.334   0.165   5.113 -2.2847 -0.3115  2.8456
 6663SOL    HW231626   0.313   0.250   4.997  3.6288  1.9835  1.0137
 6664SOL     OW31627   3.719   1.563   8.993  0.0352  0.0593 -0.0042
 6664SOL    HW131628   3.768   1.505   8.934 -0.3707 -1.1093  0.8036
 6664SOL    HW231629   3.780   1.631   9.021  1.3546 -1.6354  1.3111
 6665SOL     OW31630   4.496   4.701   6.151 -0.2590  0.5136  0.3585
 6665SOL    HW131631   4.519   0.058   6.148 -2.1502  1.0108  1.3608
 6665SOL    HW231632   4.509   4.686   6.057 -0.1941  2.5942  0.0186
 6666SOL     OW31633   4.238   1.920   5.099 -0.1604  0.0777  0.0089
 6666SOL    HW131634   4.197   1.981   5.038 -1.7583 -1.2548 -0.2742
 6666SOL    HW231635   4.306   1.969   5.144 -2.6090  3.0164  0.4865
 6667SOL     OW31636   1.284   3.222  13.842  0.2291  0.0797 -0.1379
 6667SOL    HW131637   1.290   3.127  13.855  1.2610  0.2181  0.3990
 6667SOL    HW231638   1.212   3.238  13.781  0.3899 -1.2426 -0.6751
 6668SOL     OW31639   3.888   1.962  16.384 -0.2828 -0.5843 -0.3954
 6668SOL    HW131640   3.942   1.926  16.455  1.2603  0.3400 -1.0950
 6668SOL    HW231641   3.896   1.882  16.332  5.0115  0.5654 -1.3713
 6669SOL     OW31642   4.504   3.884  15.706  0.2299 -0.0774  0.1155
 6669SOL    HW131643   4.586   3.862  15.751 -1.7476 -3.1905  2.2251
 6669SOL    HW231644   4.498   3.819  15.636 -0.3260 -0.2425  0.3179
 6670SOL     OW31645   4.405   1.436   3.703  0.2597  0.2318  0.8810
 6670SOL    HW131646   4.372   1.425   3.614 -2.5722  0.5136  1.9205
 6670SOL    HW231647   4.484   1.382   3.698 -0.5697 -1.1485  2.6743
 6671SOL     OW31648   0.918   1.450  14.408  0.1002 -0.0843 -0.3054
 6671SOL    HW131649   0.932   1.461  14.502  1.3234  1.8535 -0.7121
 6671SOL    HW231650   1.004   1.479  14.376  0.2712  0.0115  0.2445
 6672SOL     OW31651   4.121   3.918   4.087  0.1632 -0.2157 -0.8788
 6672SOL    HW131652   4.197   3.967   4.054  0.0211  0.2119 -0.5679
 6672SOL    HW231653   4.070   3.899   4.008  0.5741  0.0741 -1.2136
 6673SOL     OW31654   1.812   3.600   8.443 -0.0288  0.0383  0.2121
 6673SOL    HW131655   1.899   3.604   8.403  0.4321  1.3921  1.3285
 6673SOL    HW231656   1.780   3.522   8.398 -1.0255 -0.0679  1.0996
 6674SOL     OW31657   4.389   0.443   5.444 -0.6506 -0.4372 -0.6353
 6674SOL    HW131658   4.467   0.391   5.428 -0.3662 -0.5437  1.0473
 6674SOL    HW231659   4.405   0.478   5.532 -0.1767 -0.1508 -0.8380
 6675SOL     OW31660   3.250   2.187  14.787 -0.0647 -0.5217  0.0351
 6675SOL    HW131661   3.219   2.182  14.696 -1.2803  2.7666  0.2506
 6675SOL    HW231662   3.176   2.154  14.838 -0.4593 -0.1824 -0.3034
 6676SOL     OW31663   0.337   2.089  11.361  0.4808  0.4703 -0.1299
 6676SOL    HW131664   0.368   2.011  11.406 -0.8183  0.4593  0.7572
 6676SOL    HW231665   0.391   2.163  11.390  1.2581 -0.5673  1.0925
 6677SOL     OW31666   0.707   1.809   7.716 -0.0418 -0.7103 -0.3250
 6677SOL    HW131667   0.716   1.753   7.639 -0.0184  0.9183 -1.4921
 6677SOL    HW231668   0.612   1.807   7.729 -0.2018  2.1098 -1.2735
 6678SOL     OW31669   2.187   3.150   5.710 -0.1121 -0.5536 -0.0531
 6678SOL    HW131670   2.126   3.189   5.772  0.5752 -0.6641  0.7006
 6678SOL    HW231671   2.205   3.232   5.664  0.3176 -0.8629 -0.4419
 6679SOL     OW31672   3.253   2.585   2.846  0.7320 -0.2251 -0.0785
 6679SOL    HW131673   3.309   2.618   2.916 -0.7735 -0.6303  1.3099
 6679SOL    HW231674   3.186   2.530   2.887  1.9924  0.2498  2.6324
 6680SOL     OW31675   3.723   4.667   5.523  0.0013 -0.0226  0.2724
 6680SOL    HW131676   3.629   4.648   5.522 -0.5599  2.7823 -1.2609
 6680SOL    HW231677   3.747   4.710   5.605  1.0014 -2.4647  1.2465
 6681SOL     OW31678   2.836   4.572  11.076 -0.2934 -0.2234 -0.1582
 6681SOL    HW131679   2.906   4.574  11.142  0.3492  1.3620 -0.8906
 6681SOL    HW231680   2.763   4.591  11.135 -1.1321  0.3843 -1.3954
 6682SOL     OW31681   1.912   1.886   2.879  0.0791  0.1422  0.5627
 6682SOL    HW131682   1.975   1.820   2.852  0.1153 -0.2266  1.5592
 6682SOL    HW231683   1.961   1.929   2.949  1.2864  1.1680 -0.9230
 6683SOL     OW31684   4.193   4.686   6.153  0.2390 -0.4159 -0.0639
 6683SOL    HW131685   4.288   4.678   6.167  0.4050  1.8361  0.0260
 6683SOL    HW231686   4.155   4.703   6.239  1.3887 -1.2283  0.6093
 6684SOL     OW31687   3.973   3.859   3.882 -0.0658 -0.3724 -0.6026
 6684SOL    HW131688   3.953   3.768   3.906  0.1393 -0.1998  0.2137
 6684SOL    HW231689   3.932   3.867   3.795 -1.0826 -0.9107 -0.1857
 6685SOL     OW31690   1.052   2.574   3.097 -0.1149 -0.8464 -0.1166
 6685SOL    HW131691   0.966   2.553   3.061 -1.7678  2.5535  1.8361
 6685SOL    HW231692   1.087   2.485   3.104  0.7958 -0.6293 -2.0876
 6686SOL     OW31693   3.147   1.663   4.451  0.4093 -0.2582 -0.0894
 6686SOL    HW131694   3.060   1.675   4.487  0.0168 -2.0933 -0.4170
 6686SOL    HW231695   3.178   1.581   4.491  0.3335 -0.4434 -0.4130
 6687SOL     OW31696   4.140   0.590   7.944 -0.1741  0.4467  0.5251
 6687SOL    HW131697   4.158   0.675   7.983  2.2031  1.2681 -2.3931
 6687SOL    HW231698   4.191   0.535   8.004  0.5723 -1.8696 -2.2579
 6688SOL     OW31699   1.406   3.715   9.767  0.2485  0.5104  0.0148
 6688SOL    HW131700   1.351   3.748   9.839 -2.3512 -1.5106 -1.0521
 6688SOL    HW231701   1.494   3.738   9.796  0.0708 -0.7771  1.5659
 6689SOL     OW31702   1.541   0.795   2.430 -0.1263 -0.1524  1.0942
 6689SOL    HW131703   1.546   0.829   2.341  0.1036 -0.3654  1.0273
 6689SOL    HW231704   1.497   0.863   2.482 -0.9827  0.3943 -0.3605
 6690SOL     OW31705   0.337   2.321   8.593 -0.0911  0.1236  0.2996
 6690SOL    HW131706   0.262   2.335   8.534  1.1980  2.0989 -0.8592
 6690SOL    HW231707   0.348   2.405   8.637 -1.7350  0.3308  0.3060
 6691SOL     OW31708   1.743   0.216   9.076 -0.0004 -0.1830 -0.2845
 6691SOL    HW131709   1.758   0.271   9.153 -0.3852 -1.0553  0.4211
 6691SOL    HW231710   1.676   0.263   9.025 -1.9029 -1.4945  0.9912
 6692SOL     OW31711   1.799   2.208   1.873  0.0464 -0.1265  0.4927
 6692SOL    HW131712   1.752   2.178   1.795  0.5312 -4.0802  1.6941
 6692SOL    HW231713   1.804   2.120   1.911 -1.8733 -1.3311 -2.0168
 6693SOL     OW31714   1.647   4.271   4.784  0.3343 -0.3142 -0.1927
 6693SOL    HW131715   1.568   4.263   4.731  0.7962  2.2538 -1.2360
 6693SOL    HW231716   1.618   4.296   4.872 -0.9640  0.1257 -0.7473
 6694SOL     OW31717   3.943   4.337  11.660  1.0287  0.0402  0.5424
 6694SOL    HW131718   3.952   4.394  11.583  1.2370 -2.1764 -1.0643
 6694SOL    HW231719   3.850   4.317  11.656  0.9880  0.6008 -1.3219
 6695SOL     OW31720   2.047   3.009  15.700 -0.4603 -0.1059  0.2608
 6695SOL    HW131721   2.137   3.032  15.678 -0.8011  1.2192  0.2102
 6695SOL    HW231722   2.022   2.954  15.625 -1.2730  1.6955 -0.8136
 6696SOL     OW31723   3.907   0.814   5.523  0.3899  0.0886 -0.2769
 6696SOL    HW131724   3.980   0.811   5.585 -0.4943  0.0867  0.7598
 6696SOL    HW231725   3.920   0.902   5.489  2.3532  0.0838  0.4497
 6697SOL     OW31726   1.583   3.768  15.475  0.4426 -0.4080  0.4572
 6697SOL    HW131727   1.552   3.740  15.389 -1.4488  0.5648  0.7997
 6697SOL    HW231728   1.656   3.824  15.449 -0.1563 -1.5476 -3.6222
 6698SOL     OW31729   0.129   3.628   4.281 -0.7511 -0.3175  0.2416
 6698SOL    HW131730   0.175   3.709   4.261  0.1739 -1.4629 -2.2717
 6698SOL    HW231731   0.043   3.650   4.245 -0.2157  1.2082 -0.1204
 6699SOL     OW31732   3.140   4.234   2.905 -0.1860  0.0561 -0.0356
 6699SOL    HW131733   3.126   4.270   2.818  2.7124 -1.3007 -1.0737
 6699SOL    HW231734   3.140   4.139   2.892  1.8478 -0.3354  2.8171
 6700SOL     OW31735   0.116   0.038   2.608 -0.3738  0.2496  0.2201
 6700SOL    HW131736   0.073   0.067   2.689 -0.7271  0.8471 -0.1835
 6700SOL    HW231737   0.147   0.120   2.570  1.0020  0.2346  1.2880
 6701SOL     OW31738   1.882   1.822   3.631  0.1644 -0.6983  0.0974
 6701SOL    HW131739   1.798   1.864   3.651 -0.3954 -1.7882  0.0124
 6701SOL    HW231740   1.851   1.737   3.601 -1.2815 -0.2389  0.2592
 6702SOL     OW31741   4.036   1.314   4.690  0.3327  0.4227  0.0626
 6702SOL    HW131742   4.101   1.246   4.672  1.3612  1.9411 -2.1254
 6702SOL    HW231743   4.070   1.344   4.774 -0.8262 -0.2988  0.7760
 6703SOL     OW31744   3.933   3.414   8.198  0.0793 -0.0878  0.2177
 6703SOL    HW131745   4.023   3.439   8.216  0.6449 -2.0865  0.2359
 6703SOL    HW231746   3.888   3.438   8.279 -1.1055 -2.5320  0.2840
 6704SOL     OW31747   0.833   2.088  11.278 -0.6661 -0.0517  0.2651
 6704SOL    HW131748   0.925   2.114  11.282 -0.4302 -0.8489 -0.1385
 6704SOL    HW231749   0.813   2.127  11.364 -1.0545  2.4197 -0.9261
 6705SOL     OW31750   1.985   4.002   7.603  0.3424 -0.5060  0.0548
 6705SOL    HW131751   1.950   4.089   7.624 -2.4657 -2.0467  1.7789
 6705SOL    HW231752   1.907   3.947   7.607  0.2438 -0.4754 -1.7647
 6706SOL     OW31753   2.022   0.132   7.713 -0.1114 -0.6470 -0.0768
 6706SOL    HW131754   2.084   0.136   7.640 -0.4385 -0.8153 -0.3605
 6706SOL    HW231755   2.077   0.085   7.776  2.3543  1.0175 -0.9693
 6707SOL     OW31756   4.093   0.121   8.285  0.4096  0.3452 -0.7194
 6707SOL    HW131757   4.061   0.093   8.199  2.1824  0.8968 -1.5688
 6707SOL    HW231758   4.014   0.131   8.338 -0.2365  0.1459 -1.6497
 6708SOL     OW31759   2.933   3.222   8.641 -0.1896  0.0792  0.0520
 6708SOL    HW131760   2.981   3.279   8.581  2.6145 -1.7051  0.5927
 6708SOL    HW231761   2.935   3.283   8.715  0.4469 -0.9957  0.9200
 6709SOL     OW31762   4.047   1.665  14.997  0.7818 -0.2278 -0.1031
 6709SOL    HW131763   3.983   1.732  15.019  0.9237 -0.0798 -0.1410
 6709SOL    HW231764   4.129   1.714  15.001 -0.2281  1.5159 -0.7427
 6710SOL     OW31765   2.696   2.762  17.515  0.0549 -0.0451  0.4231
 6710SOL    HW131766   2.763   2.816  17.471 -0.0742 -0.5163 -0.3497
 6710SOL    HW231767   2.696   2.691  17.451  1.0116 -0.6639  1.1210
 6711SOL     OW31768   0.853   4.141  13.089  0.1557 -0.0454  0.2240
 6711SOL    HW131769   0.928   4.110  13.138  1.8063  1.6279 -1.2263
 6711SOL    HW231770   0.850   4.235  13.110  3.6175 -0.4494  2.5612
 6712SOL     OW31771   0.704   3.179   2.227 -0.2966 -0.1060  0.4422
 6712SOL    HW131772   0.623   3.230   2.231  0.1624  0.8301 -2.2440
 6712SOL    HW231773   0.665   3.091   2.230 -0.5456 -0.0728 -1.6672
 6713SOL     OW31774   1.040   0.067   3.103  0.4384  0.1613 -0.5441
 6713SOL    HW131775   0.949   0.094   3.090  0.1528 -0.4866  0.1271
 6713SOL    HW231776   1.049   4.726   3.045 -1.9441 -0.5073  0.0016
 6714SOL     OW31777   3.932   4.507  16.862  0.0599  0.0974  0.4495
 6714SOL    HW131778   3.909   4.587  16.814 -2.4036 -1.2556 -0.5798
 6714SOL    HW231779   4.017   4.535  16.897 -0.4458  0.5716  1.3035
 6715SOL     OW31780   1.528   0.422   6.518 -0.6173  0.0463  0.2087
 6715SOL    HW131781   1.446   0.432   6.469 -0.7805  2.1090  0.9014
 6715SOL    HW231782   1.565   0.510   6.507  0.1033 -0.4861 -1.5745
 6716SOL     OW31783   2.087   1.594   9.441 -0.4649 -0.0724 -0.4763
 6716SOL    HW131784   2.000   1.575   9.406 -1.3740  1.0201  1.2047
 6716SOL    HW231785   2.149   1.611   9.369 -1.6532  1.7719 -1.0375
 6717SOL     OW31786   1.283   0.332  13.378 -0.7732  0.2803 -0.3554
 6717SOL    HW131787   1.255   0.368  13.463 -0.0723 -2.0672  0.8590
 6717SOL    HW231788   1.327   0.251  13.405 -0.5971  1.0240  1.6011
 6718SOL     OW31789   3.044   2.527   5.364  0.0688 -0.5539 -0.4218
 6718SOL    HW131790   3.025   2.443   5.324  1.6112 -1.3059  0.4180
 6718SOL    HW231791   3.092   2.580   5.300  0.3656  1.6590  1.6369
 6719SOL     OW31792   4.425   1.091   3.601 -0.5670  0.6843 -0.1767
 6719SOL    HW131793   4.478   1.170   3.614  3.1933 -1.8535 -0.0519
 6719SOL    HW231794   4.470   1.040   3.669 -0.7402 -0.0114 -0.5889
 6720SOL     OW31795   0.778   2.180   1.605  0.0325  0.1945 -0.1026
 6720SOL    HW131796   0.757   2.268   1.572  1.7041  0.8975  0.6914
 6720SOL    HW231797   0.834   2.195   1.681 -0.3526 -2.7631  0.7343
 6721SOL     OW31798   4.681   3.538   1.849 -0.5618 -0.2685  0.0962
 6721SOL    HW131799   4.635   3.545   1.932  0.4687  0.1910  0.6343
 6721SOL    HW231800   4.632   3.603   1.799 -2.3951 -1.2106  0.6721
 6722SOL     OW31801   3.019   3.672   1.356 -0.1117 -0.6694  0.1010
 6722SOL    HW131802   3.087   3.736   1.375  0.3215 -1.3005  0.6818
 6722SOL    HW231803   3.067   3.607   1.305  1.5434  0.0342  0.7660
 6723SOL     OW31804   3.026   4.400   3.781  0.0791  0.1607  0.0547
 6723SOL    HW131805   3.074   4.377   3.701  0.3499 -1.1805  0.6002
 6723SOL    HW231806   3.007   4.493   3.770  0.2464  0.1464 -0.3771
 6724SOL     OW31807   2.175   2.588   4.831 -0.3701 -0.2384  0.0415
 6724SOL    HW131808   2.186   2.594   4.926 -0.1515 -1.7239  0.1157
 6724SOL    HW231809   2.109   2.520   4.818  1.0997 -1.2412 -2.0660
 6725SOL     OW31810   0.997   1.340   4.445 -0.1516  0.0532  0.0873
 6725SOL    HW131811   1.024   1.277   4.378 -0.8670 -1.4147  1.1882
 6725SOL    HW231812   0.908   1.307   4.457  0.7814 -2.4701  0.2163
 6726SOL     OW31813   2.870   3.417   3.642  0.9927 -0.3318  0.1272
 6726SOL    HW131814   2.851   3.397   3.551  3.6037 -0.9462 -0.3016
 6726SOL    HW231815   2.832   3.504   3.651  0.7569 -0.4461  0.2538
 6727SOL     OW31816   3.619   2.350   0.226 -0.1445  0.0272  0.3457
 6727SOL    HW131817   3.545   2.374   0.282 -0.3534  0.5722 -0.1686
 6727SOL    HW231818   3.670   2.429   0.241  0.5205 -0.1391 -1.0355
 6728SOL     OW31819   2.474   4.013   2.556  0.0216  0.2298  0.1916
 6728SOL    HW131820   2.393   3.972   2.524 -0.4510  0.8900  0.5287
 6728SOL    HW231821   2.471   3.978   2.645  3.1079 -0.7594 -0.1179
 6729SOL     OW31822   1.193   1.045   8.563 -0.0350  0.2663  0.5010
 6729SOL    HW131823   1.258   0.977   8.581 -2.2529 -1.1480  3.2224
 6729SOL    HW231824   1.170   1.035   8.471 -0.8854  2.2013  0.5002
 6730SOL     OW31825   1.005   1.457   7.475  0.1109 -0.3856 -0.3714
 6730SOL    HW131826   0.931   1.408   7.439  0.5672 -0.7039 -0.8778
 6730SOL    HW231827   1.078   1.395   7.463  0.4369 -0.5987  2.7478
 6731SOL     OW31828   3.920   2.274   9.658  0.0027  0.6687 -0.2882
 6731SOL    HW131829   3.881   2.220   9.589  2.0665 -2.5605  1.0336
 6731SOL    HW231830   3.915   2.217   9.735  1.9300 -1.5444 -1.8116
 6732SOL     OW31831   0.999   2.963   5.692  0.3447 -0.1853  0.4921
 6732SOL    HW131832   1.094   2.958   5.692  0.3988  0.6980 -0.1349
 6732SOL    HW231833   0.981   2.958   5.786  1.0968  2.0815  0.7588
 6733SOL     OW31834   3.945   2.366   0.257  0.4015  0.1826  0.4964
 6733SOL    HW131835   3.998   2.316   0.195  0.3133  1.0402 -0.2769
 6733SOL    HW231836   3.878   2.393   0.194 -1.0548 -2.4216  0.9185
 6734SOL     OW31837   3.401   2.541   6.969 -0.4311  0.3225  0.7164
 6734SOL    HW131838   3.460   2.543   6.894  0.4773 -3.5435  1.3140
 6734SOL    HW231839   3.425   2.618   7.020  2.1921 -0.1502  0.1638
 6735SOL     OW31840   1.313   4.359   5.276  0.0067 -0.0772 -0.3142
 6735SOL    HW131841   1.289   4.407   5.356 -2.0625 -2.0691  0.2860
 6735SOL    HW231842   1.220   4.345   5.255 -0.0081 -1.1678  0.4413
 6736SOL     OW31843   1.869   0.906   2.122 -0.5939  0.8509 -0.4725
 6736SOL    HW131844   1.904   0.873   2.204  0.9547  0.7427 -1.1805
 6736SOL    HW231845   1.949   0.943   2.084 -1.9111  2.6172 -1.5363
 6737SOL     OW31846   4.663   4.588   4.920  0.2647 -0.2177 -0.5958
 6737SOL    HW131847   4.686   4.605   4.828  0.5760  0.7445 -0.3395
 6737SOL    HW231848   4.568   4.586   4.909  0.4146  0.1333 -2.0283
 6738SOL     OW31849   2.353   4.422   1.536 -0.2814 -0.1605 -1.1084
 6738SOL    HW131850   2.446   4.443   1.539 -0.9901  3.0600 -1.9195
 6738SOL    HW231851   2.326   4.455   1.451 -0.4501 -0.0845 -1.0252
 6739SOL     OW31852   4.176   2.557   5.483 -0.3822  0.3648  0.7486
 6739SOL    HW131853   4.090   2.598   5.490 -0.9151 -0.7129  0.4655
 6739SOL    HW231854   4.211   2.586   5.567  0.4297 -0.8255  0.8191
 6740SOL     OW31855   2.592   3.261   9.842  0.6021  0.0980  0.4750
 6740SOL    HW131856   2.598   3.313   9.922  2.1672  2.9052 -1.4659
 6740SOL    HW231857   2.515   3.309   9.812  0.9431  0.4315  0.1378
 6741SOL     OW31858   3.931   2.455   8.594  0.6058  0.6824 -0.0573
 6741SOL    HW131859   3.987   2.388   8.631  1.9429  1.0705 -1.3480
 6741SOL    HW231860   3.931   2.415   8.507 -0.5805  0.1888  0.1701
 6742SOL     OW31861   2.173   3.110  12.032 -0.0411 -0.2197 -0.5293
 6742SOL    HW131862   2.214   3.082  12.113 -0.6362  3.1763  0.9511
 6742SOL    HW231863   2.104   3.173  12.053 -0.0481  0.3129 -2.1043
 6743SOL     OW31864   2.803   2.482  14.903  0.7285 -0.1232 -0.1297
 6743SOL    HW131865   2.713   2.454  14.889  0.8419 -0.2437 -0.6010
 6743SOL    HW231866   2.803   2.470  14.998  1.7842 -3.3819 -0.5656
 6744SOL     OW31867   2.432   4.537   5.328  0.3310  0.5432 -0.0342
 6744SOL    HW131868   2.382   4.619   5.323  1.4005  1.3222  1.9618
 6744SOL    HW231869   2.396   4.482   5.398 -1.7337  2.4072  0.3747
 6745SOL     OW31870   3.628   0.434   5.560 -0.2381 -0.3553 -0.3679
 6745SOL    HW131871   3.597   0.437   5.469  0.1644 -1.6885 -0.5474
 6745SOL    HW231872   3.631   0.529   5.575  1.6381 -0.3227 -0.9854
 6746SOL     OW31873   3.263   4.635   3.501 -0.2793 -0.5122  0.3522
 6746SOL    HW131874   3.252   4.631   3.406 -1.7809 -2.0429  0.6025
 6746SOL    HW231875   3.231   4.722   3.523 -0.1678 -0.6442  1.0229
 6747SOL     OW31876   4.555   4.093  12.282  0.6670  0.2636 -0.0948
 6747SOL    HW131877   4.632   4.128  12.237  1.0687  0.5530  0.8255
 6747SOL    HW231878   4.497   4.168  12.296  1.1591  1.0869 -2.4437
 6748SOL     OW31879   1.570   4.611   8.834  0.0995  0.0373 -0.7695
 6748SOL    HW131880   1.510   4.599   8.761  0.6612 -0.4725 -1.1466
 6748SOL    HW231881   1.626   4.669   8.781  2.5018 -0.0720  1.6557
 6749SOL     OW31882   1.401   4.728   4.827 -0.2239 -0.1677 -0.3481
 6749SOL    HW131883   1.488   0.017   4.860 -1.2353  0.3525  1.9078
 6749SOL    HW231884   1.365   4.667   4.892  0.6375  0.4683  0.7250
 6750SOL     OW31885   0.147   0.090  12.640  0.2629  0.7066  0.1485
 6750SOL    HW131886   0.132   0.127  12.553 -0.7047 -0.4234 -0.1623
 6750SOL    HW231887   0.226   0.037  12.640 -0.8038 -0.8342 -1.3631
 6751SOL     OW31888   2.258   3.722  14.654  0.5280  0.3866  0.7185
 6751SOL    HW131889   2.215   3.787  14.599  0.7703  0.5094  0.6737
 6751SOL    HW231890   2.217   3.638  14.634  0.0008  0.6627  0.6277
 6752SOL     OW31891   4.017   0.127   7.236  0.3125 -0.0049  0.3811
 6752SOL    HW131892   4.012   0.120   7.331  1.9402 -1.8841  0.3110
 6752SOL    HW231893   3.940   0.085   7.198  0.8758 -1.8383  1.2708
 6753SOL     OW31894   2.273   1.123   7.976  0.1617 -0.1141  0.2787
 6753SOL    HW131895   2.193   1.175   7.977  1.7068  2.2908 -1.0736
 6753SOL    HW231896   2.333   1.189   8.012 -0.4590  0.5946  0.0023
 6754SOL     OW31897   4.038   0.185  15.061  0.5938 -0.8727  0.1605
 6754SOL    HW131898   4.108   0.186  14.996  0.7305  3.0003  0.3503
 6754SOL    HW231899   3.974   0.118  15.038 -0.0457 -0.9661  2.2096
 6755SOL     OW31900   3.300   1.962   3.422 -0.1520 -0.7223 -0.3532
 6755SOL    HW131901   3.283   2.008   3.339 -0.7184 -0.0358  0.1369
 6755SOL    HW231902   3.395   1.968   3.427 -0.3420  1.4367  0.8380
 6756SOL     OW31903   4.328   0.257   4.912  0.8175  0.6294  0.2410
 6756SOL    HW131904   4.391   0.301   4.855 -0.1710 -0.6105 -1.7740
 6756SOL    HW231905   4.363   0.279   4.999 -2.4885 -0.7632  1.9342
 6757SOL     OW31906   3.239   4.162   7.354 -0.0906  0.2482 -0.1794
 6757SOL    HW131907   3.213   4.132   7.267 -0.3618  0.5038 -0.1851
 6757SOL    HW231908   3.161   4.215   7.367 -0.6085  0.1656 -2.8489
 6758SOL     OW31909   1.333   3.365   4.587  0.1214  0.3698  0.6520
 6758SOL    HW131910   1.318   3.270   4.588  1.5983  0.1189  0.0161
 6758SOL    HW231911   1.381   3.385   4.668 -3.2075 -0.2982  2.8032
 6759SOL     OW31912   3.101   4.589   9.997 -0.3943 -0.3961  0.5129
 6759SOL    HW131913   3.019   4.592   9.948 -0.7826  0.5963  1.2504
 6759SOL    HW231914   3.075   4.606  10.087  0.3399  1.7467  0.3157
 6760SOL     OW31915   3.184   0.876   0.720 -0.0222 -0.5236 -0.1451
 6760SOL    HW131916   3.249   0.811   0.747  0.9198  0.2674 -0.5091
 6760SOL    HW231917   3.183   0.874   0.624 -3.4973 -0.0422 -0.1280
 6761SOL     OW31918   3.961   1.427   3.459 -0.0493  0.2688  0.2252
 6761SOL    HW131919   3.936   1.374   3.535 -0.4785 -0.6096 -0.5159
 6761SOL    HW231920   4.045   1.387   3.434  0.6927  1.3992  0.8905
 6762SOL     OW31921   4.606   4.539   5.637 -0.0481 -0.5312 -0.2747
 6762SOL    HW131922   4.645   4.520   5.723 -2.1907 -1.1318  0.5500
 6762SOL    HW231923   4.676   4.498   5.584  1.4942  0.5114  0.9490
 6763SOL     OW31924   1.021   2.569   6.845  0.0025  0.5943 -0.1513
 6763SOL    HW131925   0.968   2.491   6.856  1.0054  0.2402  2.0848
 6763SOL    HW231926   1.106   2.546   6.883 -0.0438 -0.5575 -0.7446
 6764SOL     OW31927   2.010   2.986   2.153  0.5239  0.0199  0.6514
 6764SOL    HW131928   2.038   3.077   2.151  1.8101 -0.3706  1.5075
 6764SOL    HW231929   2.088   2.936   2.177  0.4022 -0.6846 -0.4307
 6765SOL     OW31930   2.268   2.848  14.730  0.1600 -0.3140 -1.0183
 6765SOL    HW131931   2.313   2.892  14.802 -3.4457 -1.6396  2.0205
 6765SOL    HW231932   2.275   2.756  14.753  0.2768 -0.3497 -1.2008
 6766SOL     OW31933   2.718   0.286  15.253 -0.4038 -0.0891  1.2771
 6766SOL    HW131934   2.661   0.358  15.279 -0.1265  0.7864 -0.5524
 6766SOL    HW231935   2.688   0.201  15.284 -0.7822 -0.5677 -0.4085
 6767SOL     OW31936   2.589   4.145   6.374  0.1952  0.2477  0.0488
 6767SOL    HW131937   2.678   4.148   6.339  0.1220  0.8652 -0.0860
 6767SOL    HW231938   2.552   4.223   6.333  0.3358  0.0694 -0.4200
 6768SOL     OW31939   2.979   4.319   6.254  0.4383  0.2344 -0.6178
 6768SOL    HW131940   2.945   4.254   6.316  0.9968  1.8043  1.3454
 6768SOL    HW231941   2.997   4.260   6.181 -1.1440 -2.4182  1.1120
 6769SOL     OW31942   0.985   0.395   6.008  0.7803 -0.1494 -0.0019
 6769SOL    HW131943   1.062   0.444   6.039  0.1310 -0.2891  1.8016
 6769SOL    HW231944   0.919   0.459   6.034 -0.6845 -1.9238  0.6165
 6770SOL     OW31945   3.832   1.609   8.019 -0.1211  0.1283 -0.0617
 6770SOL    HW131946   3.811   1.521   7.988 -1.5528  0.6687 -0.6392
 6770SOL    HW231947   3.757   1.641   7.968  0.5748  3.8400  1.2813
 6771SOL     OW31948   4.500   0.410   3.621 -0.3240 -0.1841  1.0586
 6771SOL    HW131949   4.518   0.360   3.700 -0.7007 -3.2030 -0.7694
 6771SOL    HW231950   4.590   0.426   3.594 -1.0122 -1.3502 -1.9724
 6772SOL     OW31951   1.738   2.764   4.278  0.1117  0.2594 -0.3769
 6772SOL    HW131952   1.714   2.740   4.189  3.3190 -0.6930 -0.9964
 6772SOL    HW231953   1.680   2.839   4.283  0.5150  0.5621 -0.2721
 6773SOL     OW31954   2.947   1.300   7.426  0.2836 -0.3033  0.0722
 6773SOL    HW131955   3.037   1.325   7.451 -0.1399 -0.4123  1.7441
 6773SOL    HW231956   2.950   1.205   7.431 -0.8685 -0.3330  0.1150
 6774SOL     OW31957   2.189   3.073   8.014  0.7035  0.5696 -0.0095
 6774SOL    HW131958   2.153   2.986   7.996  0.3911  0.3228  1.8311
 6774SOL    HW231959   2.109   3.126   8.011  0.1505 -0.2453  0.3344
 6775SOL     OW31960   2.014   0.997   6.892  0.2443  0.4501  0.1530
 6775SOL    HW131961   2.098   1.013   6.935  0.3302 -0.4621  0.3232
 6775SOL    HW231962   2.044   1.029   6.807  0.0353  1.3489  0.4205
 6776SOL     OW31963   4.504   4.179   0.074 -0.2783 -0.4582  0.3654
 6776SOL    HW131964   4.582   4.226   0.044 -0.2957  0.9758  2.5278
 6776SOL    HW231965   4.554   4.103   0.100  0.3771 -0.4753 -0.9543
 6777SOL     OW31966   0.902   4.461   7.697 -0.1042  0.0194  0.4524
 6777SOL    HW131967   0.993   4.436   7.687  0.7558  3.7173 -0.8734
 6777SOL    HW231968   0.881   4.511   7.618  0.8100 -0.6967 -0.2461
 6778SOL     OW31969   3.326   3.997  12.125  0.1214 -0.1341  0.1451
 6778SOL    HW131970   3.319   3.902  12.118 -0.5453  0.0328 -1.5230
 6778SOL    HW231971   3.415   4.006  12.159  0.2219  2.0696 -0.6678
 6779SOL     OW31972   3.930   0.033   8.030 -0.1767  0.7041 -0.0607
 6779SOL    HW131973   3.931   0.128   8.018  1.6666  1.0309  2.8699
 6779SOL    HW231974   3.888   4.729   7.953  0.1225  1.0081 -0.3836
 6780SOL     OW31975   2.942   2.807   4.750 -0.7204 -0.2240 -0.3934
 6780SOL    HW131976   2.965   2.714   4.750  2.1238  0.4756  0.4133
 6780SOL    HW231977   2.902   2.823   4.664  0.5151 -0.8886 -1.0995
 6781SOL     OW31978   4.113   0.009   3.543  0.6731 -0.6738  0.4726
 6781SOL    HW131979   4.164   0.036   3.467 -1.2187 -0.5309 -0.7538
 6781SOL    HW231980   4.047   0.077   3.528  0.0733 -1.4311 -0.3766
 6782SOL     OW31981   4.468   2.877   3.697  0.1806  0.0838 -0.1720
 6782SOL    HW131982   4.464   2.918   3.610  3.4736  0.8481  0.0612
 6782SOL    HW231983   4.402   2.931   3.741  0.4001  0.0268  0.2274
 6783SOL     OW31984   2.953   0.284   2.644  0.0964  0.7302 -0.5195
 6783SOL    HW131985   2.873   0.242   2.677  0.4444 -1.8220 -2.9558
 6783SOL    HW231986   2.925   0.325   2.562  0.2519  1.8285 -0.0283
 6784SOL     OW31987   0.414   4.015   8.139 -0.1533 -0.0216 -0.0962
 6784SOL    HW131988   0.385   4.103   8.163 -1.5913 -0.2456 -1.0056
 6784SOL    HW231989   0.419   3.979   8.227 -1.2388 -1.3202 -0.5654
 6785SOL     OW31990   3.103   3.381   8.471 -0.1075 -0.0428 -0.3658
 6785SOL    HW131991   3.178   3.399   8.528 -2.1117  0.9230  1.9371
 6785SOL    HW231992   3.079   3.472   8.457 -1.8153 -0.4332  0.0452
 6786SOL     OW31993   0.625   0.616   0.170  0.1427  0.2343 -0.4323
 6786SOL    HW131994   0.698   0.564   0.135 -0.8408 -1.1213 -0.4542
 6786SOL    HW231995   0.592   0.559   0.239  1.9001 -0.1466  0.1103
 6787SOL     OW31996   0.030   1.466   4.216  0.1395  0.0756  0.5593
 6787SOL    HW131997   0.045   1.552   4.176  0.2085  0.8232  2.2181
 6787SOL    HW231998   0.065   1.491   4.302  1.4396 -0.8398  0.2926
 6788SOL     OW31999   3.981   1.860   7.800 -0.0770 -0.2113 -0.6152
 6788SOL    HW132000   3.918   1.838   7.731  0.2375 -2.1194 -0.2915
 6788SOL    HW232001   3.932   1.935   7.834 -0.5126 -1.2238  0.9852
 6789SOL     OW32002   3.651   4.427   7.782  0.7202 -0.0705  0.6637
 6789SOL    HW132003   3.662   4.512   7.825  0.8433 -0.4140  1.3146
 6789SOL    HW232004   3.558   4.409   7.790  0.4956  1.0712  0.6250
 6790SOL     OW32005   2.906   4.705   3.343  0.4226  0.1495  0.4621
 6790SOL    HW132006   2.921   4.612   3.326 -0.0355  0.3214 -0.9180
 6790SOL    HW232007   2.926   0.007   3.257  0.3871 -1.4611 -0.2536
 6791SOL     OW32008   0.339   0.578   2.267  0.3656 -0.1493 -0.7416
 6791SOL    HW132009   0.371   0.503   2.217  0.5852  0.7869 -2.0177
 6791SOL    HW232010   0.366   0.650   2.211  1.3583  0.3965  0.4625
 6792SOL     OW32011   0.284   3.057  13.990 -0.2641 -0.0803  0.1735
 6792SOL    HW132012   0.345   3.098  13.929 -1.6185 -0.0064 -1.1108
 6792SOL    HW232013   0.320   3.097  14.070  0.4335  0.7840 -0.5703
 6793SOL     OW32014   3.378   2.451   1.471 -0.2771 -0.0056 -0.0730
 6793SOL    HW132015   3.395   2.422   1.561  3.2870  1.3684 -0.3235
 6793SOL    HW232016   3.363   2.367   1.427  1.6544  0.9637 -2.5799
 6794SOL     OW32017   4.233   3.228  14.980  0.4586  0.2767  0.5721
 6794SOL    HW132018   4.204   3.214  15.070 -1.9097  0.9489 -0.0899
 6794SOL    HW232019   4.327   3.226  14.997  0.5180  0.8781  0.3095
 6795SOL     OW32020   1.944   3.780   1.680  0.2967 -0.3223 -0.5706
 6795SOL    HW132021   1.850   3.767   1.668 -0.0331 -0.7956  2.4992
 6795SOL    HW232022   1.946   3.842   1.754  0.0568  1.3098 -1.9274
 6796SOL     OW32023   3.238   4.060   4.993 -0.1783 -0.1056 -0.0353
 6796SOL    HW132024   3.304   4.129   5.000 -0.3896  0.2133 -1.0783
 6796SOL    HW232025   3.166   4.116   4.962 -2.4493 -2.5463  0.8339
 6797SOL     OW32026   1.693   3.903  13.510  0.7686  0.3048 -0.1489
 6797SOL    HW132027   1.785   3.879  13.510  0.5346 -0.5577 -1.3696
 6797SOL    HW232028   1.656   3.850  13.581  1.2713 -0.1775 -0.2481
 6798SOL     OW32029   3.147   4.640   4.814 -0.2496 -0.1906 -0.0963
 6798SOL    HW132030   3.188   4.554   4.813 -0.6324 -0.3776  0.5337
 6798SOL    HW232031   3.093   4.646   4.893 -2.0976 -1.5827 -1.2587
 6799SOL     OW32032   2.625   4.685  10.232  0.0997  0.4211  0.2198
 6799SOL    HW132033   2.646   4.599  10.268 -1.7414 -0.1626 -0.0456
 6799SOL    HW232034   2.598   4.666  10.142 -0.9899 -1.2868  0.9101
 6800SOL     OW32035   0.690   0.590   2.409 -0.1925 -0.0506  0.3754
 6800SOL    HW132036   0.645   0.510   2.437  0.2020 -1.3493 -2.7677
 6800SOL    HW232037   0.677   0.656   2.478 -0.7030  0.2532 -0.0087
 6801SOL     OW32038   0.382   4.579   8.292  0.0806  0.3339  0.3813
 6801SOL    HW132039   0.324   4.597   8.219  0.0336  1.0592  0.5973
 6801SOL    HW232040   0.469   4.582   8.253 -1.6469 -0.8065 -3.5548
 6802SOL     OW32041   3.871   1.800  17.275 -0.2483 -0.2771 -0.2605
 6802SOL    HW132042   3.911   1.848  17.347 -3.7457  0.8261  0.9240
 6802SOL    HW232043   3.819   1.867  17.232 -1.3724 -0.5231  0.7085
 6803SOL     OW32044   3.414   0.159   3.717 -0.4083 -0.4365 -0.7303
 6803SOL    HW132045   3.357   0.165   3.640  0.3402  1.3137 -1.1534
 6803SOL    HW232046   3.443   0.250   3.710  0.9057 -0.6138  2.2867
 6804SOL     OW32047   4.116   3.156   5.757 -0.7507  0.3321 -0.6877
 6804SOL    HW132048   4.113   3.064   5.730  0.8594 -0.7448  2.8195
 6804SOL    HW232049   4.048   3.192   5.700 -1.3655  0.3123  0.0264
 6805SOL     OW32050   3.056   2.127  16.846  0.3370  0.2014  0.1594
 6805SOL    HW132051   3.064   2.197  16.910  1.2844  1.1089 -0.9637
 6805SOL    HW232052   2.994   2.075  16.896 -0.8379  0.0302 -1.4638
 6806SOL     OW32053   0.371   1.712   7.147  0.3603  0.3256  0.1096
 6806SOL    HW132054   0.441   1.654   7.118 -1.3887 -1.8523  0.2640
 6806SOL    HW232055   0.341   1.750   7.065 -1.1531  1.5163  1.2083
 6807SOL     OW32056   0.959   2.467   5.230 -0.1375  0.0536  0.0841
 6807SOL    HW132057   1.030   2.404   5.245 -0.9138 -1.0060 -0.7746
 6807SOL    HW232058   0.884   2.414   5.258  0.0066  0.7103  1.7253
 6808SOL     OW32059   1.068   1.588   2.068  0.1540 -0.2639 -0.2945
 6808SOL    HW132060   1.076   1.517   2.005 -1.1005  1.8378 -2.7841
 6808SOL    HW232061   0.992   1.561   2.119  0.3225 -0.9372 -0.3969
 6809SOL     OW32062   0.444   2.579   3.520 -0.5006 -0.6726  0.2529
 6809SOL    HW132063   0.450   2.565   3.615 -0.6696  1.6083  0.6195
 6809SOL    HW232064   0.411   2.498   3.482  0.4418 -1.7292  1.6849
 6810SOL     OW32065   1.644   2.518  17.138  0.0577 -0.1745  0.0334
 6810SOL    HW132066   1.649   2.605  17.098  1.3994  0.2004  1.0215
 6810SOL    HW232067   1.651   2.533  17.232  3.4816  1.4063 -0.4648
 6811SOL     OW32068   3.033   1.171   4.364  0.2853  0.2129 -0.0709
 6811SOL    HW132069   3.088   1.240   4.402 -0.1550 -0.0858  1.0998
 6811SOL    HW232070   3.094   1.104   4.396 -1.6475 -0.4229  2.2743
 6812SOL     OW32071   0.305   1.370   5.805  0.6881 -0.1792  0.2590
 6812SOL    HW132072   0.286   1.374   5.899  1.6055  0.5941  0.4108
 6812SOL    HW232073   0.336   1.280   5.794  1.2544  0.0894 -0.3299
 6813SOL     OW32074   3.308   4.483   6.999 -0.1240 -0.7081  0.1690
 6813SOL    HW132075   3.324   4.524   7.084  1.1726 -0.0997 -0.3672
 6813SOL    HW232076   3.338   4.558   6.948  2.2733 -1.5655  0.3136
 6814SOL     OW32077   3.771   1.718   2.908 -0.2224 -0.0132  0.5750
 6814SOL    HW132078   3.692   1.716   2.854 -1.1193 -0.9409  1.9114
 6814SOL    HW232079   3.837   1.759   2.852 -1.9855  0.7632 -0.9129
 6815SOL     OW32080   1.941   2.701   7.407  0.7629  0.5701 -0.3534
 6815SOL    HW132081   1.938   2.696   7.311  0.3031 -0.8624 -0.2724
 6815SOL    HW232082   2.034   2.690   7.424 -0.1811 -0.6024  4.1514
 6816SOL     OW32083   3.609   1.331   7.441  0.1573 -0.3448  0.4715
 6816SOL    HW132084   3.631   1.352   7.351  3.2344  1.2260  1.6124
 6816SOL    HW232085   3.535   1.391   7.455  0.1688 -0.3122  0.3896
 6817SOL     OW32086   2.342   0.428   6.024  0.2253  0.1710 -0.0497
 6817SOL    HW132087   2.431   0.399   6.044 -0.0846 -0.6406  0.1276
 6817SOL    HW232088   2.346   0.452   5.931  0.1250 -0.7875 -0.2990
 6818SOL     OW32089   0.256   3.367   6.469  0.1825  0.5095  0.0429
 6818SOL    HW132090   0.339   3.334   6.436  0.4563  0.7092  0.5412
 6818SOL    HW232091   0.290   3.436   6.525  0.6211  2.2739 -2.4044
 6819SOL     OW32092   4.473   3.759  10.920  0.1853  0.0308  0.3233
 6819SOL    HW132093   4.500   3.672  10.950 -0.9421 -0.6536 -0.6232
 6819SOL    HW232094   4.557   3.803  10.907 -0.6201  1.0904 -1.2296
 6820SOL     OW32095   1.308   3.787   5.167  0.4838 -0.1666 -0.2501
 6820SOL    HW132096   1.250   3.856   5.198 -0.5397 -0.8124 -0.7437
 6820SOL    HW232097   1.256   3.727   5.113 -1.0047  1.2897 -0.4356
 6821SOL     OW32098   0.845   3.010   4.833 -0.2870  0.4429 -0.3509
 6821SOL    HW132099   0.819   3.096   4.800 -2.1329  0.0014 -0.0206
 6821SOL    HW232100   0.840   2.969   4.747  0.9652  0.0667 -0.2488
 6822SOL     OW32101   4.343   3.634   4.044  0.7744  0.1401 -0.0466
 6822SOL    HW132102   4.319   3.707   3.988 -1.0357 -0.2965  0.1562
 6822SOL    HW232103   4.349   3.562   3.980  0.7360 -1.4397  1.7280
 6823SOL     OW32104   2.659   2.432   5.335  0.0698  0.8136 -0.1602
 6823SOL    HW132105   2.707   2.453   5.255  2.0190  1.2174  1.1166
 6823SOL    HW232106   2.694   2.345   5.352 -1.4732  0.2975  0.4154
 6824SOL     OW32107   0.900   4.015   9.148  0.0225  0.1181 -0.6413
 6824SOL    HW132108   0.917   4.031   9.056 -0.4813 -3.0516 -1.2868
 6824SOL    HW232109   0.848   3.936   9.137  2.8820 -1.5100 -2.4633
 6825SOL     OW32110   0.071   3.059   2.681  0.1419 -0.5035  0.3206
 6825SOL    HW132111   0.118   2.990   2.728  0.1825 -0.4293  0.3890
 6825SOL    HW232112   0.068   3.132   2.742  1.1142 -0.3535  0.1977
 6826SOL     OW32113   2.784   1.163  16.130 -0.5970 -0.2030  0.9876
 6826SOL    HW132114   2.810   1.094  16.070  3.4918  1.3274  0.9713
 6826SOL    HW232115   2.846   1.147  16.201 -1.3898  1.8683  2.1497
 6827SOL     OW32116   1.875   4.020   7.217 -0.0036 -0.2627 -0.2034
 6827SOL    HW132117   1.951   4.070   7.188  0.0073 -0.1641 -0.0090
 6827SOL    HW232118   1.815   4.087   7.251 -1.5111 -1.5022 -0.4098
 6828SOL     OW32119   2.959   4.448  13.633  0.0425  0.3440  0.0819
 6828SOL    HW132120   2.996   4.390  13.700  1.1681  1.4134  0.4013
 6828SOL    HW232121   2.885   4.394  13.606 -0.0312  0.7287 -0.4825
 6829SOL     OW32122   1.826   3.369   9.049 -0.1580 -0.2840  0.0393
 6829SOL    HW132123   1.820   3.338   8.959 -2.8455 -0.2712  0.2370
 6829SOL    HW232124   1.759   3.320   9.096 -3.3630  2.3176 -1.8559
 6830SOL     OW32125   4.086   0.190   9.067  0.6206  0.1024 -0.2186
 6830SOL    HW132126   4.047   0.115   9.023  2.3068 -0.3538 -0.9418
 6830SOL    HW232127   4.005   0.234   9.090 -1.8981 -3.7486 -1.6308
 6831SOL     OW32128   3.541   1.778   4.750  0.1797  0.3937 -0.0084
 6831SOL    HW132129   3.454   1.794   4.713 -0.3147  0.9003  1.3653
 6831SOL    HW232130   3.560   1.867   4.779  0.6506 -0.4528  2.2717
 6832SOL     OW32131   0.503   0.856   8.061 -0.5751 -0.1476 -0.4950
 6832SOL    HW132132   0.511   0.788   8.127 -0.9218 -1.6864 -2.0241
 6832SOL    HW232133   0.447   0.808   8.001  1.2333 -1.2836 -1.2845
 6833SOL     OW32134   4.718   3.131   2.241  0.2005  0.2644  0.0289
 6833SOL    HW132135   4.667   3.148   2.162 -1.1752  0.0907  0.8743
 6833SOL    HW232136   4.641   3.102   2.290  0.1593  1.0955  0.4714
 6834SOL     OW32137   1.018   2.597   3.684  0.5232 -0.5491 -0.0882
 6834SOL    HW132138   0.976   2.653   3.749  0.0319  1.1849 -1.8918
 6834SOL    HW232139   1.044   2.656   3.613 -1.0659  0.2922  0.0148
 6835SOL     OW32140   0.856   1.846   3.152  0.1836 -0.0841 -0.5974
 6835SOL    HW132141   0.898   1.766   3.184  1.9140  0.2180 -2.1472
 6835SOL    HW232142   0.875   1.843   3.058  0.6492  0.9639 -0.5368
 6836SOL     OW32143   1.294   3.877   8.899 -0.0918 -0.6564  0.0881
 6836SOL    HW132144   1.307   3.966   8.934 -0.5787 -0.6263  0.1897
 6836SOL    HW232145   1.239   3.906   8.826  0.9214  2.9596  0.7306
 6837SOL     OW32146   4.178   1.812   6.104  0.0531 -0.0388  0.3661
 6837SOL    HW132147   4.096   1.784   6.064  0.4384 -0.5529 -0.0613
 6837SOL    HW232148   4.166   1.762   6.185  0.6516  0.3208  0.6733
 6838SOL     OW32149   3.997   3.154  13.511 -0.0767 -0.2190  0.5018
 6838SOL    HW132150   4.055   3.223  13.478 -2.4981  1.5823 -0.0047
 6838SOL    HW232151   4.016   3.077  13.458  0.4372  0.2999 -0.0754
 6839SOL     OW32152   3.924   0.664   0.049 -0.1372  0.1646 -0.1275
 6839SOL    HW132153   3.886   0.578   0.066  2.2095 -0.5920  1.4038
 6839SOL    HW232154   3.991   0.646  17.725 -0.5118 -2.2643  0.1551
 6840SOL     OW32155   0.630   2.236  17.483 -0.7123 -0.0286  0.0242
 6840SOL    HW132156   0.672   2.301  17.426  1.0302 -0.2399  1.0449
 6840SOL    HW232157   0.666   2.157  17.441  0.4630 -0.9314  2.7374
 6841SOL     OW32158   4.201   3.629   7.815  0.2380 -0.1340 -0.1818
 6841SOL    HW132159   4.242   3.690   7.753  3.6817 -1.2950  0.9667
 6841SOL    HW232160   4.130   3.691   7.830 -0.2009 -0.3478 -1.3583
 6842SOL     OW32161   2.579   4.441  16.944 -0.8567  0.3131  0.7666
 6842SOL    HW132162   2.521   4.381  16.990 -0.4056 -0.8875 -0.1937
 6842SOL    HW232163   2.609   4.498  17.015  0.3163  3.1823 -2.0301
 6843SOL     OW32164   1.940   3.553   5.039  0.2694  0.1906  0.1676
 6843SOL    HW132165   1.939   3.514   5.127 -0.5516  2.1892  1.0369
 6843SOL    HW232166   2.034   3.568   5.029  0.1760  0.4821 -0.2717
 6844SOL     OW32167   2.757   2.312  11.887 -0.2159 -0.8847  0.3550
 6844SOL    HW132168   2.720   2.381  11.941  1.1645  0.0779  0.0575
 6844SOL    HW232169   2.812   2.359  11.825 -0.9664 -2.1160 -1.2486
 6845SOL     OW32170   1.320   1.366   6.725 -0.6434  0.8062  0.2075
 6845SOL    HW132171   1.379   1.311   6.777  0.7811  2.1635  0.0499
 6845SOL    HW232172   1.274   1.417   6.792 -1.0603  0.7008 -0.0028
 6846SOL     OW32173   1.524   4.469   5.658 -0.2816  0.1565 -0.0927
 6846SOL    HW132174   1.556   4.434   5.741  0.6110  1.4555  0.1059
 6846SOL    HW232175   1.548   4.398   5.598  3.2154 -0.1603  1.6929
 6847SOL     OW32176   1.818   4.722   6.320  0.4050  0.6424 -0.1431
 6847SOL    HW132177   1.840   0.048   6.251  1.4087  1.6549  1.0899
 6847SOL    HW232178   1.798   4.639   6.276 -0.0059  1.0065 -0.6387
 6848SOL     OW32179   4.175   2.462   6.510  0.0777 -0.1905 -0.2858
 6848SOL    HW132180   4.217   2.547   6.525  0.8590 -0.6825  0.2606
 6848SOL    HW232181   4.146   2.436   6.597  0.8808  0.5731  0.2017
 6849SOL     OW32182   3.545   2.404   8.979 -0.0646 -0.3078  0.2235
 6849SOL    HW132183   3.616   2.340   8.974 -0.0476 -0.2353 -0.4580
 6849SOL    HW232184   3.588   2.477   8.935  1.4677 -2.5321 -1.9695
 6850SOL     OW32185   3.279   3.303  15.468 -0.5300 -0.0293 -0.2276
 6850SOL    HW132186   3.347   3.316  15.402  0.4201 -0.4061  0.6832
 6850SOL    HW232187   3.308   3.367  15.532  1.1421  1.0032 -2.0112
 6851SOL     OW32188   1.720   3.504   3.675  0.2164 -0.4294 -0.5891
 6851SOL    HW132189   1.679   3.417   3.672  0.8713 -0.7509 -0.0637
 6851SOL    HW232190   1.640   3.553   3.696  0.2001 -0.5666 -0.3333
 6852SOL     OW32191   2.384   0.229  15.331 -0.5231 -0.0957  0.0787
 6852SOL    HW132192   2.475   0.258  15.341 -0.8582  0.3847  1.7938
 6852SOL    HW232193   2.396   0.137  15.307 -2.0817 -0.5361  0.9746
 6853SOL     OW32194   2.194   2.159   8.070 -0.6360 -0.4690  0.7135
 6853SOL    HW132195   2.246   2.194   7.998 -1.6524 -1.8234 -0.6844
 6853SOL    HW232196   2.192   2.069   8.038  1.0197  0.0575 -0.8347
 6854SOL     OW32197   4.348   1.851   6.525  0.1101  0.1245 -0.2697
 6854SOL    HW132198   4.275   1.901   6.561  0.1750 -0.6963  0.9946
 6854SOL    HW232199   4.335   1.862   6.431 -0.0353 -2.5478 -0.5458
 6855SOL     OW32200   3.136   2.852   0.091  0.1797 -0.0721  0.5341
 6855SOL    HW132201   3.184   2.934   0.101 -0.6205  0.2925  1.3289
 6855SOL    HW232202   3.068   2.865   0.158  0.0882  1.5281  0.1142
 6856SOL     OW32203   0.944   4.286   9.178  0.6366 -0.1466 -0.1080
 6856SOL    HW132204   0.855   4.319   9.191  1.0709  0.9409  0.1187
 6856SOL    HW232205   0.926   4.192   9.176 -1.2147  0.1450  2.6376
 6857SOL     OW32206   1.577   1.981  17.531 -0.1091  0.0157  0.0028
 6857SOL    HW132207   1.626   1.954  17.454  0.5165  0.8524  0.1017
 6857SOL    HW232208   1.485   1.964  17.509 -0.6262  1.6064  0.8507
 6858SOL     OW32209   3.245   4.461   6.200 -0.4949 -0.4438 -0.7847
 6858SOL    HW132210   3.185   4.529   6.231 -0.0478  0.2093 -1.3500
 6858SOL    HW232211   3.179   4.397   6.171 -0.8659 -0.0419 -0.8258
 6859SOL     OW32212   2.868   4.017  17.610 -0.2813  0.1808 -0.1668
 6859SOL    HW132213   2.850   4.111  17.614  1.2907  0.3853  2.3625
 6859SOL    HW232214   2.959   4.009  17.580 -0.4487 -0.3634 -0.5246
 6860SOL     OW32215   4.115   4.345  13.699 -0.0230 -0.3525 -0.3053
 6860SOL    HW132216   4.064   4.301  13.631 -0.0610 -3.6287  1.8054
 6860SOL    HW232217   4.204   4.310  13.702 -0.7753 -2.1658  1.0445
 6861SOL     OW32218   3.986   0.896   7.615 -0.5135  0.0429 -0.3056
 6861SOL    HW132219   3.958   0.940   7.695 -1.7142  0.0576 -0.7382
 6861SOL    HW232220   3.929   0.819   7.609 -0.2121 -0.3106  1.1950
 6862SOL     OW32221   0.177   1.335   2.718  0.6198 -0.0469  0.3738
 6862SOL    HW132222   0.138   1.416   2.685  1.9687  0.6021  0.4085
 6862SOL    HW232223   0.270   1.353   2.708  0.6651 -0.2689  0.4014
 6863SOL     OW32224   1.734   2.831   1.608 -0.3175  0.0731 -0.4476
 6863SOL    HW132225   1.675   2.807   1.679 -1.7962  0.6654 -1.4696
 6863SOL    HW232226   1.677   2.821   1.532  0.0315 -1.3367 -0.5121
 6864SOL     OW32227   0.278   3.284   2.584  0.2413  0.5835 -0.3232
 6864SOL    HW132228   0.205   3.290   2.645 -0.0178  0.9891 -0.6759
 6864SOL    HW232229   0.241   3.211   2.535  0.1470  0.2724  0.2097
 6865SOL     OW32230   3.715   0.775   8.054 -0.2217  0.3038  0.0343
 6865SOL    HW132231   3.733   0.842   7.988 -0.9865 -1.4183 -1.9186
 6865SOL    HW232232   3.630   0.811   8.081 -0.2307 -0.3288  0.8386
 6866SOL     OW32233   2.793   2.485  10.496 -0.4357  0.3179  0.0063
 6866SOL    HW132234   2.835   2.404  10.467  1.9941  1.8102 -0.5631
 6866SOL    HW232235   2.857   2.519  10.558  1.6746 -1.1819 -1.3653
 6867SOL     OW32236   0.768   0.280   3.996 -0.3479  0.1697  0.0054
 6867SOL    HW132237   0.794   0.306   4.085 -3.9636  1.9335  0.5505
 6867SOL    HW232238   0.700   0.343   3.972  0.9615  2.0174  1.0816
 6868SOL     OW32239   3.001   2.323   3.347  0.7367 -0.2051  0.2633
 6868SOL    HW132240   2.931   2.365   3.298  0.5904 -1.2841 -0.4550
 6868SOL    HW232241   3.078   2.359   3.301  0.2134  1.3423  0.6182
 6869SOL     OW32242   3.264   3.056   4.121 -0.2637 -0.3394  0.2283
 6869SOL    HW132243   3.262   3.134   4.176  2.7159 -0.3945  0.4090
 6869SOL    HW232244   3.222   3.094   4.044 -0.3151 -1.6948 -0.4179
 6870SOL     OW32245   3.177   0.148   7.916 -0.2692  0.5833  0.5387
 6870SOL    HW132246   3.167   0.163   8.010 -1.4140 -0.0139  0.5154
 6870SOL    HW232247   3.128   0.066   7.908  2.2606 -0.8685  0.1082
 6871SOL     OW32248   2.009   3.531   7.968  0.0801 -0.1378 -0.3534
 6871SOL    HW132249   2.031   3.621   7.945 -1.5979  0.4416  0.2424
 6871SOL    HW232250   2.095   3.492   7.984  0.3821  0.9626  0.7276
 6872SOL     OW32251   3.739   1.521   2.251  0.1676 -0.5511 -0.1435
 6872SOL    HW132252   3.802   1.502   2.320 -0.9595 -1.0170  0.7534
 6872SOL    HW232253   3.664   1.568   2.288  1.4990  2.8655 -1.7474
 6873SOL     OW32254   3.289   1.835   4.640 -0.2351 -0.3635  0.0343
 6873SOL    HW132255   3.259   1.757   4.687 -1.6824  0.4932  0.5190
 6873SOL    HW232256   3.284   1.809   4.548 -2.3655 -0.1660  0.0848
 6874SOL     OW32257   3.253   1.650  10.313  0.2922  0.2924 -0.2167
 6874SOL    HW132258   3.220   1.730  10.354  0.1087 -0.5525  1.3153
 6874SOL    HW232259   3.263   1.594  10.391 -0.7901 -1.9094 -1.6421
 6875SOL     OW32260   3.862   1.494   6.309  0.4642 -0.2631 -1.0448
 6875SOL    HW132261   3.786   1.549   6.290 -0.6629 -0.3530  3.0784
 6875SOL    HW232262   3.848   1.478   6.403  1.1888 -0.5394 -0.9869
 6876SOL     OW32263   3.760   0.827   8.895 -0.0744  0.1485 -0.3566
 6876SOL    HW132264   3.703   0.767   8.846 -2.5832  0.6383  1.9603
 6876SOL    HW232265   3.696   0.860   8.958  0.9786 -2.1462  1.9181
 6877SOL     OW32266   3.423   2.296   3.945  0.0053 -0.0770  0.0506
 6877SOL    HW132267   3.495   2.359   3.946 -1.2474  1.3812 -2.3766
 6877SOL    HW232268   3.465   2.222   3.990 -1.0246 -2.3048 -2.6433
 6878SOL     OW32269   1.428   2.346   6.234  0.0227 -0.4487  0.4911
 6878SOL    HW132270   1.414   2.287   6.309 -0.2466  0.9465  1.5504
 6878SOL    HW232271   1.521   2.330   6.222  0.0190  1.1432 -1.6315
 6879SOL     OW32272   2.268   3.250  11.262 -0.4018 -0.0548  0.2770
 6879SOL    HW132273   2.293   3.301  11.339 -1.1134  0.1605  0.3668
 6879SOL    HW232274   2.328   3.273  11.192  1.0236 -0.5813  1.3192
 6880SOL     OW32275   2.360   1.492   0.206  0.0017 -0.5980 -0.3411
 6880SOL    HW132276   2.274   1.458   0.179  0.0052 -2.3220  1.7746
 6880SOL    HW232277   2.414   1.447   0.141 -0.2307 -0.2090 -0.7952
 6881SOL     OW32278   3.073   0.746   3.526  0.1625 -0.4773 -0.1654
 6881SOL    HW132279   3.168   0.753   3.514  0.0426 -0.5449 -1.1505
 6881SOL    HW232280   3.078   0.689   3.603 -1.3787 -0.7734 -0.2935
 6882SOL     OW32281   3.489   0.905  10.288  0.6218  0.0689 -0.9722
 6882SOL    HW132282   3.406   0.901  10.335  1.4929  1.3971  0.7011
 6882SOL    HW232283   3.549   0.928  10.359  1.3564  1.0936 -1.9098
 6883SOL     OW32284   3.274   4.416   4.371  0.2665  0.2334 -0.2916
 6883SOL    HW132285   3.360   4.403   4.411  0.3218  2.2792  0.2291
 6883SOL    HW232286   3.235   4.339   4.411  0.9881  0.7652  1.3999
 6884SOL     OW32287   1.169   1.468  17.121 -0.1950  0.3693 -0.3967
 6884SOL    HW132288   1.210   1.547  17.156  1.0132 -0.3369 -0.2255
 6884SOL    HW232289   1.098   1.462  17.186  2.6147 -2.3437  2.4307
 6885SOL     OW32290   0.542   1.932  13.868 -0.2901 -0.1109  0.3140
 6885SOL    HW132291   0.629   1.971  13.864 -0.0559 -1.0205 -3.2836
 6885SOL    HW232292   0.507   1.961  13.784 -0.1291 -0.0691  0.2627
 6886SOL     OW32293   3.060   3.275  16.345  0.4167  0.6750 -0.4793
 6886SOL    HW132294   3.051   3.343  16.412 -0.7860 -1.3172  1.3802
 6886SOL    HW232295   3.101   3.202  16.391 -0.4135 -0.4523 -1.5237
 6887SOL     OW32296   0.354   1.763   4.500 -0.0159  0.2305  0.1070
 6887SOL    HW132297   0.438   1.789   4.462  0.4068 -0.4024  0.5985
 6887SOL    HW232298   0.333   1.686   4.448  0.7428 -2.6477  4.0949
 6888SOL     OW32299   1.552   4.068   5.906  0.9667 -0.3173  0.3110
 6888SOL    HW132300   1.598   4.116   5.838 -0.2321 -0.3573 -0.5303
 6888SOL    HW232301   1.507   4.139   5.952  1.4432 -0.3691  0.8538
 6889SOL     OW32302   1.730   0.560   5.590  0.7907 -0.3618 -0.1555
 6889SOL    HW132303   1.654   0.547   5.533  0.1699 -0.5023  0.7016
 6889SOL    HW232304   1.748   0.653   5.574  0.4965 -0.4083 -0.7424
 6890SOL     OW32305   1.592   0.617   4.794 -0.0400 -0.4840 -0.2921
 6890SOL    HW132306   1.625   0.684   4.734 -2.1474  1.2032  0.4530
 6890SOL    HW232307   1.629   0.541   4.749 -2.0996 -0.1971 -2.4676
 6891SOL     OW32308   1.380   4.491  16.979  0.4625  0.2888 -0.0673
 6891SOL    HW132309   1.360   4.438  17.056 -2.5285  0.8902 -0.4344
 6891SOL    HW232310   1.376   4.577  17.023  0.4657 -0.4062  1.3023
 6892SOL     OW32311   2.907   1.078   5.609 -0.2403  0.3073  0.5311
 6892SOL    HW132312   2.919   1.049   5.699  2.8047  1.2308  0.4270
 6892SOL    HW232313   2.815   1.051   5.606  0.3801 -1.6006 -1.7599
 6893SOL     OW32314   1.249   0.508   6.109  0.3606  0.0545  0.1426
 6893SOL    HW132315   1.299   0.467   6.038  0.3725 -0.5865  0.5268
 6893SOL    HW232316   1.247   0.597   6.073 -2.0624  0.0199  0.1727
 6894SOL     OW32317   4.351   0.949  15.800 -0.1953  0.3483  0.4075
 6894SOL    HW132318   4.435   0.977  15.764 -0.6591 -0.7280 -1.5261
 6894SOL    HW232319   4.387   0.867  15.833  0.4131  0.8689  1.0381
 6895SOL     OW32320   1.830   0.625  14.190  0.1363 -0.3295 -0.1185
 6895SOL    HW132321   1.787   0.544  14.162 -2.1348  1.2807 -1.2945
 6895SOL    HW232322   1.882   0.595  14.264 -2.8891 -1.9083  1.3812
 6896SOL     OW32323   1.372   2.508   4.850 -0.1169  0.0153  0.3120
 6896SOL    HW132324   1.291   2.475   4.887 -0.8860 -0.7667 -2.0381
 6896SOL    HW232325   1.391   2.577   4.913  2.6397 -0.4991  0.0664
 6897SOL     OW32326   2.095   4.440  13.115  0.1124  0.4968 -0.2283
 6897SOL    HW132327   2.181   4.398  13.107 -0.9781 -1.3077 -2.4957
 6897SOL    HW232328   2.112   4.531  13.090  1.9161 -0.0143 -0.9076
 6898SOL     OW32329   0.763   0.941  10.630  0.4974  0.3287 -0.2149
 6898SOL    HW132330   0.705   0.915  10.558 -0.9718 -4.3725  2.6338
 6898SOL    HW232331   0.751   1.036  10.628 -1.0237  0.0922 -2.2347
 6899SOL     OW32332   0.566   1.450   0.508 -1.3279 -0.0199 -0.4943
 6899SOL    HW132333   0.502   1.492   0.450 -2.5386 -1.7227 -0.3715
 6899SOL    HW232334   0.543   1.357   0.505 -1.7393  0.0956 -1.0766
 6900SOL     OW32335   0.622   4.018  17.161  0.0308 -0.0672  0.1719
 6900SOL    HW132336   0.568   4.077  17.108  1.0224  1.1474  0.5062
 6900SOL    HW232337   0.685   4.082  17.194 -0.3255  0.2128  0.3132
 6901SOL     OW32338   3.581   2.960  11.155  0.2103 -0.4650  0.5900
 6901SOL    HW132339   3.531   2.989  11.231  1.5478 -0.4927  1.4766
 6901SOL    HW232340   3.668   2.996  11.176  0.4891 -1.2035  0.6967
 6902SOL     OW32341   2.020   3.357   5.244 -0.4339  0.3508  0.3743
 6902SOL    HW132342   1.990   3.298   5.313 -0.5664 -2.1306 -1.8049
 6902SOL    HW232343   1.991   3.320   5.160  0.0188  0.3522  0.2150
 6903SOL     OW32344   0.191   1.888  15.837  0.4503 -0.0453 -1.0499
 6903SOL    HW132345   0.154   1.806  15.868  4.4438 -1.4929 -0.1732
 6903SOL    HW232346   0.284   1.874  15.855  0.2156 -1.5891 -1.0615
 6904SOL     OW32347   2.636   4.160  14.095 -0.4879 -0.3640 -0.1921
 6904SOL    HW132348   2.725   4.157  14.129 -0.2104 -1.9898 -1.0981
 6904SOL    HW232349   2.651   4.207  14.013 -1.7752  0.3862 -0.0076
 6905SOL     OW32350   3.477   3.789   9.130 -0.0842  0.0298 -0.3444
 6905SOL    HW132351   3.421   3.715   9.108  0.3146  0.1622 -1.7805
 6905SOL    HW232352   3.565   3.753   9.122  0.2347  0.9968 -1.1474
 6906SOL     OW32353   0.025   3.087   9.990  0.6509 -0.0691 -0.2165
 6906SOL    HW132354   0.017   3.181   9.978  0.1576 -0.0255  0.5169
 6906SOL    HW232355   0.120   3.079  10.004  0.3781 -0.1051  1.5971
 6907SOL     OW32356   2.556   2.933   5.464 -0.0983 -0.0798  0.1222
 6907SOL    HW132357   2.534   2.842   5.484 -1.5302 -0.2346 -2.1690
 6907SOL    HW232358   2.478   2.973   5.427 -0.1455 -1.0772 -0.8392
 6908SOL     OW32359   3.279   3.569   9.149  0.0062 -0.3438  0.1531
 6908SOL    HW132360   3.185   3.578   9.168  0.2322  1.0990  0.6275
 6908SOL    HW232361   3.318   3.508   9.211  0.9130  0.9535  0.8699
 6909SOL     OW32362   1.707   2.692   3.203 -0.3168 -0.7308 -0.0385
 6909SOL    HW132363   1.796   2.688   3.240 -1.3417 -0.6944  2.4601
 6909SOL    HW232364   1.698   2.770   3.150 -0.5678  0.6002  1.9631
 6910SOL     OW32365   3.291   1.826   5.970 -0.1269 -0.2239 -0.1823
 6910SOL    HW132366   3.245   1.880   6.034 -2.0275 -1.9098 -0.1214
 6910SOL    HW232367   3.384   1.829   5.991 -0.4769 -0.5420  1.4569
 6911SOL     OW32368   2.058   4.370  10.230 -0.0346 -0.4823 -0.0811
 6911SOL    HW132369   2.130   4.433  10.237 -0.0748 -0.2932 -1.2544
 6911SOL    HW232370   2.008   4.409  10.157  1.1023 -1.3003 -1.2970
 6912SOL     OW32371   3.364   4.685   5.778  0.3908  0.1356 -0.4150
 6912SOL    HW132372   3.369   4.690   5.683  0.6276  0.6486 -0.3749
 6912SOL    HW232373   3.448   4.648   5.806  0.1737  0.2697  0.4294
 6913SOL     OW32374   3.770   0.581   3.479  0.0721  0.0741  0.3432
 6913SOL    HW132375   3.792   0.490   3.495 -0.4481 -0.2605 -0.8826
 6913SOL    HW232376   3.805   0.591   3.391 -0.7272 -1.2693 -0.1185
 6914SOL     OW32377   3.058   2.100   5.676 -0.6550 -0.2196  0.0874
 6914SOL    HW132378   3.085   2.008   5.667  0.5416  0.1811 -0.4497
 6914SOL    HW232379   3.014   2.124   5.595  0.5937 -1.2496 -0.8974
 6915SOL     OW32380   2.629   1.624   5.696 -0.1720  0.6437  0.3854
 6915SOL    HW132381   2.641   1.683   5.770 -3.7493 -0.7831  2.0928
 6915SOL    HW232382   2.717   1.627   5.659 -1.0703 -1.4061 -1.9823
 6916SOL     OW32383   2.082   3.680   7.223  0.1430 -0.6208 -0.0902
 6916SOL    HW132384   2.125   3.681   7.309  0.2691 -0.4111 -0.1525
 6916SOL    HW232385   1.994   3.657   7.250 -0.1525  0.9584  0.2963
 6917SOL     OW32386   2.753   0.984  17.387 -0.0310  0.2674  0.7626
 6917SOL    HW132387   2.678   0.930  17.411 -0.8674  1.0006 -0.2121
 6917SOL    HW232388   2.755   0.966  17.293  0.9813  0.4986  0.7413
 6918SOL     OW32389   3.030   3.420   2.772 -0.3434 -0.4758 -0.4036
 6918SOL    HW132390   2.939   3.418   2.802  0.2716  0.9881  1.5617
 6918SOL    HW232391   3.030   3.350   2.707 -1.5956 -0.9998  0.1478
 6919SOL     OW32392   2.109   0.941   9.326  0.3429  0.5060  0.3218
 6919SOL    HW132393   2.148   1.021   9.292  0.6894 -0.2784 -1.0929
 6919SOL    HW232394   2.182   0.881   9.340  0.3868  0.1241 -1.6493
 6920SOL     OW32395   3.249   1.806   9.178  0.0360 -0.3212  0.0681
 6920SOL    HW132396   3.155   1.800   9.193 -0.2578  0.8386 -1.3011
 6920SOL    HW232397   3.267   1.714   9.158 -2.0984 -1.2654  2.5475
 6921SOL     OW32398   3.454   0.014   7.464 -0.0187 -0.0186 -0.2010
 6921SOL    HW132399   3.441   0.098   7.419  0.2427  0.0380 -0.1712
 6921SOL    HW232400   3.399   0.023   7.543  1.9694 -0.3570  1.2321
 6922SOL     OW32401   0.964   1.032   7.574  0.3142  0.6109  0.3290
 6922SOL    HW132402   0.999   0.946   7.552  1.0363  0.3472  2.4539
 6922SOL    HW232403   0.869   1.020   7.585  0.0966  2.2964  0.2524
 6923SOL     OW32404   0.260   1.973  15.126  0.3314  0.3896  0.0870
 6923SOL    HW132405   0.223   1.936  15.206  0.2595 -1.2236 -0.7066
 6923SOL    HW232406   0.274   1.889  15.083 -0.8617  0.5536 -0.6049
 6924SOL     OW32407   0.320   2.880   3.209  0.2158  0.0325  0.2549
 6924SOL    HW132408   0.293   2.972   3.210  2.6687  0.7649 -0.6593
 6924SOL    HW232409   0.365   2.877   3.293 -0.7568  3.2137  0.8876
 6925SOL     OW32410   3.494   1.920   2.591 -0.2515 -0.0306  0.0433
 6925SOL    HW132411   3.575   1.963   2.564 -1.7797  3.6890  1.3859
 6925SOL    HW232412   3.435   1.972   2.538 -0.3123  1.8711  2.0028
 6926SOL     OW32413   1.647   3.303   4.723 -0.1728  0.5223 -0.3363
 6926SOL    HW132414   1.726   3.338   4.764  0.0979 -2.7419  1.9642
 6926SOL    HW232415   1.679   3.307   4.633 -1.0349 -1.3236 -0.7417
 6927SOL     OW32416   0.128   4.434   5.498  0.5871  0.3933 -0.4283
 6927SOL    HW132417   0.065   4.395   5.438 -1.2533  2.4015  0.2215
 6927SOL    HW232418   0.164   4.348   5.523 -1.9655 -0.5820 -0.1635
 6928SOL     OW32419   2.295   4.374   5.005  0.3136 -0.5454 -0.1331
 6928SOL    HW132420   2.317   4.285   5.029 -1.2059 -0.5747  1.1480
 6928SOL    HW232421   2.251   4.395   5.087  2.5690 -0.1133  0.9715
 6929SOL     OW32422   0.138   4.239   6.971 -0.3769  0.8872 -0.2603
 6929SOL    HW132423   0.209   4.215   7.031 -1.2258 -0.2177  0.2910
 6929SOL    HW232424   0.112   4.322   7.010 -0.5924  0.8136 -0.2495
 6930SOL     OW32425   3.634   3.117   6.570  0.6565 -0.3892 -0.2206
 6930SOL    HW132426   3.588   3.056   6.513 -0.2101  1.3308 -1.3666
 6930SOL    HW232427   3.719   3.074   6.579  0.9437  0.3262  0.5086
 6931SOL     OW32428   2.966   3.388   2.057  0.6530 -0.1995  0.2672
 6931SOL    HW132429   3.048   3.343   2.079  0.9066  0.8554  1.4568
 6931SOL    HW232430   2.979   3.376   1.963 -2.7183  0.7627 -0.3101
 6932SOL     OW32431   2.920   1.127   6.951 -0.5501  0.1798 -0.2952
 6932SOL    HW132432   2.999   1.161   6.995 -0.1744 -0.2337 -0.6442
 6932SOL    HW232433   2.865   1.114   7.028 -0.8852  0.0042 -0.5697
 6933SOL     OW32434   2.158   0.267   6.333  0.3217 -0.4966  0.3021
 6933SOL    HW132435   2.194   0.354   6.351  0.1061 -0.4914  0.6994
 6933SOL    HW232436   2.240   0.218   6.335 -0.0134 -1.1473 -1.6821
 6934SOL     OW32437   3.550   1.223  12.860 -0.4605  0.3116  0.6207
 6934SOL    HW132438   3.635   1.180  12.848 -1.5576 -1.4203 -0.8697
 6934SOL    HW232439   3.492   1.148  12.873 -1.9462  1.7980  2.6354
 6935SOL     OW32440   3.599   4.702   9.271  0.0792 -0.0622  0.4508
 6935SOL    HW132441   3.587   4.718   9.365  0.8547  1.8215  0.2334
 6935SOL    HW232442   3.542   4.626   9.260 -0.3264 -0.1091  2.8987
 6936SOL     OW32443   2.493   2.436   7.341  0.3967 -0.3730 -0.1700
 6936SOL    HW132444   2.465   2.477   7.423  1.0805  0.8389 -0.5396
 6936SOL    HW232445   2.519   2.512   7.289  1.4571 -0.7325 -0.1619
 6937SOL     OW32446   2.697   2.331  17.543  0.0562 -0.3162 -1.0649
 6937SOL    HW132447   2.787   2.310  17.566  0.3801 -0.3490 -2.3539
 6937SOL    HW232448   2.648   2.257  17.580 -0.0836  0.4426  0.2644
 6938SOL     OW32449   1.258   3.942  11.927  0.5422 -0.5439 -0.4924
 6938SOL    HW132450   1.265   3.858  11.881  1.1899 -1.4988  1.3367
 6938SOL    HW232451   1.300   4.000  11.864  1.1153 -1.8153 -1.2819
 6939SOL     OW32452   4.648   1.344   2.366 -0.2945  0.0904 -0.0062
 6939SOL    HW132453   4.582   1.412   2.349 -1.3675 -0.5094  1.7877
 6939SOL    HW232454   4.584   1.279   2.396 -0.0264  0.3926  1.2237
 6940SOL     OW32455   3.431   0.543   7.302  0.3614 -0.0595 -0.1793
 6940SOL    HW132456   3.513   0.565   7.258  0.3646 -0.3453 -0.3188
 6940SOL    HW232457   3.373   0.513   7.232  0.5508 -0.5022 -0.1481
 6941SOL     OW32458   1.224   2.655   7.689  0.2668  0.2507 -0.4416
 6941SOL    HW132459   1.308   2.626   7.725  0.1003  0.1641 -0.1216
 6941SOL    HW232460   1.232   2.640   7.595  0.0277 -2.7907  0.0396
 6942SOL     OW32461   2.775   4.264  17.705  0.1584 -0.7668  0.2030
 6942SOL    HW132462   2.766   4.225   0.051  3.2196  0.5090  1.0944
 6942SOL    HW232463   2.786   4.351   0.000  2.2271 -0.5659 -0.8771
 6943SOL     OW32464   4.303   2.811  15.280  0.2609  0.1444  0.2631
 6943SOL    HW132465   4.326   2.762  15.201  0.8295  2.7768 -1.2355
 6943SOL    HW232466   4.209   2.794  15.283  0.1042  0.9333 -0.1049
 6944SOL     OW32467   3.331   0.578   2.692  0.3492 -0.3410 -0.6445
 6944SOL    HW132468   3.284   0.582   2.608  1.1675 -0.6100 -1.1191
 6944SOL    HW232469   3.317   0.488   2.722  2.1594  0.4372  2.5182
 6945SOL     OW32470   4.054   0.611   4.817  0.2089 -0.6603 -0.6352
 6945SOL    HW132471   4.049   0.523   4.854 -1.8815  0.4068  1.6581
 6945SOL    HW232472   4.064   0.661   4.897 -2.8441 -0.6125 -0.2721
 6946SOL     OW32473   1.690   2.471   4.045  0.0298  0.7034  0.0502
 6946SOL    HW132474   1.679   2.566   4.046 -0.6873  0.5933  1.6637
 6946SOL    HW232475   1.666   2.438   4.131 -0.8084  1.0883 -0.0329
 6947SOL     OW32476   3.728   1.915  17.563 -0.2055 -0.4473 -0.3304
 6947SOL    HW132477   3.678   1.945  17.488 -0.9320 -1.9012 -0.4227
 6947SOL    HW232478   3.673   1.957  17.629  0.5928 -0.9538  0.6650
 6948SOL     OW32479   0.405   3.546   4.365 -0.2165 -0.1821  0.3500
 6948SOL    HW132480   0.309   3.549   4.367 -0.1466  1.6339  0.8717
 6948SOL    HW232481   0.414   3.551   4.270 -0.5368 -0.5124  0.3035
 6949SOL     OW32482   1.311   4.171   2.855  0.1943  0.2356  0.2760
 6949SOL    HW132483   1.243   4.152   2.920 -2.3049  2.7144 -1.6142
 6949SOL    HW232484   1.287   4.250   2.808  0.7730 -0.0464 -0.4970
 6950SOL     OW32485   2.808   0.855   2.062 -0.1073  0.1335 -0.5542
 6950SOL    HW132486   2.825   0.775   2.111  1.5753  0.0900 -1.2302
 6950SOL    HW232487   2.887   0.864   2.010 -0.5844 -3.1888 -1.8793
 6951SOL     OW32488   3.687   4.198   5.165  0.1905  0.0534 -0.1673
 6951SOL    HW132489   3.627   4.135   5.207 -0.3328  0.9984  0.5141
 6951SOL    HW232490   3.643   4.202   5.080 -0.6768  0.2036  0.2811
 6952SOL     OW32491   4.150   0.244  15.606 -0.2276 -0.4128 -0.1987
 6952SOL    HW132492   4.198   0.325  15.623 -1.0179  0.0515 -0.1666
 6952SOL    HW232493   4.197   0.178  15.655  0.2927 -2.4137 -3.3675
 6953SOL     OW32494   2.690   4.513   2.587  0.0068  0.4101  0.5494
 6953SOL    HW132495   2.754   4.453   2.624 -0.6182 -0.0186  0.9472
 6953SOL    HW232496   2.613   4.457   2.578  1.7949 -1.7016 -1.6343
 6954SOL     OW32497   3.478   3.613   8.790  0.3785  0.4091  0.6333
 6954SOL    HW132498   3.529   3.576   8.863  1.3810  0.7039  0.0802
 6954SOL    HW232499   3.537   3.658   8.730  0.1692  1.7228  1.4242
 6955SOL     OW32500   1.620   0.617   7.003 -0.8574  0.9926 -0.0938
 6955SOL    HW132501   1.566   0.594   7.079 -2.2045 -1.6847 -1.8465
 6955SOL    HW232502   1.632   0.710   7.022  2.1840 -0.0324  3.0468
 6956SOL     OW32503   3.808   0.320   3.518 -0.5140 -0.3565  0.3810
 6956SOL    HW132504   3.784   0.235   3.554  2.5220 -0.3360  2.4022
 6956SOL    HW232505   3.867   0.300   3.444  1.1463  0.7350  1.4031
 6957SOL     OW32506   3.819   2.797   4.217  0.0875 -0.5284  0.6826
 6957SOL    HW132507   3.728   2.776   4.194  0.6310 -0.8051 -1.2197
 6957SOL    HW232508   3.822   2.750   4.300  3.6553  2.2526  2.0789
 6958SOL     OW32509   2.398   2.120   2.544 -0.2608  0.4110  0.4504
 6958SOL    HW132510   2.418   2.123   2.638  1.3204 -0.1086  0.1315
 6958SOL    HW232511   2.333   2.188   2.528 -0.4835  0.7301  2.6321
 6959SOL     OW32512   1.548   1.238   0.869 -0.2497 -0.0927  0.0840
 6959SOL    HW132513   1.534   1.171   0.937 -0.8382  2.7405  2.7625
 6959SOL    HW232514   1.624   1.278   0.912 -0.1515 -1.0202  0.7715
 6960SOL     OW32515   0.057   0.526   4.777 -0.4264 -0.2351 -0.0596
 6960SOL    HW132516   0.137   0.475   4.767  0.3519  0.5831  2.0505
 6960SOL    HW232517   0.057   0.587   4.703  0.7424 -0.3252 -0.1412
 6961SOL     OW32518   3.147   0.740   0.363 -0.0763 -0.4741 -0.0755
 6961SOL    HW132519   3.160   0.802   0.290 -0.3676 -2.7803 -2.0818
 6961SOL    HW232520   3.053   0.751   0.378 -0.1024 -0.6739 -0.0925
 6962SOL     OW32521   1.927   4.043  14.183 -0.0304  0.0630 -0.3574
 6962SOL    HW132522   2.001   4.076  14.132  1.5345 -1.6954  0.7476
 6962SOL    HW232523   1.948   3.951  14.198 -0.3349  0.3409  1.8153
 6963SOL     OW32524   2.182   1.742   4.444  0.8530 -0.1490  0.2590
 6963SOL    HW132525   2.207   1.832   4.467  2.8549 -0.1278 -2.0778
 6963SOL    HW232526   2.265   1.695   4.450  0.8245 -0.3926 -1.2731
 6964SOL     OW32527   0.052   2.841   7.296  0.4681  0.2323 -0.6385
 6964SOL    HW132528   0.032   2.869   7.385  0.4862  0.3305 -0.6663
 6964SOL    HW232529   0.048   2.746   7.307  1.2514  0.1732 -0.8657
 6965SOL     OW32530   2.867   0.500   5.236  0.4122 -0.5885 -0.0803
 6965SOL    HW132531   2.890   0.412   5.209  1.9103 -0.7145  1.6148
 6965SOL    HW232532   2.904   0.559   5.171 -0.4341 -0.8908 -0.8287
 6966SOL     OW32533   1.526   1.819  11.583 -0.4709 -0.6087 -0.2478
 6966SOL    HW132534   1.552   1.793  11.671 -0.2742  0.0920 -0.1027
 6966SOL    HW232535   1.547   1.912  11.580 -1.3220 -0.4741 -1.8561
 6967SOL     OW32536   1.726   2.173   9.023 -0.3710  0.5453  0.1544
 6967SOL    HW132537   1.809   2.216   9.002  0.2734 -0.6152  0.3477
 6967SOL    HW232538   1.736   2.154   9.116 -1.8719 -1.0719 -0.0062
 6968SOL     OW32539   0.259   0.156   8.304 -0.7579  0.0037  0.0680
 6968SOL    HW132540   0.284   0.066   8.325  0.0323  0.2085  0.0125
 6968SOL    HW232541   0.343   0.195   8.279 -1.4021  1.5532  0.3588
 6969SOL     OW32542   4.597   4.470   2.876  0.2434  0.3456  0.3100
 6969SOL    HW132543   4.678   4.503   2.837  0.0015  0.9675  0.3292
 6969SOL    HW232544   4.586   4.392   2.822  2.7895  1.5688 -1.9241
 6970SOL     OW32545   4.058   2.271   3.038 -0.0256 -0.1359  0.2677
 6970SOL    HW132546   4.038   2.180   3.063 -0.1444 -0.7159 -1.9819
 6970SOL    HW232547   4.090   2.244   2.952 -2.0505 -0.0614 -0.5200
 6971SOL     OW32548   2.458   1.730   7.847 -0.0157 -0.4864  0.3053
 6971SOL    HW132549   2.434   1.643   7.814 -0.5617  0.2023 -1.1339
 6971SOL    HW232550   2.375   1.778   7.848  0.9051  1.0362  2.0906
 6972SOL     OW32551   3.169   0.916   5.504  0.9155  0.5564 -0.5313
 6972SOL    HW132552   3.122   0.835   5.525 -0.4001  1.0763 -1.4255
 6972SOL    HW232553   3.106   0.974   5.462 -1.4871 -1.7707 -0.1768
 6973SOL     OW32554   0.194   3.478   8.581  0.1254  0.5514  0.4755
 6973SOL    HW132555   0.174   3.566   8.612 -1.6693  0.2700  0.1044
 6973SOL    HW232556   0.278   3.494   8.538 -0.8075  0.9166 -1.2251
 6974SOL     OW32557   0.626   0.385   1.642 -0.1168  0.5075  0.5328
 6974SOL    HW132558   0.685   0.436   1.587 -0.3433 -0.7543 -0.8641
 6974SOL    HW232559   0.566   0.356   1.574 -0.2012  1.7717  0.0742
 6975SOL     OW32560   3.880   0.017   7.747  0.6425  0.3315  0.9274
 6975SOL    HW132561   3.857   0.015   7.654  0.7233 -0.7713  0.9233
 6975SOL    HW232562   3.975   0.003   7.742  0.6424  0.5610  0.2975
 6976SOL     OW32563   0.646   0.373   5.953 -0.7767 -0.3190 -0.1017
 6976SOL    HW132564   0.717   0.408   6.008  0.0164 -1.4118 -0.4307
 6976SOL    HW232565   0.645   0.438   5.882 -0.4674 -0.3168 -0.1057
 6977SOL     OW32566   3.681   0.513   2.620  0.0207  0.0385 -0.1405
 6977SOL    HW132567   3.615   0.582   2.618  0.6717  0.7544  2.2764
 6977SOL    HW232568   3.681   0.481   2.530 -0.3694  1.3057 -0.5843
 6978SOL     OW32569   0.436   0.115   7.406 -0.3571  0.2302 -0.4730
 6978SOL    HW132570   0.398   0.036   7.369 -1.8200 -0.0486  1.5980
 6978SOL    HW232571   0.444   0.172   7.330 -1.8827  1.6675  0.4324
 6979SOL     OW32572   3.028   1.403   4.732  0.3741 -0.2988 -0.0889
 6979SOL    HW132573   3.036   1.316   4.772  1.3086  0.0514  0.5001
 6979SOL    HW232574   3.104   1.401   4.674  0.4603  1.4460 -0.0460
 6980SOL     OW32575   3.058   1.871   2.411 -0.2364  0.0115  0.5334
 6980SOL    HW132576   3.085   1.780   2.426 -1.1032  0.0181  2.2085
 6980SOL    HW232577   3.133   1.920   2.379 -0.0567  1.5543  3.2280
 6981SOL     OW32578   2.773   3.544   5.118 -0.2597 -0.0541 -0.0752
 6981SOL    HW132579   2.716   3.593   5.178 -1.0358 -3.0291  1.5815
 6981SOL    HW232580   2.836   3.613   5.096 -0.5905  0.7150  1.3876
 6982SOL     OW32581   4.539   3.004   8.468 -0.5649  0.0236  0.5643
 6982SOL    HW132582   4.478   2.993   8.541 -2.1916 -1.2368 -0.9904
 6982SOL    HW232583   4.525   3.097   8.450 -1.0873 -0.0893  0.3915
 6983SOL     OW32584   1.529   4.526   2.426  0.3106 -0.1939  0.2321
 6983SOL    HW132585   1.499   4.580   2.353  0.2996 -0.4516  0.0479
 6983SOL    HW232586   1.623   4.518   2.412  0.7867  2.2646  1.8716
 6984SOL     OW32587   2.786   4.053   3.690  0.0146 -0.1839  0.1067
 6984SOL    HW132588   2.731   3.974   3.696 -1.3013  0.8941  1.9577
 6984SOL    HW232589   2.720   4.107   3.646  1.6326 -0.0485 -2.1591
 6985SOL     OW32590   1.839   1.404   7.625  0.5476  0.2870  0.3288
 6985SOL    HW132591   1.867   1.328   7.575 -0.5174  0.5263 -0.6395
 6985SOL    HW232592   1.821   1.462   7.551 -0.9352  2.1010  2.0993
 6986SOL     OW32593   0.108   1.174  12.464 -0.4550 -0.4614  0.2415
 6986SOL    HW132594   0.184   1.220  12.431 -1.5808 -0.1028 -1.8202
 6986SOL    HW232595   0.138   1.127  12.542  1.8198  0.5329 -0.0550
 6987SOL     OW32596   2.035   2.929   3.756  0.2323  0.2921 -0.0500
 6987SOL    HW132597   2.040   2.841   3.793 -3.6943 -0.0829 -0.3978
 6987SOL    HW232598   1.959   2.971   3.796  0.6777 -0.3041  1.4244
 6988SOL     OW32599   2.843   2.724   6.837  0.3419 -0.1574  0.1126
 6988SOL    HW132600   2.787   2.749   6.764  2.0957  0.4453 -1.0445
 6988SOL    HW232601   2.930   2.737   6.798  1.1296 -0.7610  1.6789
 6989SOL     OW32602   3.549   4.680   1.215 -0.8670  0.1557 -0.0147
 6989SOL    HW132603   3.474   4.629   1.247  0.4454 -1.6428  0.1734
 6989SOL    HW232604   3.517   0.034   1.208 -0.5464  0.3850  1.4356
 6990SOL     OW32605   2.653   4.710   7.076  0.1665  0.2781  0.0049
 6990SOL    HW132606   2.655   4.674   7.164 -2.3168  0.5864  0.1903
 6990SOL    HW232607   2.678   0.067   7.078  0.2643  0.3190 -2.7919
 6991SOL     OW32608   0.852   0.928   8.232  0.5469  0.3465  0.5650
 6991SOL    HW132609   0.779   0.880   8.270 -1.3712  1.4873 -1.6947
 6991SOL    HW232610   0.896   0.853   8.191  1.2582  0.6390  0.7863
 6992SOL     OW32611   3.215   3.288  11.411  0.1319 -0.0996  0.1231
 6992SOL    HW132612   3.149   3.243  11.359 -1.5512  0.9912  1.3275
 6992SOL    HW232613   3.195   3.375  11.376 -0.6531  0.5248  2.1401
 6993SOL     OW32614   3.643   3.099   8.412  0.1469  0.0866  0.0528
 6993SOL    HW132615   3.612   3.189   8.428 -1.6184 -0.5224  0.1019
 6993SOL    HW232616   3.632   3.059   8.498 -1.1694  0.1603 -0.0765
 6994SOL     OW32617   1.502   4.061   4.011 -0.5470 -0.2487  0.1866
 6994SOL    HW132618   1.466   4.016   4.088  0.0694  1.4276  1.4384
 6994SOL    HW232619   1.420   4.071   3.962 -1.6148  1.5930  2.4015
 6995SOL     OW32620   0.300   2.120   7.002  0.5610 -0.0832  0.5047
 6995SOL    HW132621   0.325   2.136   7.093  1.8354  1.6747 -0.1742
 6995SOL    HW232622   0.322   2.207   6.970  0.1559  0.8500  2.7298
 6996SOL     OW32623   0.391   1.889   6.927  0.4986 -0.0703  0.3736
 6996SOL    HW132624   0.459   1.903   6.992  2.0882 -1.7753 -0.9077
 6996SOL    HW232625   0.324   1.937   6.975  0.8910  0.5932  0.2581
 6997SOL     OW32626   4.359   0.054   3.683  0.7178 -0.0380 -0.7754
 6997SOL    HW132627   4.293   4.723   3.666  0.3883  0.2015 -0.4272
 6997SOL    HW232628   4.303   0.120   3.725  0.3865 -0.6452 -0.2599
 6998SOL     OW32629   2.576   1.347  10.496 -0.1023 -0.4824 -0.4921
 6998SOL    HW132630   2.494   1.353  10.447  0.1783 -0.7897 -0.9930
 6998SOL    HW232631   2.623   1.423  10.461 -2.2102  1.2119  0.2832
 6999SOL     OW32632   4.493   0.177  16.626  0.8000  0.3339  0.3476
 6999SOL    HW132633   4.557   0.132  16.570 -0.6788  0.6608 -1.6117
 6999SOL    HW232634   4.418   0.153  16.571  1.3818  0.1946 -0.3866
 7000SOL     OW32635   1.998   3.968   2.313 -0.1065  0.3955  0.3583
 7000SOL    HW132636   1.913   3.996   2.347 -0.9042  0.6407 -1.8382
 7000SOL    HW232637   1.976   3.876   2.298 -0.9894  0.4616  1.2220
 7001SOL     OW32638   3.804   0.082   2.284  0.1544  0.1902 -0.4456
 7001SOL    HW132639   3.743   0.034   2.228 -0.8078  0.5597  0.2923
 7001SOL    HW232640   3.734   0.129   2.330 -1.6160 -1.7138 -1.1895
 7002SOL     OW32641   1.237   0.066   7.116 -0.1458  0.1397  0.3167
 7002SOL    HW132642   1.306   0.038   7.176 -0.0704 -0.3404  0.0068
 7002SOL    HW232643   1.253   0.009   7.040 -0.7772 -0.8595  0.9289
 7003SOL     OW32644   0.996   1.994  15.436  1.5594 -0.9231  0.3873
 7003SOL    HW132645   1.057   1.952  15.376  1.3689  0.4485 -0.7727
 7003SOL    HW232646   1.027   1.951  15.516  0.5199 -0.9126  0.7952
 7004SOL     OW32647   2.015   2.691   3.226  0.7392 -0.5286 -0.0474
 7004SOL    HW132648   1.990   2.615   3.173  3.0760 -0.1729 -1.6905
 7004SOL    HW232649   2.105   2.668   3.249  1.3660  0.5301 -1.3931
 7005SOL     OW32650   3.724   0.513   7.877 -0.5626 -0.1108 -0.5568
 7005SOL    HW132651   3.682   0.592   7.912  0.1669  0.1681 -0.2948
 7005SOL    HW232652   3.782   0.486   7.949 -0.6936  0.5361 -0.2021
 7006SOL     OW32653   1.186   4.442   6.200 -0.0618  0.1353  0.1000
 7006SOL    HW132654   1.279   4.448   6.220 -0.5200  0.9949  1.9712
 7006SOL    HW232655   1.181   4.479   6.111  0.8291 -2.5844 -1.0729
 7007SOL     OW32656   1.261   4.239  16.008 -0.4388 -0.4400  0.8382
 7007SOL    HW132657   1.268   4.182  15.932 -0.6418  0.8570 -0.1444
 7007SOL    HW232658   1.170   4.216  16.026 -0.6049 -0.0742  0.4500
 7008SOL     OW32659   2.588   2.594   3.570  0.2505 -0.0818 -0.1753
 7008SOL    HW132660   2.546   2.526   3.519  0.1235 -0.7294  0.7915
 7008SOL    HW232661   2.515   2.617   3.628  0.1626 -0.5865 -0.0874
 7009SOL     OW32662   2.315   1.135   9.390  0.6550 -0.4047  0.7079
 7009SOL    HW132663   2.399   1.097   9.362  0.4562 -1.5133  1.6148
 7009SOL    HW232664   2.338   1.150   9.482 -0.0624 -1.6855  1.0943
 7010SOL     OW32665   0.107   4.602   9.534  0.0356  0.2307 -0.1213
 7010SOL    HW132666   0.171   4.535   9.558 -1.9214 -1.3343  0.7764
 7010SOL    HW232667   0.145   4.645   9.459 -1.0429  1.1679 -0.1307
 7011SOL     OW32668   3.750   4.636   8.249 -0.0892 -0.3697  0.6558
 7011SOL    HW132669   3.808   4.685   8.191 -0.3489  0.2641  0.9382
 7011SOL    HW232670   3.773   4.676   8.332 -2.8979  0.4794  1.0410
 7012SOL     OW32671   0.590   3.846   7.029 -0.5105  0.4748 -0.2240
 7012SOL    HW132672   0.552   3.821   7.114  0.1609 -2.4246 -0.7894
 7012SOL    HW232673   0.514   3.891   6.992 -1.6597  0.6183  2.3006
 7013SOL     OW32674   2.482   2.182   2.141  0.1727  0.0496 -0.3530
 7013SOL    HW132675   2.395   2.162   2.106  0.1239  0.7849 -0.6422
 7013SOL    HW232676   2.503   2.096   2.178  2.4403 -0.3077 -2.5013
 7014SOL     OW32677   2.569   0.740  15.689 -0.0032 -0.0265 -0.5130
 7014SOL    HW132678   2.561   0.680  15.763  0.1947  1.3169  0.5982
 7014SOL    HW232679   2.595   0.678  15.620 -0.2418 -1.5266  0.7386
 7015SOL     OW32680   0.980   2.788   9.852 -0.4716 -0.1782 -0.3135
 7015SOL    HW132681   1.052   2.732   9.821  2.6567  1.7342  3.5268
 7015SOL    HW232682   0.988   2.771   9.946 -1.2492 -0.3330 -0.2804
 7016SOL     OW32683   0.757   4.183  15.779  0.2156  0.2019 -0.2015
 7016SOL    HW132684   0.740   4.125  15.705 -3.3065  1.9967 -0.7995
 7016SOL    HW232685   0.844   4.216  15.754 -0.3456  1.7118 -0.1786
 7017SOL     OW32686   0.625   4.582   2.408  0.0176 -0.4238 -0.5170
 7017SOL    HW132687   0.687   4.514   2.434  0.6226  0.3901  0.1645
 7017SOL    HW232688   0.617   4.634   2.488  2.0257  0.8618 -1.1488
 7018SOL     OW32689   3.166   0.625   4.111 -0.0004 -0.0202  0.2282
 7018SOL    HW132690   3.221   0.685   4.161  0.6871 -1.2536  0.9265
 7018SOL    HW232691   3.234   0.589   4.054 -0.3873  0.1950 -0.3684
 7019SOL     OW32692   3.457   0.214  11.885 -0.0660  0.1330  0.6247
 7019SOL    HW132693   3.490   0.137  11.932  0.4188 -0.5208 -0.8110
 7019SOL    HW232694   3.495   0.198  11.799 -1.9892  1.4952 -0.4636
 7020SOL     OW32695   1.178   4.400  17.182 -0.3306  0.3902  0.5860
 7020SOL    HW132696   1.182   4.438  17.270  0.9222 -0.0628  0.7229
 7020SOL    HW232697   1.088   4.378  17.156 -0.0508 -1.0648  0.8388
 7021SOL     OW32698   1.661   0.062   9.315  0.6177 -0.6593 -0.6492
 7021SOL    HW132699   1.572   0.026   9.314  0.7160 -0.9230 -0.0553
 7021SOL    HW232700   1.666   0.132   9.250 -0.4887  0.6075  0.6253
 7022SOL     OW32701   1.059   3.747   5.391 -0.2882  0.0389  0.5111
 7022SOL    HW132702   1.132   3.689   5.370 -0.3046  0.1511  0.1362
 7022SOL    HW232703   1.001   3.695   5.446 -0.2220 -1.8181 -1.1777
 7023SOL     OW32704   3.486   1.224   8.969 -0.1191  0.1048 -0.4903
 7023SOL    HW132705   3.444   1.300   8.929  0.9864 -0.7516 -3.2591
 7023SOL    HW232706   3.507   1.264   9.054 -1.8785  1.6972 -0.7976
 7024SOL     OW32707   1.821   4.506   6.167  0.6679  0.3164 -0.1722
 7024SOL    HW132708   1.901   4.496   6.115 -0.2508  0.5050 -1.6387
 7024SOL    HW232709   1.785   4.418   6.157  0.3558  0.3542  0.6223
 7025SOL     OW32710   3.393   4.264   6.318  0.4335 -0.4552 -0.0407
 7025SOL    HW132711   3.353   4.344   6.285 -2.1919 -1.8380 -0.2056
 7025SOL    HW232712   3.363   4.191   6.264 -0.4930 -0.9250  1.0894
 7026SOL     OW32713   1.140   2.828   2.782  0.0064  0.4348  0.0101
 7026SOL    HW132714   1.183   2.743   2.773 -0.4070  0.0431  1.6884
 7026SOL    HW232715   1.201   2.884   2.832  2.0189 -1.1057 -0.7099
 7027SOL     OW32716   2.997   1.644  16.787  0.0199 -0.3784  0.0136
 7027SOL    HW132717   3.088   1.673  16.789 -0.4367  0.9774  1.1668
 7027SOL    HW232718   2.980   1.611  16.875  2.6815 -0.1269  0.6288
 7028SOL     OW32719   4.238   3.868  12.840 -0.0137  0.1577  0.7217
 7028SOL    HW132720   4.330   3.895  12.843 -0.1808  0.9430 -1.7825
 7028SOL    HW232721   4.196   3.953  12.854  0.5086  1.1079 -3.3642
 7029SOL     OW32722   4.407   2.806   4.985 -0.4688 -0.8347  0.4700
 7029SOL    HW132723   4.321   2.764   4.978 -0.1437 -1.7400  1.9998
 7029SOL    HW232724   4.406   2.880   4.924 -1.3685 -1.9635 -0.8947
 7030SOL     OW32725   4.159   1.154  15.696  0.5154  0.7907 -0.0440
 7030SOL    HW132726   4.193   1.071  15.730  1.0225  0.3805 -1.5565
 7030SOL    HW232727   4.161   1.198  15.781  1.8379 -1.7919  1.2761
 7031SOL     OW32728   3.993   1.753  15.859 -0.2005  0.7925 -0.2092
 7031SOL    HW132729   4.034   1.691  15.919 -2.9378  1.9030  2.7725
 7031SOL    HW232730   3.930   1.705  15.805 -0.3256  2.0463 -1.1825
 7032SOL     OW32731   4.369   1.332   4.108  0.6142 -0.1116 -0.5089
 7032SOL    HW132732   4.320   1.282   4.042 -0.8327 -0.6623  0.9877
 7032SOL    HW232733   4.342   1.295   4.192  0.4636 -0.4130 -0.6908
 7033SOL     OW32734   1.891   0.897   7.127 -0.2297 -0.3391 -0.2784
 7033SOL    HW132735   1.982   0.888   7.154  0.6939  0.8395 -3.0827
 7033SOL    HW232736   1.901   0.924   7.036 -0.7386 -1.6973 -0.7392
 7034SOL     OW32737   1.750   1.330   1.046 -0.4204  0.5945  0.2295
 7034SOL    HW132738   1.794   1.403   1.090  1.0267 -0.7219  0.9570
 7034SOL    HW232739   1.739   1.272   1.121 -1.5237 -0.6853 -0.9341
 7035SOL     OW32740   0.813   2.732   2.987 -0.6150  0.1201  0.4596
 7035SOL    HW132741   0.740   2.756   3.044 -0.5720  2.0687 -0.2718
 7035SOL    HW232742   0.840   2.819   2.958  0.6298 -0.1440  0.8213
 7036SOL     OW32743   1.020   2.312  10.007  0.3593 -0.5159  0.4369
 7036SOL    HW132744   1.095   2.330  10.064 -0.9072 -0.1974  2.0067
 7036SOL    HW232745   0.946   2.346  10.058  1.5826  0.4383  1.5617
 7037SOL     OW32746   2.935   3.351  10.018  0.1337  0.0157  0.8975
 7037SOL    HW132747   2.913   3.385  10.105 -1.7251  1.1208  0.0058
 7037SOL    HW232748   2.873   3.280  10.005  0.9349 -0.3914 -0.6745
 7038SOL     OW32749   3.041   0.366   6.295  0.0573  0.4355 -0.1799
 7038SOL    HW132750   3.030   0.309   6.219 -3.9048 -0.5727  1.1749
 7038SOL    HW232751   2.963   0.421   6.289 -0.8898 -0.7064  1.5987
 7039SOL     OW32752   0.334   4.267   1.614  0.0895  0.3382 -0.5082
 7039SOL    HW132753   0.366   4.182   1.582 -0.9602 -0.8102  1.4994
 7039SOL    HW232754   0.303   4.308   1.533 -1.5915 -1.0057 -0.5548
 7040SOL     OW32755   0.641   1.309   6.226 -0.0964 -0.3449  0.5483
 7040SOL    HW132756   0.727   1.293   6.264  0.0421 -1.2311 -0.1517
 7040SOL    HW232757   0.652   1.391   6.177  0.3343 -0.6067  0.2076
 7041SOL     OW32758   1.404   4.324   2.036  0.0040 -0.1907 -0.1007
 7041SOL    HW132759   1.325   4.379   2.029 -1.3181 -1.8565  1.7373
 7041SOL    HW232760   1.475   4.385   2.016 -0.5529  0.6633  0.5181
 7042SOL     OW32761   2.725   4.467  12.286  0.1687  0.8649  0.4145
 7042SOL    HW132762   2.771   4.495  12.207  0.5648  1.5035  0.8632
 7042SOL    HW232763   2.797   4.472  12.350 -0.1602  1.5016  0.7383
 7043SOL     OW32764   1.961   0.720   4.629  0.0678  0.2333 -0.1499
 7043SOL    HW132765   2.002   0.760   4.552  0.5672 -1.7711 -0.9117
 7043SOL    HW232766   1.981   0.628   4.612 -2.2657 -0.2097 -0.4913
 7044SOL     OW32767   0.322   1.426  14.479 -0.4012 -0.5022 -0.3366
 7044SOL    HW132768   0.310   1.495  14.414 -0.4510 -0.5340 -0.3609
 7044SOL    HW232769   0.414   1.405  14.459 -0.3025 -1.3813  1.0389
 7045SOL     OW32770   2.345   1.980   8.917  0.0706  0.2942  0.3434
 7045SOL    HW132771   2.282   1.960   8.987 -0.1650  0.9375  0.3199
 7045SOL    HW232772   2.420   1.988   8.975 -0.3903 -0.1410  1.0087
 7046SOL     OW32773   3.609   3.222   5.785 -0.0998 -0.1128  0.2994
 7046SOL    HW132774   3.637   3.267   5.706 -1.2110 -0.4796 -0.3090
 7046SOL    HW232775   3.651   3.137   5.774  0.6457  0.4619 -1.1586
 7047SOL     OW32776   4.330   0.456   2.687 -0.1836  0.0342 -0.0753
 7047SOL    HW132777   4.319   0.550   2.697 -1.0591 -0.1625  0.8196
 7047SOL    HW232778   4.344   0.438   2.594 -1.5217 -0.6030 -0.1515
 7048SOL     OW32779   3.700   0.915   7.590 -0.2380  0.3658 -0.5813
 7048SOL    HW132780   3.696   0.939   7.682  0.6575 -0.3919 -0.3494
 7048SOL    HW232781   3.670   0.824   7.591 -0.7720  0.5661  1.1588
 7049SOL     OW32782   1.133   2.071   5.601  0.7529 -0.0157  0.2196
 7049SOL    HW132783   1.208   2.016   5.576  0.8087 -0.3054  1.0116
 7049SOL    HW232784   1.164   2.103   5.685  2.7567 -3.2324  0.7412
 7050SOL     OW32785   0.881   1.373   6.409 -0.3203  0.1548 -0.0009
 7050SOL    HW132786   0.910   1.435   6.342 -0.1536 -0.3121 -0.3643
 7050SOL    HW232787   0.873   1.428   6.486  5.1766  3.2263 -1.6044
 7051SOL     OW32788   4.163   3.528   3.603 -0.5120  0.7604  0.1037
 7051SOL    HW132789   4.074   3.502   3.577  0.2276 -0.2542 -1.4005
 7051SOL    HW232790   4.138   3.595   3.667 -0.2693  0.7918  0.1665
 7052SOL     OW32791   3.369   2.189   1.324 -0.0024 -0.1345  0.3849
 7052SOL    HW132792   3.342   2.112   1.374 -2.1061  0.0394 -0.4861
 7052SOL    HW232793   3.377   2.153   1.235  2.5600  3.9193 -1.0188
 7053SOL     OW32794   0.987   1.181   3.544  0.0554  0.6637 -0.5396
 7053SOL    HW132795   1.075   1.219   3.541  1.0292 -1.6267 -0.7128
 7053SOL    HW232796   1.007   1.103   3.493 -1.5863  1.3073 -2.1658
 7054SOL     OW32797   2.665   0.647   4.035 -0.1897  0.7589 -0.2912
 7054SOL    HW132798   2.716   0.726   4.020  1.0350  0.0683  0.2241
 7054SOL    HW232799   2.683   0.609   3.949  0.9592  1.4833 -0.3637
 7055SOL     OW32800   2.121   3.103   1.682 -0.3021  0.4616  0.3147
 7055SOL    HW132801   2.104   3.139   1.769 -0.6711 -0.2037  0.5107
 7055SOL    HW232802   2.039   3.066   1.650 -0.3524 -0.0521  1.0493
 7056SOL     OW32803   1.875   3.550  14.268  0.1019  0.6219 -0.0930
 7056SOL    HW132804   1.867   3.489  14.341 -1.5510 -1.5773 -2.0646
 7056SOL    HW232805   1.782   3.557  14.243 -0.1677 -0.8921  0.4789
 7057SOL     OW32806   3.201   2.736   3.473 -0.6488 -0.2791 -0.3199
 7057SOL    HW132807   3.140   2.710   3.542  0.9422 -3.5425 -0.1180
 7057SOL    HW232808   3.285   2.734   3.519 -0.8268 -0.3716  0.0015
 7058SOL     OW32809   1.269   4.422   8.350  0.2312 -0.0549  0.0542
 7058SOL    HW132810   1.262   4.343   8.403 -2.3662 -1.0428 -1.7426
 7058SOL    HW232811   1.311   4.380   8.275  0.8285 -0.9582  0.8950
 7059SOL     OW32812   3.345   3.049   5.743  0.4239 -0.6389  0.3418
 7059SOL    HW132813   3.382   3.130   5.707 -0.2466 -0.0693  0.9360
 7059SOL    HW232814   3.375   3.065   5.832  2.2278  2.8537 -0.8954
 7060SOL     OW32815   4.158   0.584  15.422 -0.3497  0.2061  0.1752
 7060SOL    HW132816   4.093   0.588  15.351  0.8705  0.3530 -0.9310
 7060SOL    HW232817   4.235   0.567  15.368  1.6686 -1.2108  3.5367
 7061SOL     OW32818   1.186   0.984   3.720 -0.6430  0.3151  0.3456
 7061SOL    HW132819   1.165   0.945   3.635 -2.7326  1.1301  0.4875
 7061SOL    HW232820   1.270   0.943   3.742 -0.9934 -0.7913 -0.3624
 7062SOL     OW32821   1.566   1.435   5.293 -0.3385  0.8982 -0.2601
 7062SOL    HW132822   1.497   1.468   5.236  0.0167  1.1900 -0.5250
 7062SOL    HW232823   1.517   1.394   5.364 -0.1728  0.8987 -0.1445
 7063SOL     OW32824   2.168   0.554   8.456  0.5316 -0.1878  0.6611
 7063SOL    HW132825   2.110   0.556   8.532  2.0664 -3.7101  1.9513
 7063SOL    HW232826   2.137   0.488   8.395  1.1924  0.5670 -0.4915
 7064SOL     OW32827   2.711   0.766   8.975 -0.0819  0.6657 -0.4235
 7064SOL    HW132828   2.635   0.824   8.977 -2.1909 -2.1401  0.9022
 7064SOL    HW232829   2.743   0.803   8.893 -1.4170  0.3634 -1.0796
 7065SOL     OW32830   2.291   0.237   6.881  0.5229 -0.4118 -0.3171
 7065SOL    HW132831   2.271   0.269   6.793 -0.4126  2.3503  0.9198
 7065SOL    HW232832   2.386   0.226   6.872  0.2635 -1.7886 -1.4929
 7066SOL     OW32833   1.259   2.579   7.433 -0.0155  0.0049 -0.9517
 7066SOL    HW132834   1.342   2.608   7.396 -0.3213 -1.6362 -2.9144
 7066SOL    HW232835   1.209   2.557   7.354 -2.1336 -0.2318  0.4422
 7067SOL     OW32836   3.900   1.772   5.977  0.0478  0.0366 -0.4729
 7067SOL    HW132837   3.889   1.843   5.914  1.4543 -0.6834 -1.5336
 7067SOL    HW232838   3.875   1.697   5.923 -0.7195 -0.9384  1.2461
 7068SOL     OW32839   1.471   1.753   6.633 -0.1357  0.6772 -0.0957
 7068SOL    HW132840   1.394   1.750   6.690 -1.3863 -0.7301 -1.8569
 7068SOL    HW232841   1.546   1.731   6.687 -0.2047  1.2708  0.2465
 7069SOL     OW32842   0.664   3.431  16.119 -0.3658 -0.5755  0.5208
 7069SOL    HW132843   0.684   3.338  16.123  0.1049 -0.4434  1.2286
 7069SOL    HW232844   0.737   3.470  16.167  1.9167 -0.3243 -3.2374
 7070SOL     OW32845   2.439   0.844  16.085 -0.9238  0.3777  0.3330
 7070SOL    HW132846   2.345   0.824  16.090 -1.0750  1.5957  2.4460
 7070SOL    HW232847   2.453   0.895  16.006 -0.3237 -1.1266 -0.5364
 7071SOL     OW32848   0.981   3.311   5.922 -0.2421  0.5023 -0.9842
 7071SOL    HW132849   1.037   3.381   5.888  0.7156 -0.6212 -1.7335
 7071SOL    HW232850   0.968   3.314   6.016  1.5536  1.5886 -0.7623
 7072SOL     OW32851   0.132   0.137  12.067  0.2030 -0.6497 -0.0645
 7072SOL    HW132852   0.200   0.069  12.064 -0.2040 -0.9887 -1.6595
 7072SOL    HW232853   0.104   0.135  12.158  1.2014  0.7526  0.2714
 7073SOL     OW32854   0.674   4.328   1.944 -0.2412 -0.6060 -0.2956
 7073SOL    HW132855   0.693   4.387   2.017 -1.2280 -1.2562  0.4906
 7073SOL    HW232856   0.586   4.297   1.969  0.0529 -1.4364 -0.2831
 7074SOL     OW32857   1.357   1.249  17.573 -0.3835  0.0991  0.2356
 7074SOL    HW132858   1.283   1.230  17.515 -0.6684  0.2798  0.5385
 7074SOL    HW232859   1.296   1.271  17.644  0.3309  0.6250  0.6874
 7075SOL     OW32860   1.543   4.322   3.614  0.0806  0.0296 -0.0904
 7075SOL    HW132861   1.604   4.261   3.656 -0.5830  0.6368  1.7273
 7075SOL    HW232862   1.497   4.259   3.558 -0.9485  0.8987 -0.2159
 7076SOL     OW32863   3.607   0.143   5.102 -0.0689 -0.6415 -0.3130
 7076SOL    HW132864   3.548   0.209   5.065  0.1610 -0.3828 -0.2135
 7076SOL    HW232865   3.643   0.100   5.025  2.1077  0.6420 -0.0112
 7077SOL     OW32866   3.467   0.856   1.610 -0.2668  0.0051 -0.0956
 7077SOL    HW132867   3.499   0.772   1.578  3.1917  1.0127  0.7250
 7077SOL    HW232868   3.466   0.850   1.706 -0.8179  2.0828  0.0315
 7078SOL     OW32869   0.274   4.204  11.760 -0.0518  0.4159 -0.6215
 7078SOL    HW132870   0.194   4.158  11.733  0.0221  0.4995 -0.9815
 7078SOL    HW232871   0.241   4.291  11.781 -0.8391 -0.7429  2.8884
 7079SOL     OW32872   3.472   1.024   7.402 -0.5535  0.5743  0.3902
 7079SOL    HW132873   3.543   1.027   7.466  1.5029 -0.2759 -1.8888
 7079SOL    HW232874   3.404   1.072   7.450 -1.8949  0.0719 -1.0076
 7080SOL     OW32875   4.540   4.304  15.152  0.5297  0.1091 -0.4953
 7080SOL    HW132876   4.587   4.227  15.119  0.0862  0.3870 -1.7677
 7080SOL    HW232877   4.539   4.353  15.070  1.5083  2.6493  1.0225
 7081SOL     OW32878   1.426   2.252   4.738  0.1193  0.6439 -0.7991
 7081SOL    HW132879   1.444   2.339   4.774  0.7270 -0.7415  2.2911
 7081SOL    HW232880   1.508   2.242   4.690  0.9499  0.3670  0.6685
 7082SOL     OW32881   0.587   1.304   2.480 -0.3025  0.1084 -0.0630
 7082SOL    HW132882   0.529   1.227   2.479 -0.5239  0.2924 -1.3664
 7082SOL    HW232883   0.638   1.279   2.403  2.5665  0.8334  1.6392
 7083SOL     OW32884   0.397   0.518  16.968  1.2266  0.6258  0.5022
 7083SOL    HW132885   0.463   0.580  16.937  0.3996  0.1484 -2.1600
 7083SOL    HW232886   0.458   0.445  16.969 -0.4828 -0.8084  0.8170
 7084SOL     OW32887   3.258   3.072  12.058 -0.2395 -0.1303 -0.2856
 7084SOL    HW132888   3.273   3.128  12.133  2.2472 -1.8213  0.5010
 7084SOL    HW232889   3.349   3.058  12.031  0.0561 -0.1109  0.7135
 7085SOL     OW32890   1.797   0.512   0.290 -0.1047  0.0043 -0.2763
 7085SOL    HW132891   1.853   0.560   0.351 -0.1643 -0.4847  0.1588
 7085SOL    HW232892   1.786   0.581   0.225  0.5786  1.5950  1.2851
 7086SOL     OW32893   3.037   2.739  13.592 -0.5074  0.4328  0.5023
 7086SOL    HW132894   3.094   2.752  13.667  0.2419  0.5060 -0.0836
 7086SOL    HW232895   3.021   2.829  13.564 -0.7727  0.4547  0.7175
 7087SOL     OW32896   0.930   0.770   3.262  0.5176  0.0332  0.0374
 7087SOL    HW132897   0.913   0.863   3.280  0.4896 -0.0571  0.4850
 7087SOL    HW232898   1.009   0.785   3.210  0.9642 -1.4613  0.2990
 7088SOL     OW32899   1.817   0.490  16.747  0.4748  0.0821  0.0012
 7088SOL    HW132900   1.860   0.411  16.780 -2.3512 -1.1401  0.7604
 7088SOL    HW232901   1.788   0.527  16.830 -2.7520 -0.1305 -1.0313
 7089SOL     OW32902   2.020   1.511  15.945  0.4213  0.8863  0.0717
 7089SOL    HW132903   2.096   1.485  15.997  0.6285 -0.2471 -0.7795
 7089SOL    HW232904   1.998   1.579  16.008  0.0299  1.2162 -0.4259
 7090SOL     OW32905   0.761   0.480   0.861  0.0417 -0.2459  0.4198
 7090SOL    HW132906   0.693   0.517   0.918 -1.6716  0.0721 -1.8321
 7090SOL    HW232907   0.841   0.514   0.900 -0.1845 -1.3705  1.8596
 7091SOL     OW32908   0.258   2.521   8.162  0.6401 -0.3865 -0.4789
 7091SOL    HW132909   0.347   2.487   8.158  0.9555  0.6061 -1.8133
 7091SOL    HW232910   0.255   2.578   8.086  0.0580  1.6921  1.1071
 7092SOL     OW32911   3.666   1.624   5.040  0.7000  0.4231 -1.0819
 7092SOL    HW132912   3.584   1.576   5.037  1.9569 -1.8343  0.2578
 7092SOL    HW232913   3.653   1.702   5.094  0.9268 -0.5530  0.4150
 7093SOL     OW32914   3.699   3.682   5.002  0.1388 -0.5383 -0.5375
 7093SOL    HW132915   3.719   3.638   5.084 -1.0666  0.9127  0.5560
 7093SOL    HW232916   3.783   3.687   4.957  0.1439 -0.2267 -0.4975
 7094SOL     OW32917   4.710   2.711   8.660  0.0104  0.1593  0.1133
 7094SOL    HW132918   4.647   2.682   8.726  1.5233 -2.6518  0.2807
 7094SOL    HW232919   4.718   2.627   8.615 -3.0611 -0.4020  0.6125
 7095SOL     OW32920   2.789   3.778   4.631  0.3957  0.0332  0.3008
 7095SOL    HW132921   2.882   3.792   4.611  0.6917  0.6553  2.1259
 7095SOL    HW232922   2.738   3.845   4.586  2.9029  1.1550 -0.8692
 7096SOL     OW32923   1.965   2.120   6.731 -0.4480  0.3842  0.4660
 7096SOL    HW132924   1.878   2.146   6.700  0.0274 -0.2689 -1.4379
 7096SOL    HW232925   1.944   2.063   6.805  0.8024  1.4109  1.5914
 7097SOL     OW32926   3.979   1.890   1.046  0.2415 -0.2067 -0.1411
 7097SOL    HW132927   3.939   1.975   1.064  0.7709 -0.5139  2.6357
 7097SOL    HW232928   4.072   1.915   1.042  1.1524 -3.5809 -0.1634
 7098SOL     OW32929   0.702   2.780   9.833  0.5369  0.2420 -0.2111
 7098SOL    HW132930   0.796   2.798   9.841  0.9461 -1.0286 -2.0055
 7098SOL    HW232931   0.709   2.705   9.893 -2.7810  1.1513  1.2897
 7099SOL     OW32932   2.136   2.179  14.523  0.1027 -0.9361 -0.0430
 7099SOL    HW132933   2.196   2.162  14.451  1.6913  0.7738  0.8841
 7099SOL    HW232934   2.166   2.116  14.589 -1.8900 -1.2322  0.5760
 7100SOL     OW32935   4.672   3.760  11.219  0.1627 -0.4813  0.5036
 7100SOL    HW132936   4.714   3.834  11.261 -1.0854  0.5685 -0.0862
 7100SOL    HW232937   4.586   3.798  11.198  0.5425  1.2433  2.0617
 7101SOL     OW32938   0.532   3.890  10.739  0.1787 -0.4165  0.2813
 7101SOL    HW132939   0.474   3.848  10.802 -2.0267  0.6532 -1.0010
 7101SOL    HW232940   0.552   3.974  10.780  3.1894 -1.2055  0.4599
 7102SOL     OW32941   2.407   2.465  16.230  0.4114 -0.1034  0.2683
 7102SOL    HW132942   2.456   2.539  16.266  1.1632  0.2999 -1.5954
 7102SOL    HW232943   2.326   2.454  16.279  1.4482  0.4583  2.1336
 7103SOL     OW32944   3.031   0.446   8.349 -0.8159 -0.1360 -0.0245
 7103SOL    HW132945   3.015   0.395   8.428 -0.7215  0.2810  0.2655
 7103SOL    HW232946   3.120   0.417   8.331  0.3351  2.4212  1.6447
 7104SOL     OW32947   2.483   0.052   2.898 -0.5448 -0.0734 -0.0651
 7104SOL    HW132948   2.497   4.709   2.846  3.9739  1.8368 -1.7409
 7104SOL    HW232949   2.391   0.037   2.919 -0.6700 -0.5502 -0.9857
 7105SOL     OW32950   1.250   1.844   6.909  0.0398  0.1211 -0.3896
 7105SOL    HW132951   1.245   1.783   6.983 -0.3515  0.5063 -0.0963
 7105SOL    HW232952   1.181   1.907   6.931  0.9280  1.9481 -2.8137
 7106SOL     OW32953   0.636   0.648  16.958  0.2895 -0.1483  0.2930
 7106SOL    HW132954   0.650   0.743  16.957  1.8294 -0.3169  4.8713
 7106SOL    HW232955   0.722   0.610  16.976  0.1605 -1.9277 -2.8187
 7107SOL     OW32956   2.187   1.911   9.126 -0.4718 -0.0034 -0.1493
 7107SOL    HW132957   2.197   1.851   9.201  1.0684 -0.4632 -0.7254
 7107SOL    HW232958   2.198   1.993   9.173  0.5487  0.4332 -1.1757
 7108SOL     OW32959   4.468   0.294  13.268  0.2147  0.2595 -0.1801
 7108SOL    HW132960   4.467   0.383  13.303 -0.2257 -0.2641  1.1611
 7108SOL    HW232961   4.488   0.247  13.350  0.2272  0.6235  0.0229
 7109SOL     OW32962   1.950   1.074   8.438 -0.1811 -0.3412  0.1774
 7109SOL    HW132963   2.016   1.040   8.377  0.9601  2.3097 -0.0493
 7109SOL    HW232964   1.874   1.024   8.408  0.7803 -1.0362 -1.1241
 7110SOL     OW32965   1.747   0.390   6.661  0.0355  0.3942  0.0085
 7110SOL    HW132966   1.792   0.324   6.608  2.5136  1.6657  0.5058
 7110SOL    HW232967   1.661   0.391   6.620 -0.5912 -0.3079  1.3284
 7111SOL     OW32968   1.810   4.135  15.222 -0.1279 -0.0956  0.1164
 7111SOL    HW132969   1.903   4.142  15.200 -0.4119  0.7416 -0.8407
 7111SOL    HW232970   1.819   4.085  15.302  1.5512 -0.2854 -0.1857
 7112SOL     OW32971   2.454   3.646   1.569 -0.2149 -0.0571 -0.4290
 7112SOL    HW132972   2.443   3.703   1.493  0.8698  1.1321  0.3086
 7112SOL    HW232973   2.365   3.634   1.604  0.3021  1.7262  1.4768
 7113SOL     OW32974   0.189   1.992   2.792 -0.0042 -0.1853 -0.0985
 7113SOL    HW132975   0.097   1.976   2.811 -0.3863  1.8431 -0.2353
 7113SOL    HW232976   0.192   2.087   2.803 -0.4798 -0.0956 -0.7897
 7114SOL     OW32977   1.319   4.145   8.971 -0.5314 -0.1164  0.2214
 7114SOL    HW132978   1.242   4.187   8.933 -1.5842 -0.7405  1.6985
 7114SOL    HW232979   1.391   4.202   8.944 -1.4567 -0.4092 -2.9096
 7115SOL     OW32980   0.929   2.259   5.520  0.2009  0.7029  0.2957
 7115SOL    HW132981   0.882   2.270   5.437  1.5474 -0.8469 -0.6727
 7115SOL    HW232982   1.005   2.206   5.496  0.4843  0.9175  0.7452
 7116SOL     OW32983   2.532   1.293  16.907 -0.0456  0.2742  0.2728
 7116SOL    HW132984   2.613   1.261  16.867 -0.3734 -1.7798  1.2601
 7116SOL    HW232985   2.556   1.320  16.996 -0.7579  0.4701  0.4070
 7117SOL     OW32986   1.683   4.242  13.806 -0.4211 -0.0732 -0.0229
 7117SOL    HW132987   1.764   4.267  13.763  0.6227  0.0688  2.0557
 7117SOL    HW232988   1.634   4.205  13.732 -0.2484  0.0998 -0.2239
 7118SOL     OW32989   3.060   2.432   8.861 -0.4175  0.1857  0.0686
 7118SOL    HW132990   3.056   2.454   8.768 -0.0817  0.6875  0.1778
 7118SOL    HW232991   2.974   2.392   8.877 -0.4909 -0.0787 -0.9623
 7119SOL     OW32992   1.143   2.375   3.631  0.0729 -0.7873  0.4539
 7119SOL    HW132993   1.078   2.444   3.642 -1.8483 -2.7710  1.4603
 7119SOL    HW232994   1.229   2.416   3.639  0.0472 -0.4688 -0.8372
 7120SOL     OW32995   0.709   2.739   3.655  0.3575  0.4098  0.1767
 7120SOL    HW132996   0.653   2.816   3.669 -1.4940 -0.6816 -1.1834
 7120SOL    HW232997   0.705   2.693   3.738 -0.3178  0.7625  0.3479
 7121SOL     OW32998   0.485   0.616   1.805 -0.2025 -0.3246  0.2869
 7121SOL    HW132999   0.415   0.557   1.833  0.5969 -1.0384  0.7484
 7121SOL    HW233000   0.535   0.560   1.746 -0.8427 -0.2225 -0.3599
 7122SOL     OW33001   0.790   0.477  15.080  0.4607  0.8526  0.2663
 7122SOL    HW133002   0.714   0.534  15.093 -1.3062 -0.9611 -1.9343
 7122SOL    HW233003   0.816   0.503  14.991  0.5176  1.4385  0.4541
 7123SOL     OW33004   4.107   2.816   4.356  0.0334  0.3864 -0.1132
 7123SOL    HW133005   4.043   2.746   4.363 -0.9573  0.9758 -3.3973
 7123SOL    HW233006   4.055   2.874   4.412 -1.8099 -2.0154  0.6656
 7124SOL     OW33007   0.888   3.667   7.572  0.2366  0.3587  0.5821
 7124SOL    HW133008   0.810   3.712   7.539 -1.0016 -1.0313  1.5612
 7124SOL    HW233009   0.884   3.592   7.513 -1.2615  0.7565  0.1765
 7125SOL     OW33010   2.180   2.664  13.371  0.6145 -0.3179  0.1025
 7125SOL    HW133011   2.250   2.726  13.395 -0.7761  0.3342  2.4710
 7125SOL    HW233012   2.163   2.692  13.281  1.4940  1.4048  0.4733
 7126SOL     OW33013   2.596   0.311   4.688 -0.1000  0.1213  0.5765
 7126SOL    HW133014   2.604   0.221   4.718 -3.4225  0.1321  1.4990
 7126SOL    HW233015   2.612   0.359   4.769  1.5045 -0.0403  0.3410
 7127SOL     OW33016   4.237   3.214   6.002 -0.8407 -0.8318 -0.0616
 7127SOL    HW133017   4.299   3.142   5.995 -1.1958 -0.9825 -1.8515
 7127SOL    HW233018   4.180   3.185   5.931 -0.1135 -0.5455 -0.7667
 7128SOL     OW33019   0.738   2.006   2.015 -0.5579  0.5151  0.2741
 7128SOL    HW133020   0.826   2.043   2.014 -0.1852 -0.3887 -0.3367
 7128SOL    HW233021   0.675   2.071   1.984 -2.1841 -1.5323 -0.7340
 7129SOL     OW33022   3.327   3.315  13.219  0.1360  0.1078  0.6005
 7129SOL    HW133023   3.288   3.229  13.237 -1.4583  1.3046  2.8743
 7129SOL    HW233024   3.401   3.304  13.159 -0.6392 -1.4319 -0.0745
 7130SOL     OW33025   0.123   3.869   8.977  0.7184 -0.0668  0.0476
 7130SOL    HW133026   0.086   3.912   9.055 -3.7294 -1.9233 -1.0494
 7130SOL    HW233027   0.086   3.935   8.917 -0.7906 -1.3902 -0.4829
 7131SOL     OW33028   3.848   3.705  16.839  0.6372 -0.0399  0.1881
 7131SOL    HW133029   3.877   3.636  16.780 -1.3470 -2.1820  1.7335
 7131SOL    HW233030   3.854   3.786  16.789  0.4453  0.9584  1.7692
 7132SOL     OW33031   2.198   1.275  15.474  0.2055  0.4271  0.0276
 7132SOL    HW133032   2.152   1.321  15.545 -0.2539 -1.9434  1.3024
 7132SOL    HW233033   2.274   1.332  15.481  1.0106 -0.6051 -0.3457
 7133SOL     OW33034   0.609   2.408   8.728 -0.1213  0.1257  0.5020
 7133SOL    HW133035   0.641   2.458   8.803  1.7635 -0.3308  0.0148
 7133SOL    HW233036   0.529   2.459   8.713 -1.1273 -1.3399  0.9350
 7134SOL     OW33037   2.850   2.216   4.535 -0.1181 -0.4566 -0.3063
 7134SOL    HW133038   2.893   2.219   4.450  1.5429 -0.0721  0.5627
 7134SOL    HW233039   2.906   2.164   4.592  0.0890 -1.3420 -1.3183
 7135SOL     OW33040   2.352   0.078   8.465 -0.2706  0.6386 -0.5161
 7135SOL    HW133041   2.375   0.077   8.372  2.0662  0.6702  0.0756
 7135SOL    HW233042   2.300   4.733   8.468 -0.6482  0.8833 -0.4732
 7136SOL     OW33043   1.986   3.792   6.729 -0.1148 -0.0169  0.0406
 7136SOL    HW133044   2.003   3.762   6.818 -0.7719 -0.1585  0.1179
 7136SOL    HW233045   2.070   3.788   6.684 -0.0763  3.8272 -0.1821
 7137SOL     OW33046   0.082   1.669   9.018 -0.1765  0.5910  0.4254
 7137SOL    HW133047   0.041   1.697   9.100 -0.9669  0.4246  0.0850
 7137SOL    HW233048   0.076   1.574   9.013  0.0568  0.7022 -1.8373
 7138SOL     OW33049   2.697   2.301   0.157  0.2675  0.0159 -1.4815
 7138SOL    HW133050   2.753   2.369   0.119  2.8709 -0.7834  0.9474
 7138SOL    HW233051   2.620   2.309   0.100 -1.3988 -2.3430  0.4686
 7139SOL     OW33052   2.023   1.277   2.175 -0.0526  0.4760  1.1736
 7139SOL    HW133053   1.931   1.258   2.160  0.0276  0.4029  0.7647
 7139SOL    HW233054   2.049   1.221   2.248  0.1444 -0.9220  0.0315
 7140SOL     OW33055   3.639   1.005   9.293 -0.5532 -0.3092  0.0766
 7140SOL    HW133056   3.548   1.025   9.318 -0.5829  0.6906 -0.8079
 7140SOL    HW233057   3.621   1.001   9.199  0.1155  1.5282 -0.1200
 7141SOL     OW33058   1.086   4.059  10.111  0.4450 -0.3044  0.1276
 7141SOL    HW133059   1.039   3.976  10.111  0.5283 -0.3507  0.2210
 7141SOL    HW233060   1.043   4.105  10.039  0.4642  0.4792  0.6148
 7142SOL     OW33061   2.893   2.251   9.412 -0.2460  0.6116 -0.5821
 7142SOL    HW133062   2.947   2.287   9.341  0.7888 -0.3562 -0.2872
 7142SOL    HW233063   2.844   2.325   9.447  1.3918  1.0821  0.6971
 7143SOL     OW33064   0.479   3.316  15.942  0.4443  0.3705  0.4335
 7143SOL    HW133065   0.521   3.371  16.008  2.0205  0.1728 -0.4102
 7143SOL    HW233066   0.470   3.383  15.874 -0.6191  1.3967  1.6003
 7144SOL     OW33067   4.580   4.669   0.690 -0.0639 -0.3922  0.0079
 7144SOL    HW133068   4.534   4.616   0.756  0.1791 -2.6167 -1.6113
 7144SOL    HW233069   4.514   4.727   0.652 -0.4297 -1.2103 -0.5871
 7145SOL     OW33070   4.117   1.231   3.570  0.3693 -0.2879 -0.3530
 7145SOL    HW133071   4.119   1.150   3.621  2.7605  0.3845  0.6468
 7145SOL    HW233072   4.211   1.246   3.554  0.3842  0.3319  0.3061
 7146SOL     OW33073   2.632   1.830  16.372 -0.2135 -0.4576  0.3181
 7146SOL    HW133074   2.632   1.924  16.354  0.8077 -0.8561 -1.7288
 7146SOL    HW233075   2.541   1.804  16.355 -0.4928  1.0973 -0.5645
 7147SOL     OW33076   2.252   2.826   9.617 -0.7087  0.3212 -0.0514
 7147SOL    HW133077   2.327   2.847   9.562 -2.1261 -0.9388 -2.4254
 7147SOL    HW233078   2.289   2.751   9.663  1.4785  1.4172 -0.0103
 7148SOL     OW33079   1.697   4.458  14.913  0.7254  0.8456  0.2274
 7148SOL    HW133080   1.655   4.494  14.835 -2.0169 -1.7665  0.5174
 7148SOL    HW233081   1.682   4.366  14.892  1.5879  0.5558  0.8764
 7149SOL     OW33082   2.231   0.493   3.576  0.0131 -0.7666 -0.0955
 7149SOL    HW133083   2.204   0.540   3.655  1.3373  1.3486 -0.9002
 7149SOL    HW233084   2.149   0.502   3.527 -0.1929  0.0891  0.4056
 7150SOL     OW33085   3.854   0.026   8.479  0.1775  0.2225  0.8110
 7150SOL    HW133086   3.831   4.720   8.562  0.0984  1.0740  1.2060
 7150SOL    HW233087   3.888   0.110   8.508  1.1282 -0.0064  0.3854
 7151SOL     OW33088   3.646   2.520  17.717  0.7490  1.1046  0.4623
 7151SOL    HW133089   3.647   2.459   0.050 -0.6187 -0.2926 -0.6908
 7151SOL    HW233090   3.566   2.571  17.729 -0.5958 -0.4049 -2.1568
 7152SOL     OW33091   3.945   0.990  16.972 -0.1947  0.5637  0.4086
 7152SOL    HW133092   3.958   1.049  17.045  1.2503  0.0209  0.5824
 7152SOL    HW233093   4.034   0.993  16.938 -0.2420 -3.0149 -0.0370
 7153SOL     OW33094   3.342   0.659  11.684 -0.0859 -0.0837 -0.3160
 7153SOL    HW133095   3.300   0.734  11.725 -1.2839 -0.8505 -0.1433
 7153SOL    HW233096   3.352   0.605  11.763 -0.9327  1.6776  0.9760
 7154SOL     OW33097   3.248   1.340   1.455 -0.3466  0.6816  0.6208
 7154SOL    HW133098   3.312   1.405   1.427 -0.0422  0.1467  0.0778
 7154SOL    HW233099   3.258   1.332   1.550 -0.4703 -0.2331  0.5585
 7155SOL     OW33100   4.418   0.686   7.303 -0.0784  0.1109 -0.0427
 7155SOL    HW133101   4.426   0.780   7.288  3.7071  0.0552  1.6593
 7155SOL    HW233102   4.327   0.684   7.332 -0.0372  1.2934  0.1749
 7156SOL     OW33103   2.342   3.805   2.772  0.8158  0.1372  0.6208
 7156SOL    HW133104   2.253   3.794   2.805  0.0954  0.6846 -1.1090
 7156SOL    HW233105   2.378   3.880   2.820  1.1159  0.9465 -0.8577
 7157SOL     OW33106   3.111   4.053   4.041 -0.0884 -0.3728 -0.1846
 7157SOL    HW133107   3.107   4.053   3.945  2.0035  1.1529 -0.2648
 7157SOL    HW233108   3.053   4.127   4.061 -0.1900 -0.9680  1.6583
 7158SOL     OW33109   3.817   3.008   3.330 -0.0082  0.1223  0.2315
 7158SOL    HW133110   3.750   3.075   3.316  1.9546  1.6852 -1.6939
 7158SOL    HW233111   3.812   2.969   3.243 -0.3934  0.4450  0.1085
 7159SOL     OW33112   0.585   0.063   6.252 -0.3581  0.7083 -0.4001
 7159SOL    HW133113   0.679   0.077   6.247 -0.1197 -0.0635  2.1065
 7159SOL    HW233114   0.562   0.115   6.175  0.2670 -1.7348 -2.2186
 7160SOL     OW33115   4.427   3.068   6.450 -0.9226  0.4931 -0.4498
 7160SOL    HW133116   4.417   2.982   6.409 -1.5631 -0.2742  1.3208
 7160SOL    HW233117   4.448   3.041   6.539 -0.1601  0.8072 -0.5356
 7161SOL     OW33118   3.259   2.534   5.557  0.6381 -0.8638  0.1840
 7161SOL    HW133119   3.311   2.594   5.504  1.0243 -2.0649 -0.7988
 7161SOL    HW233120   3.185   2.519   5.498  0.6846  0.0551 -0.0986
 7162SOL     OW33121   0.503   4.182   2.503  0.3719 -0.1754  0.9540
 7162SOL    HW133122   0.570   4.152   2.564 -0.3285 -2.3141  0.6929
 7162SOL    HW233123   0.464   4.255   2.552 -0.9551 -0.1104 -0.1876
 7163SOL     OW33124   3.791   4.471   3.109  0.3278 -0.0375 -0.0530
 7163SOL    HW133125   3.804   4.503   3.020 -1.0020 -0.3712 -0.3649
 7163SOL    HW233126   3.850   4.397   3.097 -0.3478 -0.0962 -3.0260
 7164SOL     OW33127   1.466   3.147   3.215  0.2417 -0.3243 -0.2081
 7164SOL    HW133128   1.440   3.197   3.138  0.5699 -0.9646 -0.7357
 7164SOL    HW233129   1.560   3.163   3.210 -0.0473  1.0824 -0.9972
 7165SOL     OW33130   1.061   4.655   3.859 -0.4272 -0.4543  0.2231
 7165SOL    HW133131   1.091   4.567   3.883  1.0188  0.2606  1.0297
 7165SOL    HW233132   1.096   4.703   3.934  0.2952 -0.2674 -0.2277
 7166SOL     OW33133   3.810   0.135   2.863 -0.2596  0.0227  0.1569
 7166SOL    HW133134   3.803   0.227   2.887  3.3393  0.3316  0.1105
 7166SOL    HW233135   3.850   0.146   2.776 -1.6048 -0.4269 -0.5161
 7167SOL     OW33136   2.341   3.894   3.978 -0.0835 -0.3261  0.0424
 7167SOL    HW133137   2.352   3.817   4.035 -0.5259  0.7760  1.6086
 7167SOL    HW233138   2.377   3.857   3.897  0.1318 -1.7673  0.7942
 7168SOL     OW33139   3.243   3.201  10.810 -0.5962  0.2529  0.4825
 7168SOL    HW133140   3.209   3.149  10.882 -1.9160  1.7046  0.9069
 7168SOL    HW233141   3.176   3.266  10.793  2.4481  3.3680  0.3073
 7169SOL     OW33142   2.253   3.197   2.736 -0.3593  0.0704  0.5600
 7169SOL    HW133143   2.157   3.192   2.739 -0.3059 -1.5940 -0.3127
 7169SOL    HW233144   2.268   3.190   2.642  0.0869 -2.8184  0.8488
 7170SOL     OW33145   3.202   1.410   7.879 -0.3502 -0.2501  0.3615
 7170SOL    HW133146   3.296   1.427   7.884 -0.1763 -0.8823 -0.6553
 7170SOL    HW233147   3.188   1.437   7.969 -0.1482 -0.1907  0.3728
 7171SOL     OW33148   4.130   1.464   5.501 -0.3990  0.1108 -0.3557
 7171SOL    HW133149   4.092   1.546   5.531  2.2500  1.0308  0.4914
 7171SOL    HW233150   4.090   1.458   5.414 -1.8539 -1.3326  0.4115
 7172SOL     OW33151   1.886   1.348   5.237 -0.0117  0.5746 -0.2383
 7172SOL    HW133152   1.868   1.326   5.328 -2.8204 -0.6443 -1.0782
 7172SOL    HW233153   1.823   1.299   5.183 -0.1048 -1.3045  1.5595
 7173SOL     OW33154   2.969   4.225   9.047 -0.2920 -0.1782 -0.2042
 7173SOL    HW133155   2.896   4.190   9.098  0.1253 -1.9596 -0.8156
 7173SOL    HW233156   2.924   4.244   8.965 -0.5036  0.0200 -0.0420
 7174SOL     OW33157   0.493   4.369   7.051 -0.3474  0.1253 -0.0102
 7174SOL    HW133158   0.464   4.418   6.975 -2.0494  0.8171  1.0818
 7174SOL    HW233159   0.417   4.330   7.093 -0.1305  1.7844  1.9546
 7175SOL     OW33160   1.872   4.469  12.946  0.1480  0.3501 -0.6438
 7175SOL    HW133161   1.849   4.415  12.870 -3.1419 -0.0425  0.6231
 7175SOL    HW233162   1.956   4.435  12.974 -0.4937 -1.1325 -0.5456
 7176SOL     OW33163   3.746   2.359   8.737  0.0746 -0.1658  0.2998
 7176SOL    HW133164   3.820   2.405   8.696  0.1444 -0.7515 -0.2377
 7176SOL    HW233165   3.675   2.375   8.675  0.4927  0.3138 -0.0609
 7177SOL     OW33166   0.835   3.779   8.998  0.2343 -0.1558  0.2054
 7177SOL    HW133167   0.797   3.749   9.080  2.3119 -0.9071  0.8995
 7177SOL    HW233168   0.920   3.734   8.998  1.1064  1.4889 -0.9647
 7178SOL     OW33169   4.342   1.894   7.503  0.6752 -0.0615  0.0538
 7178SOL    HW133170   4.361   1.885   7.596  0.0790 -0.8080  0.1031
 7178SOL    HW233171   4.390   1.973   7.476 -0.1286 -0.0861 -1.4679
 7179SOL     OW33172   4.325   4.199   2.739 -0.2449  0.0287  0.7348
 7179SOL    HW133173   4.302   4.267   2.676 -1.2731 -1.1173 -0.1231
 7179SOL    HW233174   4.381   4.141   2.687 -0.5986  1.1568 -0.9135
 7180SOL     OW33175   2.410   1.904   6.960 -0.0254 -0.1679  0.7513
 7180SOL    HW133176   2.479   1.950   7.007  0.0809 -1.1030  1.5195
 7180SOL    HW233177   2.361   1.867   7.033 -2.6485 -1.3830 -1.6050
 7181SOL     OW33178   2.270   3.324   0.331  0.2685  0.2919  0.1213
 7181SOL    HW133179   2.355   3.308   0.372 -0.5291 -1.9117  0.9177
 7181SOL    HW233180   2.267   3.266   0.254 -1.2182  0.4052  0.1102
 7182SOL     OW33181   1.358   2.926   2.911 -0.1663 -0.2868  0.4677
 7182SOL    HW133182   1.343   2.855   2.973  1.5604 -0.4048  0.7615
 7182SOL    HW233183   1.338   3.005   2.961 -1.6188  0.3475 -1.1409
 7183SOL     OW33184   0.529   1.408   6.504 -0.0496 -0.3427 -0.0604
 7183SOL    HW133185   0.592   1.387   6.434 -0.9234  0.4792 -1.0911
 7183SOL    HW233186   0.508   1.497   6.476  1.0622  0.5569  2.0010
 7184SOL     OW33187   2.663   4.286  13.351  0.4811  0.0558  0.3431
 7184SOL    HW133188   2.630   4.364  13.306  1.7805  0.2860 -0.1860
 7184SOL    HW233189   2.593   4.284  13.416 -2.5891 -0.2557 -2.9427
 7185SOL     OW33190   3.671   0.907   0.884  0.7338  0.4871 -0.3357
 7185SOL    HW133191   3.613   0.951   0.945 -0.8438 -1.0944 -0.6994
 7185SOL    HW233192   3.759   0.937   0.906 -0.4038  2.5772  1.3646
 7186SOL     OW33193   3.844   1.795   4.943  0.5005  0.6018 -0.2738
 7186SOL    HW133194   3.903   1.808   5.017 -0.0580 -1.2043  0.4931
 7186SOL    HW233195   3.777   1.737   4.980  3.0266 -1.6914  0.7019
 7187SOL     OW33196   1.096   4.672   1.593 -0.3002 -0.2188  0.3863
 7187SOL    HW133197   1.012   4.643   1.628 -1.4313  2.4704 -0.0426
 7187SOL    HW233198   1.113   4.599   1.533 -0.0991  0.0899  0.0633
 7188SOL     OW33199   3.359   3.044   5.264 -0.0421 -0.0234 -0.5252
 7188SOL    HW133200   3.291   3.107   5.289  1.9849  0.6297  3.3884
 7188SOL    HW233201   3.315   3.004   5.189  1.1118 -0.2384 -1.0836
 7189SOL     OW33202   3.828   3.831   1.480 -0.2303  0.0271  0.1467
 7189SOL    HW133203   3.838   3.919   1.516 -1.1558  0.1073  0.2069
 7189SOL    HW233204   3.795   3.792   1.561  1.9749 -3.6807 -0.7400
 7190SOL     OW33205   2.372   4.279   6.630 -0.1767  0.2894 -0.0755
 7190SOL    HW133206   2.310   4.282   6.557 -0.4639  3.2605  0.3042
 7190SOL    HW233207   2.409   4.191   6.619 -0.9010  0.0437 -0.5246
 7191SOL     OW33208   1.101   3.384  11.393  0.1738 -0.7714  0.2026
 7191SOL    HW133209   1.105   3.381  11.488  1.3473  0.6795  0.1889
 7191SOL    HW233210   1.165   3.319  11.365  2.9063  1.5948  1.0108
 7192SOL     OW33211   2.907   2.406   0.497 -0.2680 -0.2040 -1.1838
 7192SOL    HW133212   2.814   2.393   0.516  0.7661 -0.7331  3.6554
 7192SOL    HW233213   2.952   2.386   0.579  0.2883  4.4913 -0.3362
 7193SOL     OW33214   4.351   1.236   5.790  0.1754  0.3126  0.0000
 7193SOL    HW133215   4.402   1.157   5.774 -1.9379 -0.9344 -0.6431
 7193SOL    HW233216   4.339   1.227   5.884 -0.9091 -2.4583 -0.4100
 7194SOL     OW33217   4.465   4.050  11.763 -0.8090  0.5016 -0.3522
 7194SOL    HW133218   4.370   4.061  11.765 -0.8217  0.8201 -2.7244
 7194SOL    HW233219   4.496   4.137  11.788 -1.7485  0.1707  1.9670
 7195SOL     OW33220   4.483   2.364   5.311  0.1685  0.7999  0.5178
 7195SOL    HW133221   4.532   2.357   5.393 -0.8952 -0.3973  1.0422
 7195SOL    HW233222   4.448   2.279   5.284 -1.5087  1.8078 -0.4501
 7196SOL     OW33223   3.350   2.998  12.950  0.5624 -0.0974 -0.0315
 7196SOL    HW133224   3.383   2.966  13.034  1.1446  3.3298  1.0532
 7196SOL    HW233225   3.322   3.086  12.977 -0.2621 -1.0660  2.3333
 7197SOL     OW33226   4.493   0.115   7.690 -0.1984 -0.2252  0.0846
 7197SOL    HW133227   4.527   0.134   7.602 -2.4461 -0.9908 -0.9601
 7197SOL    HW233228   4.412   0.166   7.686 -1.7592 -2.6757  1.1121
 7198SOL     OW33229   2.669   0.214   7.243  0.2402 -0.2113 -1.1027
 7198SOL    HW133230   2.753   0.175   7.267  1.0643  1.2883 -1.5457
 7198SOL    HW233231   2.700   0.301   7.217 -2.9861  1.6816  1.3103
 7199SOL     OW33232   3.002   3.186  11.286  0.1875 -0.2828  0.3994
 7199SOL    HW133233   2.970   3.198  11.197  0.1578  2.7417  0.8253
 7199SOL    HW233234   2.922   3.192  11.339  0.2927 -1.9605  0.7637
 7200SOL     OW33235   1.718   0.666   3.491  0.1638  0.2345 -0.2637
 7200SOL    HW133236   1.750   0.637   3.405  0.8135  3.1905 -1.0074
 7200SOL    HW233237   1.627   0.635   3.488  0.8511 -1.8590  0.1757
 7201SOL     OW33238   2.284   3.669   1.946  0.1202  0.3569 -0.4445
 7201SOL    HW133239   2.367   3.655   1.992  1.6886  2.0959 -2.7428
 7201SOL    HW233240   2.237   3.729   2.004  0.9996 -1.1741  1.8614
 7202SOL     OW33241   3.421   1.218   2.336  0.1096 -0.0228  0.8629
 7202SOL    HW133242   3.464   1.237   2.419 -0.3705  0.8780  0.9081
 7202SOL    HW233243   3.334   1.199   2.371  0.3453  0.4408  1.7124
 7203SOL     OW33244   4.723   0.774   8.239  0.2652  0.1799 -0.0755
 7203SOL    HW133245   0.010   0.754   8.148 -1.3419 -0.8317 -0.2377
 7203SOL    HW233246   4.713   0.868   8.224 -0.3296  0.1427  0.1066
 7204SOL     OW33247   0.698   3.639   8.459  0.6935 -0.0976 -0.6139
 7204SOL    HW133248   0.696   3.614   8.367  2.4904  0.6057 -0.8316
 7204SOL    HW233249   0.762   3.579   8.497  0.7879  0.3632 -0.0411
 7205SOL     OW33250   1.130   3.151  11.176  0.0351  0.0627 -0.1476
 7205SOL    HW133251   1.126   3.056  11.188 -1.0832  0.4613  2.6001
 7205SOL    HW233252   1.040   3.174  11.199  0.3314  3.0914 -2.1085
 7206SOL     OW33253   0.117   1.971   7.504 -0.0549  0.6270  0.2440
 7206SOL    HW133254   0.147   1.896   7.453  0.2702  0.6753  0.3607
 7206SOL    HW233255   0.096   1.934   7.590 -0.6790 -0.2060 -0.2734
 7207SOL     OW33256   2.596   1.248   9.236 -0.6330 -0.2999 -0.5796
 7207SOL    HW133257   2.512   1.257   9.190 -1.4410  1.3456  1.2346
 7207SOL    HW233258   2.609   1.154   9.225 -2.1240 -0.9875  3.3724
 7208SOL     OW33259   2.683   3.086   6.967  0.3347 -0.0612  0.3732
 7208SOL    HW133260   2.646   3.148   6.905 -1.6591  0.0707  1.7055
 7208SOL    HW233261   2.736   3.036   6.904  0.6732 -0.4218  0.9409
 7209SOL     OW33262   4.076   4.624   4.934  0.2663 -0.8391  0.6718
 7209SOL    HW133263   4.086   4.681   5.011  0.7941  1.1445 -0.8853
 7209SOL    HW233264   4.013   4.566   4.977 -0.9367 -0.0421 -0.0087
 7210SOL     OW33265   3.911   0.443  15.613  0.8657  0.1623  0.1335
 7210SOL    HW133266   3.975   0.407  15.552  0.1621  0.5237 -0.8104
 7210SOL    HW233267   3.919   0.394  15.695 -0.0967 -1.6016 -0.8289
 7211SOL     OW33268   2.424   2.930   4.707 -0.1420  0.3452 -0.3002
 7211SOL    HW133269   2.402   2.947   4.615 -0.8597  0.7739 -0.0484
 7211SOL    HW233270   2.507   2.977   4.716 -0.7639  1.3196  0.3289
 7212SOL     OW33271   2.204   3.597   4.343  0.0798  0.1217 -0.1419
 7212SOL    HW133272   2.174   3.506   4.346 -0.2849  0.2570  0.2743
 7212SOL    HW233273   2.142   3.632   4.279 -0.3596  0.3980  0.4371
 7213SOL     OW33274   2.815   2.418  17.145 -0.2986  0.2757  0.4284
 7213SOL    HW133275   2.900   2.405  17.103 -0.8850  0.2541 -0.7271
 7213SOL    HW233276   2.795   2.326  17.164  2.0365  0.2938  2.9985
 7214SOL     OW33277   0.723   2.033   2.898  0.0715 -0.3806 -0.1500
 7214SOL    HW133278   0.745   2.064   2.986  0.6025 -1.4938  0.0984
 7214SOL    HW233279   0.629   2.047   2.912 -0.1641 -0.6150 -1.4812
 7215SOL     OW33280   0.468   2.068   2.973  0.3069 -0.8422 -0.4244
 7215SOL    HW133281   0.487   2.058   3.066 -1.4353 -1.6340 -0.1598
 7215SOL    HW233282   0.382   2.111   2.970  0.0695 -1.3808 -1.4975
 7216SOL     OW33283   0.903   1.427   0.568 -0.0138 -0.2400  0.6821
 7216SOL    HW133284   0.983   1.475   0.593 -0.3677 -0.5981  2.5378
 7216SOL    HW233285   0.839   1.485   0.610  0.5644 -0.3652  1.7584
 7217SOL     OW33286   0.040   0.698   4.988  0.9058 -0.5202 -0.6526
 7217SOL    HW133287   0.116   0.755   4.977  0.3401 -0.3766 -3.7417
 7217SOL    HW233288   0.060   0.631   4.923  0.7608  0.4411 -1.6757
 7218SOL     OW33289   2.597   1.891   2.167 -0.0700 -0.6745  0.1271
 7218SOL    HW133290   2.618   1.829   2.237  0.6314 -1.7826 -1.0779
 7218SOL    HW233291   2.520   1.859   2.121  0.8569 -1.8910 -0.5639
 7219SOL     OW33292   0.044   1.906   1.903 -0.2306 -0.2116  0.8787
 7219SOL    HW133293   0.098   1.984   1.893 -0.3846 -0.6961 -3.8581
 7219SOL    HW233294   0.091   1.842   1.849  1.1706  1.5227  0.0491
 7220SOL     OW33295   2.794   2.310   6.260 -0.3380  0.0894 -0.6872
 7220SOL    HW133296   2.755   2.275   6.181 -0.2109  1.0775 -1.1859
 7220SOL    HW233297   2.845   2.378   6.216 -2.2688  1.4007 -0.9030
 7221SOL     OW33298   0.277   0.129   9.112 -0.0879  0.2186 -0.0235
 7221SOL    HW133299   0.327   0.087   9.042 -2.2795 -2.0759 -0.2183
 7221SOL    HW233300   0.192   0.153   9.073  0.5140  1.5989 -0.4819
 7222SOL     OW33301   3.978   0.068  16.440  0.1138  0.5600 -0.2290
 7222SOL    HW133302   4.022   0.074  16.525  1.0124  0.9337 -0.7171
 7222SOL    HW233303   3.898   0.021  16.464 -0.1561  0.8880 -0.4913
 7223SOL     OW33304   4.438   4.626   7.848 -0.1751  0.2698  0.0262
 7223SOL    HW133305   4.474   4.650   7.933  0.9316 -1.6403  0.0863
 7223SOL    HW233306   4.467   4.697   7.790  0.3115 -0.3234 -0.4610
 7224SOL     OW33307   0.740   2.231   5.998  0.0857  0.2046  0.1912
 7224SOL    HW133308   0.756   2.186   5.915  0.9841  0.1634  0.3854
 7224SOL    HW233309   0.831   2.239   6.027  1.1219 -1.1306 -2.7047
 7225SOL     OW33310   0.507   4.232   5.447  0.3272 -0.0301  0.0926
 7225SOL    HW133311   0.444   4.160   5.451 -1.4342  1.4795 -0.5154
 7225SOL    HW233312   0.473   4.272   5.367  1.4238  1.3237  0.3120
 7226SOL     OW33313   4.502   0.067  12.783  0.4979 -0.0435 -0.3463
 7226SOL    HW133314   4.537   0.035  12.699  0.0782  0.6614 -0.7862
 7226SOL    HW233315   4.425   0.010  12.787  0.8122 -0.4758 -0.4008
 7227SOL     OW33316   2.673   1.989   7.043  0.3727 -0.3280 -0.1133
 7227SOL    HW133317   2.695   2.078   7.072 -0.1047 -0.7430  1.5007
 7227SOL    HW233318   2.679   1.994   6.948  1.8859  3.9380  0.1834
 7228SOL     OW33319   0.385   2.378   6.070  0.2377  0.3357 -0.2104
 7228SOL    HW133320   0.409   2.422   6.152 -0.3157  0.3526 -0.0533
 7228SOL    HW233321   0.295   2.409   6.060  0.4316  0.7589 -0.6107
 7229SOL     OW33322   1.934   0.235   6.174  0.7363  0.3106  0.3923
 7229SOL    HW133323   2.002   0.250   6.239  1.4412  1.9485 -0.7423
 7229SOL    HW233324   1.952   0.308   6.115 -0.1807 -1.2184 -1.7935
 7230SOL     OW33325   4.117   3.615   2.207 -0.1818 -0.0173 -0.4745
 7230SOL    HW133326   4.148   3.547   2.266 -0.4683  1.5248  1.4455
 7230SOL    HW233327   4.022   3.608   2.210 -0.1354  1.0778  3.3128
 7231SOL     OW33328   4.640   3.498   2.380 -0.1596 -0.1859  0.1978
 7231SOL    HW133329   4.702   3.555   2.335  0.2352 -1.4465 -0.8801
 7231SOL    HW233330   4.594   3.560   2.436 -1.5840 -0.4087 -0.7395
 7232SOL     OW33331   3.471   3.056  11.404  0.0553 -0.1155 -0.0921
 7232SOL    HW133332   3.557   3.025  11.433  0.2843 -1.6313 -2.4278
 7232SOL    HW233333   3.429   3.083  11.486 -0.2090  0.4104 -0.4022
 7233SOL     OW33334   3.099   0.979   1.114 -0.4992 -0.2268  0.0266
 7233SOL    HW133335   3.080   1.030   1.193 -1.3641  0.9685 -0.9549
 7233SOL    HW233336   3.193   0.964   1.127 -1.0781 -2.6969  1.2528
 7234SOL     OW33337   4.613   3.099   9.398  0.0302 -0.6841 -0.0261
 7234SOL    HW133338   4.572   3.158   9.335 -0.1714 -0.6049  0.1770
 7234SOL    HW233339   4.704   3.110   9.370 -0.4157  2.0593 -0.4317
 7235SOL     OW33340   3.787   4.137   8.206 -0.4554  0.0737 -0.2286
 7235SOL    HW133341   3.711   4.196   8.214  2.3689  3.7285 -0.6572
 7235SOL    HW233342   3.848   4.172   8.271  0.7216 -1.6065 -0.4300
 7236SOL     OW33343   3.262   1.737  16.861 -0.0338  0.3852 -0.0072
 7236SOL    HW133344   3.339   1.769  16.907  0.9180 -0.8788 -0.7107
 7236SOL    HW233345   3.291   1.649  16.835 -1.6192 -0.0186 -0.4265
 7237SOL     OW33346   0.480   2.245   9.236  0.2047 -0.6519  0.2532
 7237SOL    HW133347   0.479   2.302   9.159  0.8269 -0.2243  0.5634
 7237SOL    HW233348   0.541   2.182   9.198  0.3160  0.0149 -0.6909
 7238SOL     OW33349   4.298   3.206   3.688 -0.2378 -0.1873  0.1610
 7238SOL    HW133350   4.286   3.132   3.628 -2.4822 -0.5159  1.0223
 7238SOL    HW233351   4.214   3.204   3.735  0.5045  0.5124  1.5351
 7239SOL     OW33352   3.010   2.939  13.070  0.9404 -0.1208  0.0748
 7239SOL    HW133353   3.085   2.978  13.026 -0.0906  2.0386  0.2607
 7239SOL    HW233354   2.996   2.865  13.010  0.9091  1.1981 -1.5298
 7240SOL     OW33355   4.614   1.921   1.262  0.0002 -0.0983 -0.4124
 7240SOL    HW133356   4.605   1.832   1.228  3.2749 -0.9624  0.9928
 7240SOL    HW233357   4.597   1.967   1.180 -0.5485 -0.6547 -0.6072
 7241SOL     OW33358   2.189   4.037  17.711  0.3830  0.3300  0.1450
 7241SOL    HW133359   2.152   3.950  17.701  2.6534 -0.5086 -0.9141
 7241SOL    HW233360   2.267   4.043  17.657  0.2551 -0.7692 -0.1642
 7242SOL     OW33361   2.041   0.241   7.288 -0.4258  0.3679  0.1365
 7242SOL    HW133362   2.114   0.266   7.232  1.3169 -2.5787  1.1170
 7242SOL    HW233363   1.972   0.263   7.225  0.2140 -0.6198 -0.8942
 7243SOL     OW33364   0.260   1.939  13.016 -0.3141 -0.4572  0.4218
 7243SOL    HW133365   0.342   1.983  13.038 -0.8383 -0.4665  2.4338
 7243SOL    HW233366   0.229   1.999  12.947  1.9779 -0.7550 -0.8626
 7244SOL     OW33367   1.812   1.032   5.784 -0.2563  0.2400 -0.4748
 7244SOL    HW133368   1.876   1.080   5.731  0.5333 -1.5067 -1.0990
 7244SOL    HW233369   1.731   1.057   5.740 -0.1308 -0.3191 -1.0090
 7245SOL     OW33370   3.910   0.477  17.161  0.6646 -0.1623  1.0378
 7245SOL    HW133371   3.847   0.421  17.204 -0.6836 -0.8952 -1.8800
 7245SOL    HW233372   3.923   0.547  17.225 -1.1462  1.1784 -0.0451
 7246SOL     OW33373   0.449   3.394  13.613  0.4633 -0.0155  0.0734
 7246SOL    HW133374   0.419   3.453  13.544  1.5779 -0.8208 -1.0943
 7246SOL    HW233375   0.469   3.323  13.553  1.5165  1.0181 -0.7922
 7247SOL     OW33376   2.564   4.046  10.770 -0.1004 -0.4090  0.2505
 7247SOL    HW133377   2.519   4.020  10.851  1.8874 -0.4385  1.3655
 7247SOL    HW233378   2.503   4.011  10.706 -0.5196 -1.5687  1.2756
 7248SOL     OW33379   2.503   3.695  11.169 -0.0963  0.1659 -0.6369
 7248SOL    HW133380   2.449   3.695  11.247  2.1452 -0.6254  0.9152
 7248SOL    HW233381   2.593   3.702  11.200 -0.1902  0.4821 -0.4431
 7249SOL     OW33382   0.444   1.459   8.540 -0.2165 -0.4285  0.5269
 7249SOL    HW133383   0.502   1.496   8.474 -1.7195  2.6861  0.9257
 7249SOL    HW233384   0.482   1.374   8.563  1.9666  1.0842  2.4848
 7250SOL     OW33385   1.920   2.270   4.460  0.0659 -0.2110  0.1776
 7250SOL    HW133386   1.983   2.342   4.450 -2.2172  1.5202 -1.8815
 7250SOL    HW233387   1.842   2.325   4.467 -0.5661 -1.1020  0.0715
 7251SOL     OW33388   0.693   0.684   2.699 -0.1423 -0.1808  0.0711
 7251SOL    HW133389   0.614   0.675   2.752  0.3959 -1.7422  0.6187
 7251SOL    HW233390   0.745   0.610   2.732 -0.5877 -0.9396 -0.9176
 7252SOL     OW33391   2.365   2.398   5.660  0.0022 -0.3544  0.7244
 7252SOL    HW133392   2.362   2.366   5.569 -0.2815 -1.2091  1.0316
 7252SOL    HW233393   2.278   2.371   5.690 -1.6119  1.0891 -2.5481
 7253SOL     OW33394   3.093   2.838   9.365  0.2446  0.5018  0.2623
 7253SOL    HW133395   3.160   2.878   9.420 -1.4785  0.7728  2.1955
 7253SOL    HW233396   3.056   2.915   9.322  0.9391  0.5372 -0.2710
 7254SOL     OW33397   2.258   2.341   2.766  0.0148  0.1530  0.2816
 7254SOL    HW133398   2.202   2.412   2.797  0.1230  0.2671  0.2162
 7254SOL    HW233399   2.192   2.272   2.756  2.1205 -2.0119  1.3286
 7255SOL     OW33400   3.505   0.892  16.898  0.1252 -0.1565  0.0341
 7255SOL    HW133401   3.448   0.833  16.849  0.1802  0.2683 -0.5488
 7255SOL    HW233402   3.567   0.928  16.835  0.2875  0.6618  0.6571
 7256SOL     OW33403   1.059   0.337   2.965 -0.3418  0.3971  0.2024
 7256SOL    HW133404   1.044   0.389   3.044  1.8222  1.4147 -0.0525
 7256SOL    HW233405   1.078   0.254   3.011 -0.1813 -0.0878 -0.7432
 7257SOL     OW33406   4.375   1.211   6.585 -0.3362 -0.4944  0.2561
 7257SOL    HW133407   4.383   1.117   6.602 -0.8289 -0.7778 -1.0495
 7257SOL    HW233408   4.352   1.232   6.675 -0.1361  0.0967  0.1676
 7258SOL     OW33409   2.470   2.316   0.004  0.4874  0.0079  0.1516
 7258SOL    HW133410   2.393   2.347   0.052  1.4839  0.9302  1.1658
 7258SOL    HW233411   2.441   2.312  17.654 -3.0049 -1.1963  1.2868
 7259SOL     OW33412   4.513   2.877   6.724  0.5261 -0.3272  0.0137
 7259SOL    HW133413   4.501   2.786   6.751  0.0407  0.1053  1.2774
 7259SOL    HW233414   4.606   2.888   6.743  0.5779 -2.8507  1.0928
 7260SOL     OW33415   0.303   2.266   4.012 -0.4174  0.3131  0.1448
 7260SOL    HW133416   0.238   2.328   4.047 -0.8250 -0.2085  0.3053
 7260SOL    HW233417   0.360   2.245   4.086 -0.5596  2.0225  0.7440
 7261SOL     OW33418   3.050   1.624  16.074 -0.0584  0.0293 -0.4542
 7261SOL    HW133419   3.012   1.572  16.003  1.3562 -1.1257 -0.3500
 7261SOL    HW233420   3.095   1.554  16.121 -1.2150  1.7024  3.1433
 7262SOL     OW33421   2.327   3.611   3.041 -0.5715  0.1005 -0.4332
 7262SOL    HW133422   2.325   3.555   2.963 -1.0101  1.6184 -1.5258
 7262SOL    HW233423   2.238   3.647   3.039 -0.4341  0.3677 -1.5938
 7263SOL     OW33424   2.436   3.572   2.654 -0.2130 -0.2468  0.3494
 7263SOL    HW133425   2.444   3.547   2.746 -0.5090  1.5406  0.8650
 7263SOL    HW233426   2.395   3.657   2.668  1.2753  0.8728 -1.9526
 7264SOL     OW33427   3.324   0.463   8.921 -0.3062  0.0851 -0.8832
 7264SOL    HW133428   3.281   0.456   9.006  0.5834  0.0461 -0.4280
 7264SOL    HW233429   3.364   0.377   8.904 -2.9154 -1.2812 -0.0898
 7265SOL     OW33430   0.902   4.488   8.452  1.0484  0.0680 -0.0751
 7265SOL    HW133431   0.822   4.540   8.442  0.3133 -0.8361  1.1051
 7265SOL    HW233432   0.968   4.552   8.481  1.8179 -0.8305  0.1611
 7266SOL     OW33433   4.033   1.926  15.113  0.7842  0.1346  0.4404
 7266SOL    HW133434   4.118   1.894  15.084 -0.2707 -1.6862 -0.6212
 7266SOL    HW233435   4.024   1.999  15.053 -0.9578 -0.9497 -0.6460
 7267SOL     OW33436   1.306   0.975  15.027 -0.3692  0.2531  0.4934
 7267SOL    HW133437   1.244   0.909  15.057 -0.2622 -0.2315 -0.3597
 7267SOL    HW233438   1.264   0.998  14.945 -2.1312  0.9780  1.6003
 7268SOL     OW33439   3.616   0.674   4.599 -0.4591  0.9665 -0.1267
 7268SOL    HW133440   3.556   0.659   4.526 -0.5754 -1.5549  0.5086
 7268SOL    HW233441   3.614   0.770   4.603  0.9370  1.0698 -1.6995
 7269SOL     OW33442   1.846   4.212   7.699  0.4723  0.1867  0.2322
 7269SOL    HW133443   1.768   4.157   7.710 -0.1906  1.7787  3.4591
 7269SOL    HW233444   1.799   4.289   7.667 -1.3992 -0.4702  1.4261
 7270SOL     OW33445   4.345   1.362  16.495  0.1583 -0.0292 -0.7450
 7270SOL    HW133446   4.265   1.400  16.531 -0.8753  0.6840 -3.8049
 7270SOL    HW233447   4.401   1.370  16.573  0.3977  1.4156 -1.0639
 7271SOL     OW33448   0.800   3.546   5.317 -0.5040  0.4132 -0.1340
 7271SOL    HW133449   0.752   3.559   5.235 -0.1047  1.3135 -0.2262
 7271SOL    HW233450   0.829   3.457   5.300 -0.1791  0.5416 -0.2367
 7272SOL     OW33451   2.915   1.465   7.851  0.2620 -0.7018 -0.5250
 7272SOL    HW133452   2.997   1.428   7.818  1.2006 -0.0098  1.0215
 7272SOL    HW233453   2.914   1.550   7.807 -2.1499 -0.3472  0.2159
 7273SOL     OW33454   0.083   1.773   7.993 -0.1286  0.4899 -0.1123
 7273SOL    HW133455   0.128   1.818   8.065 -1.8397  2.3898 -0.2369
 7273SOL    HW233456   0.133   1.693   7.982  0.1301  0.3391  2.1475
 7274SOL     OW33457   2.184   0.018  15.200 -0.4009 -0.1749  0.2608
 7274SOL    HW133458   2.231   4.674  15.222  2.5976  1.3084 -0.7399
 7274SOL    HW233459   2.099   4.723  15.170 -1.1602  2.2085 -0.0466
 7275SOL     OW33460   3.612   0.331   6.532 -0.3490 -0.2221  0.7490
 7275SOL    HW133461   3.529   0.286   6.549  0.0727 -1.2270  0.1320
 7275SOL    HW233462   3.611   0.403   6.595 -2.8553 -1.0622  1.6664
 7276SOL     OW33463   2.422   4.029   2.164 -0.9155  0.1549  0.4141
 7276SOL    HW133464   2.428   4.048   2.070 -2.7063 -1.3283 -0.0048
 7276SOL    HW233465   2.338   4.074   2.173  0.1789  2.2945 -0.0185
 7277SOL     OW33466   3.328   2.148   7.327  0.1196  0.3702  0.1666
 7277SOL    HW133467   3.277   2.197   7.391 -1.6115 -0.7365 -0.3416
 7277SOL    HW233468   3.340   2.223   7.268 -0.8683 -0.0241 -0.5386
 7278SOL     OW33469   4.223   4.096   8.666 -0.2110 -0.0682  0.3962
 7278SOL    HW133470   4.305   4.068   8.706  0.5471 -1.2714 -1.9629
 7278SOL    HW233471   4.199   4.163   8.730  0.5773 -0.5168  1.1553
 7279SOL     OW33472   0.439   0.843  12.192  0.0551  0.1107 -0.2619
 7279SOL    HW133473   0.450   0.848  12.287  0.6434 -1.7537 -0.2275
 7279SOL    HW233474   0.530   0.824  12.169  0.8704  1.9359  1.4569
 7280SOL     OW33475   4.377   1.314   2.994  0.1907  0.4494 -0.0432
 7280SOL    HW133476   4.454   1.351   2.951  0.2961 -1.2910 -1.3717
 7280SOL    HW233477   4.408   1.224   3.006 -1.2957 -0.1336 -0.4771
 7281SOL     OW33478   3.631   4.427   9.668 -0.4816 -0.3313  0.1413
 7281SOL    HW133479   3.665   4.369   9.599  0.2693 -1.4622  1.4516
 7281SOL    HW233480   3.606   4.495   9.606  1.7669 -0.0087 -0.4310
 7282SOL     OW33481   4.632   3.811   9.482 -0.1028 -0.0469  0.0693
 7282SOL    HW133482   4.701   3.829   9.419  0.1797  0.5002  0.5317
 7282SOL    HW233483   4.650   3.725   9.519  0.8817  0.0609 -0.1628
 7283SOL     OW33484   3.276   3.552   3.193 -0.6635  0.3607 -0.2233
 7283SOL    HW133485   3.351   3.564   3.252 -1.2932 -0.0165  0.6665
 7283SOL    HW233486   3.270   3.640   3.155 -1.3936  0.1500 -0.5806
 7284SOL     OW33487   1.441   0.487   7.572 -0.4212 -0.5144  0.0168
 7284SOL    HW133488   1.468   0.512   7.483  0.2517 -3.2122 -0.5200
 7284SOL    HW233489   1.526   0.479   7.615 -0.6442 -0.5932  0.4417
 7285SOL     OW33490   2.249   0.287  16.852 -0.1434  0.4012  0.1229
 7285SOL    HW133491   2.282   0.201  16.878 -0.2623  0.4464  0.4236
 7285SOL    HW233492   2.157   0.274  16.874 -0.4101  3.5609  0.8150
 7286SOL     OW33493   1.869   1.912   6.933 -0.2464 -0.0692 -0.0856
 7286SOL    HW133494   1.792   1.859   6.953 -1.7529  2.9398  2.1806
 7286SOL    HW233495   1.944   1.857   6.954  1.1986  2.7086  1.9507
 7287SOL     OW33496   0.387   3.622  16.915  0.1385  0.0784  0.2868
 7287SOL    HW133497   0.448   3.693  16.930  0.2136  0.1994 -0.5684
 7287SOL    HW233498   0.379   3.590  17.005 -0.9416 -0.8166 -0.1211
 7288SOL     OW33499   0.592   1.114   6.047 -0.3009  0.1038  0.1037
 7288SOL    HW133500   0.628   1.186   6.099  1.7673 -0.4682 -0.5463
 7288SOL    HW233501   0.560   1.057   6.116 -1.2712 -0.1643 -0.5627
 7289SOL     OW33502   0.068   3.608   2.218  0.0858 -0.1123 -0.3188
 7289SOL    HW133503   0.135   3.562   2.167 -0.0343  2.2177 -2.5829
 7289SOL    HW233504   0.061   3.693   2.174  0.4882  0.5921  0.9673
 7290SOL     OW33505   3.851   3.463   1.448 -0.4223 -0.1737  0.1632
 7290SOL    HW133506   3.763   3.489   1.419 -0.4039 -1.7971 -1.3406
 7290SOL    HW233507   3.844   3.440   1.541  0.4642 -1.6085 -0.1131
 7291SOL     OW33508   1.820   4.550  10.378  0.5553 -0.2324 -0.2942
 7291SOL    HW133509   1.892   4.607  10.352 -0.3118  1.7024  1.4762
 7291SOL    HW233510   1.758   4.614  10.414  0.0485 -1.2541  0.6407
 7292SOL     OW33511   3.885   0.224   2.596  0.0161  0.0285  0.0169
 7292SOL    HW133512   3.862   0.315   2.577  0.0670  0.6278  2.7124
 7292SOL    HW233513   3.825   0.176   2.540  1.2998 -1.1496 -0.3509
 7293SOL     OW33514   3.099   1.023  12.322  0.0431  0.1764 -0.0708
 7293SOL    HW133515   3.088   1.091  12.256  0.4661  2.7437  2.4914
 7293SOL    HW233516   3.126   0.949  12.269  0.7423 -0.1695  0.7625
 7294SOL     OW33517   1.288   4.523   0.441  0.2800 -0.0738 -0.2655
 7294SOL    HW133518   1.300   4.502   0.349 -1.8770  0.1781 -0.5933
 7294SOL    HW233519   1.303   4.437   0.481 -0.1108 -0.6840 -1.4481
 7295SOL     OW33520   4.119   1.884  16.857  0.0872  0.3123 -0.5387
 7295SOL    HW133521   4.141   1.844  16.941 -2.6270  0.4005  0.2185
 7295SOL    HW233522   4.196   1.940  16.847 -1.0305  1.5820 -1.9251
 7296SOL     OW33523   2.980   2.600  10.669 -0.3100 -0.2769 -0.3256
 7296SOL    HW133524   2.915   2.661  10.704 -0.7464 -2.4514  2.5782
 7296SOL    HW233525   3.002   2.565  10.755 -1.0553 -1.1016 -0.4700
 7297SOL     OW33526   4.433   0.562   9.092  0.6338 -0.9800 -0.1425
 7297SOL    HW133527   4.517   0.608   9.090  1.2715 -2.2281 -2.3051
 7297SOL    HW233528   4.465   0.471   9.091  0.2832 -1.0996 -0.3389
 7298SOL     OW33529   2.369   4.317   3.127 -0.0657 -0.3910 -0.0838
 7298SOL    HW133530   2.284   4.358   3.143 -0.9284 -1.0647 -2.9125
 7298SOL    HW233531   2.389   4.335   3.036 -2.1130  0.8535 -0.2969
 7299SOL     OW33532   4.470   2.029   2.514  0.2931  0.6579 -0.1568
 7299SOL    HW133533   4.527   2.010   2.588 -1.3278 -1.9268  0.4244
 7299SOL    HW233534   4.507   2.112   2.484  0.2338  0.7904  0.1379
 7300SOL     OW33535   3.454   2.679   3.018  0.1024 -0.2377  0.0511
 7300SOL    HW133536   3.393   2.747   3.047 -0.3063 -0.3808 -0.4667
 7300SOL    HW233537   3.485   2.647   3.103  2.8781  0.8079 -0.5890
 7301SOL     OW33538   2.744   1.071  10.245  0.2575 -0.8655  0.2998
 7301SOL    HW133539   2.672   1.013  10.273 -0.0227  0.4576  2.3473
 7301SOL    HW233540   2.791   1.094  10.325 -0.7592 -0.6282  0.8340
 7302SOL     OW33541   1.539   3.328   8.718  0.5681 -0.0933  0.0042
 7302SOL    HW133542   1.634   3.332   8.728  1.1104 -2.4164 -4.1156
 7302SOL    HW233543   1.536   3.374   8.633  0.0410 -0.8523 -0.3827
 7303SOL     OW33544   4.137   4.541   7.513 -0.3835 -0.1839 -0.2424
 7303SOL    HW133545   4.214   4.506   7.557 -1.7404  1.0518  3.0926
 7303SOL    HW233546   4.069   4.475   7.530 -1.3121  0.2230 -2.3928
 7304SOL     OW33547   1.018   0.461   3.415 -0.5537 -0.1712  0.1925
 7304SOL    HW133548   1.083   0.396   3.388  0.7517 -0.5637  4.1441
 7304SOL    HW233549   0.957   0.449   3.343 -1.5277  1.8586  0.6982
 7305SOL     OW33550   3.880   3.127  13.804 -0.7225 -0.3111  0.0494
 7305SOL    HW133551   3.929   3.199  13.844  0.9718 -0.5433 -1.6332
 7305SOL    HW233552   3.910   3.119  13.714 -0.2513 -0.8517  0.2506
 7306SOL     OW33553   4.536   3.163   3.396  0.2204  0.1514 -0.1380
 7306SOL    HW133554   4.447   3.198   3.398  0.4939  0.7113  2.2261
 7306SOL    HW233555   4.585   3.243   3.374  1.4646 -0.3600  0.7738
 7307SOL     OW33556   2.060   0.671   9.866  0.3895  0.1910 -0.3916
 7307SOL    HW133557   2.147   0.711   9.876  1.1087 -1.1807 -1.1502
 7307SOL    HW233558   2.066   0.602   9.932 -0.6432  0.7420  0.2720
 7308SOL     OW33559   2.270   2.820  12.845 -0.0711  0.0386 -0.3588
 7308SOL    HW133560   2.360   2.789  12.847  0.4040  1.4567 -0.2038
 7308SOL    HW233561   2.229   2.777  12.769 -2.0049 -0.1436  0.7822
 7309SOL     OW33562   0.273   3.344   8.089 -0.4310 -0.2822  0.3401
 7309SOL    HW133563   0.235   3.265   8.051 -3.5681  0.9287  0.9760
 7309SOL    HW233564   0.193   3.374   8.133 -0.0239  2.1340 -0.5473
 7310SOL     OW33565   3.525   1.680   5.760  0.4268  0.1346  0.2837
 7310SOL    HW133566   3.504   1.643   5.674  0.8943 -1.8907  1.0606
 7310SOL    HW233567   3.522   1.610   5.825 -1.1724 -0.1115 -0.0427
 7311SOL     OW33568   1.349   4.549   9.620 -0.4487 -0.0882  0.6332
 7311SOL    HW133569   1.261   4.534   9.585 -0.0921  0.0646 -0.3322
 7311SOL    HW233570   1.313   4.608   9.686  0.6326  0.4241  0.7612
 7312SOL     OW33571   2.811   0.845  14.871 -0.0714  0.8781 -0.0732
 7312SOL    HW133572   2.846   0.899  14.801  0.4247 -0.3437 -0.7720
 7312SOL    HW233573   2.874   0.775  14.888 -0.5323  0.0274 -1.7812
 7313SOL     OW33574   2.700   1.973   2.977 -0.1905 -0.6302  0.1271
 7313SOL    HW133575   2.651   1.947   3.055 -0.4288 -2.4666 -0.6360
 7313SOL    HW233576   2.727   1.888   2.942 -2.5179 -0.8794 -1.0303
 7314SOL     OW33577   4.202   2.567   6.197 -0.0211  0.0337 -0.2063
 7314SOL    HW133578   4.221   2.500   6.131  1.4131  0.4179 -0.1826
 7314SOL    HW233579   4.106   2.562   6.202 -0.0267 -0.5777 -1.1027
 7315SOL     OW33580   0.864   4.176   7.419  0.1230 -0.0941 -0.1077
 7315SOL    HW133581   0.807   4.229   7.363  1.2330  1.2483  0.0172
 7315SOL    HW233582   0.939   4.176   7.359 -1.0159  0.7553 -1.5528
 7316SOL     OW33583   0.078   1.286   2.989  0.7133  0.1251 -0.5145
 7316SOL    HW133584   4.722   1.315   2.985  1.8262  3.6294 -0.9128
 7316SOL    HW233585   0.106   1.311   2.901  3.9292  0.4323  0.5918
 7317SOL     OW33586   4.377   1.865  13.465 -0.3110 -0.5296  0.3450
 7317SOL    HW133587   4.389   1.937  13.403  1.0993 -0.5937  0.5260
 7317SOL    HW233588   4.329   1.919  13.528 -0.3575 -1.2027  0.8831
 7318SOL     OW33589   2.090   1.365   6.530  0.1190  0.0915  0.2637
 7318SOL    HW133590   2.165   1.351   6.473 -0.0144  1.5090 -0.2546
 7318SOL    HW233591   2.084   1.461   6.529  2.1648  0.2021 -0.2916
 7319SOL     OW33592   0.443   1.275   7.456  0.1740  0.2193 -0.0743
 7319SOL    HW133593   0.425   1.278   7.550  2.0233  1.3838  0.2350
 7319SOL    HW233594   0.398   1.205   7.409  2.0533 -0.3724 -0.9855
 7320SOL     OW33595   0.498   2.298   4.722  0.1447  0.4412 -0.1401
 7320SOL    HW133596   0.540   2.378   4.691  1.2124 -0.1146 -0.1321
 7320SOL    HW233597   0.496   2.304   4.817  0.3517  0.7581 -0.1593
 7321SOL     OW33598   2.406   3.788   0.007  0.4995  0.6378  0.8941
 7321SOL    HW133599   2.458   3.821  17.675 -0.3416  1.0367  0.4836
 7321SOL    HW233600   2.437   3.697   0.008 -2.8856 -0.5970 -4.0081
 7322SOL     OW33601   0.569   1.232   8.427  0.3418  0.6519  0.5616
 7322SOL    HW133602   0.647   1.212   8.479  1.1143 -0.2763 -0.9595
 7322SOL    HW233603   0.604   1.296   8.366 -1.3761  1.2260  0.2072
 7323SOL     OW33604   2.599   0.583  14.025  0.1866 -0.1761 -0.3973
 7323SOL    HW133605   2.599   0.497  14.068 -0.6946  0.3093  0.5835
 7323SOL    HW233606   2.686   0.590  13.986  0.7214  0.2825  0.8799
 7324SOL     OW33607   1.060   4.183  11.112 -0.2827 -0.1360 -0.6948
 7324SOL    HW133608   1.067   4.262  11.060 -0.9835 -0.0734 -0.6836
 7324SOL    HW233609   1.033   4.122  11.043 -1.9674 -0.9864  0.7114
 7325SOL     OW33610   1.914   1.344   5.750 -0.0549 -0.0649  0.5101
 7325SOL    HW133611   2.007   1.358   5.732 -0.2318  0.3493 -0.0799
 7325SOL    HW233612   1.886   1.298   5.671  1.9852  0.5127 -0.5431
 7326SOL     OW33613   4.425   0.635   7.614  0.2360  0.4050 -0.4291
 7326SOL    HW133614   4.339   0.593   7.613  1.8045 -2.7877 -0.7217
 7326SOL    HW233615   4.410   0.706   7.551  2.4761  0.9125 -0.3680
 7327SOL     OW33616   0.841   4.577   2.947  0.0447 -0.2663 -0.1341
 7327SOL    HW133617   0.862   4.566   2.854 -1.1077 -0.8746 -0.3144
 7327SOL    HW233618   0.783   4.506   2.972  1.2636 -0.8256  1.0859
 7328SOL     OW33619   0.536   2.675   8.470  0.4766  0.2791  0.2768
 7328SOL    HW133620   0.587   2.692   8.391 -0.9193  2.3144 -0.1838
 7328SOL    HW233621   0.446   2.685   8.437 -0.3543 -1.3491  2.0477
 7329SOL     OW33622   3.391   2.024   9.075  0.4125 -0.0034  0.0407
 7329SOL    HW133623   3.358   1.953   9.130  1.0997 -1.5027 -1.4710
 7329SOL    HW233624   3.309   2.072   9.067 -0.9283 -2.0948  1.1758
 7330SOL     OW33625   1.201   4.026  11.523  0.1189  0.4728 -0.1508
 7330SOL    HW133626   1.275   4.024  11.461 -0.2263  0.5251 -0.5629
 7330SOL    HW233627   1.143   3.960  11.486 -1.0541 -0.2828  3.0131
 7331SOL     OW33628   0.499   2.500   6.378 -0.9505 -0.4969  0.4501
 7331SOL    HW133629   0.562   2.551   6.328 -1.2878 -1.4683 -0.9665
 7331SOL    HW233630   0.564   2.431   6.391 -1.0608 -0.8165 -0.7182
 7332SOL     OW33631   1.370   1.601   6.074 -1.0501 -0.1561  0.3713
 7332SOL    HW133632   1.460   1.589   6.043 -0.0005  1.5271  2.7699
 7332SOL    HW233633   1.400   1.604   6.164  2.1849 -3.1213 -0.6500
 7333SOL     OW33634   1.334   3.309   3.039  0.1416 -0.2788  0.3936
 7333SOL    HW133635   1.257   3.252   3.032 -0.6196  0.7206  0.5993
 7333SOL    HW233636   1.363   3.303   2.948 -0.4184 -2.3973  0.3550
 7334SOL     OW33637   2.687   2.543  17.360  0.7534 -0.3356 -0.4593
 7334SOL    HW133638   2.719   2.488  17.289  0.6222 -2.1019  0.8438
 7334SOL    HW233639   2.686   2.487  17.438 -1.8616  0.3301 -0.0306
 7335SOL     OW33640   0.442   0.766   4.277 -0.4861 -0.1200 -0.0767
 7335SOL    HW133641   0.346   0.764   4.274 -0.4606 -0.7545 -0.6524
 7335SOL    HW233642   0.461   0.848   4.232 -1.3138 -0.1781 -0.5348
 7336SOL     OW33643   3.689   3.627   7.923 -0.6063  0.4714 -0.4819
 7336SOL    HW133644   3.620   3.566   7.948  0.8717 -0.4199  1.4440
 7336SOL    HW233645   3.709   3.643   8.016 -0.8353  0.5123 -0.4405
 7337SOL     OW33646   1.124   1.812   0.809  0.5712  0.9557 -0.0076
 7337SOL    HW133647   1.058   1.828   0.877  0.7516 -0.6076  0.5405
 7337SOL    HW233648   1.206   1.787   0.851  1.5871 -1.2802 -3.2786
 7338SOL     OW33649   4.539   1.242   0.484  0.3553  0.3180 -0.2332
 7338SOL    HW133650   4.543   1.153   0.450  2.7083  0.8484 -1.2931
 7338SOL    HW233651   4.584   1.288   0.414 -0.8487  0.9679 -0.5914
 7339SOL     OW33652   4.496   2.702  11.128  0.5974  0.5827 -0.5230
 7339SOL    HW133653   4.495   2.632  11.063 -0.0004  0.8944 -0.8486
 7339SOL    HW233654   4.567   2.673  11.186 -1.0596 -0.6261  0.8837
 7340SOL     OW33655   0.429   0.619   6.065 -0.4195  0.1254  0.2146
 7340SOL    HW133656   0.401   0.532   6.095 -1.7105  0.3630 -0.2753
 7340SOL    HW233657   0.507   0.639   6.116 -0.6207 -0.8270  0.9037
 7341SOL     OW33658   0.188   4.121   3.095 -0.8027  0.5059 -0.2408
 7341SOL    HW133659   0.194   4.048   3.033 -0.8843 -0.0716  0.4356
 7341SOL    HW233660   0.131   4.087   3.164 -0.1025  0.0992  0.1335
 7342SOL     OW33661   2.697   0.216  10.200 -0.1026  0.6510  0.8669
 7342SOL    HW133662   2.690   0.121  10.214  0.8470  0.5196  0.4641
 7342SOL    HW233663   2.637   0.230  10.127  3.1787  1.3861 -1.7068
 7343SOL     OW33664   1.231   4.226  15.064  0.3372 -0.1153  0.4737
 7343SOL    HW133665   1.206   4.229  14.971 -0.5964  0.5081  0.7404
 7343SOL    HW233666   1.294   4.298  15.064  0.6178 -0.3556 -0.3938
 7344SOL     OW33667   4.620   4.304  12.029  0.0219  1.0002 -0.2094
 7344SOL    HW133668   4.641   4.396  12.045 -0.4099  1.4808 -2.3903
 7344SOL    HW233669   4.699   4.254  12.052  0.5241  0.4493 -3.2215
 7345SOL     OW33670   1.608   0.321  12.316 -0.4641 -0.2506  0.5497
 7345SOL    HW133671   1.634   0.285  12.401  1.8357 -0.2402 -0.1296
 7345SOL    HW233672   1.597   0.413  12.340  0.8612 -0.1817  0.9445
 7346SOL     OW33673   0.392   0.847  12.493  0.0416  0.0567 -0.4489
 7346SOL    HW133674   0.316   0.790  12.504  0.7556 -1.0954 -1.4958
 7346SOL    HW233675   0.465   0.786  12.482 -0.2536 -0.7199  1.8411
 7347SOL     OW33676   4.238   2.199  11.696  0.0965 -0.1001  0.4118
 7347SOL    HW133677   4.303   2.187  11.627 -1.9908 -1.4319 -1.3241
 7347SOL    HW233678   4.286   2.264  11.748  0.4097 -0.2460  0.3010
 7348SOL     OW33679   1.007   3.371   8.280  0.5003 -0.3159 -0.1635
 7348SOL    HW133680   1.018   3.463   8.301 -2.6159 -0.0873  0.5389
 7348SOL    HW233681   0.950   3.345   8.352 -0.8768 -0.4101 -1.2859
 7349SOL     OW33682   4.353   3.148   2.421 -0.0618  0.2353  0.1139
 7349SOL    HW133683   4.269   3.178   2.455 -1.1355 -2.4881 -0.1132
 7349SOL    HW233684   4.332   3.111   2.335  1.4862 -1.2634  0.4028
 7350SOL     OW33685   3.136   3.347   5.642  0.1511  0.4393  0.0035
 7350SOL    HW133686   3.141   3.289   5.566  3.0870  1.6888 -0.7473
 7350SOL    HW233687   3.046   3.377   5.631  0.5570  1.8720  0.6624
 7351SOL     OW33688   2.181   1.290  13.896 -0.2912 -0.7025 -0.1482
 7351SOL    HW133689   2.148   1.267  13.982 -2.1977 -1.7983 -1.1743
 7351SOL    HW233690   2.100   1.324  13.858  0.3594 -2.0781 -2.7854
 7352SOL     OW33691   1.347   1.370  14.408  0.5817 -0.1460  0.4633
 7352SOL    HW133692   1.337   1.304  14.340 -0.0703 -0.3225  0.7304
 7352SOL    HW233693   1.339   1.306  14.479 -0.7933 -0.0176  0.4324
 7353SOL     OW33694   3.671   0.048   6.008 -0.6940 -0.4927  0.0833
 7353SOL    HW133695   3.620   0.116   5.962 -2.3193 -1.9122 -0.2176
 7353SOL    HW233696   3.702   4.733   5.933  1.3649 -0.5377  0.9776
 7354SOL     OW33697   1.644   3.719   5.975  0.0056 -0.4417  0.0311
 7354SOL    HW133698   1.556   3.755   5.972  0.7548  1.2045 -1.8247
 7354SOL    HW233699   1.639   3.632   6.015 -1.0569 -0.9832 -1.2728
 7355SOL     OW33700   2.399   3.743  10.835  0.0898  0.5579  0.3434
 7355SOL    HW133701   2.311   3.724  10.869  0.2282 -1.6707 -0.5405
 7355SOL    HW233702   2.452   3.701  10.902  0.6708  0.1007 -0.3985
 7356SOL     OW33703   0.683   2.581  10.025 -0.0486 -0.2693 -0.4331
 7356SOL    HW133704   0.618   2.521   9.989  0.5773 -1.1744 -0.0576
 7356SOL    HW233705   0.730   2.515  10.075  1.1857  2.7798  2.4349
 7357SOL     OW33706   4.241   3.855  11.066 -0.1390  0.0830 -0.0449
 7357SOL    HW133707   4.280   3.852  11.153 -2.1944 -0.3705  0.8536
 7357SOL    HW233708   4.311   3.815  11.014  0.9326  0.0672  1.3981
 7358SOL     OW33709   3.676   3.619   5.501 -0.1942 -0.0291  0.3938
 7358SOL    HW133710   3.720   3.587   5.580  0.2900  0.6211  0.3838
 7358SOL    HW233711   3.730   3.604   5.423  1.1691  0.9914  1.1452
 7359SOL     OW33712   1.028   0.779   4.124  0.4710  0.3177  0.5663
 7359SOL    HW133713   1.063   0.690   4.121 -1.0301 -0.2167 -1.3252
 7359SOL    HW233714   1.108   0.829   4.142 -0.1435  1.6778 -0.3957
 7360SOL     OW33715   1.844   1.627  17.702 -0.3365 -1.4741 -0.1130
 7360SOL    HW133716   1.860   1.632   0.055 -0.6885 -1.1802 -0.0696
 7360SOL    HW233717   1.752   1.655  17.702 -0.0806 -0.6491  0.5940
 7361SOL     OW33718   4.411   0.737   6.613 -0.0096 -0.4390 -0.3473
 7361SOL    HW133719   4.474   0.677   6.654  1.3244  1.8583  0.9781
 7361SOL    HW233720   4.399   0.701   6.526 -0.6314  0.6648 -0.7161
 7362SOL     OW33721   3.349   3.159   7.012 -0.3533 -0.0202  0.0357
 7362SOL    HW133722   3.422   3.119   6.965 -1.0547 -0.7148 -0.4488
 7362SOL    HW233723   3.384   3.153   7.101  1.2586 -2.1075 -0.7390
 7363SOL     OW33724   3.530   3.965   3.660  0.0091 -0.0634  0.1427
 7363SOL    HW133725   3.528   3.970   3.756 -0.2836  0.4412  0.1115
 7363SOL    HW233726   3.474   4.042   3.649  0.1243  0.0903  0.6198
 7364SOL     OW33727   4.557   0.528   7.131 -0.1794 -0.1609 -0.1078
 7364SOL    HW133728   4.471   0.527   7.090 -1.0138 -1.6066  1.7035
 7364SOL    HW233729   4.539   0.588   7.203 -2.3139  0.4842 -1.1971
 7365SOL     OW33730   4.493   1.598   0.700  0.4256 -0.0298 -0.7148
 7365SOL    HW133731   4.576   1.579   0.656  0.9186 -1.1280  0.7015
 7365SOL    HW233732   4.512   1.675   0.754 -1.2789 -0.0359 -0.0991
 7366SOL     OW33733   3.645   2.103   0.063  0.0909  0.6581  0.0961
 7366SOL    HW133734   3.574   2.045   0.091  0.4061 -0.4552 -1.4703
 7366SOL    HW233735   3.618   2.190   0.093 -0.0874  0.8520 -0.6444
 7367SOL     OW33736   0.185   2.391   7.095  0.0662  0.2706 -0.2828
 7367SOL    HW133737   0.113   2.333   7.123  0.1229  0.7205  0.8042
 7367SOL    HW233738   0.235   2.398   7.176  0.6796  0.6785 -0.7023
 7368SOL     OW33739   3.415   0.346   0.738  0.0433  0.1700 -0.0119
 7368SOL    HW133740   3.489   0.392   0.780  0.0643 -1.0314  1.2771
 7368SOL    HW233741   3.449   0.337   0.649 -1.0255  0.7026 -0.4669
 7369SOL     OW33742   4.445   3.860   9.092  0.2393  0.2470 -0.9260
 7369SOL    HW133743   4.384   3.810   9.146  1.2522  0.7243  0.6688
 7369SOL    HW233744   4.403   3.945   9.078 -2.1358 -1.0796 -1.7353
 7370SOL     OW33745   0.253   2.172  14.903 -0.0340  0.0621 -0.0604
 7370SOL    HW133746   0.291   2.207  14.822 -1.6299  1.5273 -0.1966
 7370SOL    HW233747   0.305   2.093  14.917  1.2056  1.3934  2.7229
 7371SOL     OW33748   3.671   1.359   5.786 -1.0006  0.0096 -0.4452
 7371SOL    HW133749   3.744   1.302   5.812 -1.3897 -0.6838 -0.8869
 7371SOL    HW233750   3.600   1.339   5.847 -0.9043 -1.8277 -0.9169
 7372SOL     OW33751   0.435   2.876   5.897  0.4734  0.8081 -0.0118
 7372SOL    HW133752   0.497   2.836   5.836 -0.4579 -0.8325  0.1329
 7372SOL    HW233753   0.497   2.916   5.960  2.0234  2.3255 -2.5077
 7373SOL     OW33754   4.124   2.866   5.671  0.9227 -0.0686 -0.3954
 7373SOL    HW133755   4.167   2.792   5.712  0.2700 -0.5180 -0.5220
 7373SOL    HW233756   4.033   2.856   5.699  0.0376  3.5498 -1.8948
 7374SOL     OW33757   3.031   4.575   8.472 -0.2133 -0.1842 -0.0551
 7374SOL    HW133758   3.018   4.667   8.450  2.9291  0.6190  1.5688
 7374SOL    HW233759   3.031   4.568   8.568 -0.7491 -0.2594 -0.0553
 7375SOL     OW33760   4.686   0.750  16.859  0.0493  0.5591 -0.1454
 7375SOL    HW133761   0.022   0.690  16.838  0.3869  0.6702  0.7024
 7375SOL    HW233762   4.709   0.833  16.816  1.4348  0.0543 -0.3785
 7376SOL     OW33763   2.052   3.945   1.417 -0.2714 -0.0118  0.0493
 7376SOL    HW133764   2.018   3.878   1.359  2.4784 -0.8393 -0.6206
 7376SOL    HW233765   2.011   3.921   1.500  0.6608  1.8003  1.0321
 7377SOL     OW33766   3.873   2.382  15.863 -0.0702 -0.1109 -0.1532
 7377SOL    HW133767   3.941   2.360  15.926  0.8870 -1.3769 -1.6321
 7377SOL    HW233768   3.802   2.328  15.900 -1.0425  0.4946 -1.1173
 7378SOL     OW33769   0.724   0.752   3.447 -0.0776 -0.1034  0.5171
 7378SOL    HW133770   0.765   0.728   3.529  1.7405  0.4233 -0.2341
 7378SOL    HW233771   0.797   0.743   3.385 -0.8011 -0.5255 -0.2719
 7379SOL     OW33772   2.766   3.038   4.474 -0.1896 -0.2134 -0.3397
 7379SOL    HW133773   2.740   3.005   4.560  1.4557  0.7937  0.5285
 7379SOL    HW233774   2.843   3.092   4.487 -1.4206  1.6358 -0.7909
 7380SOL     OW33775   0.406   1.128   7.108  0.6534  0.2317 -0.1231
 7380SOL    HW133776   0.489   1.110   7.064  0.0104 -1.1214 -0.7610
 7380SOL    HW233777   0.352   1.135   7.029  3.3321  0.9419 -1.9156
 7381SOL     OW33778   3.196   0.964   4.448 -0.4731 -0.0672  0.5156
 7381SOL    HW133779   3.184   0.872   4.472  0.0827  0.2423  1.9895
 7381SOL    HW233780   3.241   0.994   4.527  0.7767  1.3830 -0.7334
 7382SOL     OW33781   2.676   3.006   0.482 -0.4167  0.6831 -0.2739
 7382SOL    HW133782   2.745   3.032   0.420  0.4652  0.6438  0.6880
 7382SOL    HW233783   2.619   3.083   0.488 -1.4372  0.1170 -2.8861
 7383SOL     OW33784   1.509   0.977   3.344 -0.5119  0.3216 -0.4644
 7383SOL    HW133785   1.485   0.889   3.315 -0.0965  0.2753 -0.6664
 7383SOL    HW233786   1.428   1.003   3.387 -2.8508 -3.3511 -2.7059
 7384SOL     OW33787   0.576   1.005   8.894 -0.2370  0.2268  0.6096
 7384SOL    HW133788   0.642   1.027   8.829 -0.0433 -2.0050  0.0558
 7384SOL    HW233789   0.536   1.091   8.905 -0.5135  0.1189  0.4417
 7385SOL     OW33790   2.299   4.378   7.799 -0.2568  0.8859  0.6292
 7385SOL    HW133791   2.318   4.464   7.760 -0.5082  0.4313 -0.5047
 7385SOL    HW233792   2.226   4.360   7.739  0.7008 -1.3324  0.1312
 7386SOL     OW33793   0.463   2.149   8.124 -0.0867 -0.4545  0.5307
 7386SOL    HW133794   0.522   2.113   8.190  0.4165 -0.9614 -0.1914
 7386SOL    HW233795   0.501   2.100   8.050  2.2084 -0.8497  1.9964
 7387SOL     OW33796   0.024   3.909   5.881  0.5711  0.1061  0.3675
 7387SOL    HW133797   0.064   3.997   5.883 -2.2091  1.3662  0.4044
 7387SOL    HW233798   4.668   3.934   5.890  0.4716  0.3307 -1.1742
 7388SOL     OW33799   0.304   0.546   3.896 -0.0912  0.1327 -0.1593
 7388SOL    HW133800   0.225   0.519   3.942 -0.2587  1.3375  0.2644
 7388SOL    HW233801   0.307   0.632   3.938 -1.7890 -0.0383  0.3147
 7389SOL     OW33802   0.736   0.609  10.413  0.0698  0.3764  0.4161
 7389SOL    HW133803   0.825   0.612  10.378  0.4185 -2.9973  1.0291
 7389SOL    HW233804   0.699   0.534  10.365  0.9607 -0.6778  1.3823
 7390SOL     OW33805   0.111   3.968   3.508  0.1132 -0.2496  0.2349
 7390SOL    HW133806   0.112   4.020   3.588 -0.6402 -0.9870  0.7179
 7390SOL    HW233807   0.201   3.986   3.481  0.7265 -1.3865  1.5212
 7391SOL     OW33808   0.329   4.309   3.256  0.5350  0.5010 -0.8498
 7391SOL    HW133809   0.286   4.255   3.189 -0.3374 -0.3053  0.3626
 7391SOL    HW233810   0.295   4.397   3.238  1.2589  1.2364  1.4394
 7392SOL     OW33811   2.085   1.469   8.187 -0.2394 -0.3091 -0.2146
 7392SOL    HW133812   2.076   1.406   8.116 -0.6879 -2.0828  1.4013
 7392SOL    HW233813   2.164   1.439   8.232  0.8155  0.2912 -1.6913
 7393SOL     OW33814   1.957   1.210   5.495  0.3373  0.0363  0.4895
 7393SOL    HW133815   1.888   1.145   5.481  0.5182 -0.0190 -0.1730
 7393SOL    HW233816   2.022   1.183   5.429  0.0087  3.2192 -1.1564
 7394SOL     OW33817   0.916   0.924   1.025 -0.0413 -0.1134  0.5687
 7394SOL    HW133818   0.999   0.946   1.068 -0.1330 -0.7922  1.0869
 7394SOL    HW233819   0.904   1.012   0.990  2.2439  1.2840  3.2660
 7395SOL     OW33820   0.135   1.458   2.436 -0.0823  0.4237 -0.6597
 7395SOL    HW133821   0.049   1.418   2.421 -0.8141  2.1427 -0.9328
 7395SOL    HW233822   0.155   1.524   2.370  1.1860  1.1946  0.4985
 7396SOL     OW33823   4.033   2.265  13.203  0.5916 -0.6130 -0.2310
 7396SOL    HW133824   4.005   2.290  13.291 -0.5507 -0.2179 -0.7124
 7396SOL    HW233825   4.044   2.355  13.171  1.8637 -1.5341 -2.3805
 7397SOL     OW33826   0.743   3.846   9.561  0.4978 -0.2687 -0.4149
 7397SOL    HW133827   0.701   3.764   9.586 -0.9145  0.1057 -1.5276
 7397SOL    HW233828   0.827   3.836   9.605  0.3654  1.1052  0.1628
 7398SOL     OW33829   0.035   2.938   6.772 -0.5886  0.2117 -0.4929
 7398SOL    HW133830   0.031   2.901   6.684 -0.6043  1.7736 -1.1565
 7398SOL    HW233831   0.051   3.030   6.753  1.4083  0.2740  1.4516
 7399SOL     OW33832   2.342   3.460   6.653  0.6025 -0.4134  0.2894
 7399SOL    HW133833   2.337   3.531   6.589  1.2493 -0.0489  0.6424
 7399SOL    HW233834   2.354   3.503   6.738  0.8999  0.1900 -0.0627
 7400SOL     OW33835   2.732   3.094   8.879  0.1102  0.1359 -0.1084
 7400SOL    HW133836   2.815   3.087   8.927  1.6733  0.6305 -2.7302
 7400SOL    HW233837   2.728   3.016   8.825 -0.5607  0.1244 -0.0348
 7401SOL     OW33838   1.374   0.117   9.156  0.2700 -0.0122  0.2548
 7401SOL    HW133839   1.369   0.044   9.218 -0.4771 -0.9023 -0.8716
 7401SOL    HW233840   1.343   0.073   9.078 -1.6596 -1.0016  1.5878
 7402SOL     OW33841   3.077   4.735  16.988 -0.5433  0.1729  0.6990
 7402SOL    HW133842   3.020   4.704  16.918 -0.2481  0.1094  0.4882
 7402SOL    HW233843   3.163   4.715  16.951 -1.9755  0.0303 -2.5257
 7403SOL     OW33844   2.327   0.669  15.376 -0.1041 -0.1536  0.8195
 7403SOL    HW133845   2.380   0.742  15.409 -1.8326  0.8554  1.3456
 7403SOL    HW233846   2.289   0.703  15.295 -1.8101 -1.5561  1.0172
 7404SOL     OW33847   3.091   0.688  13.311  0.1031  0.4320 -0.1524
 7404SOL    HW133848   3.177   0.674  13.272  0.9130  2.3275  0.9674
 7404SOL    HW233849   3.050   0.755  13.257  0.2161 -0.9885 -1.9727
 7405SOL     OW33850   1.145   2.185   6.213  0.1954  0.2662 -0.1476
 7405SOL    HW133851   1.135   2.115   6.278  1.3926  0.1802 -0.0529
 7405SOL    HW233852   1.209   2.144   6.155  0.4576  0.7812 -0.2238
 7406SOL     OW33853   0.514   0.966   6.608  0.1531  0.4297 -0.1114
 7406SOL    HW133854   0.578   1.034   6.587  0.8034  0.3084  1.4733
 7406SOL    HW233855   0.506   0.926   6.522  2.1813  0.3339 -0.2379
 7407SOL     OW33856   3.065   2.174  10.935  0.1557 -0.4256  0.4307
 7407SOL    HW133857   3.121   2.175  10.857 -0.5466 -0.4690 -0.0770
 7407SOL    HW233858   2.994   2.233  10.909  0.2723 -0.3264  0.3340
 7408SOL     OW33859   1.644   2.916   3.033  0.1165  0.3000  0.2100
 7408SOL    HW133860   1.685   2.975   2.970 -3.3251  1.4014 -1.0127
 7408SOL    HW233861   1.557   2.927   2.996  0.5421  3.6013  0.1916
 7409SOL     OW33862   2.123   1.002   8.213  0.0767  0.1602  0.2263
 7409SOL    HW133863   2.144   1.034   8.125 -0.9409  0.5707  0.1277
 7409SOL    HW233864   2.117   0.908   8.196 -1.0835  0.4627 -1.0361
 7410SOL     OW33865   2.481   3.115  12.574 -0.0018 -0.0513  0.0274
 7410SOL    HW133866   2.447   3.080  12.656 -0.9783 -1.2632 -0.8901
 7410SOL    HW233867   2.452   3.206  12.582  2.0335  0.6819 -0.9679
 7411SOL     OW33868   1.663   4.132  11.843  0.0533 -0.2284 -0.0830
 7411SOL    HW133869   1.664   4.164  11.752 -0.2854 -1.6305 -0.5814
 7411SOL    HW233870   1.581   4.085  11.827  0.7057 -1.2047 -0.5188
 7412SOL     OW33871   2.348   0.111  14.180 -0.5868 -0.8225  0.1598
 7412SOL    HW133872   2.328   0.127  14.272  0.1721 -0.8071  0.3261
 7412SOL    HW233873   2.272   0.139  14.129 -0.4712  0.4901  0.6941
 7413SOL     OW33874   4.594   1.824   0.869  0.0885  0.5616  0.1713
 7413SOL    HW133875   4.671   1.838   0.813 -0.7627 -0.0866 -1.1491
 7413SOL    HW233876   4.578   1.904   0.920 -1.4221 -0.3123  1.0655
 7414SOL     OW33877   2.849   0.474  11.820 -0.5581  0.2352 -0.1567
 7414SOL    HW133878   2.900   0.555  11.811  1.5417 -1.2238 -1.3568
 7414SOL    HW233879   2.884   0.446  11.904 -0.8051  1.6228  0.4037
 7415SOL     OW33880   2.348   2.263   7.886  0.4910 -0.0905 -0.5112
 7415SOL    HW133881   2.441   2.268   7.864  1.2761  0.6190  2.9523
 7415SOL    HW233882   2.303   2.269   7.802  0.1520 -1.2748 -0.4126
 7416SOL     OW33883   1.987   0.652   6.321 -0.1330 -0.3908  0.7320
 7416SOL    HW133884   2.020   0.725   6.269 -1.7002 -0.0466  0.2063
 7416SOL    HW233885   1.914   0.624   6.265  0.9769  0.8305 -1.3248
 7417SOL     OW33886   0.112   4.381   0.907  0.1836 -0.4723 -0.0263
 7417SOL    HW133887   0.191   4.331   0.928  0.5974 -0.1601 -0.8403
 7417SOL    HW233888   0.050   4.316   0.876 -1.2864  1.9024 -2.0913
 7418SOL     OW33889   0.715   4.372   9.257  0.6684 -0.1687  0.3251
 7418SOL    HW133890   0.726   4.467   9.259  1.8175 -0.2466 -1.8846
 7418SOL    HW233891   0.630   4.360   9.299  0.3864 -1.7728 -0.7007
 7419SOL     OW33892   1.357   0.248  14.062 -0.3253 -0.1106 -0.2458
 7419SOL    HW133893   1.355   0.335  14.101  1.7905  0.6357 -1.7508
 7419SOL    HW233894   1.441   0.255  14.016 -0.0679  1.0952  0.4419
 7420SOL     OW33895   4.002   4.395  11.916 -0.0964  0.3947 -0.0271
 7420SOL    HW133896   3.989   4.368  11.825  1.5460 -1.6343  0.3310
 7420SOL    HW233897   3.942   4.469  11.908 -1.7636 -1.1031 -1.1286
 7421SOL     OW33898   1.527   3.640  16.441  0.0730  0.7792  0.8325
 7421SOL    HW133899   1.551   3.564  16.388  0.8284  0.9877  0.8773
 7421SOL    HW233900   1.584   3.709  16.406  0.3248  1.5520  2.7602
 7422SOL     OW33901   2.395   0.650  13.840 -0.2924 -0.3037  0.0357
 7422SOL    HW133902   2.480   0.632  13.881 -0.3504 -1.2565 -0.2648
 7422SOL    HW233903   2.350   0.586  13.895 -1.6085  1.0083  0.4780
 7423SOL     OW33904   1.764   3.811   8.961  0.6123  1.0647 -0.2576
 7423SOL    HW133905   1.811   3.890   8.934  1.6438  0.4374 -0.3053
 7423SOL    HW233906   1.696   3.798   8.894 -1.2400  0.3639  1.7391
 7424SOL     OW33907   1.574   4.087   4.467  0.5531 -0.6459 -0.3851
 7424SOL    HW133908   1.484   4.120   4.466  0.4160 -0.9663  1.9864
 7424SOL    HW233909   1.577   4.055   4.557 -2.3001 -0.3755 -0.2022
 7425SOL     OW33910   4.145   0.414  12.047  0.3234 -0.4418  0.2291
 7425SOL    HW133911   4.075   0.354  12.020 -0.4807  0.2041  0.8898
 7425SOL    HW233912   4.103   0.492  12.082  0.3660  0.3693 -1.5262
 7426SOL     OW33913   1.125   3.156   3.016  0.5133 -0.6652 -0.4956
 7426SOL    HW133914   1.075   3.121   2.942  1.2824 -1.4853 -0.6227
 7426SOL    HW233915   1.077   3.127   3.093 -0.5568  0.4977 -0.7172
 7427SOL     OW33916   0.549   3.704  13.196 -0.2730  0.2404  0.1162
 7427SOL    HW133917   0.575   3.634  13.137  1.0487 -0.2499  1.2715
 7427SOL    HW233918   0.637   3.741  13.208 -0.7111  0.6811  1.9671
 7428SOL     OW33919   1.293   2.394   0.068  0.1070  0.9209  0.5127
 7428SOL    HW133920   1.312   2.311   0.111  0.5811  0.4586 -0.5932
 7428SOL    HW233921   1.241   2.447   0.128 -2.4773  0.1771 -1.0774
 7429SOL     OW33922   0.542   0.351   2.471  0.3715  0.7858 -0.3622
 7429SOL    HW133923   0.530   0.271   2.419  1.2685  0.4688 -0.0841
 7429SOL    HW233924   0.458   0.351   2.516 -0.2617  1.4759 -1.5289
 7430SOL     OW33925   4.255   3.271   6.624 -0.1297  0.8421  0.0372
 7430SOL    HW133926   4.260   3.176   6.634  0.7618  0.7293 -1.4538
 7430SOL    HW233927   4.232   3.286   6.532 -1.9033  0.8896  0.4884
 7431SOL     OW33928   1.567   1.317   7.204 -0.2053  0.4085  0.2293
 7431SOL    HW133929   1.487   1.293   7.251 -0.0051  0.5101  0.6198
 7431SOL    HW233930   1.639   1.281   7.255 -0.5687  0.3404  0.6977
 7432SOL     OW33931   0.381   1.569  14.190 -0.0045  0.2159  0.0926
 7432SOL    HW133932   0.456   1.623  14.166  0.5690 -1.6187 -2.2054
 7432SOL    HW233933   0.319   1.612  14.131  2.0134  0.1623 -2.0533
 7433SOL     OW33934   0.376   4.727  16.723 -0.1543 -0.1175 -0.0745
 7433SOL    HW133935   0.416   4.672  16.656  2.6099  0.5251  1.0445
 7433SOL    HW233936   0.311   4.669  16.763 -0.4676 -0.5293 -1.1691
 7434SOL     OW33937   1.034   0.704   3.846 -0.5495  0.0541 -0.1348
 7434SOL    HW133938   1.030   0.726   3.939  0.2551 -0.1288 -0.0518
 7434SOL    HW233939   1.128   0.691   3.834 -0.9952 -2.6361 -0.6664
 7435SOL     OW33940   3.898   1.584   5.775  0.0728 -0.0754 -0.1565
 7435SOL    HW133941   3.836   1.511   5.769 -0.9031  0.7194  0.2181
 7435SOL    HW233942   3.964   1.549   5.834  0.9294 -0.6980 -1.5041
 7436SOL     OW33943   2.052   3.565   8.279  0.4476 -0.5817  0.0938
 7436SOL    HW133944   2.117   3.509   8.321 -0.7606 -2.4448 -0.5442
 7436SOL    HW233945   2.043   3.527   8.192  3.7678  1.1037 -0.9946
 7437SOL     OW33946   3.555   2.246   8.215  0.0084 -0.7744  0.7418
 7437SOL    HW133947   3.547   2.151   8.219 -0.9418 -0.6741  1.0823
 7437SOL    HW233948   3.508   2.266   8.295  0.3386 -1.2939  1.0650
 7438SOL     OW33949   0.061   0.882  15.612  0.0437  0.5085  0.2215
 7438SOL    HW133950   0.125   0.886  15.683  1.1224  1.3511 -0.8118
 7438SOL    HW233951   0.029   0.792  15.605 -0.8639  1.1443 -3.8294
 7439SOL     OW33952   1.379   2.340   7.057 -0.1882  0.3636 -0.6162
 7439SOL    HW133953   1.453   2.290   7.093  0.7917  0.6982 -2.1541
 7439SOL    HW233954   1.315   2.270   7.051  1.3166 -1.1823  1.3736
 7440SOL     OW33955   2.123   1.144   6.691  0.8342  0.3041 -0.2975
 7440SOL    HW133956   2.083   1.205   6.629 -0.4059 -2.3423 -2.1012
 7440SOL    HW233957   2.216   1.162   6.673  0.3217  2.1733 -1.1027
 7441SOL     OW33958   3.791   4.214   7.204  0.6405  0.4089 -0.3688
 7441SOL    HW133959   3.773   4.270   7.129 -0.7526  0.4966  0.0303
 7441SOL    HW233960   3.777   4.124   7.175  2.3092 -0.0829  0.3547
 7442SOL     OW33961   1.038   1.707   5.557 -0.0908 -0.4382 -0.1514
 7442SOL    HW133962   1.028   1.757   5.476  0.2146 -0.2533 -0.0746
 7442SOL    HW233963   1.026   1.778   5.619  3.1306  0.1532 -0.2245
 7443SOL     OW33964   0.210   3.384   0.510  0.6062 -0.2425 -0.3198
 7443SOL    HW133965   0.269   3.437   0.563  0.3823 -0.2657 -0.0457
 7443SOL    HW233966   0.199   3.437   0.431  0.0613  0.5046  0.2636
 7444SOL     OW33967   0.882   0.501  14.835  0.0295 -1.0058  0.4467
 7444SOL    HW133968   0.937   0.422  14.839 -0.0456 -1.1774 -2.0846
 7444SOL    HW233969   0.834   0.471  14.758  0.8330 -0.2492 -0.3355
 7445SOL     OW33970   3.166   4.266   2.643 -0.1399  0.1020  0.3931
 7445SOL    HW133971   3.129   4.196   2.590 -2.4796 -0.3823  2.6527
 7445SOL    HW233972   3.255   4.233   2.634  0.8148  3.1303 -1.5588
 7446SOL     OW33973   3.854   3.472   4.738  0.6082  0.3461 -0.2462
 7446SOL    HW133974   3.769   3.453   4.777 -0.0768  3.2070 -0.4061
 7446SOL    HW233975   3.881   3.546   4.792 -1.1722  1.6061 -1.0845
 7447SOL     OW33976   0.408   0.048  16.405 -0.2850 -0.5901  0.3700
 7447SOL    HW133977   0.493   0.092  16.409 -1.7036  2.1723  0.4028
 7447SOL    HW233978   0.375   0.073  16.319 -0.6644 -0.9288  0.4174
 7448SOL     OW33979   1.090   1.314  10.817 -0.1424  0.1448 -0.0892
 7448SOL    HW133980   1.146   1.285  10.745 -0.3001 -0.9709  0.2353
 7448SOL    HW233981   1.046   1.392  10.782 -1.8687 -0.8045 -0.0206
 7449SOL     OW33982   1.815   2.189  17.408 -0.2904  0.1167 -0.1192
 7449SOL    HW133983   1.721   2.180  17.397  0.0210  0.7664 -3.4211
 7449SOL    HW233984   1.846   2.227  17.326  1.1965 -3.1123 -1.0481
 7450SOL     OW33985   3.041   0.328   3.050 -0.3867  0.0731 -0.3385
 7450SOL    HW133986   3.110   0.283   3.098 -0.4751 -0.9353 -1.1568
 7450SOL    HW233987   3.072   0.338   2.960  1.5505 -0.8009  0.2392
 7451SOL     OW33988   0.232   2.893   2.202 -0.1993 -0.6774  0.2280
 7451SOL    HW133989   0.292   2.907   2.128 -1.9422  1.7149 -0.7384
 7451SOL    HW233990   0.159   2.947   2.172 -0.7005 -1.6955 -0.4089
 7452SOL     OW33991   0.508   3.303   6.398  0.3145  0.6545 -0.4659
 7452SOL    HW133992   0.489   3.309   6.305 -0.8134 -2.9165 -0.4870
 7452SOL    HW233993   0.599   3.333   6.409  1.1331 -1.4259 -1.5403
 7453SOL     OW33994   2.883   4.567   7.031  0.3529 -0.3882 -0.2058
 7453SOL    HW133995   2.929   4.648   7.010 -0.5409  0.0543 -0.4532
 7453SOL    HW233996   2.794   4.603   7.034 -0.2037 -1.6600 -1.7060
 7454SOL     OW33997   2.939   4.581   2.850  0.1423  0.1537 -0.8232
 7454SOL    HW133998   2.925   4.570   2.944 -1.5455  0.5171 -1.0177
 7454SOL    HW233999   3.034   4.583   2.837  0.3733 -0.4214  0.7374
 7455SOL     OW34000   1.343   1.494   1.336 -0.1204  0.0953  0.3078
 7455SOL    HW134001   1.416   1.437   1.313  0.1455  0.3482  0.5275
 7455SOL    HW234002   1.325   1.486   1.429  0.9070  1.4167  0.6173
 7456SOL     OW34003   4.066   3.232   2.504  0.2089  0.5864 -0.0957
 7456SOL    HW134004   3.981   3.275   2.511 -0.2171 -0.5605  1.9609
 7456SOL    HW234005   4.054   3.200   2.414  0.3215  1.0982 -0.2889
 7457SOL     OW34006   1.131   1.636   6.643 -0.2077  0.4709  0.3456
 7457SOL    HW134007   1.128   1.560   6.702  1.7873  1.5584  1.8307
 7457SOL    HW234008   1.084   1.601   6.567 -0.0733  0.5566  0.2228
 7458SOL     OW34009   3.852   3.894   5.447  0.0102 -0.0223 -0.2776
 7458SOL    HW134010   3.876   3.812   5.406  1.3070 -0.1526  0.7526
 7458SOL    HW234011   3.776   3.928   5.399 -0.2319  1.4736  1.1482
 7459SOL     OW34012   4.559   0.085   7.403  0.1474  0.3998  0.2064
 7459SOL    HW134013   4.477   0.061   7.360  1.5481 -3.6846 -0.2043
 7459SOL    HW234014   4.595   0.124   7.324 -0.8184 -0.3790 -0.6055
 7460SOL     OW34015   3.329   3.250   3.295 -0.6344  0.7953  0.5322
 7460SOL    HW134016   3.326   3.345   3.283 -1.2810  0.5872 -0.9439
 7460SOL    HW234017   3.255   3.227   3.351 -1.2003 -0.6190 -0.7947
 7461SOL     OW34018   1.725   4.582   7.863  0.2506  0.4614  0.1011
 7461SOL    HW134019   1.653   4.579   7.926 -1.2517 -1.1691 -1.6962
 7461SOL    HW234020   1.756   4.671   7.880 -2.0980  1.3816 -0.4444
 7462SOL     OW34021   3.485   2.693   9.918  0.1806 -0.3642  0.3584
 7462SOL    HW134022   3.569   2.712   9.960  0.8962  1.4539 -1.9128
 7462SOL    HW234023   3.512   2.646   9.839 -1.1386  0.6947 -0.7018
 7463SOL     OW34024   4.262   0.656   5.257  0.0803 -0.2313 -0.1282
 7463SOL    HW134025   4.264   0.744   5.296 -2.3219 -0.1754 -0.1632
 7463SOL    HW234026   4.309   0.598   5.317  4.0070  3.1137  0.0685
 7464SOL     OW34027   2.680   1.075   4.056  0.1294 -0.2374  0.3571
 7464SOL    HW134028   2.688   1.094   4.150 -2.9056 -0.4332  0.6275
 7464SOL    HW234029   2.660   1.160   4.017 -1.2195 -0.7183  0.0259
 7465SOL     OW34030   3.204   1.779  12.085  0.5350 -0.3778  0.1308
 7465SOL    HW134031   3.219   1.742  12.172 -2.7995  2.8163  2.0806
 7465SOL    HW234032   3.135   1.842  12.106 -0.3560 -1.0121 -0.9107
 7466SOL     OW34033   1.462   1.922  15.729 -0.5449 -0.5141 -0.5575
 7466SOL    HW134034   1.534   1.981  15.708  0.0634 -0.9925  0.1871
 7466SOL    HW234035   1.503   1.839  15.705 -1.6367 -1.6691  1.5521
 7467SOL     OW34036   1.511   1.529  14.260  0.2570 -0.4056 -0.5220
 7467SOL    HW134037   1.568   1.546  14.335 -0.1443  0.8057 -0.5004
 7467SOL    HW234038   1.442   1.478  14.303 -0.0901 -1.5073 -2.3876
 7468SOL     OW34039   2.410   1.096   9.638  0.0015  0.4082  0.1730
 7468SOL    HW134040   2.487   1.039   9.637  0.6985  1.3315  0.9599
 7468SOL    HW234041   2.411   1.132   9.726 -1.5396  1.1341 -0.0983
 7469SOL     OW34042   4.437   2.151   4.884 -0.5042 -0.6024  0.3761
 7469SOL    HW134043   4.388   2.158   4.802  0.6043 -0.9445 -0.3178
 7469SOL    HW234044   4.496   2.226   4.884 -1.0567 -0.1573 -1.7956
 7470SOL     OW34045   2.768   3.818   7.812 -0.5715 -0.2971  0.9347
 7470SOL    HW134046   2.849   3.866   7.829 -1.9236  1.8406  1.3089
 7470SOL    HW234047   2.798   3.752   7.749 -0.0074  2.2941 -1.4955
 7471SOL     OW34048   3.826   0.770   2.481  0.4428  0.1103 -0.3718
 7471SOL    HW134049   3.833   0.811   2.567  0.7261 -0.4585 -0.1285
 7471SOL    HW234050   3.732   0.777   2.464  0.1125 -0.9950  1.0014
 7472SOL     OW34051   0.465   3.995  16.458 -0.2488  0.9445 -0.0969
 7472SOL    HW134052   0.489   4.074  16.409 -0.9236  0.2550 -1.5197
 7472SOL    HW234053   0.398   3.964  16.398  0.1473  1.4701 -0.8095
 7473SOL     OW34054   4.217   1.619   3.353 -0.3430 -0.3112  0.3592
 7473SOL    HW134055   4.240   1.547   3.411 -0.6176 -0.1374  0.6851
 7473SOL    HW234056   4.248   1.699   3.396 -1.1699 -0.7794  1.8328
 7474SOL     OW34057   2.096   1.684   2.885 -0.4572  0.5440  0.0460
 7474SOL    HW134058   2.176   1.717   2.846 -0.5953  0.3631 -0.3854
 7474SOL    HW234059   2.079   1.607   2.831 -2.0538  0.6880  0.3294
 7475SOL     OW34060   1.907   1.980   2.383 -0.5915  0.0807  0.5566
 7475SOL    HW134061   1.963   2.057   2.372 -0.2779 -0.4011 -1.1462
 7475SOL    HW234062   1.871   1.992   2.471  0.7132  2.9084  0.7234
 7476SOL     OW34063   0.703   4.132   4.788 -0.0603  0.2694  0.7598
 7476SOL    HW134064   0.625   4.107   4.837  0.4799  1.3576  2.2053
 7476SOL    HW234065   0.773   4.091   4.839 -0.2247  0.6296  1.2814
 7477SOL     OW34066   2.511   4.485  15.198  0.3773 -0.0411 -0.1070
 7477SOL    HW134067   2.436   4.516  15.248  0.6524 -2.3324  1.7775
 7477SOL    HW234068   2.483   4.406  15.151  1.3790 -0.6950  0.3759
 7478SOL     OW34069   0.140   3.286   7.531  0.3792  0.2336 -0.3455
 7478SOL    HW134070   0.175   3.292   7.620  1.8187 -0.9747 -0.8358
 7478SOL    HW234071   0.046   3.279   7.549  0.4389 -0.3020 -0.2606
 7479SOL     OW34072   2.284   2.399  12.461 -0.4504  0.4327  0.3659
 7479SOL    HW134073   2.241   2.441  12.386  0.1841 -0.2506 -0.3812
 7479SOL    HW234074   2.251   2.309  12.458 -1.3890  0.7783  0.4525
 7480SOL     OW34075   1.212   3.483   7.460  0.1145  0.6629  0.4135
 7480SOL    HW134076   1.194   3.396   7.427  0.9747 -0.0556  1.8303
 7480SOL    HW234077   1.159   3.539   7.402 -2.8424 -0.1830  2.2948
 7481SOL     OW34078   0.611   1.867   6.627  0.7552 -0.4413  0.5737
 7481SOL    HW134079   0.555   1.792   6.647 -0.8479  0.6630  0.2486
 7481SOL    HW234080   0.689   1.847   6.679  1.1233  1.6774  0.8238
 7482SOL     OW34081   4.410   4.140   3.119 -0.7368  0.0097 -0.2833
 7482SOL    HW134082   4.430   4.097   3.036  2.0200  0.7695 -0.0097
 7482SOL    HW234083   4.414   4.071   3.186 -0.2721 -1.9555 -2.3516
 7483SOL     OW34084   4.322   3.357   7.483 -0.0379 -0.0757 -0.4863
 7483SOL    HW134085   4.348   3.327   7.396  4.5349  0.6895  0.6067
 7483SOL    HW234086   4.378   3.294   7.529 -0.8035 -2.0279 -2.2194
 7484SOL     OW34087   4.133   0.813   5.738  0.1074 -0.8774  0.7791
 7484SOL    HW134088   4.205   0.873   5.718  2.2353 -2.8036  2.5803
 7484SOL    HW234089   4.191   0.739   5.757 -0.0766 -1.1077  0.4397
 7485SOL     OW34090   0.745   2.627  10.384  0.7686  0.2240  0.5319
 7485SOL    HW134091   0.659   2.619  10.425  0.6010  0.1441  0.1618
 7485SOL    HW234092   0.780   2.540  10.404  1.0214 -0.0997 -1.3446
 7486SOL     OW34093   4.177   1.482  16.309  0.2974 -0.2465 -0.5720
 7486SOL    HW134094   4.140   1.531  16.383  1.2495  0.8892 -0.8529
 7486SOL    HW234095   4.266   1.461  16.337  0.4240 -0.6632 -1.3057
 7487SOL     OW34096   4.293   0.818   2.762 -0.0192 -0.1525  0.5038
 7487SOL    HW134097   4.245   0.783   2.687  2.4448 -0.3135 -1.0176
 7487SOL    HW234098   4.383   0.794   2.738 -0.9152 -2.1353 -0.8390
 7488SOL     OW34099   0.552   3.769  16.084  0.8369  0.1551 -0.0669
 7488SOL    HW134100   0.585   3.842  16.032 -0.8644  1.4238  0.6496
 7488SOL    HW234101   0.457   3.773  16.072  0.7149  0.5548  1.0670
 7489SOL     OW34102   4.545   0.231   8.514  0.2718  0.2277 -0.1805
 7489SOL    HW134103   4.612   0.269   8.571  2.0253  1.2577 -2.9633
 7489SOL    HW234104   4.556   0.297   8.446 -0.8520  0.7424  0.1341
 7490SOL     OW34105   0.083   3.461  15.762 -0.0098  0.7218 -0.4572
 7490SOL    HW134106   0.167   3.428  15.794 -2.5794  0.2055  5.6968
 7490SOL    HW234107   0.021   3.395  15.795  0.5472  0.6376  0.4060
 7491SOL     OW34108   1.071   4.697   5.181 -0.1390 -0.4777 -0.0866
 7491SOL    HW134109   1.100   0.004   5.101  0.9857 -0.5741  0.2786
 7491SOL    HW234110   1.011   0.034   5.200 -1.7187 -1.9541  0.6103
 7492SOL     OW34111   0.760   2.818  17.441  0.1229  0.1714 -0.0421
 7492SOL    HW134112   0.827   2.813  17.372  1.2641  1.9736  0.9213
 7492SOL    HW234113   0.824   2.841  17.508  0.4828 -2.3798  0.4671
 7493SOL     OW34114   3.227   3.892   2.003  0.0574 -0.4365  0.0429
 7493SOL    HW134115   3.278   3.814   2.025  2.0721  0.8340 -0.0237
 7493SOL    HW234116   3.152   3.853   1.960 -0.9398  1.6826 -0.1710
 7494SOL     OW34117   1.458   2.625  10.511 -0.2660  0.0764  0.2006
 7494SOL    HW134118   1.388   2.679  10.546 -0.0513 -0.3197  1.2369
 7494SOL    HW234119   1.528   2.668  10.560 -0.3329  0.9002 -0.4308
 7495SOL     OW34120   3.534   0.158  16.774 -0.3496  0.2778  0.0901
 7495SOL    HW134121   3.493   0.202  16.700 -1.0836 -0.3221  0.1347
 7495SOL    HW234122   3.583   0.233  16.807 -1.8793  1.8894 -1.3407
 7496SOL     OW34123   0.251   3.005   1.515  0.3335  0.4854  0.1185
 7496SOL    HW134124   0.178   2.987   1.574  0.7881 -0.3129  0.4328
 7496SOL    HW234125   0.323   3.041   1.566  0.3477 -1.0248  1.1689
 7497SOL     OW34126   2.757   0.818  12.254  0.1134 -0.2259 -0.2365
 7497SOL    HW134127   2.695   0.785  12.190 -0.6853 -0.5795  0.7232
 7497SOL    HW234128   2.779   0.746  12.313 -2.1182  0.2647  1.1873
 7498SOL     OW34129   4.442   4.526   3.371 -0.5065  0.2670 -0.2490
 7498SOL    HW134130   4.463   4.495   3.283  0.7837 -1.3596  0.6323
 7498SOL    HW234131   4.347   4.531   3.377 -0.4928 -1.5496  1.5385
 7499SOL     OW34132   2.129   2.042  16.835 -0.1882  0.5336 -0.6470
 7499SOL    HW134133   2.203   2.051  16.895  0.9016  0.8843 -2.0524
 7499SOL    HW234134   2.068   2.088  16.894 -2.0989 -0.3180 -1.9755
 7500SOL     OW34135   2.221   0.582  13.499  0.5668  0.3272  0.3577
 7500SOL    HW134136   2.153   0.514  13.492  0.9739  0.0778 -1.2437
 7500SOL    HW234137   2.172   0.659  13.472  0.2920  0.9532  2.6380
 7501SOL     OW34138   4.488   3.271   8.167 -0.1051 -0.6231 -0.1610
 7501SOL    HW134139   4.480   3.255   8.261 -2.3427 -0.9638 -0.4209
 7501SOL    HW234140   4.438   3.351   8.149  1.4591  1.0010  2.6714
 7502SOL     OW34141   3.839   0.610  12.072  0.1271  0.1529 -0.0535
 7502SOL    HW134142   3.756   0.624  12.027  0.5623  0.4837 -0.7554
 7502SOL    HW234143   3.897   0.611  11.996  0.4124  0.5387  0.1700
 7503SOL     OW34144   0.585   2.415  10.982  0.2944  0.1772 -0.3151
 7503SOL    HW134145   0.595   2.335  11.034  0.5114  0.2378 -0.2605
 7503SOL    HW234146   0.548   2.484  11.037  0.8879 -0.6888  1.1634
 7504SOL     OW34147   4.652   4.191  16.034  0.3033 -0.4110  0.5531
 7504SOL    HW134148   4.576   4.140  16.005 -0.3473  0.0351  1.4829
 7504SOL    HW234149   4.619   4.223  16.118 -0.9575 -0.5525  0.1197
 7505SOL     OW34150   3.582   0.142   8.396  0.2352  0.2804  0.2242
 7505SOL    HW134151   3.672   0.138   8.363  0.9935  1.9747  2.0262
 7505SOL    HW234152   3.563   0.049   8.409  1.2167 -0.2698 -2.2097
 7506SOL     OW34153   3.055   3.027   5.687  0.4596  0.1578 -0.1792
 7506SOL    HW134154   3.148   3.043   5.705  0.3388 -3.7083  3.9980
 7506SOL    HW234155   3.048   3.029   5.591 -1.4908  1.3952  0.0029
 7507SOL     OW34156   1.112   2.111   4.490 -0.0235 -0.7888 -0.6861
 7507SOL    HW134157   1.193   2.094   4.539 -0.4926  0.4517  0.5223
 7507SOL    HW234158   1.094   2.200   4.522 -0.1846 -0.7026 -1.0183
 7508SOL     OW34159   0.180   1.584   5.615 -0.0803 -0.1645  0.3121
 7508SOL    HW134160   0.222   1.523   5.676 -1.1997 -2.5358 -1.3331
 7508SOL    HW234161   0.088   1.564   5.628 -0.0339 -1.7795 -1.9537
 7509SOL     OW34162   2.224   3.145   6.870 -0.3122 -0.1320  0.4554
 7509SOL    HW134163   2.227   3.147   6.966  1.6184  1.4808  0.3587
 7509SOL    HW234164   2.188   3.060   6.843  2.2585 -1.2501  0.5697
 7510SOL     OW34165   0.440   4.520   3.822  0.5423 -0.0228 -0.5848
 7510SOL    HW134166   0.441   4.565   3.906 -1.6403 -0.5803 -0.2633
 7510SOL    HW234167   0.351   4.533   3.791  1.0606 -0.3191 -2.1931
 7511SOL     OW34168   3.273   1.016   8.476 -0.2474 -0.3115  0.3298
 7511SOL    HW134169   3.241   0.927   8.464 -1.6320  0.3908 -1.1546
 7511SOL    HW234170   3.192   1.067   8.477  0.1910  0.3715  1.1432
 7512SOL     OW34171   0.562   0.349   8.433 -0.3391  0.8447 -0.1812
 7512SOL    HW134172   0.485   0.382   8.480  1.1946  2.1530  1.4235
 7512SOL    HW234173   0.634   0.398   8.471  0.3932  0.0890 -0.6025
 7513SOL     OW34174   2.832   3.714  14.693  0.5371 -0.0667 -0.3732
 7513SOL    HW134175   2.866   3.803  14.701 -0.3734  0.1739  0.7772
 7513SOL    HW234176   2.881   3.697  14.612 -1.4782 -0.1369 -1.5637
 7514SOL     OW34177   2.734   3.075   3.713 -0.1347  0.7700  0.6031
 7514SOL    HW134178   2.725   2.998   3.769  0.6068 -0.9697 -1.6398
 7514SOL    HW234179   2.677   3.057   3.638 -0.4342  1.2299  0.7233
 7515SOL     OW34180   0.857   1.560   6.599 -0.2909  0.1639 -0.6759
 7515SOL    HW134181   0.849   1.648   6.634 -1.8047 -1.2768  2.6018
 7515SOL    HW234182   0.790   1.509   6.644  0.9363  0.0824  1.0772
 7516SOL     OW34183   3.814   3.298   7.185  0.2403  0.5295 -0.2706
 7516SOL    HW134184   3.731   3.275   7.144  1.2190 -2.0975 -0.8111
 7516SOL    HW234185   3.771   3.324   7.266 -0.1617  0.6225 -0.5120
 7517SOL     OW34186   0.126   1.121  14.603 -0.4153  0.1991 -0.5575
 7517SOL    HW134187   0.030   1.120  14.612 -0.5119  1.9614 -1.2680
 7517SOL    HW234188   0.140   1.215  14.614  0.0711  0.0843 -0.2127
 7518SOL     OW34189   0.837   1.433   4.188  0.1157 -0.0726 -0.4831
 7518SOL    HW134190   0.932   1.445   4.178  0.3198 -1.5018 -0.2713
 7518SOL    HW234191   0.836   1.350   4.236 -1.3732  0.1225 -0.1952
 7519SOL     OW34192   2.185   0.478   3.856 -0.7909  0.1005 -0.2644
 7519SOL    HW134193   2.156   0.387   3.855 -0.6614  0.0552  0.0743
 7519SOL    HW234194   2.122   0.519   3.916  1.0943  2.1650  0.3188
 7520SOL     OW34195   2.913   1.722  12.567  0.5080 -0.0502 -0.2368
 7520SOL    HW134196   2.936   1.798  12.620 -0.8678  1.5262 -1.9039
 7520SOL    HW234197   2.819   1.731  12.550  0.4207  0.8745  0.7514
 7521SOL     OW34198   4.005   1.154  17.169 -0.2050 -0.6412 -0.3657
 7521SOL    HW134199   3.952   1.218  17.215 -0.6011 -0.4960 -1.0123
 7521SOL    HW234200   4.088   1.165  17.215 -1.4547  0.7991  1.5060
 7522SOL     OW34201   4.110   0.963   6.732 -0.1187  0.0708  0.0250
 7522SOL    HW134202   4.205   0.973   6.725 -0.0878 -0.7159 -0.7122
 7522SOL    HW234203   4.094   0.894   6.668  1.2825  0.4611 -0.7389
 7523SOL     OW34204   0.757   2.570  16.791 -0.2448  0.5865 -0.8597
 7523SOL    HW134205   0.742   2.509  16.863 -0.3364 -1.0741 -2.2807
 7523SOL    HW234206   0.672   2.611  16.776 -1.4521 -0.9148  1.9180
 7524SOL     OW34207   4.304   1.459  11.388 -0.1001  0.7026 -0.5386
 7524SOL    HW134208   4.277   1.423  11.473  1.2872 -1.3098 -0.9719
 7524SOL    HW234209   4.224   1.509  11.372 -0.0683  0.8572 -0.2138
 7525SOL     OW34210   4.519   0.341   6.576 -0.2348  0.2828  0.2291
 7525SOL    HW134211   4.449   0.326   6.512  0.3122 -1.2939 -0.0053
 7525SOL    HW234212   4.509   0.436   6.576 -0.6115  0.2398  1.1916
 7526SOL     OW34213   4.449   2.793   6.341  0.4686  0.3044 -0.1052
 7526SOL    HW134214   4.496   2.758   6.265  0.2990 -1.8223  0.7542
 7526SOL    HW234215   4.479   2.736   6.412 -0.1907 -2.0821 -1.7444
 7527SOL     OW34216   3.193   4.522  14.124 -0.5306  0.5232  0.0942
 7527SOL    HW134217   3.241   4.604  14.113  1.3226 -0.1664  3.2426
 7527SOL    HW234218   3.222   4.476  14.202 -0.9782 -1.1960 -0.7697
 7528SOL     OW34219   1.627   1.967   3.591  0.0115 -0.0481 -0.6182
 7528SOL    HW134220   1.557   2.009   3.640  0.2343  1.1319 -1.3152
 7528SOL    HW234221   1.685   2.043   3.585  0.9071 -0.6397  0.5984
 7529SOL     OW34222   0.720   3.077   2.615  0.2360 -0.4297  0.4308
 7529SOL    HW134223   0.699   3.127   2.695  0.9288 -0.4005  0.5926
 7529SOL    HW234224   0.639   3.031   2.597  0.3550 -0.2945 -0.4538
 7530SOL     OW34225   3.669   1.471   3.623 -0.7874 -0.1843 -0.2441
 7530SOL    HW134226   3.644   1.392   3.576  0.3844  0.9078 -2.6863
 7530SOL    HW234227   3.742   1.428   3.667  1.2086  1.8700 -1.5371
 7531SOL     OW34228   4.489   3.109   0.277 -0.2470 -0.2886 -0.0835
 7531SOL    HW134229   4.425   3.052   0.235 -0.8071  0.5505 -0.3848
 7531SOL    HW234230   4.545   3.041   0.314  2.1008  0.9312 -1.3790
 7532SOL     OW34231   1.901   1.937   7.811 -1.1230 -0.6253  0.0655
 7532SOL    HW134232   1.899   2.031   7.797 -0.2822 -0.1930  2.9865
 7532SOL    HW234233   1.918   1.901   7.723  0.1405  1.6071 -0.5806
 7533SOL     OW34234   0.920   4.663   8.688  0.1840 -0.0985  0.5618
 7533SOL    HW134235   0.863   4.680   8.763 -0.0698 -1.6901  0.7164
 7533SOL    HW234236   0.905   0.011   8.644  2.6325 -0.2208 -0.4695
 7534SOL     OW34237   3.004   1.148  14.384  0.5241  0.7920  0.0339
 7534SOL    HW134238   2.984   1.240  14.367 -0.2054  0.7712  0.7596
 7534SOL    HW234239   2.947   1.126  14.458  0.0618 -0.1216 -0.5934
 7535SOL     OW34240   1.429   3.384   5.972  0.7180  0.3885 -0.2664
 7535SOL    HW134241   1.518   3.395   6.005  0.6643 -1.2240  0.4209
 7535SOL    HW234242   1.385   3.339   6.044  2.3770  2.2556  1.9263
 7536SOL     OW34243   3.388   3.418   6.254  0.1773 -0.6959 -0.2403
 7536SOL    HW134244   3.440   3.498   6.259  0.1657 -0.7455  0.7391
 7536SOL    HW234245   3.449   3.345   6.242 -0.9859 -1.7336  0.1246
 7537SOL     OW34246   2.060   2.825   4.616 -0.3633  0.4792 -0.3396
 7537SOL    HW134247   1.994   2.802   4.681  0.2463  0.6772  0.3440
 7537SOL    HW234248   2.123   2.756   4.635  0.5390  1.1275 -0.9299
 7538SOL     OW34249   0.819   1.206  14.340  0.2737 -0.3216  0.2049
 7538SOL    HW134250   0.841   1.295  14.368 -1.5594 -0.3765  1.8561
 7538SOL    HW234251   0.755   1.176  14.405  0.5481  0.7384  0.9678
 7539SOL     OW34252   2.583   4.199  11.251 -0.3678 -0.4797 -0.0337
 7539SOL    HW134253   2.518   4.238  11.308  0.4156 -0.8157  1.0975
 7539SOL    HW234254   2.540   4.117  11.223 -0.2048 -0.1441 -1.2811
 7540SOL     OW34255   0.387   3.732   1.410 -0.6454 -0.2066  0.2240
 7540SOL    HW134256   0.380   3.676   1.487 -1.4566  1.1770  1.1551
 7540SOL    HW234257   0.390   3.664   1.343 -0.4693  0.3105 -0.2874
 7541SOL     OW34258   0.316   4.030  11.471  0.6640 -0.2285 -0.0884
 7541SOL    HW134259   0.389   4.003  11.526  1.3920  1.2233 -0.3206
 7541SOL    HW234260   0.336   4.123  11.481 -1.7684  0.3056 -0.2441
 7542SOL     OW34261   1.092   3.474  13.505  0.1241  0.0349 -0.2797
 7542SOL    HW134262   1.164   3.498  13.447  1.5552  0.7647  1.8322
 7542SOL    HW234263   1.112   3.528  13.581 -1.7189 -0.6672  0.7082
 7543SOL     OW34264   4.247   1.253   6.348  0.1566 -0.2438  0.6162
 7543SOL    HW134265   4.312   1.264   6.417 -1.0281  1.1196  1.5101
 7543SOL    HW234266   4.204   1.170   6.369 -0.8938  0.6342  1.9406
 7544SOL     OW34267   0.164   2.698   0.190  0.3786 -0.2734  0.1457
 7544SOL    HW134268   0.124   2.656   0.266  1.8227  0.7844  1.4976
 7544SOL    HW234269   0.151   2.793   0.189 -3.4743 -0.8159 -0.6760
 7545SOL     OW34270   3.485   0.887   3.766  0.4155 -0.1815 -0.1667
 7545SOL    HW134271   3.579   0.905   3.772  1.0749 -2.5632 -3.1957
 7545SOL    HW234272   3.484   0.801   3.724 -2.7592 -0.5177  0.5931
 7546SOL     OW34273   4.143   3.777  13.777 -0.0811 -0.8721 -0.0019
 7546SOL    HW134274   4.130   3.858  13.825  1.7980 -0.6664  0.1780
 7546SOL    HW234275   4.102   3.715  13.837  1.5876 -0.7784  1.2465
 7547SOL     OW34276   1.613   2.438   5.701  0.0812 -0.4878  0.1525
 7547SOL    HW134277   1.628   2.434   5.796 -2.2412  0.6388  0.5732
 7547SOL    HW234278   1.569   2.523   5.689  3.5323  1.2526 -0.1077
 7548SOL     OW34279   2.708   3.682   2.784 -0.8367  0.1157  0.0218
 7548SOL    HW134280   2.633   3.712   2.733 -1.7022  0.5999  1.5999
 7548SOL    HW234281   2.770   3.664   2.713 -1.5695 -0.1057 -0.5665
 7549SOL     OW34282   2.903   0.685   8.295 -0.0271 -0.2933  0.4009
 7549SOL    HW134283   2.926   0.592   8.297  1.7630  0.1076 -1.2380
 7549SOL    HW234284   2.812   0.689   8.264 -0.5317  0.5855  1.9972
 7550SOL     OW34285   2.146   1.412   1.660  0.5707 -0.0237 -0.5029
 7550SOL    HW134286   2.146   1.395   1.755 -1.0852 -1.9647 -0.8516
 7550SOL    HW234287   2.216   1.477   1.653 -1.2523  1.8727 -1.0178
 7551SOL     OW34288   2.233   1.175   8.501  0.3262  0.2615  0.0309
 7551SOL    HW134289   2.239   1.089   8.544  2.2296  0.4102  0.0846
 7551SOL    HW234290   2.142   1.203   8.503  0.1205 -0.2463 -2.4144
 7552SOL     OW34291   0.699   1.537   2.647  0.1786  0.1259  0.2703
 7552SOL    HW134292   0.755   1.460   2.657 -0.5182 -0.2315  1.5115
 7552SOL    HW234293   0.743   1.580   2.573 -0.3935 -1.5896 -1.0635
 7553SOL     OW34294   0.473   2.630   4.211 -0.0670  0.0386 -0.3046
 7553SOL    HW134295   0.468   2.579   4.291  0.0142 -0.0731 -0.3713
 7553SOL    HW234296   0.484   2.563   4.143 -2.1455  2.1501 -2.7379
 7554SOL     OW34297   3.462   0.806  11.395 -0.3340 -0.6636  0.6131
 7554SOL    HW134298   3.423   0.722  11.370 -1.9756  0.1748  0.3094
 7554SOL    HW234299   3.382   0.855  11.415 -0.1647 -1.0119  2.1277
 7555SOL     OW34300   0.270   4.644   4.925 -0.0851  0.5340  0.0200
 7555SOL    HW134301   0.335   4.707   4.893  0.3758  0.5491  0.9632
 7555SOL    HW234302   0.288   4.648   5.019  1.4061 -1.0175 -0.2004
 7556SOL     OW34303   1.880   2.071  15.041 -0.1160  0.3688 -0.8677
 7556SOL    HW134304   1.974   2.082  15.055  0.4853 -1.7682 -3.2129
 7556SOL    HW234305   1.852   2.062  15.132  1.9906  0.4621 -0.2204
 7557SOL     OW34306   0.084   4.257   6.531  0.5444  0.6030 -0.0975
 7557SOL    HW134307   0.002   4.208   6.523  1.2440 -0.9274  2.3809
 7557SOL    HW234308   0.041   4.343   6.540 -0.1164  0.2785 -0.1197
 7558SOL     OW34309   3.666   2.305   4.892  0.2130 -0.3007  0.1883
 7558SOL    HW134310   3.611   2.381   4.876  0.1340 -0.4840 -0.3961
 7558SOL    HW234311   3.754   2.323   4.860 -0.0845 -0.6717 -0.8302
 7559SOL     OW34312   3.080   3.779   9.924 -0.2096 -0.1430  0.0639
 7559SOL    HW134313   3.002   3.732   9.897  0.8885 -1.5242 -0.7013
 7559SOL    HW234314   3.069   3.793  10.018  1.4620  1.2848  0.0473
 7560SOL     OW34315   0.599   2.873   4.197 -0.3187  0.1364  0.2430
 7560SOL    HW134316   0.573   2.784   4.221 -1.4702 -0.0627 -1.6341
 7560SOL    HW234317   0.618   2.914   4.281 -1.2858  0.9336  0.0834
 7561SOL     OW34318   2.487   3.136   9.568  0.3664 -0.3093 -0.6154
 7561SOL    HW134319   2.491   3.225   9.533 -0.1298 -0.1376 -0.2381
 7561SOL    HW234320   2.542   3.147   9.647  2.6391 -1.8446 -1.9865
 7562SOL     OW34321   0.765   2.916   1.556 -0.4063 -0.3545 -0.1530
 7562SOL    HW134322   0.726   2.844   1.604  0.2586 -1.1024 -0.7386
 7562SOL    HW234323   0.813   2.878   1.482  0.3523  2.5940 -1.1761
 7563SOL     OW34324   0.589   2.752   2.699 -0.4217 -0.3207 -0.0253
 7563SOL    HW134325   0.565   2.799   2.778  0.9119 -0.9384  0.7489
 7563SOL    HW234326   0.499   2.722   2.683  0.4361 -1.9032 -1.9343
 7564SOL     OW34327   3.371   1.718   6.985 -0.2701  0.1393  0.1804
 7564SOL    HW134328   3.351   1.651   7.050  0.2528  0.2376  0.4467
 7564SOL    HW234329   3.294   1.706   6.930 -0.0248  0.6161 -0.2676
 7565SOL     OW34330   3.309   3.666  15.861  0.2964  0.5783  0.5775
 7565SOL    HW134331   3.319   3.724  15.786 -1.6194  2.3376  1.6730
 7565SOL    HW234332   3.315   3.727  15.935 -0.8565 -2.0583  2.8619
 7566SOL     OW34333   4.105   1.011   6.407 -0.3254 -0.0509  0.1388
 7566SOL    HW134334   4.114   0.922   6.441  1.1198  0.0362 -0.0016
 7566SOL    HW234335   4.064   1.005   6.321 -0.0088  0.4544 -0.0455
 7567SOL     OW34336   1.433   0.984   5.303 -0.0480 -0.0991  0.8716
 7567SOL    HW134337   1.460   0.919   5.238 -0.4950 -0.5789  1.1674
 7567SOL    HW234338   1.509   1.042   5.303 -0.2283  0.1378  0.5978
 7568SOL     OW34339   0.512   1.437  10.502 -0.5791  0.8928 -1.0363
 7568SOL    HW134340   0.548   1.452  10.414  0.5653  0.9136 -0.5730
 7568SOL    HW234341   0.558   1.354  10.517 -0.5190  1.1096 -0.0335
 7569SOL     OW34342   4.170   1.548   1.780 -0.1766 -0.3435  0.3677
 7569SOL    HW134343   4.161   1.549   1.684 -1.8473  1.8459  0.5453
 7569SOL    HW234344   4.123   1.467   1.796 -0.7268 -0.3377 -1.2059
 7570SOL     OW34345   0.706   1.515  14.151  0.0660  0.0126 -0.1121
 7570SOL    HW134346   0.670   1.557  14.073 -2.1707 -2.5633 -0.4945
 7570SOL    HW234347   0.799   1.507  14.134  0.4076  1.6247  1.0753
 7571SOL     OW34348   0.812   1.148   2.889 -0.3738  0.0588  0.2762
 7571SOL    HW134349   0.725   1.186   2.880 -0.9348 -0.8946  1.6861
 7571SOL    HW234350   0.862   1.203   2.828 -0.8094  1.5794  1.2969
 7572SOL     OW34351   2.510   2.271   9.306  0.2665 -0.1682  0.0654
 7572SOL    HW134352   2.526   2.363   9.330 -1.5958  0.5867 -1.6148
 7572SOL    HW234353   2.543   2.226   9.384 -1.0164 -0.7730  0.2560
 7573SOL     OW34354   0.024   2.444   7.811 -0.2302  0.1616  0.9726
 7573SOL    HW134355   0.028   2.349   7.806  0.2347  0.3249 -2.0397
 7573SOL    HW234356   0.086   2.481   7.748 -1.0525 -1.7464 -0.9625
 7574SOL     OW34357   4.442   4.235   6.933  0.0201  0.2114  0.3486
 7574SOL    HW134358   4.529   4.266   6.907  0.1892 -2.1632 -1.9663
 7574SOL    HW234359   4.409   4.310   6.981  1.8241  1.0505  0.2778
 7575SOL     OW34360   4.483   1.213  15.212 -0.3873 -0.5120 -0.7953
 7575SOL    HW134361   4.402   1.261  15.192  0.0670 -0.4047 -2.3893
 7575SOL    HW234362   4.453   1.144  15.271  0.9014  1.0200  1.5916
 7576SOL     OW34363   1.429   3.412   3.323 -0.3914 -0.2161 -0.0853
 7576SOL    HW134364   1.470   3.480   3.269  0.8028  0.7811  2.1000
 7576SOL    HW234365   1.438   3.353   3.249 -0.7822  0.5524 -0.7564
 7577SOL     OW34366   0.035   2.717   2.277  0.1220  0.0411 -0.3357
 7577SOL    HW134367   0.052   2.629   2.310 -0.5554  0.2136  0.4651
 7577SOL    HW234368   0.123   2.750   2.261  0.4461  0.3467  2.1195
 7578SOL     OW34369   3.927   0.633   1.547  0.1427 -0.3519 -0.5157
 7578SOL    HW134370   3.992   0.669   1.607 -0.0951 -1.4953  0.4341
 7578SOL    HW234371   3.984   0.581   1.491  0.9431  2.0600 -1.9454
 7579SOL     OW34372   0.801   1.310   7.353 -0.2266  0.9929  0.7981
 7579SOL    HW134373   0.734   1.356   7.303  0.8548  0.9286 -0.7142
 7579SOL    HW234374   0.772   1.221   7.334  0.6953  1.0641 -0.9237
 7580SOL     OW34375   3.024   2.780   8.730 -0.0782  0.1857  0.1347
 7580SOL    HW134376   2.978   2.704   8.694  0.2903 -0.2013  0.4874
 7580SOL    HW234377   3.025   2.842   8.657 -0.7577  1.4513  1.2170
 7581SOL     OW34378   3.266   2.926   9.537 -0.3124  0.8987 -0.3398
 7581SOL    HW134379   3.272   3.019   9.559  0.6847  0.3308  1.7774
 7581SOL    HW234380   3.349   2.892   9.570  0.0968  0.8687 -1.3844
 7582SOL     OW34381   3.842   1.797   3.152 -0.2932  0.4037  0.0344
 7582SOL    HW134382   3.802   1.723   3.198 -0.5726 -0.7446 -2.0535
 7582SOL    HW234383   3.800   1.785   3.067 -2.3447 -0.0681  1.1047
 7583SOL     OW34384   0.139   3.549   5.578 -0.4146  0.6550 -0.4175
 7583SOL    HW134385   0.179   3.518   5.660  1.1008 -0.7838 -1.7056
 7583SOL    HW234386   0.059   3.584   5.618 -0.4934 -0.2874  0.2498
 7584SOL     OW34387   0.756   4.536  14.399  0.3881  0.8230  0.1905
 7584SOL    HW134388   0.769   4.502  14.310 -1.9883  0.7689 -0.1240
 7584SOL    HW234389   0.713   4.461  14.439  1.9343  0.1134  0.5124
 7585SOL     OW34390   1.636   3.558   2.922  0.7080 -0.1109  0.1557
 7585SOL    HW134391   1.660   3.473   2.884  2.3082  0.5355 -0.3161
 7585SOL    HW234392   1.591   3.597   2.847  1.6298  1.0936  0.2328
 7586SOL     OW34393   0.925   3.876   3.002 -0.0744  1.1471  0.4134
 7586SOL    HW134394   0.865   3.948   3.023  0.2658  1.7478 -0.6228
 7586SOL    HW234395   0.869   3.802   3.025  1.3502 -0.4113 -1.0315
 7587SOL     OW34396   2.558   4.668   3.683 -0.1225 -0.3139 -0.1265
 7587SOL    HW134397   2.493   4.638   3.747  1.3211  3.5643  3.1531
 7587SOL    HW234398   2.505   0.001   3.644 -0.6540 -1.0236 -0.6504
 7588SOL     OW34399   1.153   4.036   4.205 -0.5599  0.5234 -0.7805
 7588SOL    HW134400   1.247   4.029   4.225 -0.9161 -0.4700  0.4846
 7588SOL    HW234401   1.138   3.942   4.205  0.1134  0.4183 -2.0509
 7589SOL     OW34402   4.036   1.196   2.531 -0.5154 -0.2423  0.2912
 7589SOL    HW134403   3.994   1.282   2.523 -1.8028 -1.1051 -2.2811
 7589SOL    HW234404   4.081   1.196   2.615  2.6973 -1.8547 -1.4331
 7590SOL     OW34405   4.665   0.843   9.330 -0.0022  0.1548 -0.0125
 7590SOL    HW134406   4.711   0.768   9.369  0.9715  2.1081  2.6350
 7590SOL    HW234407   4.579   0.823   9.368  0.6113 -1.6062  0.4627
 7591SOL     OW34408   1.327   2.293   6.750  0.2585 -0.1362 -0.4910
 7591SOL    HW134409   1.237   2.311   6.723  0.3355  3.3545  1.6028
 7591SOL    HW234410   1.336   2.305   6.844 -0.3883 -0.0137 -0.4421
 7592SOL     OW34411   2.361   0.795   2.973 -0.3024 -0.6235 -0.0767
 7592SOL    HW134412   2.442   0.801   2.922 -0.1849 -0.8376  0.0852
 7592SOL    HW234413   2.360   0.700   2.985  0.4642 -0.7928 -1.3766
 7593SOL     OW34414   2.209   4.013  10.388 -0.2400  1.0681  0.7316
 7593SOL    HW134415   2.154   4.013  10.310 -0.1689  2.7310  0.6643
 7593SOL    HW234416   2.149   3.967  10.446  1.7158 -0.9803  1.1177
 7594SOL     OW34417   2.343   1.304  14.676 -0.1180  0.3373  0.0611
 7594SOL    HW134418   2.375   1.386  14.639 -1.2510  1.1993  0.9925
 7594SOL    HW234419   2.253   1.333  14.688  0.3768  1.1654  1.8638
 7595SOL     OW34420   3.532   2.016  17.408  0.5899  0.0195  0.4043
 7595SOL    HW134421   3.492   1.990  17.325 -1.9256  0.3379  1.5122
 7595SOL    HW234422   3.451   2.034  17.457  0.4451 -0.5697  0.3812
 7596SOL     OW34423   1.067   2.025   6.827  0.1782 -0.5781 -0.2468
 7596SOL    HW134424   1.008   2.046   6.899  0.2747 -1.2688  0.0310
 7596SOL    HW234425   1.108   2.111   6.817  1.5654 -1.0567  1.2444
 7597SOL     OW34426   1.958   3.822   5.375  0.4838  0.2350 -0.5297
 7597SOL    HW134427   2.035   3.838   5.320 -0.1155 -0.0222 -1.4544
 7597SOL    HW234428   1.897   3.876   5.326 -1.6367 -1.3349  0.3971
 7598SOL     OW34429   1.567   4.091   7.747  0.1471 -0.5413  0.1474
 7598SOL    HW134430   1.574   4.000   7.716  1.5901 -1.2975  2.6996
 7598SOL    HW234431   1.585   4.084   7.841  0.7482  0.6620  0.1240
 7599SOL     OW34432   0.678   3.445  10.538 -0.3403  0.3937  0.6305
 7599SOL    HW134433   0.636   3.371  10.493  1.5863 -0.2857 -0.0609
 7599SOL    HW234434   0.772   3.426  10.532  0.0425  2.4482  0.4116
 7600SOL     OW34435   3.398   4.599   7.833 -0.1113  0.3345  0.1566
 7600SOL    HW134436   3.365   4.680   7.871 -0.7901  1.2166 -2.3420
 7600SOL    HW234437   3.477   4.637   7.795 -1.7681  1.3307 -2.3550
 7601SOL     OW34438   4.619   2.811   3.409  0.0326  0.0002 -0.7879
 7601SOL    HW134439   4.675   2.774   3.477 -0.1372  2.1248  0.5172
 7601SOL    HW234440   4.667   2.791   3.329  1.3453 -1.2239  0.3145
 7602SOL     OW34441   1.786   0.181   2.066  0.5943 -0.2986  0.2837
 7602SOL    HW134442   1.731   0.112   2.029  0.2633 -1.5942  3.2220
 7602SOL    HW234443   1.862   0.129   2.092  0.6960  0.2385  1.0548
 7603SOL     OW34444   2.149   1.723  16.785  0.0755  0.5135  0.1136
 7603SOL    HW134445   2.132   1.790  16.851  1.1840  0.3729  0.5343
 7603SOL    HW234446   2.090   1.655  16.818  0.8727 -0.8124 -1.1939
 7604SOL     OW34447   2.624   1.138   7.964 -0.0282 -0.3564  0.3103
 7604SOL    HW134448   2.564   1.209   7.986  1.0041 -0.3277  3.1165
 7604SOL    HW234449   2.700   1.148   8.022 -0.8279 -3.6635  1.9357
 7605SOL     OW34450   3.376   3.384   4.091 -0.1444  0.1180 -0.2345
 7605SOL    HW134451   3.325   3.326   4.147  1.1352 -1.4562 -0.7157
 7605SOL    HW234452   3.402   3.429   4.172  3.0662  1.4923 -2.0427
 7606SOL     OW34453   4.080   3.973   5.071 -0.3465  0.3013  0.1381
 7606SOL    HW134454   4.029   3.978   4.991  0.8551 -0.9556 -0.7075
 7606SOL    HW234455   4.054   4.054   5.115  2.4374 -0.4927  3.2509
 7607SOL     OW34456   1.492   3.549  11.135 -0.0792 -0.4901  0.7614
 7607SOL    HW134457   1.436   3.627  11.138 -0.1745 -0.4937 -0.7741
 7607SOL    HW234458   1.439   3.490  11.189  0.8987 -0.3663  1.8646
 7608SOL     OW34459   0.498   4.564  16.511 -0.0053 -0.2115 -0.1460
 7608SOL    HW134460   0.453   4.634  16.463 -1.5253  0.1787  1.8729
 7608SOL    HW234461   0.564   4.546  16.443 -0.9703 -0.5467 -1.0027
 7609SOL     OW34462   2.272   2.004   4.480 -0.2071  0.4816  0.2535
 7609SOL    HW134463   2.306   2.056   4.407  1.6377  0.0830  0.8485
 7609SOL    HW234464   2.205   2.062   4.516 -2.1124 -0.0910 -2.3484
 7610SOL     OW34465   1.903   2.208  14.247 -0.3356  0.0449 -0.3158
 7610SOL    HW134466   1.935   2.221  14.158  3.4743  0.1968  1.0765
 7610SOL    HW234467   1.845   2.133  14.238 -2.3349  1.6398 -0.8938
 7611SOL     OW34468   4.208   0.777   7.451  0.2121  0.2361 -0.2775
 7611SOL    HW134469   4.140   0.824   7.499 -0.8550 -3.0414  1.3937
 7611SOL    HW234470   4.163   0.752   7.370 -1.0799  3.8168 -0.6721
 7612SOL     OW34471   2.058   4.213   7.092  0.1882  0.2961  0.1631
 7612SOL    HW134472   2.025   4.279   7.030 -0.7778 -2.3088 -2.1038
 7612SOL    HW234473   2.153   4.210   7.081  0.3175  1.5502  0.9176
 7613SOL     OW34474   1.383   0.120   4.210 -0.1816  0.5100 -0.1212
 7613SOL    HW134475   1.302   0.098   4.165 -0.0257  0.4736 -0.3849
 7613SOL    HW234476   1.442   0.091   4.140  0.2596  0.7075  0.1743
 7614SOL     OW34477   1.794   3.735   4.305 -0.2681  0.6520 -0.4104
 7614SOL    HW134478   1.837   3.712   4.387 -0.6781  0.9720 -0.1087
 7614SOL    HW234479   1.714   3.775   4.339 -0.4309  0.4393 -0.5436
 7615SOL     OW34480   0.778   3.709  10.716  0.0673 -0.4289  0.0158
 7615SOL    HW134481   0.732   3.627  10.700  0.7213 -0.4082 -1.9672
 7615SOL    HW234482   0.707   3.765  10.745  1.2009  1.6258 -1.1363
 7616SOL     OW34483   1.498   1.011   4.881  0.8091 -0.2151  0.4460
 7616SOL    HW134484   1.437   0.968   4.822 -1.0122  1.2380  1.2699
 7616SOL    HW234485   1.538   0.934   4.921 -1.2199 -1.6056 -0.2141
 7617SOL     OW34486   1.874   4.291   6.681  0.2397 -0.5891 -0.0557
 7617SOL    HW134487   1.896   4.285   6.588 -1.3114 -0.5014 -0.4137
 7617SOL    HW234488   1.852   4.198   6.693  2.2188 -1.2654 -1.6272
 7618SOL     OW34489   3.513   3.352   2.517  0.0927 -0.1285  0.8345
 7618SOL    HW134490   3.551   3.266   2.533  2.4419  0.9916  1.1902
 7618SOL    HW234491   3.461   3.360   2.597 -0.1353  2.3853  0.4184
 7619SOL     OW34492   2.480   1.544   3.473 -0.6003 -0.1897 -0.1387
 7619SOL    HW134493   2.533   1.466   3.460  0.6292  0.4822  0.7853
 7619SOL    HW234494   2.432   1.520   3.553 -0.9188 -1.2640 -0.6590
 7620SOL     OW34495   2.795   0.874  13.624 -0.2421 -0.4980 -0.1353
 7620SOL    HW134496   2.732   0.930  13.670 -2.5399 -0.6505 -3.1375
 7620SOL    HW234497   2.847   0.944  13.585 -1.8281  0.5367 -0.4192
 7621SOL     OW34498   2.524   0.210  12.350 -0.1925  0.2331 -0.3251
 7621SOL    HW134499   2.546   0.213  12.443 -0.7001  1.1040 -0.2350
 7621SOL    HW234500   2.539   0.117  12.334  2.0093  0.2820  1.3778
 7622SOL     OW34501   3.908   3.702  11.073 -0.2479 -0.0699  0.1796
 7622SOL    HW134502   3.941   3.632  11.017 -0.9582  0.1610 -0.5376
 7622SOL    HW234503   3.814   3.681  11.077  0.0892 -1.5589  0.1787
 7623SOL     OW34504   2.484   2.681   4.853 -0.0442  0.3237 -0.5460
 7623SOL    HW134505   2.442   2.762   4.826 -0.7635 -0.0512 -0.5498
 7623SOL    HW234506   2.575   2.709   4.868 -0.2862  2.4627 -3.1917
 7624SOL     OW34507   1.748   3.668   8.692 -0.0232 -0.0888  0.3935
 7624SOL    HW134508   1.770   3.759   8.710  1.8126 -0.4127 -0.2624
 7624SOL    HW234509   1.758   3.657   8.598 -0.6135 -0.0463  0.3218
 7625SOL     OW34510   0.687   2.228   0.811 -0.0402 -0.1508  0.4026
 7625SOL    HW134511   0.622   2.288   0.847  0.7412  1.1530 -0.3555
 7625SOL    HW234512   0.630   2.152   0.804  2.6261 -1.8882 -2.3496
 7626SOL     OW34513   0.012   2.608   7.405  0.3306  0.3803  0.0690
 7626SOL    HW134514   0.094   2.589   7.450  0.9828  0.2118 -1.1816
 7626SOL    HW234515   4.692   2.533   7.426  2.2924 -0.9404  0.5502
 7627SOL     OW34516   1.798   0.624   1.562  0.4059 -0.2288 -0.1581
 7627SOL    HW134517   1.852   0.593   1.635 -0.6612  0.7524  1.0386
 7627SOL    HW234518   1.819   0.560   1.493  0.8935  2.3408 -2.4169
 7628SOL     OW34519   3.502   0.045   7.094  0.0539 -0.0851 -0.0499
 7628SOL    HW134520   3.540   4.694   7.076  1.5606  0.2339  1.6140
 7628SOL    HW234521   3.569   0.087   7.148 -0.3498 -0.5749  0.8147
 7629SOL     OW34522   4.495   4.135   2.496 -0.2286  0.5474  0.0290
 7629SOL    HW134523   4.559   4.197   2.532  0.1726 -0.6946  1.4569
 7629SOL    HW234524   4.471   4.183   2.417  2.2506 -0.7377 -1.5303
 7630SOL     OW34525   4.156   2.936   9.430 -0.4758  0.1161  0.8664
 7630SOL    HW134526   4.208   3.009   9.394 -1.3026 -0.3156 -1.1759
 7630SOL    HW234527   4.219   2.900   9.493  0.2173  0.3454  0.3100
 7631SOL     OW34528   1.689   1.580   1.352 -0.7120 -0.7127  0.0751
 7631SOL    HW134529   1.619   1.631   1.311 -2.4459 -2.1107  1.2631
 7631SOL    HW234530   1.651   1.501   1.391  0.1892 -1.2917 -0.2132
 7632SOL     OW34531   4.690   0.717   4.581  0.2899 -0.4636  0.1724
 7632SOL    HW134532   4.637   0.706   4.503 -1.3885  0.3999  1.1892
 7632SOL    HW234533   4.627   0.731   4.652 -1.1788 -3.9924 -0.4390
 7633SOL     OW34534   0.165   2.510  14.309  0.0357 -0.1876 -0.4106
 7633SOL    HW134535   0.100   2.458  14.356  0.8816 -0.2592  0.6936
 7633SOL    HW234536   0.242   2.502  14.366 -1.0386 -0.9870  0.9172
 7634SOL     OW34537   0.284   1.476  17.575 -0.0866  0.0311  0.2985
 7634SOL    HW134538   0.349   1.490  17.505 -1.1428 -0.0171 -0.6825
 7634SOL    HW234539   0.236   1.408  17.529  0.4687 -0.3043  0.2142
 7635SOL     OW34540   2.600   1.286   4.829  0.0778  0.0091  0.3064
 7635SOL    HW134541   2.658   1.319   4.760 -3.3569  0.5957 -2.2655
 7635SOL    HW234542   2.638   1.327   4.907 -0.3467  1.1387 -0.0871
 7636SOL     OW34543   2.622   0.459  15.707  0.4697 -0.0709  0.1251
 7636SOL    HW134544   2.633   0.396  15.778  1.3102 -2.0609 -1.7794
 7636SOL    HW234545   2.704   0.450  15.658  0.6532 -1.8083  0.7857
 7637SOL     OW34546   2.598   2.601   3.860 -0.6196  0.1285  0.2482
 7637SOL    HW134547   2.631   2.512   3.851 -0.6765  0.1174  0.1393
 7637SOL    HW234548   2.506   2.588   3.885 -0.9582 -0.0365 -1.0933
 7638SOL     OW34549   1.316   4.460   6.487 -0.4672 -0.3117 -0.5580
 7638SOL    HW134550   1.347   4.529   6.428 -1.4836 -0.1943 -0.9579
 7638SOL    HW234551   1.385   4.453   6.553  0.1671 -0.0372 -1.1875
 7639SOL     OW34552   2.931   4.163   6.476  0.3938 -0.2199  0.2984
 7639SOL    HW134553   2.866   4.210   6.529  0.6269 -2.1083  2.2678
 7639SOL    HW234554   2.916   4.072   6.504 -0.7268 -1.1451 -3.2930
 7640SOL     OW34555   3.014   1.375  10.838 -0.4262 -0.1735 -0.1727
 7640SOL    HW134556   3.075   1.419  10.897 -0.3694  0.2020 -0.5148
 7640SOL    HW234557   3.041   1.284  10.853 -0.1493 -0.0893 -0.1486
 7641SOL     OW34558   2.473   0.540   4.597  0.3521 -0.4483 -0.4552
 7641SOL    HW134559   2.503   0.449   4.600  1.0051 -0.3309 -3.5653
 7641SOL    HW234560   2.550   0.594   4.577  1.3473 -2.1422 -1.2177
 7642SOL     OW34561   1.861   3.066   1.598  0.4262 -0.2349 -0.1296
 7642SOL    HW134562   1.838   2.973   1.589  0.6119 -0.2931 -0.0135
 7642SOL    HW234563   1.784   3.103   1.642  0.6892  0.1758 -0.0108
 7643SOL     OW34564   1.529   0.157   4.454 -0.5430 -0.0921 -0.2470
 7643SOL    HW134565   1.492   0.138   4.368  2.4514  0.0502 -1.5838
 7643SOL    HW234566   1.456   0.143   4.514  0.5972 -1.9309  0.7205
 7644SOL     OW34567   0.761   4.600   6.886 -0.4778 -0.2784 -0.1538
 7644SOL    HW134568   0.824   4.672   6.880 -0.7349 -0.2627 -2.7126
 7644SOL    HW234569   0.681   4.647   6.910  1.5285  1.9173  2.2641
 7645SOL     OW34570   4.643   4.512  12.360 -0.6478  0.2036  0.3241
 7645SOL    HW134571   4.587   4.438  12.337 -1.5471  1.1398 -0.4918
 7645SOL    HW234572   4.681   4.538  12.276  2.0615  0.3937  1.6027
 7646SOL     OW34573   3.659   4.548  14.839  0.0432 -0.1064 -0.2492
 7646SOL    HW134574   3.597   4.476  14.836 -2.1916  1.8475 -0.6067
 7646SOL    HW234575   3.657   4.583  14.750 -0.2028  1.6895  0.4577
 7647SOL     OW34576   3.890   4.424   7.955  0.3046  0.7129  0.0757
 7647SOL    HW134577   3.842   4.350   7.993 -0.0734 -0.1743 -2.1528
 7647SOL    HW234578   3.829   4.457   7.889  0.0451  1.2001  0.5594
 7648SOL     OW34579   2.648   1.061   5.253 -0.0307  0.3368  0.2936
 7648SOL    HW134580   2.593   1.104   5.188 -1.5312  0.0187  1.3547
 7648SOL    HW234581   2.641   0.970   5.225  2.3717 -0.1572  1.3162
 7649SOL     OW34582   3.241   3.840   3.444  0.6380  0.0889  0.1901
 7649SOL    HW134583   3.330   3.806   3.443  1.5104  2.3439 -0.2389
 7649SOL    HW234584   3.180   3.767   3.451 -0.5244  0.8843 -1.7138
 7650SOL     OW34585   0.669   0.806  14.444 -0.1107  0.1662 -0.4636
 7650SOL    HW134586   0.716   0.722  14.447  0.5151  0.6034  2.5174
 7650SOL    HW234587   0.713   0.852  14.373 -1.6329  1.2615 -0.6990
 7651SOL     OW34588   4.094   4.091   2.511  0.3114  0.1315  0.3449
 7651SOL    HW134589   4.108   4.122   2.422  2.2826  0.9099  0.9341
 7651SOL    HW234590   4.032   4.155   2.547  1.3631  0.8967  0.7672
 7652SOL     OW34591   3.883   0.136   0.172  0.2644  0.2838 -0.4994
 7652SOL    HW134592   3.830   0.057   0.165  4.2226 -2.4123  0.0036
 7652SOL    HW234593   3.950   0.123   0.105 -1.3327  0.3143 -2.1014
 7653SOL     OW34594   3.637   4.118   8.994 -0.5682  0.2755 -0.6656
 7653SOL    HW134595   3.558   4.092   8.945 -0.8545  2.7314 -1.4866
 7653SOL    HW234596   3.592   4.102   9.077 -1.0052 -2.4430 -1.4234
 7654SOL     OW34597   3.086   1.395   3.678 -0.4460  0.0699 -0.2940
 7654SOL    HW134598   3.151   1.396   3.609 -0.9924 -4.6081 -0.8748
 7654SOL    HW234599   3.089   1.305   3.712 -4.5652  0.1738  0.3176
 7655SOL     OW34600   1.220   3.711   6.098  1.1447 -0.2283  0.9397
 7655SOL    HW134601   1.221   3.631   6.045 -0.2473  0.4790 -0.1644
 7655SOL    HW234602   1.301   3.752   6.067  0.0688  0.9081 -0.3647
 7656SOL     OW34603   0.460   1.668   4.801 -0.5392  0.0351  0.6033
 7656SOL    HW134604   0.427   1.581   4.777  0.6362  0.1829 -1.5956
 7656SOL    HW234605   0.491   1.668   4.891  2.3030 -0.0715 -0.3568
 7657SOL     OW34606   0.644   2.039   5.496 -0.3456 -0.0349  0.3466
 7657SOL    HW134607   0.558   2.043   5.539 -0.1166  2.3330  0.5877
 7657SOL    HW234608   0.621   2.061   5.406 -0.1148 -0.3439  0.2137
 7658SOL     OW34609   3.782   1.811   1.308  0.3442 -0.1533 -0.4492
 7658SOL    HW134610   3.800   1.848   1.221 -0.2697  0.9258 -0.1150
 7658SOL    HW234611   3.873   1.797   1.332  0.2069 -0.8954 -0.3569
 7659SOL     OW34612   4.438   3.266   8.448  0.1145  0.2279  0.1723
 7659SOL    HW134613   4.510   3.300   8.501 -2.8763  1.5424  3.4409
 7659SOL    HW234614   4.381   3.342   8.434  0.0598  0.0643 -0.4825
 7660SOL     OW34615   2.604   3.646  13.516 -0.6305 -0.8178 -0.0040
 7660SOL    HW134616   2.667   3.588  13.473  0.0185  0.2249 -0.4858
 7660SOL    HW234617   2.566   3.584  13.578 -2.4234 -0.4211 -0.7170
 7661SOL     OW34618   3.884   2.962   5.553  0.3510 -0.7039 -0.4036
 7661SOL    HW134619   3.880   2.900   5.480 -2.4065 -0.3069 -0.5921
 7661SOL    HW234620   3.911   3.043   5.511  0.2305 -0.6452 -0.3686
 7662SOL     OW34621   4.004   0.208   9.503  0.6369  0.2395  0.4892
 7662SOL    HW134622   3.988   0.153   9.426 -0.6405 -0.0195  0.9378
 7662SOL    HW234623   3.916   0.243   9.515  0.5051  0.7404 -1.9217
 7663SOL     OW34624   3.862   0.973  14.599  0.0491 -0.0911  0.1952
 7663SOL    HW134625   3.788   0.946  14.654  0.3766 -2.9048 -0.7314
 7663SOL    HW234626   3.933   0.968  14.664  0.3674  1.7430 -0.0131
 7664SOL     OW34627   1.165   0.907   3.422 -0.0184  0.0087 -0.4991
 7664SOL    HW134628   1.130   0.890   3.334 -0.4075  2.7439 -0.9037
 7664SOL    HW234629   1.200   0.995   3.404  0.8727 -0.4140 -0.8198
 7665SOL     OW34630   0.343   3.826  10.426 -0.2017 -0.6789  0.1622
 7665SOL    HW134631   0.279   3.807  10.495 -0.6675  2.3771  0.5660
 7665SOL    HW234632   0.425   3.796  10.466  0.1768  1.6905  1.1384
 7666SOL     OW34633   1.346   1.071   8.852 -0.0324 -0.0012 -0.7663
 7666SOL    HW134634   1.402   1.145   8.828 -0.4820  0.9096  1.0354
 7666SOL    HW234635   1.352   1.019   8.772  1.8445  0.1830 -0.7480
 7667SOL     OW34636   1.774   3.109   8.738  0.3965  0.3118  0.7021
 7667SOL    HW134637   1.754   3.060   8.817 -1.0531 -0.0176  0.1409
 7667SOL    HW234638   1.819   3.189   8.764  0.2009  0.3084  1.0525
 7668SOL     OW34639   1.604   0.160   3.946  0.2050  0.2215  0.5508
 7668SOL    HW134640   1.639   0.080   3.986  3.4119  0.3555 -2.0543
 7668SOL    HW234641   1.673   0.198   3.892 -1.4300 -1.7895 -2.8977
 7669SOL     OW34642   0.409   4.622  10.209  0.2187  0.0790  0.0218
 7669SOL    HW134643   0.440   4.649  10.295  0.7453 -1.2769  0.2640
 7669SOL    HW234644   0.348   4.555  10.242  0.2845  0.2271  0.4349
 7670SOL     OW34645   0.145   0.750  14.748 -0.6615  0.4990  0.3463
 7670SOL    HW134646   0.198   0.697  14.807 -2.6955 -1.0178  0.8114
 7670SOL    HW234647   0.197   0.830  14.742  0.0081 -0.0486 -1.2354
 7671SOL     OW34648   3.143   0.772   8.419 -0.1451 -0.2691  0.0140
 7671SOL    HW134649   3.198   0.696   8.438  1.4699  1.1962  1.3027
 7671SOL    HW234650   3.073   0.733   8.367  2.7737 -2.4638 -2.2707
 7672SOL     OW34651   2.255   0.643   1.731 -0.2313  0.2206 -0.1522
 7672SOL    HW134652   2.330   0.592   1.763  1.6603  1.2629 -3.0004
 7672SOL    HW234653   2.282   0.734   1.722  0.4916 -0.1503 -1.6668
 7673SOL     OW34654   0.682   0.494   9.707 -0.1451  0.2753 -0.0206
 7673SOL    HW134655   0.590   0.492   9.682  0.1042 -1.5985 -0.7711
 7673SOL    HW234656   0.715   0.572   9.663 -0.4680 -0.0733 -0.8701
 7674SOL     OW34657   2.249   3.770  13.532  0.0473 -0.9741  0.1009
 7674SOL    HW134658   2.306   3.846  13.529  0.2745 -1.1220  0.7596
 7674SOL    HW234659   2.287   3.723  13.606 -1.5546 -3.7174 -0.8054
 7675SOL     OW34660   1.894   1.752  17.418  0.9131 -0.0841 -0.0852
 7675SOL    HW134661   1.872   1.723  17.506  0.1927 -2.1880 -0.9390
 7675SOL    HW234662   1.810   1.761  17.373  1.0333  1.3014 -0.0367
 7676SOL     OW34663   0.752   0.970   2.297  0.6439 -0.3753 -0.3244
 7676SOL    HW134664   0.746   0.900   2.233 -0.9826 -0.6652  0.1464
 7676SOL    HW234665   0.671   0.945   2.343  1.6476 -1.2976  0.9629
 7677SOL     OW34666   1.598   3.842  16.246 -0.0624  0.7246 -1.0065
 7677SOL    HW134667   1.525   3.904  16.254 -2.0174 -1.6410 -0.4320
 7677SOL    HW234668   1.657   3.877  16.179 -0.3519 -1.3142 -2.3602
 7678SOL     OW34669   3.610   4.539   4.998 -0.3569 -0.2363  0.7000
 7678SOL    HW134670   3.667   4.612   4.973  0.2476 -0.7785  0.5078
 7678SOL    HW234671   3.627   4.535   5.092  1.1564 -0.3936  0.4169
 7679SOL     OW34672   3.497   3.158   5.018 -0.7962 -0.0516 -0.6266
 7679SOL    HW134673   3.441   3.180   5.092  0.1636 -1.5318  0.5334
 7679SOL    HW234674   3.437   3.096   4.977  0.6552 -3.7430  2.8115
 7680SOL     OW34675   2.884   4.303   8.539 -0.0348 -0.1478  0.3355
 7680SOL    HW134676   2.840   4.218   8.533  0.4472 -0.4198  0.7449
 7680SOL    HW234677   2.859   4.352   8.461  0.2735 -0.7982 -0.1793
 7681SOL     OW34678   1.741   1.036   5.460  0.4032 -0.3596 -0.0861
 7681SOL    HW134679   1.735   0.941   5.450 -1.0518 -0.3795  1.1174
 7681SOL    HW234680   1.675   1.064   5.522 -0.0733  0.4552 -0.9598
 7682SOL     OW34681   0.301   4.093   6.751 -1.1030 -0.2289 -0.0032
 7682SOL    HW134682   0.345   4.066   6.832  1.7581 -0.1367 -1.5171
 7682SOL    HW234683   0.266   4.174   6.789  0.4971  0.0527  0.8642
 7683SOL     OW34684   0.669   3.375   7.137  0.1643  0.2856 -0.2603
 7683SOL    HW134685   0.584   3.406   7.167 -1.0794 -0.0668 -3.4185
 7683SOL    HW234686   0.692   3.442   7.073 -1.2588 -0.1683 -1.2405
 7684SOL     OW34687   1.246   4.012   3.895  0.1872  0.3624  0.0856
 7684SOL    HW134688   1.264   4.031   3.803  0.6507 -1.5210 -0.2160
 7684SOL    HW234689   1.207   4.092   3.931  2.5654  1.3010  0.5697
 7685SOL     OW34690   2.373   2.822   8.780  0.4536  0.1486 -0.4815
 7685SOL    HW134691   2.382   2.815   8.685  1.5723 -1.2375 -0.2699
 7685SOL    HW234692   2.465   2.841   8.799  0.7584 -2.5501  0.7454
 7686SOL     OW34693   4.193   0.095   2.238  0.3950 -0.4343  0.4149
 7686SOL    HW134694   4.165   0.014   2.281 -0.3388  1.0101  2.6192
 7686SOL    HW234695   4.234   0.080   2.153 -1.7014 -0.0049 -0.6538
 7687SOL     OW34696   4.341   3.045  11.794 -0.0032  0.1877  0.4108
 7687SOL    HW134697   4.339   3.135  11.828 -0.4252  0.9313 -1.5562
 7687SOL    HW234698   4.278   3.008  11.855 -0.9974  1.1988  0.0015
 7688SOL     OW34699   2.288   1.615  17.431 -0.5521 -0.3903  0.2238
 7688SOL    HW134700   2.365   1.627  17.488 -0.2671 -0.6212 -0.1117
 7688SOL    HW234701   2.257   1.528  17.452 -0.3348 -1.2310 -2.9333
 7689SOL     OW34702   4.424   1.613  11.822 -0.3156 -0.2548  0.2388
 7689SOL    HW134703   4.496   1.668  11.853 -0.4630 -0.4306  0.8972
 7689SOL    HW234704   4.473   1.539  11.788  2.7668  1.5709  0.7076
 7690SOL     OW34705   0.912   3.938   5.242  0.0395  0.0869 -0.0434
 7690SOL    HW134706   0.972   3.865   5.258  1.3238  1.6091  2.1168
 7690SOL    HW234707   0.851   3.939   5.317 -0.4720 -1.0036 -0.4400
 7691SOL     OW34708   1.914   2.343  14.457 -0.2620 -0.4934  0.9744
 7691SOL    HW134709   1.958   2.277  14.510  0.4469 -0.5135  0.3731
 7691SOL    HW234710   1.917   2.294  14.374 -0.8871 -0.8131  1.1398
 7692SOL     OW34711   1.679   4.651   2.213 -0.3402  0.3446 -0.7509
 7692SOL    HW134712   1.752   4.599   2.182 -0.3450  1.1123 -2.0281
 7692SOL    HW234713   1.636   4.648   2.128 -0.5576  0.6866 -0.6568
 7693SOL     OW34714   4.001   4.206   6.244 -0.7088 -0.5431  0.0159
 7693SOL    HW134715   3.944   4.140   6.283  0.5230 -1.0996  0.8706
 7693SOL    HW234716   4.037   4.241   6.325 -0.7505  1.2636 -0.7436
 7694SOL     OW34717   0.237   0.851   3.329 -0.8569 -0.0419  0.4892
 7694SOL    HW134718   0.321   0.847   3.376 -0.4264 -1.7789 -0.4347
 7694SOL    HW234719   0.273   0.860   3.241  1.7434 -0.5770  1.4962
 7695SOL     OW34720   3.091   4.597   7.880  0.0819  0.4199 -0.9422
 7695SOL    HW134721   3.158   4.568   7.817 -0.2990  1.8932 -2.0310
 7695SOL    HW234722   3.034   4.521   7.891  1.8052 -0.3257  2.8653
 7696SOL     OW34723   2.547   0.363   7.724  0.1972 -0.2442  0.3185
 7696SOL    HW134724   2.618   0.423   7.699  0.8069 -1.1486 -0.1153
 7696SOL    HW234725   2.506   0.411   7.796 -0.0684  1.0581 -0.6831
 7697SOL     OW34726   0.333   2.239   7.708 -0.7757 -0.3065 -0.5266
 7697SOL    HW134727   0.370   2.241   7.619 -2.5649  0.6308 -1.2476
 7697SOL    HW234728   0.335   2.333   7.723 -0.2779 -0.1764 -1.3751
 7698SOL     OW34729   1.640   3.315   3.986 -0.2301 -0.1044 -0.0223
 7698SOL    HW134730   1.664   3.403   4.015  0.5483 -0.4548  0.3904
 7698SOL    HW234731   1.569   3.312   4.050  0.5467  1.4872  0.9106
 7699SOL     OW34732   2.940   4.033  11.020 -0.1885  0.2303  0.7563
 7699SOL    HW134733   2.999   4.026  10.945 -0.3857 -4.2465  1.0072
 7699SOL    HW234734   2.885   4.111  11.016 -1.0113 -0.4904 -1.8871
 7700SOL     OW34735   1.977   0.056   5.432  0.2447 -0.4538  0.6165
 7700SOL    HW134736   1.906   0.024   5.376  0.0523  1.8149 -0.4536
 7700SOL    HW234737   1.943   0.134   5.476  1.0630  0.3875 -0.2272
 7701SOL     OW34738   0.499   4.251   4.431 -0.4065 -0.2437  0.5013
 7701SOL    HW134739   0.407   4.241   4.455 -0.3310  0.4925  1.0955
 7701SOL    HW234740   0.483   4.304   4.352  1.4122 -1.2230 -0.5154
 7702SOL     OW34741   3.473   1.076   2.062  0.1418 -0.5394  0.5431
 7702SOL    HW134742   3.446   1.132   2.135  2.7531 -0.6273  1.6037
 7702SOL    HW234743   3.545   1.129   2.027 -1.1360  1.1569  0.5126
 7703SOL     OW34744   1.467   0.026   6.142  0.3289 -0.1524 -0.2333
 7703SOL    HW134745   1.382   0.052   6.177  1.3171 -0.4818  2.4166
 7703SOL    HW234746   1.531   0.089   6.175 -0.5545  1.6096 -1.8520
 7704SOL     OW34747   1.490   0.292   8.992  0.3990 -0.8344 -0.0218
 7704SOL    HW134748   1.454   0.243   8.919  0.0555 -1.3143  0.4693
 7704SOL    HW234749   1.461   0.242   9.068  1.7182  0.1108  1.1050
 7705SOL     OW34750   0.074   3.894  11.418 -0.4009  0.2533  0.1114
 7705SOL    HW134751   0.142   3.960  11.402 -0.6828  0.2995 -0.8927
 7705SOL    HW234752   0.121   3.832  11.473 -2.4776 -0.4352  1.0927
 7706SOL     OW34753   1.392   0.877   8.628 -0.0293  0.3668  0.8019
 7706SOL    HW134754   1.428   0.795   8.662  1.2864  0.7915  0.4336
 7706SOL    HW234755   1.469   0.919   8.589  0.2667  2.0128  3.1370
 7707SOL     OW34756   2.541   2.059   8.504 -0.0027 -0.4513 -0.4306
 7707SOL    HW134757   2.482   2.021   8.440 -1.2485 -0.4190  0.6947
 7707SOL    HW234758   2.552   2.143   8.459  1.9298  0.9438  2.5900
 7708SOL     OW34759   3.208   4.180   4.492 -0.4369  0.2566  0.3014
 7708SOL    HW134760   3.151   4.108   4.466  1.0061 -0.6450 -0.3395
 7708SOL    HW234761   3.293   4.136   4.495  0.2958  1.7959  2.5808
 7709SOL     OW34762   4.630   3.492  11.328 -1.0823 -0.1987 -0.1302
 7709SOL    HW134763   4.611   3.512  11.419 -0.7833  0.9514 -0.3187
 7709SOL    HW234764   4.654   3.577  11.291 -1.7906  0.5839  1.2493
 7710SOL     OW34765   2.821   1.138   8.953 -0.4329 -0.2153 -0.2181
 7710SOL    HW134766   2.754   1.181   8.900 -0.9574 -0.0507  0.5748
 7710SOL    HW234767   2.812   1.050   8.915 -1.3497 -1.0844  1.9614
 7711SOL     OW34768   2.335   3.927  10.636 -0.3148 -0.9816  0.1338
 7711SOL    HW134769   2.252   3.933  10.587 -0.8743 -1.0199  1.0750
 7711SOL    HW234770   2.314   3.865  10.706  0.4251  0.5104  1.6609
 7712SOL     OW34771   4.003   3.909   4.574  0.3160  0.1899 -0.2210
 7712SOL    HW134772   4.025   3.880   4.485  0.0303  1.4956 -0.7206
 7712SOL    HW234773   3.909   3.915   4.559 -0.1489 -3.7733  1.1491
 7713SOL     OW34774   4.008   2.859  10.400  0.6286 -0.0831  1.2216
 7713SOL    HW134775   3.943   2.920  10.366 -0.0007 -1.0667  0.6850
 7713SOL    HW234776   3.975   2.770  10.391  0.6103  0.3126 -2.3918
 7714SOL     OW34777   1.536   3.212   2.465  0.0196 -0.5207  0.4597
 7714SOL    HW134778   1.584   3.184   2.387  0.6274 -2.3466  1.4889
 7714SOL    HW234779   1.453   3.222   2.419  0.7641  1.6505 -0.4458
 7715SOL     OW34780   3.569   0.007   2.170  0.4478 -1.2459  0.0109
 7715SOL    HW134781   3.548   0.022   2.078  0.0960 -0.1649  0.2694
 7715SOL    HW234782   3.493   4.688   2.191  0.0627 -0.7582 -0.1152
 7716SOL     OW34783   4.286   4.090   4.881 -0.0649 -0.2312  0.6352
 7716SOL    HW134784   4.237   4.053   4.955 -0.8066  0.9386  0.7355
 7716SOL    HW234785   4.222   4.157   4.856  0.4500  0.3510  0.8986
 7717SOL     OW34786   3.567   1.933   8.863  0.0005  0.9404 -0.1544
 7717SOL    HW134787   3.647   1.981   8.839  0.2274  0.8281  0.3755
 7717SOL    HW234788   3.546   1.977   8.945  0.2891 -1.5881  1.2754
 7718SOL     OW34789   0.635   0.425  15.298  0.3066  0.1718  0.3114
 7718SOL    HW134790   0.706   0.422  15.362 -1.6819 -1.8979  2.4711
 7718SOL    HW234791   0.677   0.430  15.213 -2.1159 -1.0928 -0.9434
 7719SOL     OW34792   0.002   3.045   9.685 -0.4738  0.4606  0.6898
 7719SOL    HW134793   4.718   3.013   9.774 -2.5153 -0.5035 -0.1004
 7719SOL    HW234794   4.680   2.993   9.630 -0.7053  1.0711  0.3607
 7720SOL     OW34795   2.578   4.123  14.365  0.1594  0.5724 -0.6172
 7720SOL    HW134796   2.572   4.140  14.271 -3.2627 -1.1143 -0.6952
 7720SOL    HW234797   2.496   4.081  14.390  0.5345  0.3047  0.1673
 7721SOL     OW34798   0.026   3.856   1.255 -0.3302 -0.1158 -0.4234
 7721SOL    HW134799   0.003   3.935   1.206  0.1589  0.3046  0.0266
 7721SOL    HW234800   4.690   3.855   1.319  0.6348  1.2824  0.6828
 7722SOL     OW34801   2.178   2.363  14.978  0.2086  0.7372 -0.2923
 7722SOL    HW134802   2.123   2.359  14.900  1.5982  3.3969 -1.3954
 7722SOL    HW234803   2.166   2.277  15.018  2.2176  1.4552  1.8629
 7723SOL     OW34804   2.058   0.440   6.904  0.0416  0.2202  0.3051
 7723SOL    HW134805   2.000   0.509   6.872  1.9870  0.9174 -1.7108
 7723SOL    HW234806   2.118   0.442   6.830 -0.5426  2.5691 -0.1120
 7724SOL     OW34807   1.253   2.664   8.092 -0.1369 -0.0200  0.4311
 7724SOL    HW134808   1.253   2.753   8.059 -0.3070  0.3007  1.2847
 7724SOL    HW234809   1.307   2.614   8.031  2.5422  1.7308  1.3546
 7725SOL     OW34810   1.554   0.293  11.390  0.3829  0.1204  0.4793
 7725SOL    HW134811   1.562   0.250  11.476 -1.0687 -0.9703  0.0663
 7725SOL    HW234812   1.608   0.235  11.337  1.4104 -1.2511  3.0059
 7726SOL     OW34813   2.843   4.265   9.758  0.0859 -0.4762 -0.1270
 7726SOL    HW134814   2.821   4.349   9.719  0.3450 -0.8805 -1.1426
 7726SOL    HW234815   2.918   4.243   9.702  1.1036  0.7344  0.7391
 7727SOL     OW34816   3.281   3.834   3.158 -0.0664  0.0340 -0.0674
 7727SOL    HW134817   3.244   3.868   3.240  0.8744 -0.7572  0.6884
 7727SOL    HW234818   3.345   3.898   3.128 -1.2128  0.5624 -1.3739
 7728SOL     OW34819   3.051   3.653   8.440 -0.1318  0.1114  0.0304
 7728SOL    HW134820   3.013   3.737   8.414  1.0698  0.6549  0.0179
 7728SOL    HW234821   3.047   3.654   8.535  1.7676  1.8276  0.0919
 7729SOL     OW34822   3.025   4.455   1.777 -0.3754  0.3207 -0.0334
 7729SOL    HW134823   2.939   4.486   1.748 -0.4374 -0.0954 -0.2905
 7729SOL    HW234824   3.043   4.378   1.724 -2.0618  0.8114 -1.3111
 7730SOL     OW34825   2.227   3.346  14.796  0.5744  0.0617  0.5413
 7730SOL    HW134826   2.229   3.252  14.776 -1.3171  0.2029 -0.3463
 7730SOL    HW234827   2.136   3.366  14.773  0.7528  0.2107 -0.0497
 7731SOL     OW34828   4.084   2.237   4.465  0.1021 -0.1869 -0.4190
 7731SOL    HW134829   4.037   2.199   4.391 -0.9434 -1.6264  0.9930
 7731SOL    HW234830   4.148   2.284   4.411 -1.3142  1.8279 -0.3481
 7732SOL     OW34831   2.601   0.667   5.905 -0.4527  1.0721  0.5644
 7732SOL    HW134832   2.583   0.670   5.999 -0.5111  1.3576  0.5444
 7732SOL    HW234833   2.537   0.729   5.871 -0.7969  0.2330 -0.3065
 7733SOL     OW34834   3.244   4.538   9.053 -0.1591 -0.6915  0.6583
 7733SOL    HW134835   3.220   4.621   9.012 -1.1981 -0.6986  1.2575
 7733SOL    HW234836   3.289   4.572   9.130  3.4009  0.6347 -2.0064
 7734SOL     OW34837   1.265   0.886  14.710  0.4559 -0.6477  0.7052
 7734SOL    HW134838   1.188   0.829  14.717 -0.3732  0.1976 -1.6220
 7734SOL    HW234839   1.338   0.827  14.729  0.6774 -0.9921 -1.2735
 7735SOL     OW34840   2.850   0.232   6.936  0.1620  0.1316 -0.0829
 7735SOL    HW134841   2.889   0.277   7.011  1.3542 -0.1722 -0.5278
 7735SOL    HW234842   2.923   0.181   6.903  0.2117 -1.5532  2.6299
 7736SOL     OW34843   1.751   2.711   7.851 -0.1263 -0.4553  0.5436
 7736SOL    HW134844   1.794   2.648   7.907  0.2707  0.3773  1.1703
 7736SOL    HW234845   1.683   2.740   7.912 -0.5190 -1.3104  0.5121
 7737SOL     OW34846   3.264   0.504   4.732 -0.2214  0.4353 -0.0349
 7737SOL    HW134847   3.198   0.455   4.782  0.9609  1.7326  2.8281
 7737SOL    HW234848   3.311   0.441   4.678  2.7983  2.2956  0.4403
 7738SOL     OW34849   0.602   1.596   7.010  0.2005 -0.3264  0.4326
 7738SOL    HW134850   0.683   1.606   7.060 -0.3122 -1.1321  1.4270
 7738SOL    HW234851   0.575   1.511   7.046 -1.1312  0.2579  0.8099
 7739SOL     OW34852   4.600   1.112  14.187 -0.3834 -0.1853  0.0965
 7739SOL    HW134853   4.546   1.188  14.211 -0.8286  0.4040 -2.7468
 7739SOL    HW234854   4.585   1.049  14.257  1.0374 -0.9610 -0.3075
 7740SOL     OW34855   2.351   1.431   7.755 -0.5082  0.2806  0.3212
 7740SOL    HW134856   2.397   1.449   7.673 -1.2250  2.9048  0.5055
 7740SOL    HW234857   2.265   1.470   7.741  0.2453  1.0844 -2.0096
 7741SOL     OW34858   0.939   0.837   2.122 -0.3292 -0.2906  0.2033
 7741SOL    HW134859   0.863   0.803   2.169  0.0863 -0.4954  0.7279
 7741SOL    HW234860   1.005   0.775   2.154  0.0632  0.4513  0.8423
 7742SOL     OW34861   4.409   1.221   8.867  0.3877 -0.2601  0.4000
 7742SOL    HW134862   4.400   1.279   8.791  0.2012 -1.1613 -0.2673
 7742SOL    HW234863   4.357   1.266   8.933  0.9282  1.6281 -0.4675
 7743SOL     OW34864   3.483   1.110   4.302  0.1098 -0.2659 -0.0794
 7743SOL    HW134865   3.541   1.154   4.240 -1.5001  1.6002 -0.2620
 7743SOL    HW234866   3.398   1.148   4.282 -0.1669 -1.8975 -1.9644
 7744SOL     OW34867   3.955   0.783   4.314 -0.0338  0.6391 -0.2142
 7744SOL    HW134868   3.984   0.709   4.368  1.8716  1.8176  0.3777
 7744SOL    HW234869   3.881   0.745   4.267 -1.6339 -1.2079  3.7783
 7745SOL     OW34870   2.254   0.365   5.760  0.4937  0.2218  0.0534
 7745SOL    HW134871   2.330   0.344   5.705 -1.7182  0.6227 -3.1969
 7745SOL    HW234872   2.205   0.424   5.702 -1.7884 -1.3720  0.3405
 7746SOL     OW34873   4.121   4.011   1.775 -0.1526 -0.3197  0.1141
 7746SOL    HW134874   4.081   4.048   1.854  1.1115  1.0847  0.1070
 7746SOL    HW234875   4.144   3.930   1.820  1.6576  0.7711  1.1464
 7747SOL     OW34876   2.147   2.354  12.710  0.2628 -0.2929  0.6245
 7747SOL    HW134877   2.151   2.429  12.770 -0.8339 -0.6946  1.2055
 7747SOL    HW234878   2.193   2.396  12.637 -2.1008  0.7509 -0.2806
 7748SOL     OW34879   0.326   1.900   5.116 -0.2829  0.9046  0.2060
 7748SOL    HW134880   0.301   1.957   5.188 -2.4337  0.0615  0.1330
 7748SOL    HW234881   0.375   1.961   5.060 -0.0744  0.0917 -0.4951
 7749SOL     OW34882   3.641   2.055  16.362 -0.7186  0.0753  0.0463
 7749SOL    HW134883   3.725   2.011  16.372 -1.2083 -1.0992 -1.0305
 7749SOL    HW234884   3.649   2.091  16.274 -3.1473  0.7649  0.0883
 7750SOL     OW34885   3.322   3.152  11.617  0.2557 -0.0360 -0.4000
 7750SOL    HW134886   3.254   3.084  11.622  1.2529 -0.9916  0.1283
 7750SOL    HW234887   3.289   3.204  11.544 -1.8686 -0.7174  0.0581
 7751SOL     OW34888   4.554   4.676   5.898 -0.2396 -0.2584  0.6675
 7751SOL    HW134889   4.597   4.705   5.818 -1.3372  0.5689  0.3814
 7751SOL    HW234890   4.466   4.651   5.871  0.1041  0.4386 -1.0902
 7752SOL     OW34891   1.175   2.818  13.680 -0.5962 -0.5647  0.2736
 7752SOL    HW134892   1.148   2.893  13.625  2.2399 -0.8719 -1.5170
 7752SOL    HW234893   1.177   2.851  13.770 -0.4294  0.1804  0.0035
 7753SOL     OW34894   4.191   4.195  15.862  0.1102  0.8528 -0.2428
 7753SOL    HW134895   4.204   4.279  15.816  0.4129  1.1391  0.3649
 7753SOL    HW234896   4.222   4.208  15.952 -1.4271 -1.0266  0.5336
 7754SOL     OW34897   2.224   3.079   8.853  0.0909 -0.0195 -0.1809
 7754SOL    HW134898   2.271   3.005   8.814 -0.2399  1.2912 -3.1405
 7754SOL    HW234899   2.283   3.081   8.928 -1.0898 -0.6838  0.7480
 7755SOL     OW34900   3.071   3.140   6.066 -0.2073 -0.1509 -0.1741
 7755SOL    HW134901   3.037   3.171   6.150  0.7333  2.1502 -0.6373
 7755SOL    HW234902   2.998   3.145   6.004  0.1513  1.3243 -0.4673
 7756SOL     OW34903   2.854   2.922   3.088  0.0112  0.1368 -0.4481
 7756SOL    HW134904   2.911   2.881   3.023  0.6907 -3.6717  2.5660
 7756SOL    HW234905   2.883   3.013   3.094  0.9776 -0.2610  1.0366
 7757SOL     OW34906   4.684   4.465  13.818 -0.0507 -0.2514 -0.0271
 7757SOL    HW134907   4.697   4.558  13.797 -0.5990  0.3817  2.5444
 7757SOL    HW234908   4.633   4.424  13.747  1.0198  1.1153 -1.5956
 7758SOL     OW34909   2.221   4.319   6.387  0.8522  0.4833  0.0883
 7758SOL    HW134910   2.225   4.414   6.385  0.4797  0.5128  0.9689
 7758SOL    HW234911   2.126   4.306   6.377  1.1645 -0.2114 -2.1205
 7759SOL     OW34912   2.975   3.101   9.325  0.4852  0.5051 -0.1126
 7759SOL    HW134913   2.931   3.185   9.326  0.4597  0.4766  1.6689
 7759SOL    HW234914   2.950   3.071   9.412  1.3742 -3.1224 -1.0816
 7760SOL     OW34915   4.609   4.063   3.794  0.0701  0.0976 -0.2909
 7760SOL    HW134916   4.553   4.091   3.722 -2.4912  0.5811  1.8670
 7760SOL    HW234917   4.623   3.971   3.772 -1.8666 -0.3127  0.1375
 7761SOL     OW34918   1.392   2.063  12.516 -0.1726 -0.0862 -0.0198
 7761SOL    HW134919   1.373   1.976  12.482 -0.7124 -0.0341  0.1566
 7761SOL    HW234920   1.356   2.118  12.447 -0.1706 -0.3057 -0.1957
 7762SOL     OW34921   0.389   0.037   8.881  0.0477 -0.1466 -0.0462
 7762SOL    HW134922   0.411   0.129   8.865 -2.6472  0.6986  1.2769
 7762SOL    HW234923   0.470   4.730   8.852 -1.1594 -1.4079 -1.5703
 7763SOL     OW34924   0.298   4.456   8.772 -0.8718 -0.1693 -0.0968
 7763SOL    HW134925   0.323   4.402   8.697  0.7381  0.1517  0.1994
 7763SOL    HW234926   0.364   4.525   8.774 -0.0972 -0.9609  1.4577
 7764SOL     OW34927   2.415   4.427  12.474 -0.8264  0.2266 -0.0514
 7764SOL    HW134928   2.422   4.346  12.524  1.6764  1.2835  1.3307
 7764SOL    HW234929   2.380   4.489  12.538  0.8726  2.0837 -0.8939
 7765SOL     OW34930   0.303   2.355   4.544 -0.5109  0.2069 -0.1330
 7765SOL    HW134931   0.373   2.322   4.601  0.5442 -0.6229 -1.9021
 7765SOL    HW234932   0.241   2.282   4.545 -1.2846  0.9101  2.7037
 7766SOL     OW34933   1.284   4.030   7.750 -0.3335  0.3651 -0.5295
 7766SOL    HW134934   1.224   4.002   7.681 -0.5019 -0.1537 -0.1749
 7766SOL    HW234935   1.362   3.984   7.717  1.4903  3.0041  0.0898
 7767SOL     OW34936   2.568   4.431   3.991  0.2546 -0.5774 -0.6217
 7767SOL    HW134937   2.623   4.360   3.958  0.1838 -1.2645  0.7491
 7767SOL    HW234938   2.634   4.499   4.009  0.5358 -0.7783 -0.8877
 7768SOL     OW34939   1.242   0.768   1.057 -0.2805 -0.1363 -0.0412
 7768SOL    HW134940   1.257   0.743   0.966  1.2087 -0.7738  0.3788
 7768SOL    HW234941   1.191   0.848   1.051 -1.5736 -1.0709 -1.2944
 7769SOL     OW34942   2.763   2.194   5.336 -0.5152 -0.0544 -1.2880
 7769SOL    HW134943   2.738   2.102   5.334 -0.9940  0.0192  2.0984
 7769SOL    HW234944   2.850   2.179   5.373 -0.4802  1.5698 -0.7245
 7770SOL     OW34945   3.736   2.422   4.477  0.6678  0.4455  0.8468
 7770SOL    HW134946   3.645   2.450   4.489  0.4941 -0.2853  1.2599
 7770SOL    HW234947   3.717   2.349   4.418  0.5898  0.7392  0.5101
 7771SOL     OW34948   2.645   3.704  17.109  0.0154  0.5973 -0.4493
 7771SOL    HW134949   2.677   3.759  17.180  1.5299 -0.9089  0.0303
 7771SOL    HW234950   2.616   3.774  17.050 -0.9434  0.4560 -0.1506
 7772SOL     OW34951   4.264   2.912   3.046  0.2701 -0.0763 -0.1101
 7772SOL    HW134952   4.259   3.007   3.040 -0.8304 -0.0350  1.5944
 7772SOL    HW234953   4.328   2.903   3.117  3.1094 -1.4502 -2.7868
 7773SOL     OW34954   2.887   0.996  12.486 -0.6131 -0.4792 -0.1566
 7773SOL    HW134955   2.967   1.018  12.439  0.2317 -1.3529  0.8642
 7773SOL    HW234956   2.852   0.923  12.434  0.8753  0.1771 -2.1007
 7774SOL     OW34957   4.060   0.347   4.254  0.0971  0.1382 -0.3366
 7774SOL    HW134958   4.035   0.396   4.176 -1.1222  0.7051  0.3979
 7774SOL    HW234959   4.035   0.410   4.322  0.9289  0.1047 -0.0001
 7775SOL     OW34960   4.235   0.797   8.121  0.4060  0.0783  0.2771
 7775SOL    HW134961   4.317   0.845   8.111  0.1428 -0.0421 -2.3192
 7775SOL    HW234962   4.236   0.786   8.216  0.1009  1.0220  0.3905
 7776SOL     OW34963   3.973   3.101   2.816  0.0729 -0.2140  0.2731
 7776SOL    HW134964   4.003   3.191   2.827 -1.4495  0.3292 -0.0063
 7776SOL    HW234965   3.878   3.107   2.808  0.2579  0.8676 -1.0748
 7777SOL     OW34966   2.833   0.439   1.793  0.3344  0.7616  0.2731
 7777SOL    HW134967   2.795   0.428   1.880  0.4429  0.0786  0.2374
 7777SOL    HW234968   2.869   0.527   1.802  0.3767  0.8494 -0.7945
 7778SOL     OW34969   2.869   3.023   1.497 -0.1534 -0.3575  0.0380
 7778SOL    HW134970   2.829   2.970   1.428  1.4935  0.0467 -1.2329
 7778SOL    HW234971   2.943   2.962   1.506  1.9261  2.1733  0.0045
 7779SOL     OW34972   3.970   2.947   3.658  0.4517 -0.5639 -0.0253
 7779SOL    HW134973   3.877   2.924   3.662  0.4985 -0.8664 -0.6837
 7779SOL    HW234974   4.018   2.872   3.694 -0.7729 -1.6110 -0.5532
 7780SOL     OW34975   2.651   2.095   8.079 -0.1963 -0.1089  0.0215
 7780SOL    HW134976   2.708   2.154   8.030  1.0367 -0.6020  0.8660
 7780SOL    HW234977   2.619   2.155   8.147  0.3574  0.1026  0.0916
 7781SOL     OW34978   1.868   2.044  15.307  0.3055  0.7121  0.2199
 7781SOL    HW134979   1.911   2.089  15.380  0.6018  2.0902 -0.8100
 7781SOL    HW234980   1.778   2.037  15.339 -0.7439 -1.5028 -3.2143
 7782SOL     OW34981   2.220   4.614   2.468 -0.0531  0.0421 -0.3246
 7782SOL    HW134982   2.256   4.557   2.399 -0.6190  0.6059 -1.0944
 7782SOL    HW234983   2.280   4.688   2.478 -1.6121  1.1997  0.4466
 7783SOL     OW34984   2.456   0.341  16.649  0.1152  0.0405 -0.1480
 7783SOL    HW134985   2.427   0.432  16.639  2.2099  0.6696 -0.4786
 7783SOL    HW234986   2.406   0.313  16.725 -1.1254  0.0737 -0.9441
 7784SOL     OW34987   0.517   2.042  13.060  0.1338  0.3836 -0.4187
 7784SOL    HW134988   0.582   2.026  13.129  0.2429  1.8042 -0.1963
 7784SOL    HW234989   0.525   1.955  13.021  2.1171  1.3940 -2.2930
 7785SOL     OW34990   2.147   1.324  15.178  0.5703  0.1713  0.0977
 7785SOL    HW134991   2.069   1.379  15.172  1.1874  1.1132  0.7909
 7785SOL    HW234992   2.165   1.308  15.271  2.5499  0.5166 -0.2148
 7786SOL     OW34993   4.133   3.320   1.483 -0.4042  0.3754  0.8458
 7786SOL    HW134994   4.178   3.388   1.432  0.2922 -1.1394 -0.5617
 7786SOL    HW234995   4.041   3.336   1.461  0.7693  2.6969 -2.4883
 7787SOL     OW34996   4.706   0.018  16.525  0.1724  0.0970  0.4216
 7787SOL    HW134997   0.028   0.042  16.597  0.6411  0.9120 -0.2230
 7787SOL    HW234998   0.017   0.027  16.441  1.7978 -2.3795  1.0761
 7788SOL     OW34999   2.078   2.512   2.847 -1.0437  0.3006 -0.0707
 7788SOL    HW135000   2.097   2.606   2.844  2.0045 -0.2859  0.9788
 7788SOL    HW235001   1.997   2.506   2.795 -0.6345 -1.1748 -0.5264
 7789SOL     OW35002   0.671   1.573   6.077  0.6901  0.0032  0.0606
 7789SOL    HW135003   0.672   1.649   6.019 -3.9558 -0.3868 -0.5179
 7789SOL    HW235004   0.630   1.506   6.022  1.9495 -0.1656 -0.6679
 7790SOL     OW35005   2.374   2.563   4.615 -0.2928 -0.0886 -0.8075
 7790SOL    HW135006   2.446   2.615   4.652 -0.7556  1.0786 -1.5350
 7790SOL    HW235007   2.308   2.574   4.684 -0.7489 -2.5408 -0.8601
 7791SOL     OW35008   1.071   3.661   8.983  0.0938  0.6034 -0.1076
 7791SOL    HW135009   1.140   3.726   9.001 -2.1158  2.2969  2.1866
 7791SOL    HW235010   1.081   3.603   9.058  0.4031  0.1894 -0.4701
 7792SOL     OW35011   4.089   3.827   4.336 -0.2048 -0.2400 -0.1031
 7792SOL    HW135012   4.121   3.737   4.326  0.9804 -0.0726  2.2210
 7792SOL    HW235013   4.132   3.869   4.261  0.1255 -3.4943 -1.7764
 7793SOL     OW35014   4.632   1.259   3.712  0.1967  0.2365  0.0438
 7793SOL    HW135015   4.677   1.294   3.789 -0.1021  1.4248 -0.3359
 7793SOL    HW235016   4.704   1.252   3.649  0.4974 -1.0990  0.5119
 7794SOL     OW35017   3.908   0.221  16.831 -0.6556 -0.2888 -0.8303
 7794SOL    HW135018   3.846   0.279  16.876 -3.4101 -0.6119 -4.2505
 7794SOL    HW235019   3.973   0.214  16.902 -1.3226  0.8114 -0.1179
 7795SOL     OW35020   1.475   3.506   1.985 -0.1172 -0.0024 -0.0361
 7795SOL    HW135021   1.384   3.495   1.956 -0.2729  0.6860  0.1958
 7795SOL    HW235022   1.458   3.541   2.073 -0.5683 -0.6476  0.1345
 7796SOL     OW35023   3.082   2.320   9.195 -0.5192 -0.2141 -0.2426
 7796SOL    HW135024   3.166   2.368   9.196 -0.1720 -0.8173 -0.7076
 7796SOL    HW235025   3.110   2.238   9.155  2.4429  1.0295 -0.7310
 7797SOL     OW35026   2.811   0.355   2.255  0.2378  0.2668 -0.1219
 7797SOL    HW135027   2.804   0.321   2.166 -1.6304  4.3834 -1.5532
 7797SOL    HW235028   2.827   0.274   2.303 -3.2757 -0.7130 -0.5864
 7798SOL     OW35029   0.681   4.561   5.420  0.8963  0.0940  0.0347
 7798SOL    HW135030   0.618   4.541   5.490 -1.1811 -0.2770 -1.9320
 7798SOL    HW235031   0.624   4.554   5.343 -0.4747  4.0661  0.7001
 7799SOL     OW35032   3.964   4.226  16.877  0.2977 -0.3513 -0.1239
 7799SOL    HW135033   3.935   4.317  16.878 -1.1588 -0.7961 -0.5474
 7799SOL    HW235034   3.952   4.211  16.783  1.5352  0.2778 -0.3761
 7800SOL     OW35035   2.844   3.769   4.938  0.1004  0.4378 -0.2438
 7800SOL    HW135036   2.842   3.805   4.849 -3.3520 -0.2602 -0.4675
 7800SOL    HW235037   2.927   3.811   4.960 -0.4484  0.0134  2.5680
 7801SOL     OW35038   1.918   4.194   4.968 -0.8239  0.5766 -0.3002
 7801SOL    HW135039   1.996   4.227   4.925 -1.0267  2.3302  0.6851
 7801SOL    HW235040   1.874   4.144   4.899  0.5981 -0.1320 -0.6876
 7802SOL     OW35041   2.174   1.249   2.843 -0.5640  0.1523 -0.4556
 7802SOL    HW135042   2.260   1.290   2.852 -0.9653  1.4264 -2.4173
 7802SOL    HW235043   2.183   1.182   2.911 -0.7498  0.6390  0.0509
 7803SOL     OW35044   0.058   1.150   7.064 -0.0153 -0.1298 -0.6449
 7803SOL    HW135045   4.722   1.169   7.004 -0.4756  1.4620  0.3946
 7803SOL    HW235046   0.136   1.144   7.009  1.6229 -0.9684  1.7405
 7804SOL     OW35047   3.542   1.363   6.544  0.1714  0.4040  0.1558
 7804SOL    HW135048   3.618   1.395   6.593  1.1375  0.4650 -1.3996
 7804SOL    HW235049   3.571   1.345   6.455  0.6258 -0.3957  0.4647
 7805SOL     OW35050   2.708   0.369  16.554  0.5545 -0.0560 -0.3818
 7805SOL    HW135051   2.706   0.275  16.539  0.9397  0.0345 -0.9893
 7805SOL    HW235052   2.627   0.379  16.604  1.9308  0.7984  1.6894
 7806SOL     OW35053   4.439   2.956  12.666 -0.1631 -0.3801 -0.0609
 7806SOL    HW135054   4.348   2.946  12.637 -0.0900  1.9512 -1.0164
 7806SOL    HW235055   4.449   3.050  12.680 -0.2618 -0.3894  0.0780
 7807SOL     OW35056   1.635   4.462   6.666 -0.0366 -0.2917  0.0130
 7807SOL    HW135057   1.712   4.410   6.686 -1.1991 -0.7322  3.3429
 7807SOL    HW235058   1.572   4.392   6.650  0.2579 -1.0735  2.3286
 7808SOL     OW35059   4.654   2.578   7.997 -0.0965  0.0386  0.1200
 7808SOL    HW135060   4.724   2.640   8.020 -0.5741 -0.2691  2.4072
 7808SOL    HW235061   4.701   2.519   7.938 -0.4748  0.6801 -0.8271
 7809SOL     OW35062   2.151   2.814  12.259 -0.0566 -0.5383  0.1262
 7809SOL    HW135063   2.216   2.884  12.264 -0.9371  0.2942  0.0975
 7809SOL    HW235064   2.179   2.778  12.343  4.0661  0.7428 -0.6829
 7810SOL     OW35065   1.115   4.316   1.645 -0.3224  0.3873  0.2093
 7810SOL    HW135066   1.127   4.232   1.601  1.4478  0.0998  1.2482
 7810SOL    HW235067   1.097   4.372   1.570 -2.2124  0.0060  0.3714
 7811SOL     OW35068   3.244   2.098  15.918 -0.3219 -0.1309 -0.0259
 7811SOL    HW135069   3.149   2.111  15.907 -0.6036 -2.6203 -0.4076
 7811SOL    HW235070   3.235   2.012  15.958 -0.9346 -0.5137 -0.9707
 7812SOL     OW35071   2.253   0.160  15.564 -0.2460 -0.7922 -0.8816
 7812SOL    HW135072   2.304   0.165  15.484  2.9955  2.9028  1.4389
 7812SOL    HW235073   2.284   0.240  15.605  0.5976 -1.2966 -0.5493
 7813SOL     OW35074   0.683   1.020   3.144  0.3151 -0.3511 -0.4221
 7813SOL    HW135075   0.667   0.931   3.111 -0.2782 -1.2790  2.3398
 7813SOL    HW235076   0.715   1.052   3.060  1.3988  1.0934  0.5502
 7814SOL     OW35077   2.879   0.695  17.102  0.4471 -0.2576 -0.2469
 7814SOL    HW135078   2.910   0.711  17.191 -0.0072  2.0526 -0.5052
 7814SOL    HW235079   2.916   0.608  17.088  1.0919 -0.3757  2.1427
 7815SOL     OW35080   0.061   4.143  12.172  0.2558 -0.3219 -0.2989
 7815SOL    HW135081   0.151   4.174  12.183  0.4468 -1.0017  0.0748
 7815SOL    HW235082   0.060   4.067  12.231 -0.0207 -1.4645 -1.7821
 7816SOL     OW35083   2.954   3.752   1.923  0.2222 -0.6748  0.1791
 7816SOL    HW135084   2.950   3.764   2.018  1.4572  2.3209 -0.1686
 7816SOL    HW235085   2.864   3.746   1.892 -0.0052 -1.9614  1.0692
 7817SOL     OW35086   0.488   3.646  10.593  0.2924  0.0517 -0.5041
 7817SOL    HW135087   0.497   3.698  10.673  0.0066  0.8751 -1.0041
 7817SOL    HW235088   0.573   3.602  10.586  0.5797  0.6796 -0.9825
 7818SOL     OW35089   4.551   3.094   4.899 -0.0984 -0.1602 -0.3753
 7818SOL    HW135090   4.560   3.190   4.902  1.5119 -0.2969 -0.9527
 7818SOL    HW235091   4.634   3.069   4.939 -0.4291 -1.0852 -0.2907
 7819SOL     OW35092   1.783   3.738  10.029 -0.5606  0.2958  0.4893
 7819SOL    HW135093   1.853   3.679  10.002 -0.0241  2.0639 -2.0319
 7819SOL    HW235094   1.834   3.819  10.019 -0.7222  0.4434  0.8653
 7820SOL     OW35095   0.283   4.245   7.207  0.2577 -0.1539 -0.4108
 7820SOL    HW135096   0.318   4.182   7.270  1.7892  2.3379  1.2243
 7820SOL    HW235097   0.260   4.319   7.263 -0.5797  0.2017 -1.2127
 7821SOL     OW35098   1.564   1.393   0.541  0.1964  0.2506 -0.2886
 7821SOL    HW135099   1.580   1.442   0.461 -1.2606  0.2936 -0.5455
 7821SOL    HW235100   1.631   1.439   0.591 -2.2982  0.5488  2.7954
 7822SOL     OW35101   2.659   1.208   8.488  0.4171 -0.4369  0.1745
 7822SOL    HW135102   2.746   1.194   8.449  0.2799 -0.8061 -0.0067
 7822SOL    HW235103   2.604   1.208   8.409  0.4412 -1.7444  0.1535
 7823SOL     OW35104   4.460   3.777  17.451 -0.4612 -0.1372  0.3152
 7823SOL    HW135105   4.373   3.743  17.431 -0.1430  0.3240 -1.9438
 7823SOL    HW235106   4.439   3.821  17.533  2.7383  0.4004  0.8408
 7824SOL     OW35107   0.548   4.278   3.923 -0.6106 -0.2087 -0.1104
 7824SOL    HW135108   0.509   4.345   3.867  1.2753  1.0903  0.1548
 7824SOL    HW235109   0.619   4.326   3.966 -0.2738  1.4915 -2.6119
 7825SOL     OW35110   3.540   4.060   6.775 -0.1140 -0.3238  0.2852
 7825SOL    HW135111   3.504   4.108   6.701  1.1697  0.8480  0.4028
 7825SOL    HW235112   3.455   4.032   6.808 -0.4884  0.7613  0.2367
 7826SOL     OW35113   2.589   3.886  10.518  0.7357  0.2537  0.2588
 7826SOL    HW135114   2.509   3.836  10.533 -0.1280  0.9443 -2.0348
 7826SOL    HW235115   2.649   3.836  10.574  0.5087 -2.3992 -1.8583
 7827SOL     OW35116   2.437   0.512   5.509 -0.0875 -0.4250 -0.4922
 7827SOL    HW135117   2.494   0.497   5.584 -1.1373  0.0786  0.4086
 7827SOL    HW235118   2.498   0.544   5.444  0.3224  1.7026  0.9478
 7828SOL     OW35119   4.088   0.084   5.149 -0.1018 -0.3237  0.1482
 7828SOL    HW135120   4.151   0.152   5.170  1.0922 -0.6194 -2.3930
 7828SOL    HW235121   4.006   0.121   5.179  1.0019  1.0035  1.5085
 7829SOL     OW35122   0.033   4.095   4.009 -0.0517  0.4358 -0.3269
 7829SOL    HW135123   4.709   4.084   3.934  1.6627 -0.9276 -1.4808
 7829SOL    HW235124   4.723   4.046   4.078  1.0549 -0.0574  0.0433
 7830SOL     OW35125   3.658   3.184   7.589  0.0165 -0.3200 -0.3002
 7830SOL    HW135126   3.688   3.264   7.633  1.0798  0.6270 -2.7187
 7830SOL    HW235127   3.615   3.223   7.512 -2.6660 -2.8795 -0.1107
 7831SOL     OW35128   3.479   4.062   7.506 -0.0305  0.0747 -0.0842
 7831SOL    HW135129   3.409   4.087   7.446 -0.6985  0.5105  0.8812
 7831SOL    HW235130   3.424   4.054   7.584  0.8301 -0.3057  0.4883
 7832SOL     OW35131   3.080   2.423  11.411  0.2694 -0.0418  0.2084
 7832SOL    HW135132   2.993   2.408  11.449 -0.0976  0.7038 -0.3434
 7832SOL    HW235133   3.086   2.356  11.342  1.5332  1.7185 -1.3860
 7833SOL     OW35134   3.495   1.602   3.810 -0.0915 -0.3633  0.1825
 7833SOL    HW135135   3.477   1.598   3.716  1.5094  1.9609 -0.2375
 7833SOL    HW235136   3.581   1.644   3.804  0.1117 -0.6149  1.5173
 7834SOL     OW35137   3.568   4.062   7.925 -1.0016 -0.0828  0.4091
 7834SOL    HW135138   3.527   4.148   7.920 -2.0749 -0.4351  3.1728
 7834SOL    HW235139   3.559   4.039   8.018  0.9463  0.9388  0.8430
 7835SOL     OW35140   1.860   4.674  10.063 -0.0234 -0.2840 -0.5852
 7835SOL    HW135141   1.884   4.582  10.053 -0.0161 -0.0441 -2.7763
 7835SOL    HW235142   1.936   4.715  10.022  1.5761 -2.2220  0.4344
 7836SOL     OW35143   3.064   2.346   7.817  0.5907 -0.1920 -0.3635
 7836SOL    HW135144   3.044   2.432   7.779  1.9502  0.0631 -0.5123
 7836SOL    HW235145   3.047   2.299   7.735 -0.3117  0.3308 -0.4838
 7837SOL     OW35146   0.391   1.160  14.975 -0.0766 -0.5112 -0.0939
 7837SOL    HW135147   0.450   1.112  15.033 -1.4486  1.0006  2.5486
 7837SOL    HW235148   0.302   1.131  14.996  0.4017 -0.0614  2.4455
 7838SOL     OW35149   2.993   3.732   2.181  0.1034 -0.4947  0.1133
 7838SOL    HW135150   3.075   3.708   2.224  1.4396  0.2482 -2.0394
 7838SOL    HW235151   2.941   3.652   2.179 -1.4795  0.5524 -0.3321
 7839SOL     OW35152   2.156   1.767   2.564  0.2922 -0.0402 -0.7102
 7839SOL    HW135153   2.155   1.819   2.644 -1.8822  1.7457 -1.8835
 7839SOL    HW235154   2.245   1.786   2.534 -0.3273  1.4167 -1.6646
 7840SOL     OW35155   1.190   2.324   1.783  0.7882  0.1993 -0.2543
 7840SOL    HW135156   1.269   2.331   1.729  1.3346 -0.9868  0.4126
 7840SOL    HW235157   1.219   2.258   1.846 -0.1334 -0.0941 -0.1427
 7841SOL     OW35158   4.610   1.434   0.275  0.3448  0.5571 -0.3255
 7841SOL    HW135159   4.515   1.439   0.259  0.1906 -0.2013  0.3281
 7841SOL    HW235160   4.645   1.498   0.213  1.5324  1.5867  1.4278
 7842SOL     OW35161   1.417   4.224   6.099  0.1965  0.2982 -0.5632
 7842SOL    HW135162   1.429   4.312   6.135 -0.7397 -0.2116  0.9872
 7842SOL    HW235163   1.391   4.169   6.173  1.0197 -0.8007 -1.0966
 7843SOL     OW35164   2.865   1.340   8.090 -0.5748  0.6109 -0.4840
 7843SOL    HW135165   2.863   1.387   8.007 -4.4326 -1.3147 -1.5015
 7843SOL    HW235166   2.809   1.389   8.151  0.3309 -0.6075  1.3337
 7844SOL     OW35167   4.465   4.042   5.895 -0.1971  0.3694 -0.1006
 7844SOL    HW135168   4.422   4.127   5.884 -2.1793 -0.4952  1.0148
 7844SOL    HW235169   4.401   3.990   5.845  0.4068  0.1774 -0.6731
 7845SOL     OW35170   3.397   2.199   7.860  0.4917 -0.6532 -0.1667
 7845SOL    HW135171   3.327   2.156   7.811  1.4744 -2.2793 -0.1741
 7845SOL    HW235172   3.353   2.255   7.923 -1.1512  0.3450 -2.2017
 7846SOL     OW35173   0.913   1.311   3.260  0.1444 -0.1966  0.1976
 7846SOL    HW135174   0.953   1.319   3.174 -2.3154  3.4371 -0.6146
 7846SOL    HW235175   0.881   1.398   3.284  1.1935  0.3415 -0.3920
 7847SOL     OW35176   2.288   4.267   7.451 -0.2750  0.0497  0.1511
 7847SOL    HW135177   2.263   4.175   7.440  0.1970 -0.1125  0.4675
 7847SOL    HW235178   2.223   4.294   7.516  0.4480  0.7990  0.5572
 7848SOL     OW35179   3.740   0.111   7.249 -0.9049 -0.2884 -0.2275
 7848SOL    HW135180   3.737   0.093   7.343 -0.3966 -2.4342 -0.6262
 7848SOL    HW235181   3.761   0.203   7.239  1.3535 -0.7801  0.1272
 7849SOL     OW35182   3.116   1.321   7.005  0.1175 -0.4118  0.1980
 7849SOL    HW135183   3.060   1.384   6.961 -0.4644 -0.9632  0.1433
 7849SOL    HW235184   3.161   1.383   7.063  0.0756  0.4315 -0.6860
 7850SOL     OW35185   3.544   3.070   8.995  0.2372  0.0801 -0.5932
 7850SOL    HW135186   3.458   3.059   8.954  0.0308 -1.7818  0.3268
 7850SOL    HW235187   3.545   3.003   9.063 -0.8637  1.8613  1.1663
 7851SOL     OW35188   3.380   3.679   3.789  0.2238 -0.1995  0.2383
 7851SOL    HW135189   3.461   3.685   3.840  0.0539  1.6067  0.2851
 7851SOL    HW235190   3.320   3.661   3.861 -0.4967  0.1596 -0.2737
 7852SOL     OW35191   0.564   0.505   7.542 -0.3689 -0.3421  0.3452
 7852SOL    HW135192   0.485   0.559   7.533 -0.3865 -0.6393 -1.4016
 7852SOL    HW235193   0.596   0.529   7.455 -1.3717  1.0284  0.3538
 7853SOL     OW35194   0.839   2.104  10.409  0.3327 -0.4713 -0.5392
 7853SOL    HW135195   0.818   2.039  10.342 -1.1976  0.3198 -0.8324
 7853SOL    HW235196   0.933   2.104  10.394  0.2848 -0.0312 -0.8527
 7854SOL     OW35197   3.802   0.791  17.087  0.6665  0.3565 -0.3706
 7854SOL    HW135198   3.874   0.797  17.150 -0.0023  1.4770  0.2881
 7854SOL    HW235199   3.810   0.866  17.028  0.7272  0.6283 -0.0134
 7855SOL     OW35200   2.002   4.650   8.588 -0.0450 -0.1143 -0.6819
 7855SOL    HW135201   1.969   4.574   8.540  0.2008  0.2087 -1.3670
 7855SOL    HW235202   2.079   4.616   8.632  0.5408  1.8551 -0.1818
 7856SOL     OW35203   3.582   4.319   0.343 -0.2764 -0.2086  0.1914
 7856SOL    HW135204   3.546   4.362   0.265 -0.5729 -2.4144 -0.9052
 7856SOL    HW235205   3.594   4.395   0.399 -0.6295  0.4250 -0.5932
 7857SOL     OW35206   4.206   2.229   0.708  0.1191 -0.1783  0.5086
 7857SOL    HW135207   4.161   2.231   0.793 -0.5530  0.0050  0.1535
 7857SOL    HW235208   4.134   2.215   0.647 -0.1365 -0.5974  0.9114
 7858SOL     OW35209   2.805   0.479   6.235 -0.3425 -0.0991 -0.5081
 7858SOL    HW135210   2.725   0.441   6.199 -0.1489 -1.1831  0.2171
 7858SOL    HW235211   2.836   0.516   6.153 -0.3581 -2.5779 -1.6045
 7859SOL     OW35212   2.979   4.064  12.701 -0.1574  0.1496  0.1801
 7859SOL    HW135213   2.896   4.087  12.741 -1.5880 -1.0942 -2.1143
 7859SOL    HW235214   2.988   3.975  12.735 -0.6572  0.3339  0.7968
 7860SOL     OW35215   0.602   1.423  14.411  0.6385 -0.0223 -0.2969
 7860SOL    HW135216   0.618   1.506  14.456  0.9815  0.0305 -0.5120
 7860SOL    HW235217   0.633   1.433  14.321  0.2322 -1.1249 -0.5568
 7861SOL     OW35218   0.733   4.242   6.078  0.4077 -0.5047 -0.0404
 7861SOL    HW135219   0.765   4.307   6.016  0.7885  0.4000  1.1117
 7861SOL    HW235220   0.813   4.189   6.090 -0.8635 -2.1960  1.0534
 7862SOL     OW35221   3.745   1.976   9.146 -0.1207 -0.2781 -0.4740
 7862SOL    HW135222   3.652   1.968   9.163 -0.7568 -1.6526 -4.5399
 7862SOL    HW235223   3.788   1.935   9.221 -0.0149 -0.4591 -0.6295
 7863SOL     OW35224   2.994   4.035   9.862  0.5209 -0.1945 -0.0616
 7863SOL    HW135225   3.037   3.950   9.864  1.3097  0.2128  0.1375
 7863SOL    HW235226   3.067   4.090   9.888 -1.3631  2.1301  0.3265
 7864SOL     OW35227   0.055   2.898  13.923 -0.5626 -0.0963 -0.1994
 7864SOL    HW135228   0.025   2.902  14.014  0.3846 -1.1850  0.1529
 7864SOL    HW235229   0.139   2.943  13.921 -0.3345 -0.4624  0.9115
 7865SOL     OW35230   2.894   1.503  17.379  0.4187  0.1819 -0.0110
 7865SOL    HW135231   2.852   1.424  17.415  0.4323  0.5293  0.7696
 7865SOL    HW235232   2.977   1.467  17.348  0.6220  0.5114  0.1530
 7866SOL     OW35233   2.308   1.130   1.544  0.9234 -0.1123 -0.3280
 7866SOL    HW135234   2.256   1.191   1.491  0.0974 -0.3589  0.2099
 7866SOL    HW235235   2.323   1.168   1.630 -0.3954  0.3480 -0.2985
 7867SOL     OW35236   1.032   3.706   6.491 -0.2527 -0.1380 -0.0011
 7867SOL    HW135237   1.047   3.765   6.564  0.1395  0.3551 -0.4821
 7867SOL    HW235238   1.090   3.743   6.425 -0.8956  0.6280 -0.1370
 7868SOL     OW35239   0.580   2.509   7.386 -0.2822  0.1243 -0.4109
 7868SOL    HW135240   0.581   2.579   7.321  0.3730  0.3015 -0.2092
 7868SOL    HW235241   0.644   2.537   7.451 -1.0706  1.1105 -0.0577
 7869SOL     OW35242   0.966   3.562   6.832 -0.7296  0.1102  0.2444
 7869SOL    HW135243   0.906   3.585   6.903 -1.0367  0.8832 -0.2652
 7869SOL    HW235244   0.982   3.644   6.786  3.6187 -1.7413 -1.5413
 7870SOL     OW35245   3.668   1.229   4.150 -0.6644 -0.0677 -0.2166
 7870SOL    HW135246   3.647   1.301   4.090 -1.1855 -0.1995 -0.1959
 7870SOL    HW235247   3.748   1.198   4.108 -0.5397 -1.9108  1.4340
 7871SOL     OW35248   3.076   2.208   7.582  0.3488  0.7988 -0.0932
 7871SOL    HW135249   3.126   2.132   7.611 -0.3042 -0.1635 -1.4599
 7871SOL    HW235250   3.149   2.263   7.553  1.5448 -1.4361 -1.3117
 7872SOL     OW35251   2.980   1.197  15.166 -0.2145  0.7457  0.6948
 7872SOL    HW135252   3.004   1.105  15.157 -3.5173 -0.3894  3.2596
 7872SOL    HW235253   2.905   1.199  15.108 -0.5765  1.6796  1.1983
 7873SOL     OW35254   1.972   1.529   5.064 -0.4374  0.0229 -0.2252
 7873SOL    HW135255   2.013   1.454   5.022 -0.5414 -1.1309  1.7641
 7873SOL    HW235256   1.933   1.485   5.139 -1.3703  1.2892  0.0414
 7874SOL     OW35257   0.189   3.050  16.511 -0.2805  0.4562  0.2546
 7874SOL    HW135258   0.269   3.020  16.469  1.1329  3.0163  1.0466
 7874SOL    HW235259   0.155   2.971  16.553  2.8014 -1.9332 -1.8555
 7875SOL     OW35260   1.999   1.889   0.146  0.0889 -0.3211 -0.3330
 7875SOL    HW135261   1.961   1.862   0.063 -1.2563  0.0553  0.1557
 7875SOL    HW235262   1.993   1.804   0.191  0.9852  1.3400  2.9360
 7876SOL     OW35263   0.381   3.101   9.136  0.3298  0.1602 -0.4134
 7876SOL    HW135264   0.336   3.046   9.072 -1.4013  1.6200 -0.4718
 7876SOL    HW235265   0.426   3.166   9.081  1.3153  0.5865  0.8925
 7877SOL     OW35266   3.150   1.708  17.671 -0.1113  0.1013  0.0090
 7877SOL    HW135267   3.243   1.703  17.650  0.2378  1.7336  1.1779
 7877SOL    HW235268   3.111   1.755  17.597  0.5442  0.9852  0.2265
 7878SOL     OW35269   1.321   3.213   1.199 -0.2324 -0.1502 -0.2196
 7878SOL    HW135270   1.312   3.174   1.112 -0.2174  1.2119 -0.8165
 7878SOL    HW235271   1.370   3.294   1.191  0.1209  0.0239  3.5417
 7879SOL     OW35272   2.418   1.170   7.640 -0.1030  0.1098 -0.3272
 7879SOL    HW135273   2.365   1.248   7.654 -0.9452 -0.7219  1.1304
 7879SOL    HW235274   2.508   1.200   7.651 -0.3018  0.6041 -0.0501
 7880SOL     OW35275   2.107   2.530   0.920 -0.5036 -0.4835 -0.0455
 7880SOL    HW135276   2.162   2.478   0.861 -0.5589  0.4041 -0.8759
 7880SOL    HW235277   2.169   2.599   0.942 -1.7135  0.6918 -0.3940
 7881SOL     OW35278   4.280   2.452   7.593  0.0244  0.1150 -0.3135
 7881SOL    HW135279   4.321   2.526   7.548 -1.0027 -0.5604 -2.3490
 7881SOL    HW235280   4.231   2.498   7.662  0.7707 -5.1652  3.7337
 7882SOL     OW35281   1.613   0.299   0.766  0.1370  0.1064  0.3163
 7882SOL    HW135282   1.623   0.333   0.677  0.2439 -1.6217 -0.3197
 7882SOL    HW235283   1.521   0.308   0.789  0.2247 -2.2820  1.5667
 7883SOL     OW35284   2.168   4.130   2.168 -0.3799  0.4403  0.4050
 7883SOL    HW135285   2.089   4.104   2.217 -2.9361  4.9437 -1.3002
 7883SOL    HW235286   2.126   4.171   2.092 -1.3101 -0.0878  0.6282
 7884SOL     OW35287   3.994   2.504   7.095  0.3292 -0.2335  0.4525
 7884SOL    HW135288   3.909   2.468   7.070 -0.5541  4.3142 -3.1059
 7884SOL    HW235289   4.052   2.429   7.081 -3.0862 -2.5168 -1.3918
 7885SOL     OW35290   3.752   0.564   2.110 -0.1294  0.0999 -0.0279
 7885SOL    HW135291   3.815   0.553   2.181 -1.9108 -0.1625  1.4982
 7885SOL    HW235292   3.729   0.656   2.097 -0.5382  0.0445  0.3239
 7886SOL     OW35293   1.367   4.171  13.448 -0.4556  0.5077 -0.0312
 7886SOL    HW135294   1.387   4.130  13.364  0.8836  0.1109  0.4760
 7886SOL    HW235295   1.322   4.101  13.496 -0.4600  0.0203 -0.7331
 7887SOL     OW35296   1.540   2.529   4.508  0.4645  0.3680 -0.3941
 7887SOL    HW135297   1.607   2.578   4.555  0.6854  2.5150 -2.9801
 7887SOL    HW235298   1.473   2.594   4.491 -0.2681 -0.3392 -0.2013
 7888SOL     OW35299   2.060   2.103  17.479  0.1400 -0.9210 -0.6368
 7888SOL    HW135300   2.055   2.014  17.514  3.6671 -1.4683 -1.5135
 7888SOL    HW235301   1.967   2.123  17.464  0.1742  0.3347  0.8189
 7889SOL     OW35302   2.961   1.753   7.866 -0.5157  0.3217  0.1006
 7889SOL    HW135303   2.964   1.754   7.962 -0.1646  1.7522  0.0665
 7889SOL    HW235304   3.056   1.757   7.852 -0.7124  0.5658 -1.1529
 7890SOL     OW35305   3.969   2.752   3.396 -0.7500  0.3561 -0.3267
 7890SOL    HW135306   3.917   2.678   3.364  0.9941 -0.5928 -0.9680
 7890SOL    HW235307   3.909   2.825   3.405  0.1372  1.1651 -0.9539
 7891SOL     OW35308   2.356   2.501   6.685 -0.3733  0.1230 -0.5894
 7891SOL    HW135309   2.388   2.420   6.725 -0.5453  0.4866  0.2919
 7891SOL    HW235310   2.298   2.457   6.624  0.2986 -3.0424  0.9993
 7892SOL     OW35311   2.587   0.241   3.974 -0.6515  0.0196  0.0564
 7892SOL    HW135312   2.670   0.196   3.982 -0.8185 -0.3251 -0.1619
 7892SOL    HW235313   2.560   0.243   3.882  1.2974  0.8470 -0.5001
 7893SOL     OW35314   3.564   4.029  16.148 -0.8462  0.6482 -0.0128
 7893SOL    HW135315   3.534   3.939  16.139  2.0500 -0.3162 -0.0214
 7893SOL    HW235316   3.549   4.063  16.060  1.5897  1.1130 -0.2545
 7894SOL     OW35317   3.752   2.230   9.034  0.2849 -0.3269 -0.5220
 7894SOL    HW135318   3.788   2.288   9.102 -1.7134  1.3586 -0.9029
 7894SOL    HW235319   3.760   2.148   9.082  1.1032  0.3763  0.5312
 7895SOL     OW35320   3.579   0.664  14.817  0.1632 -0.1974  0.7443
 7895SOL    HW135321   3.608   0.747  14.779 -0.2032 -1.2510 -1.8170
 7895SOL    HW235322   3.493   0.666  14.775  0.5486  2.6562  0.0706
 7896SOL     OW35323   2.687   1.817  11.012 -0.4036  0.4769  0.0511
 7896SOL    HW135324   2.600   1.792  10.980 -2.0087  1.2851  3.7175
 7896SOL    HW235325   2.661   1.878  11.082  0.5937 -0.5273  1.2805
 7897SOL     OW35326   0.507   4.471   1.712 -0.2178  0.3532 -0.5013
 7897SOL    HW135327   0.557   4.410   1.766 -1.1455  0.7155  0.7657
 7897SOL    HW235328   0.436   4.430   1.662 -0.4674  0.4847 -0.2536
 7898SOL     OW35329   0.554   4.249   2.200  0.1315 -0.1604  0.9388
 7898SOL    HW135330   0.535   4.156   2.191 -0.2298 -0.1520  1.6141
 7898SOL    HW235331   0.631   4.240   2.256  1.2445  1.5703 -0.3129
 7899SOL     OW35332   1.466   4.122   3.397 -1.1291  0.0797  0.4306
 7899SOL    HW135333   1.394   4.159   3.347 -0.9126  1.3951  1.0933
 7899SOL    HW235334   1.488   4.051   3.337 -2.6549  0.8522 -1.0247
 7900SOL     OW35335   3.947   2.158   5.574  0.0465  0.4812  0.1290
 7900SOL    HW135336   4.027   2.153   5.522 -0.3487 -1.1679 -0.3031
 7900SOL    HW235337   3.964   2.234   5.631  1.5678  1.8454 -2.1679
 7901SOL     OW35338   1.202   1.295   8.942  0.0832 -0.7656 -0.7797
 7901SOL    HW135339   1.227   1.336   8.860  0.1818  0.3659 -0.1927
 7901SOL    HW235340   1.248   1.211   8.942  0.3677 -0.6067 -0.8556
 7902SOL     OW35341   1.786   4.034  16.186 -0.3054 -0.2076 -0.1260
 7902SOL    HW135342   1.730   4.109  16.207 -1.5604 -1.0528 -0.4455
 7902SOL    HW235343   1.767   4.025  16.092  0.6834  0.5319 -0.3975
 7903SOL     OW35344   2.887   1.158   2.347  0.0377 -0.4312 -0.7333
 7903SOL    HW135345   2.841   1.205   2.416  0.3492  0.9477 -1.4759
 7903SOL    HW235346   2.922   1.225   2.289 -1.5489  1.1367  0.1290
 7904SOL     OW35347   1.865   2.051   5.324 -0.5863  0.6504 -0.3053
 7904SOL    HW135348   1.893   2.048   5.232 -0.1730 -2.2065 -0.0967
 7904SOL    HW235349   1.938   2.043   5.385 -0.6345  0.9563 -0.2084
 7905SOL     OW35350   3.027   2.106   4.045 -0.2252  0.3721  1.0849
 7905SOL    HW135351   3.115   2.068   4.041  0.1810  1.4451 -0.4196
 7905SOL    HW235352   3.034   2.145   3.957 -0.9093  1.5882  1.5798
 7906SOL     OW35353   0.466   3.793  15.004 -0.3749 -0.6872  0.2162
 7906SOL    HW135354   0.407   3.724  15.035 -1.9727  0.0821 -1.1198
 7906SOL    HW235355   0.537   3.780  15.067  1.5214  0.4958 -1.6830
 7907SOL     OW35356   0.497   2.279   7.489  0.4591  1.3694 -0.5356
 7907SOL    HW135357   0.584   2.240   7.484 -0.9186 -1.6213 -0.5831
 7907SOL    HW235358   0.512   2.369   7.457 -3.2912  2.3729  0.5533
 7908SOL     OW35359   3.301   2.006   5.127 -0.0132 -0.0656 -0.1373
 7908SOL    HW135360   3.274   1.976   5.040  0.6217 -0.9413 -0.0256
 7908SOL    HW235361   3.392   2.020   5.102  0.3274 -0.1000  1.0786
 7909SOL     OW35362   0.323   2.996   8.614  0.4711  0.1999 -0.1335
 7909SOL    HW135363   0.245   2.969   8.567  0.6754  0.2195 -0.4865
 7909SOL    HW235364   0.311   3.088   8.635 -0.2348  0.4288 -1.5382
 7910SOL     OW35365   0.095   0.620  14.509 -0.2346 -0.5174  0.0149
 7910SOL    HW135366   0.088   0.696  14.451  2.8552  1.3331  2.0613
 7910SOL    HW235367   0.099   0.649  14.600 -0.8564  0.2697 -0.2087
 7911SOL     OW35368   4.266   1.814  15.005 -0.0142 -0.0223  0.1395
 7911SOL    HW135369   4.288   1.818  14.912  1.5101  1.0767  0.5419
 7911SOL    HW235370   4.317   1.885  15.043  2.1360 -1.5163  0.0674
 7912SOL     OW35371   0.789   0.692   9.580 -0.0799  0.4851 -0.1608
 7912SOL    HW135372   0.759   0.783   9.575 -3.1789 -0.5976 -1.0860
 7912SOL    HW235373   0.880   0.704   9.554 -0.5319 -0.1319 -2.0325
 7913SOL     OW35374   0.568   1.771  12.993 -0.3489  0.2193 -0.1164
 7913SOL    HW135375   0.511   1.748  13.066 -0.9280 -1.7236 -1.1754
 7913SOL    HW235376   0.657   1.751  13.022 -0.4416  0.1750  0.1386
 7914SOL     OW35377   3.988   0.745  13.382 -0.0977 -0.2299  0.0198
 7914SOL    HW135378   4.061   0.803  13.358 -1.6966  1.3682 -0.9268
 7914SOL    HW235379   3.949   0.795  13.453  1.1935 -0.9690  1.2631
 7915SOL     OW35380   4.590   3.225  16.919 -0.3006  0.7787  0.1715
 7915SOL    HW135381   4.673   3.222  16.968 -0.3770 -0.5103  0.2213
 7915SOL    HW235382   4.612   3.194  16.831 -1.8931  0.3472 -0.0616
 7916SOL     OW35383   0.464   4.279  14.754 -0.0079 -0.0870  0.2808
 7916SOL    HW135384   0.488   4.371  14.752  1.0417 -0.3669 -0.0719
 7916SOL    HW235385   0.421   4.272  14.839  0.6409 -0.4146  0.5801
 7917SOL     OW35386   1.868   0.335   7.097 -0.6627 -0.0497  0.2898
 7917SOL    HW135387   1.795   0.325   7.036  0.6969  1.7841 -1.6417
 7917SOL    HW235388   1.942   0.349   7.038 -0.4897  5.1727  1.7318
 7918SOL     OW35389   3.125   0.576   3.705  0.1261 -0.2489 -0.4228
 7918SOL    HW135390   3.122   0.604   3.797 -0.3363  1.3802 -0.9446
 7918SOL    HW235391   3.040   0.533   3.695 -0.7232  1.4764 -0.6199
 7919SOL     OW35392   0.100   2.652  17.674 -0.3388  0.2497  0.1387
 7919SOL    HW135393   0.142   2.730  17.636 -1.1256  0.4197 -0.3756
 7919SOL    HW235394   0.131   2.666   0.022 -0.3488 -0.2965  0.2265
 7920SOL     OW35395   4.564   3.684   0.974  0.2009  0.0205 -0.6000
 7920SOL    HW135396   4.502   3.741   1.019 -0.0427 -0.5864 -0.1542
 7920SOL    HW235397   4.544   3.596   1.006 -1.5370  0.4167 -0.6295
 7921SOL     OW35398   1.385   0.973   7.562  0.7818 -0.1337  0.0238
 7921SOL    HW135399   1.317   1.016   7.614  1.8213 -0.6684  1.8318
 7921SOL    HW235400   1.467   0.993   7.608  0.7189  0.9610 -0.3475
 7922SOL     OW35401   0.032   3.080  12.569  0.9968  0.6794 -0.4112
 7922SOL    HW135402   0.044   3.055  12.660 -2.6752  0.0467 -0.1129
 7922SOL    HW235403   4.722   3.163  12.583  0.2002 -0.1499  1.8665
 7923SOL     OW35404   1.392   4.695  15.109 -0.0682 -0.2725 -0.2144
 7923SOL    HW135405   1.389   4.699  15.204  0.7933  0.5140 -0.2186
 7923SOL    HW235406   1.447   0.036  15.091  1.1611 -0.9254  0.8746
 7924SOL     OW35407   0.685   2.183   3.127 -0.6910  0.4662  0.5904
 7924SOL    HW135408   0.659   2.245   3.058 -1.0064  0.2443  0.5096
 7924SOL    HW235409   0.618   2.183   3.196 -1.4865  2.2607 -0.1663
 7925SOL     OW35410   3.432   2.880  10.917  0.0852  0.4152  0.3630
 7925SOL    HW135411   3.498   2.886  10.986  0.6024 -1.6009  0.0472
 7925SOL    HW235412   3.429   2.785  10.912  1.5949  0.3716  0.2317
 7926SOL     OW35413   4.197   2.073   1.030 -0.1389  0.3250 -0.8047
 7926SOL    HW135414   4.169   2.055   1.120 -0.1254  0.3123 -0.8031
 7926SOL    HW235415   4.145   2.146   0.996 -0.1312  0.6436 -0.1421
 7927SOL     OW35416   4.171   2.274   7.998 -0.4165 -0.1230 -0.4159
 7927SOL    HW135417   4.103   2.333   7.966 -0.7276 -1.7626 -2.7401
 7927SOL    HW235418   4.176   2.286   8.093 -1.7648 -0.3015 -0.3197
 7928SOL     OW35419   3.743   1.735  12.470 -0.2063 -0.1318 -0.0435
 7928SOL    HW135420   3.831   1.720  12.437  0.2558  0.9472  0.6782
 7928SOL    HW235421   3.692   1.777  12.401 -0.1883 -0.0862 -0.0295
 7929SOL     OW35422   0.277   2.516   5.603 -0.6825  0.3103 -0.3895
 7929SOL    HW135423   0.284   2.565   5.684 -0.4831 -0.8476  0.2895
 7929SOL    HW235424   0.306   2.588   5.547  1.6923  1.0298  1.7846
 7930SOL     OW35425   0.265   3.058   7.413 -0.2670 -0.3359  0.0292
 7930SOL    HW135426   0.171   3.043   7.401 -0.8245  1.2725  2.4052
 7930SOL    HW235427   0.267   3.146   7.451 -0.5774 -1.0722  1.7421
 7931SOL     OW35428   1.743   3.032   4.721  0.3542 -0.2325  0.5298
 7931SOL    HW135429   1.678   2.966   4.696  0.2873 -0.3954  1.1402
 7931SOL    HW235430   1.688   3.096   4.766  0.4377 -0.5913  1.1387
 7932SOL     OW35431   1.373   2.940  14.598 -0.0480  0.4141  0.0889
 7932SOL    HW135432   1.410   2.940  14.687 -0.8245  0.7205  0.4106
 7932SOL    HW235433   1.460   2.944  14.557  0.0806 -1.5189  0.1847
 7933SOL     OW35434   1.484   3.644   2.708 -0.5992  0.5352 -0.4811
 7933SOL    HW135435   1.514   3.646   2.617 -2.6726  2.4502 -1.1095
 7933SOL    HW235436   1.394   3.669   2.687 -0.6977  0.1844 -0.4828
 7934SOL     OW35437   2.224   4.348   9.476  0.0045 -0.0718  0.7455
 7934SOL    HW135438   2.130   4.341   9.460 -0.1596  1.0755  1.2514
 7934SOL    HW235439   2.222   4.354   9.572 -0.9104 -1.9211  0.8393
 7935SOL     OW35440   2.471   0.524   2.366  0.3872 -0.1172 -0.6545
 7935SOL    HW135441   2.451   0.431   2.362 -0.2510  0.0592 -1.7639
 7935SOL    HW235442   2.564   0.506   2.378  0.3499  1.1908  1.5983
 7936SOL     OW35443   2.344   3.875   1.449  0.5256  0.3065 -0.0287
 7936SOL    HW135444   2.252   3.852   1.433  0.7527  0.7432 -1.9070
 7936SOL    HW235445   2.335   3.950   1.509  0.3437  0.7155 -0.5630
 7937SOL     OW35446   2.640   1.944   5.187 -0.2165 -0.1724  0.6227
 7937SOL    HW135447   2.622   1.887   5.112  0.8131 -0.2121  0.4093
 7937SOL    HW235448   2.563   1.915   5.235 -1.4159  1.2001 -0.4712
 7938SOL     OW35449   1.931   0.911   1.300  0.0496 -0.0206  0.2382
 7938SOL    HW135450   1.975   0.994   1.280  1.0998 -0.4773  0.6387
 7938SOL    HW235451   1.999   0.862   1.346 -1.3652 -1.6664  0.6073
 7939SOL     OW35452   4.120   3.919   6.901 -0.7571 -0.0407  0.0543
 7939SOL    HW135453   4.052   3.867   6.943  0.4147 -0.7219  1.1254
 7939SOL    HW235454   4.148   3.970   6.977 -0.8819 -2.1329  1.5135
 7940SOL     OW35455   3.567   0.407   3.264  0.1505 -0.0362  0.2388
 7940SOL    HW135456   3.534   0.327   3.304 -0.8270  0.7680  1.0497
 7940SOL    HW235457   3.655   0.378   3.241 -0.5364 -0.4144 -1.9438
 7941SOL     OW35458   2.271   2.761   9.151 -0.0061 -0.3317  0.2345
 7941SOL    HW135459   2.227   2.771   9.066 -0.6143 -3.3499  0.1881
 7941SOL    HW235460   2.303   2.671   9.146 -0.7740 -0.6001  0.1675
 7942SOL     OW35461   2.602   0.947   6.816  0.2102 -0.0367 -0.1933
 7942SOL    HW135462   2.693   0.919   6.802  0.2641 -0.4444  0.9199
 7942SOL    HW235463   2.598   1.032   6.773  2.4865  1.3341  2.2348
 7943SOL     OW35464   0.285   2.075   6.407 -0.0031  0.4281 -0.1152
 7943SOL    HW135465   0.210   2.032   6.448  0.1573  0.8546  0.6235
 7943SOL    HW235466   0.249   2.105   6.323 -3.5222  0.1522  1.2804
 7944SOL     OW35467   1.434   2.889   3.639 -0.1638 -0.2073 -0.4756
 7944SOL    HW135468   1.502   2.918   3.578  0.3490  0.7263  0.5372
 7944SOL    HW235469   1.384   2.971   3.649 -1.3540 -0.7322 -2.1970
 7945SOL     OW35470   3.813   3.310   1.654  0.1028  0.5014 -0.4447
 7945SOL    HW135471   3.839   3.235   1.708 -1.0063  2.1006  2.2817
 7945SOL    HW235472   3.770   3.364   1.719  0.0627  1.4152 -1.2258
 7946SOL     OW35473   2.959   3.819   8.942 -0.6398  0.4537  0.0921
 7946SOL    HW135474   2.918   3.770   8.870  1.5766 -0.6014 -0.4610
 7946SOL    HW235475   2.975   3.746   9.002 -0.4269 -0.5529 -1.1785
 7947SOL     OW35476   1.743   0.645   3.178  0.5485 -0.1052  0.3423
 7947SOL    HW135477   1.717   0.552   3.183  0.0714  0.0036 -0.0911
 7947SOL    HW235478   1.660   0.689   3.157  0.3922  1.0225  3.4125
 7948SOL     OW35479   1.357   3.015   7.546  0.4553 -0.1241 -0.2118
 7948SOL    HW135480   1.308   2.962   7.483 -1.9558 -0.5068  2.0305
 7948SOL    HW235481   1.447   3.013   7.512  1.0002 -1.4376  1.3081
 7949SOL     OW35482   0.694   3.032  10.002 -0.4844  1.3082 -0.5358
 7949SOL    HW135483   0.727   2.979  10.074 -1.9831 -0.0257 -0.8291
 7949SOL    HW235484   0.675   2.963   9.937  2.6948  0.3329 -0.4228
 7950SOL     OW35485   2.250   3.908   2.457  0.1808  0.4727 -0.5583
 7950SOL    HW135486   2.192   3.937   2.387 -0.4182  0.5166 -0.0399
 7950SOL    HW235487   2.191   3.897   2.531  1.1195  0.7487  0.2347
 7951SOL     OW35488   3.415   1.865   6.303  0.1375 -0.5968 -0.2488
 7951SOL    HW135489   3.337   1.896   6.349  2.9242  0.5489  3.6669
 7951SOL    HW235490   3.474   1.933   6.335  0.1234 -0.7336  0.0708
 7952SOL     OW35491   1.832   1.769   4.267  0.3282  0.1479 -0.3485
 7952SOL    HW135492   1.795   1.714   4.198 -0.8019  2.0662 -1.3001
 7952SOL    HW235493   1.896   1.712   4.309  0.0800 -0.5606 -0.9417
 7953SOL     OW35494   3.846   0.104   6.218  0.1984 -0.0567  0.7355
 7953SOL    HW135495   3.776   0.086   6.155  1.5391 -1.2965 -0.4133
 7953SOL    HW235496   3.913   0.132   6.155 -1.0497 -0.9115 -0.9722
 7954SOL     OW35497   3.468   1.509   1.112 -0.0206  0.3819  0.5002
 7954SOL    HW135498   3.457   1.510   1.207  0.8183 -1.1968  0.6093
 7954SOL    HW235499   3.385   1.470   1.083 -0.4914  0.7827  1.3114
 7955SOL     OW35500   4.484   2.296   3.762 -0.7780  0.2348  0.2287
 7955SOL    HW135501   4.557   2.284   3.823 -0.4867  2.4850  0.3357
 7955SOL    HW235502   4.538   2.306   3.684  0.5127  1.1073  1.2359
 7956SOL     OW35503   4.618   2.133   6.117 -0.2410 -0.0239  0.0148
 7956SOL    HW135504   4.555   2.062   6.105 -0.5277  0.1921  0.2448
 7956SOL    HW235505   4.570   2.179   6.186  0.4732  0.1430  0.3962
 7957SOL     OW35506   1.564   3.257  17.682 -0.0522 -0.2149 -0.1847
 7957SOL    HW135507   1.609   3.338  17.705  2.6234 -1.4754 -0.9663
 7957SOL    HW235508   1.608   3.209   0.011 -0.1839 -1.6024 -1.0526
 7958SOL     OW35509   1.238   4.166   5.869 -0.1823 -0.3292  0.5281
 7958SOL    HW135510   1.143   4.174   5.870 -0.1965 -0.4310 -1.1454
 7958SOL    HW235511   1.266   4.204   5.953  0.7534  0.9770 -0.3775
 7959SOL     OW35512   0.145   0.523  16.855 -0.0460  0.6410  0.5145
 7959SOL    HW135513   0.234   0.487  16.862 -0.0978  0.4693  0.3234
 7959SOL    HW235514   0.095   0.444  16.834 -1.1352  1.7475 -1.1047
 7960SOL     OW35515   3.652   4.609  11.630 -0.5262 -0.2066 -0.0768
 7960SOL    HW135516   3.730   4.607  11.575  0.5282  0.7442  1.3972
 7960SOL    HW235517   3.688   4.582  11.714  1.3562 -0.8615 -1.1022
 7961SOL     OW35518   2.867   3.060   7.679  0.1292  0.3879 -0.4699
 7961SOL    HW135519   2.913   3.120   7.621  1.2510  0.0598  0.0586
 7961SOL    HW235520   2.779   3.064   7.643 -0.6477 -0.2111  1.3434
 7962SOL     OW35521   3.501   1.589  16.195  0.1575 -0.2440  0.0958
 7962SOL    HW135522   3.502   1.685  16.185 -0.4535 -0.1110  1.2638
 7962SOL    HW235523   3.410   1.582  16.225 -0.0332  1.0279 -0.1661
 7963SOL     OW35524   4.542   3.815   1.438  0.4415 -0.2863  0.1524
 7963SOL    HW135525   4.562   3.871   1.513  2.2042 -0.9444  0.1700
 7963SOL    HW235526   4.452   3.792   1.461 -0.4911  0.8637 -2.2377
 7964SOL     OW35527   2.104   4.234   4.766 -0.0658  0.1741 -0.0244
 7964SOL    HW135528   2.124   4.264   4.677 -1.4539  0.7077 -0.1520
 7964SOL    HW235529   2.197   4.229   4.791  0.4251 -0.8894 -2.1419
 7965SOL     OW35530   1.700   1.048   2.381 -0.1648  0.3953  0.0719
 7965SOL    HW135531   1.777   0.990   2.376  0.5836  1.4351 -0.3820
 7965SOL    HW235532   1.687   1.073   2.290 -5.0801  1.5583  1.0851
 7966SOL     OW35533   4.490   4.238   5.012  0.0629 -0.2203  0.2903
 7966SOL    HW135534   4.419   4.192   4.967  1.2796 -3.0746  1.3317
 7966SOL    HW235535   4.450   4.303   5.069 -0.9959  0.3341 -1.0715
 7967SOL     OW35536   0.907   4.353   3.618  0.2961 -0.0171 -1.1351
 7967SOL    HW135537   0.871   4.391   3.698  1.1384  1.0398 -1.2666
 7967SOL    HW235538   0.983   4.408   3.604  0.9250 -0.8682 -1.0903
 7968SOL     OW35539   3.558   4.239   4.094  0.1783 -0.0970  0.4035
 7968SOL    HW135540   3.524   4.225   4.182 -0.4315  0.6233  0.2828
 7968SOL    HW235541   3.482   4.289   4.062 -0.9356 -1.3059  1.1964
 7969SOL     OW35542   2.539   1.574   8.757 -0.0479  0.1746 -0.3408
 7969SOL    HW135543   2.510   1.665   8.752 -1.7609 -0.2740  1.6177
 7969SOL    HW235544   2.553   1.568   8.852  0.5300  1.8896 -0.3237
 7970SOL     OW35545   1.681   1.531   5.777 -0.3585  0.1052  0.6776
 7970SOL    HW135546   1.762   1.481   5.771 -0.6241 -0.5127  2.3486
 7970SOL    HW235547   1.646   1.492   5.857 -2.1870 -0.6749 -0.5015
 7971SOL     OW35548   1.797   1.255   9.227  0.3111  0.2073  0.3241
 7971SOL    HW135549   1.878   1.259   9.278  0.3474  3.0621  0.0333
 7971SOL    HW235550   1.763   1.344   9.232 -1.5890 -0.4460 -1.1952
 7972SOL     OW35551   1.678   0.247   7.431 -0.6162 -0.0215 -0.2440
 7972SOL    HW135552   1.585   0.237   7.412 -0.8549  0.4044  0.7503
 7972SOL    HW235553   1.715   0.158   7.425 -2.7470 -0.9450  0.4723
 7973SOL     OW35554   1.510   1.410   5.613  0.1446 -0.3594  0.3541
 7973SOL    HW135555   1.585   1.459   5.647  0.3409  0.4745 -1.2808
 7973SOL    HW235556   1.450   1.401   5.687  1.3778  2.0821  1.6604
 7974SOL     OW35557   0.893   1.969  15.172  0.3913  0.6186  0.0617
 7974SOL    HW135558   0.936   1.884  15.177 -1.1821 -0.1474  0.6333
 7974SOL    HW235559   0.907   1.989  15.265 -0.5701 -0.4343  0.4346
 7975SOL     OW35560   0.904   1.987   8.242  0.0265 -0.1804  0.7864
 7975SOL    HW135561   0.890   1.927   8.169 -0.7454  0.8458  0.1046
 7975SOL    HW235562   0.988   2.030   8.227 -2.0597  3.6302  0.2709
 7976SOL     OW35563   0.897   1.316   2.713 -0.3439  0.1162  0.0524
 7976SOL    HW135564   0.978   1.364   2.696 -0.8785  1.2257  0.6927
 7976SOL    HW235565   0.909   1.239   2.657  2.1728 -0.3078  1.1808
 7977SOL     OW35566   3.546   3.570  10.788  0.1331 -0.5924  0.3831
 7977SOL    HW135567   3.571   3.551  10.879 -0.1763  0.5933  0.7121
 7977SOL    HW235568   3.619   3.551  10.729  0.3018  0.1515  0.3516
 7978SOL     OW35569   3.789   1.284   8.934 -0.6838 -0.2535 -0.0452
 7978SOL    HW135570   3.838   1.265   8.854 -2.7724 -0.7658 -1.2155
 7978SOL    HW235571   3.700   1.250   8.922 -0.7109 -0.3049  0.3022
 7979SOL     OW35572   0.662   2.224   1.234  0.6088  0.5883 -0.3195
 7979SOL    HW135573   0.749   2.239   1.197  1.5741  0.1909  1.8220
 7979SOL    HW235574   0.629   2.312   1.214 -0.5196  0.4876  1.1397
 7980SOL     OW35575   4.607   3.283   7.566 -0.3425 -0.4004 -0.4497
 7980SOL    HW135576   4.560   3.253   7.644 -0.3945  0.4417 -0.1551
 7980SOL    HW235577   4.596   3.378   7.578  0.5626 -0.5332  1.4266
 7981SOL     OW35578   4.662   2.804   1.097 -0.4813 -0.1427  0.5391
 7981SOL    HW135579   4.707   2.812   1.182 -2.0318  1.5126  1.2007
 7981SOL    HW235580   4.721   2.737   1.063 -0.7357  0.2130 -0.6012
 7982SOL     OW35581   4.485   1.432  16.721  0.2882  0.0083 -0.6780
 7982SOL    HW135582   4.414   1.397  16.775 -1.2618  1.1089 -2.0334
 7982SOL    HW235583   4.459   1.524  16.725  2.9614  0.6607  2.4402
 7983SOL     OW35584   2.036   0.009   2.633  0.1765  0.1634  0.5035
 7983SOL    HW135585   2.079   4.691   2.566 -0.9727 -0.4223  0.2376
 7983SOL    HW235586   1.948   4.708   2.641 -0.9064  2.2307 -1.7024
 7984SOL     OW35587   4.090   4.245   7.577 -0.7962  0.3191 -0.4760
 7984SOL    HW135588   4.077   4.174   7.514 -0.4026  1.1314 -1.4733
 7984SOL    HW235589   4.004   4.251   7.620  1.4038  0.0800  3.9189
 7985SOL     OW35590   0.436   2.861  15.240 -0.1419  0.7025  0.6062
 7985SOL    HW135591   0.473   2.775  15.218 -2.0777  0.3055 -1.1427
 7985SOL    HW235592   0.481   2.911  15.172 -0.1053 -0.6335 -0.3534
 7986SOL     OW35593   1.640   1.963   5.032 -0.5161  0.0863  0.0644
 7986SOL    HW135594   1.578   2.003   5.094  1.7670  1.3940  1.4926
 7986SOL    HW235595   1.633   1.868   5.039 -0.1562  0.0328 -0.3396
 7987SOL     OW35596   2.156   1.891   5.353 -0.0496  0.8051  0.7050
 7987SOL    HW135597   2.118   1.819   5.403 -0.2420 -0.6874 -1.6238
 7987SOL    HW235598   2.117   1.959   5.408 -0.7678  0.6689  0.3609
 7988SOL     OW35599   3.452   1.608   2.392  0.2087 -0.0384 -0.0803
 7988SOL    HW135600   3.484   1.618   2.482 -0.5435 -1.4548  0.3340
 7988SOL    HW235601   3.506   1.678   2.354  1.3347 -0.6698  0.3599
 7989SOL     OW35602   4.227   2.595   9.529  0.2826 -0.2760  0.5736
 7989SOL    HW135603   4.255   2.686   9.533 -2.0027  0.3745  1.6965
 7989SOL    HW235604   4.254   2.566   9.616 -0.1757 -0.3687  0.6857
 7990SOL     OW35605   1.911   1.515  13.091  0.9744 -0.4400  0.3210
 7990SOL    HW135606   1.831   1.565  13.108  0.8762 -0.1412 -1.0200
 7990SOL    HW235607   1.891   1.497  12.999 -2.2343 -0.0542  0.9234
 7991SOL     OW35608   3.014   0.107   4.439  0.0230  0.0623  0.1978
 7991SOL    HW135609   3.065   0.028   4.419 -1.8196 -1.5023  1.6092
 7991SOL    HW235610   2.990   0.095   4.531 -1.4354  2.2458  0.0923
 7992SOL     OW35611   4.017   4.551   4.325  0.3112 -1.0431 -0.2876
 7992SOL    HW135612   4.001   4.635   4.282  1.0081 -0.7019  0.1291
 7992SOL    HW235613   3.929   4.513   4.322 -0.5368  0.8749  0.2854
 7993SOL     OW35614   1.845   4.669   7.087 -0.4113 -0.7070 -0.0712
 7993SOL    HW135615   1.869   4.675   6.995 -2.5042  1.9490 -0.4280
 7993SOL    HW235616   1.930   4.698   7.122 -0.0475  1.1621 -2.5204
 7994SOL     OW35617   3.495   1.951   8.133 -0.1960 -0.0377 -0.7182
 7994SOL    HW135618   3.551   1.952   8.055  0.9755  0.4029  0.1251
 7994SOL    HW235619   3.425   1.998   8.088 -1.9507 -2.6008 -0.6115
 7995SOL     OW35620   4.051   3.153   3.812 -0.0326  0.6608 -0.1310
 7995SOL    HW135621   4.011   3.069   3.788  0.0341  0.3986  0.6540
 7995SOL    HW235622   3.979   3.215   3.800  0.1441  0.6522 -1.2552
 7996SOL     OW35623   3.609   0.838   4.071  0.0295  0.4423 -0.0014
 7996SOL    HW135624   3.532   0.782   4.063 -0.4708  1.2173 -0.6738
 7996SOL    HW235625   3.567   0.922   4.092 -1.0760  0.4521 -2.2823
 7997SOL     OW35626   4.100   1.537   8.826 -1.0716  0.4514 -0.0859
 7997SOL    HW135627   4.160   1.549   8.752  2.7342 -1.2479  2.7243
 7997SOL    HW235628   4.123   1.447   8.848  2.1929  0.9643 -1.4873
 7998SOL     OW35629   2.098   0.642  14.592 -0.5761 -0.3506  0.4794
 7998SOL    HW135630   2.010   0.617  14.621  0.0774 -1.2482  1.6842
 7998SOL    HW235631   2.102   0.602  14.506  0.5928  3.0645 -1.0485
 7999SOL     OW35632   0.018   0.931  15.021  0.0382 -0.1842  0.8404
 7999SOL    HW135633   0.098   0.884  15.001 -0.7748 -1.0799 -0.3241
 7999SOL    HW235634   0.057   1.004  15.069 -0.1769 -0.1872  1.0169
 8000SOL     OW35635   4.048   0.488  12.947  0.8227  0.1247 -0.6135
 8000SOL    HW135636   3.992   0.542  12.891  1.0302 -1.4211 -2.2915
 8000SOL    HW235637   4.013   0.510  13.034  3.4013 -3.2958  1.3090
 8001SOL     OW35638   3.292   4.381   4.728  0.2514  0.0975  0.3380
 8001SOL    HW135639   3.230   4.370   4.800 -2.2962  2.2940 -1.5418
 8001SOL    HW235640   3.262   4.320   4.661 -0.7157 -0.7267  1.5254
 8002SOL     OW35641   3.080   1.885  14.919  0.3091  0.4437  0.1137
 8002SOL    HW135642   3.172   1.905  14.936 -0.3391  2.3486  1.3626
 8002SOL    HW235643   3.043   1.973  14.913  1.6814  1.2339  2.8576
 8003SOL     OW35644   1.552   1.730   3.729  0.1132  0.5656 -0.3487
 8003SOL    HW135645   1.514   1.697   3.810 -1.6335 -0.4434 -1.5853
 8003SOL    HW235646   1.587   1.814   3.759  0.9988  0.6337 -1.5566
 8004SOL     OW35647   3.505   3.109   8.075 -0.2828  0.2193 -0.3643
 8004SOL    HW135648   3.531   3.053   8.003  0.5767 -2.5807  2.1374
 8004SOL    HW235649   3.586   3.158   8.087  1.0455 -2.0372 -0.3102
 8005SOL     OW35650   2.766   3.143  13.517 -0.1467  0.3180  0.1520
 8005SOL    HW135651   2.682   3.101  13.536  1.1233 -2.7746 -0.9876
 8005SOL    HW235652   2.748   3.173  13.428  2.3674 -1.1369 -0.8446
 8006SOL     OW35653   2.692   0.495   7.103  0.1198  0.0112  0.2951
 8006SOL    HW135654   2.723   0.514   7.014  2.8065 -0.6300  1.1086
 8006SOL    HW235655   2.775   0.471   7.143  0.9081 -1.3809 -2.1605
 8007SOL     OW35656   1.400   1.260   2.477  0.7680 -0.4231 -0.2038
 8007SOL    HW135657   1.427   1.178   2.519 -0.4056  0.7667  2.9173
 8007SOL    HW235658   1.312   1.233   2.450 -0.4423  1.5885  1.7508
 8008SOL     OW35659   0.249   4.176  14.094  0.3482  0.3097  0.4105
 8008SOL    HW135660   0.218   4.124  14.168 -1.2312 -0.1153 -0.5537
 8008SOL    HW235661   0.165   4.219  14.077  0.2462  0.0666  0.3052
 8009SOL     OW35662   0.595   4.471   5.187  0.1192  0.6006  0.0246
 8009SOL    HW135663   0.568   4.437   5.102  0.6000  0.1914  0.0319
 8009SOL    HW235664   0.689   4.487   5.178  0.1764  0.7360  0.8694
 8010SOL     OW35665   3.013   3.915   7.802  0.7779  0.1525  0.1806
 8010SOL    HW135666   3.078   3.910   7.872  0.7550  0.8845  0.2487
 8010SOL    HW235667   3.065   3.906   7.722 -0.2973  3.0317 -0.8227
 8011SOL     OW35668   1.603   1.828   3.348  0.1986  0.0295 -0.2055
 8011SOL    HW135669   1.509   1.834   3.331  0.4119 -0.6262 -1.5603
 8011SOL    HW235670   1.597   1.864   3.437 -1.0837 -0.0577 -0.2498
 8012SOL     OW35671   3.107   0.901  16.807 -0.2298  0.3225 -0.4343
 8012SOL    HW135672   3.039   0.861  16.752  0.1530 -0.4396 -0.3453
 8012SOL    HW235673   3.178   0.845  16.777 -0.4576  0.5615 -1.4312
 8013SOL     OW35674   4.571   2.688   3.853  0.1119  0.2528  0.1036
 8013SOL    HW135675   4.532   2.711   3.769 -1.0233  3.5529  1.4915
 8013SOL    HW235676   4.538   2.759   3.909 -2.1476 -0.9484  0.3192
 8014SOL     OW35677   2.779   3.531   6.838  0.4241 -0.0730  0.1934
 8014SOL    HW135678   2.835   3.456   6.820  1.0880  0.5724 -0.4141
 8014SOL    HW235679   2.835   3.608   6.851  1.0824 -0.4617 -0.3437
 8015SOL     OW35680   4.554   3.714   2.615  0.1510  0.0232  0.2797
 8015SOL    HW135681   4.500   3.698   2.537  0.9782  0.3818 -0.3655
 8015SOL    HW235682   4.481   3.756   2.662  1.9324  1.7731  1.4964
 8016SOL     OW35683   2.660   4.371   7.504  0.2914  0.2724 -0.0432
 8016SOL    HW135684   2.650   4.380   7.598 -0.2968  1.4002 -0.2184
 8016SOL    HW235685   2.607   4.297   7.473 -0.3966  1.1301 -0.9129
 8017SOL     OW35686   0.150   1.643   5.128 -0.0177 -0.4932  0.5174
 8017SOL    HW135687   0.172   1.722   5.079 -0.1374 -0.2379  0.8751
 8017SOL    HW235688   0.055   1.640   5.112  0.5476  0.6679 -3.0457
 8018SOL     OW35689   4.181   4.580   2.333 -0.0794 -0.5419  0.6584
 8018SOL    HW135690   4.117   4.533   2.279 -0.0957  0.5806 -0.2957
 8018SOL    HW235691   4.263   4.555   2.291  0.5876  0.9045  1.1029
 8019SOL     OW35692   2.829   0.140   4.249 -0.3017  0.1645 -0.2902
 8019SOL    HW135693   2.912   0.134   4.297  0.1294  0.1058 -1.0417
 8019SOL    HW235694   2.780   0.202   4.304 -1.8085 -1.8273  0.5845
 8020SOL     OW35695   4.700   4.665   1.822  0.3821 -0.0200 -0.7001
 8020SOL    HW135696   4.609   4.641   1.839  1.3188 -2.7052  0.5210
 8020SOL    HW235697   0.003   4.646   1.907  2.5306  0.2841 -1.6042
 8021SOL     OW35698   3.294   0.471   6.425 -0.2710  0.2662 -0.3272
 8021SOL    HW135699   3.307   0.397   6.484 -0.9510  1.1470  0.9405
 8021SOL    HW235700   3.220   0.436   6.375 -0.2747 -2.1072  1.3737
 8022SOL     OW35701   3.137   3.985   9.019  0.0371  0.3510 -0.5641
 8022SOL    HW135702   3.084   3.917   8.978  0.0979 -1.4605  2.3478
 8022SOL    HW235703   3.065   4.045   9.038  1.2250  1.3717  0.7838
 8023SOL     OW35704   2.311   2.700   2.786 -0.5734 -0.4709  0.2829
 8023SOL    HW135705   2.353   2.783   2.762  0.0160 -1.2170 -1.2887
 8023SOL    HW235706   2.235   2.696   2.728 -1.6759 -3.1423  1.9191
 8024SOL     OW35707   0.126   4.735   8.568 -0.2447  0.3100 -0.3179
 8024SOL    HW135708   0.147   4.655   8.521 -0.6943 -0.2614  0.4645
 8024SOL    HW235709   0.035   4.718   8.592  0.4029  0.0281  1.8777
 8025SOL     OW35710   4.038   0.596   4.523 -0.7844 -0.0064 -0.1024
 8025SOL    HW135711   4.037   0.627   4.613 -0.5036 -0.6948  0.1392
 8025SOL    HW235712   3.950   0.561   4.509 -1.4567  1.4295  0.6051
 8026SOL     OW35713   4.609   0.123  11.016  0.5525 -0.3546 -0.1865
 8026SOL    HW135714   4.581   0.168  10.936  2.8751  0.9780 -0.2433
 8026SOL    HW235715   4.701   0.105  10.995  0.7571  1.3419 -0.7023
 8027SOL     OW35716   4.193   2.518   3.140  1.0683  0.2944 -0.4059
 8027SOL    HW135717   4.186   2.575   3.063  0.6464  0.9902  0.1410
 8027SOL    HW235718   4.141   2.441   3.118  1.8023 -0.0254 -1.0037
 8028SOL     OW35719   0.145   4.322  16.011  0.9684  0.2571  0.2087
 8028SOL    HW135720   0.096   4.386  15.960  1.1235 -1.1282 -1.6794
 8028SOL    HW235721   0.072   4.280  16.057  0.4026  0.5278 -0.4445
 8029SOL     OW35722   4.296   0.729   3.958  0.7321  0.9666  0.1292
 8029SOL    HW135723   4.332   0.803   3.908  0.7697  1.3996  0.8036
 8029SOL    HW235724   4.222   0.775   3.997 -1.4049 -1.9653 -0.4278
 8030SOL     OW35725   3.980   0.283   1.704  0.2086  0.2574  0.2354
 8030SOL    HW135726   4.016   0.308   1.789  0.6351  2.5750 -0.6343
 8030SOL    HW235727   3.933   0.203   1.727 -0.5693  0.9315  0.9934
 8031SOL     OW35728   2.724   1.460   0.746  0.0159 -0.5929  0.0649
 8031SOL    HW135729   2.670   1.508   0.809 -0.1333  0.7789 -1.1220
 8031SOL    HW235730   2.773   1.533   0.711 -0.9386 -0.3910 -0.8722
 8032SOL     OW35731   1.796   3.847   7.633  0.1581 -0.3571 -0.0887
 8032SOL    HW135732   1.730   3.872   7.568  0.1170  2.6143  1.1031
 8032SOL    HW235733   1.768   3.766   7.675  1.5546 -1.7297 -1.8278
 8033SOL     OW35734   2.909   3.986   1.706  0.0310 -0.5382  0.2034
 8033SOL    HW135735   2.885   3.942   1.787  0.1419 -0.3621  0.3313
 8033SOL    HW235736   2.901   3.913   1.644  1.2100 -1.3674  1.0308
 8034SOL     OW35737   1.672   3.711   1.191 -0.5143  0.4828  0.0230
 8034SOL    HW135738   1.742   3.747   1.245  0.5366 -0.6667 -0.5643
 8034SOL    HW235739   1.726   3.657   1.134  0.1617 -1.2793  2.3351
 8035SOL     OW35740   0.222   2.733   5.797 -0.0316  0.0872 -0.4369
 8035SOL    HW135741   0.187   2.789   5.727 -0.6961 -0.8968 -0.9045
 8035SOL    HW235742   0.277   2.795   5.845 -1.4146 -0.7553  2.1863
 8036SOL     OW35743   0.931   0.021   9.447 -0.0444  0.5515  0.2105
 8036SOL    HW135744   1.023   0.030   9.469  0.7788  1.2274 -3.5149
 8036SOL    HW235745   0.931   4.666   9.416 -0.5016  0.7219 -0.3032
 8037SOL     OW35746   0.574   2.974   3.733  0.3896 -0.4595 -0.2611
 8037SOL    HW135747   0.532   2.956   3.817 -0.5932  3.2964  0.0770
 8037SOL    HW235748   0.571   3.070   3.742 -1.1154 -0.6459  1.3049
 8038SOL     OW35749   3.887   0.594  12.340  0.3280 -0.2909 -0.2290
 8038SOL    HW135750   3.980   0.616  12.334  0.8372 -1.8747  1.9565
 8038SOL    HW235751   3.865   0.606  12.248 -0.2097 -0.7777 -0.1592
 8039SOL     OW35752   1.005   1.764  12.840 -0.5833  0.2957  0.2519
 8039SOL    HW135753   0.934   1.709  12.873  0.0583 -1.2876 -1.0247
 8039SOL    HW235754   0.976   1.787  12.751  0.6195 -1.3876 -0.5709
 8040SOL     OW35755   3.321   2.742   2.605 -0.1940  0.0692  0.4796
 8040SOL    HW135756   3.279   2.665   2.642  0.4716 -0.2979  0.4651
 8040SOL    HW235757   3.310   2.723   2.512  0.4719 -1.0165  0.6269
 8041SOL     OW35758   0.075   4.397   7.971 -0.1033  0.2232  0.4207
 8041SOL    HW135759   0.051   4.475   8.021 -0.0894  0.6451 -0.2285
 8041SOL    HW235760   4.730   4.374   7.924 -0.4767 -0.4204  1.3677
 8042SOL     OW35761   3.774   2.118   9.455  0.1783 -0.3494  0.0952
 8042SOL    HW135762   3.746   2.028   9.439 -0.8304  0.2934 -1.8309
 8042SOL    HW235763   3.689   2.160   9.466  1.2505  0.8108  3.8043
 8043SOL     OW35764   1.953   4.231  13.663  0.0930  0.1384 -0.5688
 8043SOL    HW135765   1.989   4.219  13.575 -0.0193  1.7747 -0.8316
 8043SOL    HW235766   1.994   4.316  13.678  0.1313 -0.3090  1.8919
 8044SOL     OW35767   1.464   3.252  11.911 -0.1024 -0.6272  0.2371
 8044SOL    HW135768   1.393   3.271  11.972 -0.4743 -1.7643  0.1676
 8044SOL    HW235769   1.459   3.337  11.868  0.0598 -1.2079 -0.9611
 8045SOL     OW35770   0.594   2.919   8.570 -0.1180 -0.5369  0.7176
 8045SOL    HW135771   0.510   2.964   8.556 -0.1727 -1.7387 -2.8103
 8045SOL    HW235772   0.573   2.829   8.542  1.4354 -0.1410 -1.6862
 8046SOL     OW35773   2.478   1.444   4.050  0.2571  0.1062 -0.0808
 8046SOL    HW135774   2.402   1.496   4.025  0.1328 -0.1521 -0.2379
 8046SOL    HW235775   2.549   1.507   4.035  0.3609 -0.4318 -1.8114
 8047SOL     OW35776   2.957   1.404  15.963 -0.6996 -0.1042 -0.0283
 8047SOL    HW135777   2.932   1.352  16.039 -3.1509  0.9704 -0.0887
 8047SOL    HW235778   3.019   1.345  15.919 -1.4523  0.7829 -2.3150
 8048SOL     OW35779   0.727   4.352  11.516  0.5399 -0.4303  0.1848
 8048SOL    HW135780   0.678   4.426  11.551  1.1473  1.0756 -2.1216
 8048SOL    HW235781   0.784   4.336  11.592 -2.6720 -1.8054  2.2847
 8049SOL     OW35782   1.480   3.923   8.529  0.7663  0.3149  0.5120
 8049SOL    HW135783   1.470   3.829   8.514 -0.7277  0.5904 -0.2584
 8049SOL    HW235784   1.565   3.933   8.487  1.1610  3.4785  2.0206
 8050SOL     OW35785   3.686   2.622   0.792 -0.3493  0.2414 -0.0312
 8050SOL    HW135786   3.620   2.690   0.777  0.1902  0.3986 -1.6541
 8050SOL    HW235787   3.658   2.571   0.868 -0.0461  1.5319  0.9563
 8051SOL     OW35788   3.211   3.864   5.999  0.7201  0.7837 -0.2689
 8051SOL    HW135789   3.153   3.816   5.940  1.3037  1.4102 -1.3528
 8051SOL    HW235790   3.294   3.836   5.961  1.7592 -0.7871  3.2348
 8052SOL     OW35791   3.772   4.052   8.680 -0.1781  0.0909 -0.3824
 8052SOL    HW135792   3.679   4.059   8.660 -0.3438 -2.3202 -0.4329
 8052SOL    HW235793   3.752   4.011   8.764 -0.9760 -0.5654 -0.8907
 8053SOL     OW35794   0.469   0.113   3.762  0.5366  0.1555 -0.3168
 8053SOL    HW135795   0.537   0.176   3.738 -0.4752  1.4910  0.3175
 8053SOL    HW235796   0.395   0.171   3.747  0.2852 -0.0042  0.3377
 8054SOL     OW35797   2.156   1.608   0.489  0.4026 -0.0022 -0.0914
 8054SOL    HW135798   2.099   1.643   0.420 -0.8337  2.0392  1.9854
 8054SOL    HW235799   2.106   1.610   0.570  0.6818 -0.1177  0.0830
 8055SOL     OW35800   3.743   2.610   3.818  0.0073  0.4537  0.3518
 8055SOL    HW135801   3.721   2.546   3.750  0.1116  1.3440 -0.5266
 8055SOL    HW235802   3.826   2.646   3.787 -0.2773  1.3663  0.6436
 8056SOL     OW35803   2.028   2.909   4.099  0.6922  0.3204  0.3182
 8056SOL    HW135804   2.028   2.884   4.192  0.8226  2.3921  0.8739
 8056SOL    HW235805   1.983   2.835   4.058  1.2164  0.3371 -0.2854
 8057SOL     OW35806   3.427   0.725  16.432 -0.1834  0.2436  0.5350
 8057SOL    HW135807   3.427   0.655  16.366  2.2067 -0.0624  0.8441
 8057SOL    HW235808   3.440   0.798  16.371 -0.2303 -0.5033 -0.3768
 8058SOL     OW35809   3.370   3.102   6.032  0.2636  0.6281  0.0529
 8058SOL    HW135810   3.285   3.058   6.034  0.1282  0.9637  2.3384
 8058SOL    HW235811   3.341   3.192   6.016  0.9057  0.9322  0.5853
 8059SOL     OW35812   4.496   0.646   3.028 -0.1841  0.9454  0.2029
 8059SOL    HW135813   4.563   0.586   2.997 -2.7156 -1.5551 -0.4145
 8059SOL    HW235814   4.536   0.733   3.022  2.5694 -0.4180 -1.2374
 8060SOL     OW35815   2.869   0.182   2.009  0.2094  0.9166  0.3839
 8060SOL    HW135816   2.911   0.097   2.022  2.6710  1.9791 -0.6157
 8060SOL    HW235817   2.933   0.236   1.963  0.5517  0.7126  0.6229
 8061SOL     OW35818   4.082   1.086  11.914  0.1661 -0.0282 -0.3660
 8061SOL    HW135819   3.994   1.100  11.879  0.5977  0.9333 -1.0828
 8061SOL    HW235820   4.137   1.088  11.836  0.3402 -3.9913 -0.3569
 8062SOL     OW35821   4.638   1.924   8.693  0.1978  0.0160 -0.0296
 8062SOL    HW135822   4.622   1.831   8.705  0.8490  0.0837  1.4649
 8062SOL    HW235823   4.733   1.930   8.705  0.0407 -0.0579  1.2370
 8063SOL     OW35824   1.018   0.749   5.365 -0.0498 -0.5106 -0.3124
 8063SOL    HW135825   0.960   0.823   5.344 -0.0441  0.0859  1.7280
 8063SOL    HW235826   1.096   0.798   5.390  0.1691 -1.1232  0.1985
 8064SOL     OW35827   2.234   4.525   8.672  0.0650 -0.0772 -0.3901
 8064SOL    HW135828   2.293   4.462   8.630 -1.2173 -0.5516 -1.4748
 8064SOL    HW235829   2.260   4.532   8.764 -1.8755  0.8848  0.0787
 8065SOL     OW35830   3.981   3.693   3.142 -0.0159 -0.5154 -0.5491
 8065SOL    HW135831   3.963   3.600   3.152  1.5733 -0.8901 -1.0922
 8065SOL    HW235832   4.024   3.684   3.057  0.5638 -2.0679 -0.0909
 8066SOL     OW35833   0.098   4.466  15.300 -0.0728 -0.6104  0.1273
 8066SOL    HW135834   0.012   4.430  15.318  0.9072 -2.6159  0.8171
 8066SOL    HW235835   0.131   4.482  15.388  1.2059 -0.7680 -0.3182
 8067SOL     OW35836   2.013   2.540  17.148 -0.3740 -0.1173 -0.0388
 8067SOL    HW135837   2.082   2.602  17.124 -1.8409  1.4725 -0.1801
 8067SOL    HW235838   2.026   2.469  17.084  1.5158 -0.5201  0.8120
 8068SOL     OW35839   1.719   0.214   5.773  0.1214  0.4286 -0.0664
 8068SOL    HW135840   1.811   0.224   5.749  0.5032  0.5693  1.4180
 8068SOL    HW235841   1.711   0.119   5.768 -0.3974  0.5734 -1.8540
 8069SOL     OW35842   2.523   0.014   5.810 -0.2124 -0.1044  0.2861
 8069SOL    HW135843   2.445   0.027   5.756 -0.3577 -2.0369  0.0103
 8069SOL    HW235844   2.589   4.721   5.746 -0.9119  0.9113 -0.8900
 8070SOL     OW35845   1.978   0.595   6.586  0.5567  0.0359 -0.1649
 8070SOL    HW135846   1.914   0.529   6.613 -0.2622 -0.4133 -3.2114
 8070SOL    HW235847   1.988   0.605   6.491 -0.3130  2.6865  0.0240
 8071SOL     OW35848   1.268   1.137   3.297  0.3504  0.3976 -0.0809
 8071SOL    HW135849   1.209   1.167   3.227 -0.1686  0.7289  0.4943
 8071SOL    HW235850   1.342   1.196   3.285  1.2241 -0.5939  0.4675
 8072SOL     OW35851   4.599   2.480   2.589 -0.2885  0.3213  0.9246
 8072SOL    HW135852   4.650   2.561   2.586  1.5045 -0.8361  0.1755
 8072SOL    HW235853   4.533   2.505   2.653 -2.2750 -1.4625 -0.4117
 8073SOL     OW35854   4.113   4.142   3.229 -0.1121 -0.7315 -0.3161
 8073SOL    HW135855   4.198   4.149   3.187 -0.7943  0.5842 -1.4722
 8073SOL    HW235856   4.057   4.193   3.170 -0.9993 -1.0620  0.2280
 8074SOL     OW35857   2.852   1.996   2.150 -0.3296 -0.4965  0.3268
 8074SOL    HW135858   2.884   1.997   2.240  0.6752  0.8468 -0.0383
 8074SOL    HW235859   2.759   1.976   2.152 -0.6172  0.7646 -0.1135
 8075SOL     OW35860   2.314   0.284   2.929  0.5671 -0.3388  0.1163
 8075SOL    HW135861   2.382   0.247   2.873  2.6480 -0.4065  2.6521
 8075SOL    HW235862   2.247   0.285   2.861 -1.4561  0.8031  2.1163
 8076SOL     OW35863   4.141   3.336   1.778 -0.2746 -0.2354 -0.1754
 8076SOL    HW135864   4.137   3.339   1.683  0.4598 -0.3171 -0.2105
 8076SOL    HW235865   4.103   3.423   1.781 -2.2168 -1.0402 -1.6460
 8077SOL     OW35866   4.462   0.557   1.337 -0.1987  0.3687 -0.1291
 8077SOL    HW135867   4.429   0.479   1.381  0.0478  0.6300  0.5209
 8077SOL    HW235868   4.556   0.537   1.344 -0.4090 -0.7122 -0.3762
 8078SOL     OW35869   0.739   3.921   4.315  0.5219 -0.3849  0.4573
 8078SOL    HW135870   0.785   4.000   4.286 -1.4839  0.9638  1.0075
 8078SOL    HW235871   0.661   3.952   4.360 -0.6838 -0.6517 -1.4580
 8079SOL     OW35872   2.393   0.621  15.917 -0.0392  0.1693  1.0795
 8079SOL    HW135873   2.420   0.677  15.990  0.0904  0.3090  0.9243
 8079SOL    HW235874   2.336   0.563  15.968 -1.7179  2.0714  1.3428
 8080SOL     OW35875   3.674   2.947   3.672 -0.1875 -0.2513 -0.0181
 8080SOL    HW135876   3.627   2.936   3.754  1.3898  1.0098  1.0671
 8080SOL    HW235877   3.638   3.031   3.643 -2.1809 -0.4064  2.0136
 8081SOL     OW35878   3.640   4.385   8.243 -0.5268 -0.2957  0.4006
 8081SOL    HW135879   3.670   4.475   8.258 -0.5596 -0.1366 -0.4882
 8081SOL    HW235880   3.562   4.412   8.196 -1.5351 -2.6195  0.7316
 8082SOL     OW35881   2.065   1.327  14.689 -0.2109  0.5484  0.4282
 8082SOL    HW135882   2.036   1.280  14.767  0.9422 -1.8419 -0.5979
 8082SOL    HW235883   2.083   1.250  14.635  2.0562  1.7491 -0.5397
 8083SOL     OW35884   4.089   3.218   4.445  0.2856 -0.1430  0.1417
 8083SOL    HW135885   4.078   3.248   4.355  0.0738  1.4135  0.6902
 8083SOL    HW235886   4.009   3.251   4.484 -0.1987 -1.3066  0.1205
 8084SOL     OW35887   1.388   1.840   6.378 -0.0137  0.5957 -0.7493
 8084SOL    HW135888   1.397   1.823   6.471 -1.4284 -1.1564 -0.9328
 8084SOL    HW235889   1.295   1.863   6.377  0.5894  3.1287 -0.1835
 8085SOL     OW35890   3.903   1.630  14.147 -0.0157  0.0046  0.2137
 8085SOL    HW135891   3.833   1.669  14.199 -0.7411 -0.4754 -0.3979
 8085SOL    HW235892   3.973   1.693  14.166  1.5731 -0.3635 -4.4796
 8086SOL     OW35893   1.365   0.131   8.804 -0.5027  0.2029 -0.0334
 8086SOL    HW135894   1.344   0.039   8.823  1.0037 -0.1852 -0.2306
 8086SOL    HW235895   1.441   0.121   8.747 -0.8237  0.9876 -0.5965
 8087SOL     OW35896   4.349   4.387   4.668  0.5137  0.0204  0.5109
 8087SOL    HW135897   4.266   4.347   4.692 -1.3422  2.1925 -2.2783
 8087SOL    HW235898   4.359   4.458   4.731 -0.5701  0.6220 -0.0008
 8088SOL     OW35899   1.921   3.721   1.329  0.2451 -0.3495 -0.4884
 8088SOL    HW135900   1.930   3.630   1.301  2.3057  0.1933 -1.6327
 8088SOL    HW235901   1.897   3.700   1.420  0.9811  0.5880 -0.0759
 8089SOL     OW35902   1.442   2.727   7.257  0.2076  0.3756 -0.1494
 8089SOL    HW135903   1.425   2.821   7.255  0.2860  0.3300 -3.2123
 8089SOL    HW235904   1.531   2.725   7.294 -0.2362  0.8980  0.9646
 8090SOL     OW35905   2.755   2.316   7.964 -0.4790  0.2910  0.5926
 8090SOL    HW135906   2.840   2.328   7.922 -0.8986 -1.9130 -0.9159
 8090SOL    HW235907   2.747   2.400   8.009  3.2445  2.2636 -2.4007
 8091SOL     OW35908   3.000   2.134   6.407  0.6752 -0.2484 -0.4301
 8091SOL    HW135909   2.930   2.167   6.350 -0.7134 -1.6545  0.4785
 8091SOL    HW235910   3.067   2.202   6.402  0.2000  0.1715 -1.1108
 8092SOL     OW35911   2.941   2.721   6.352  0.0033 -0.4090 -0.0812
 8092SOL    HW135912   2.925   2.732   6.258  0.2146 -0.7520 -0.1549
 8092SOL    HW235913   2.944   2.806   6.396 -1.6243 -0.1830 -0.3917
 8093SOL     OW35914   3.339   4.661   1.939  0.3272 -0.2627 -0.2167
 8093SOL    HW135915   3.266   4.635   1.996 -0.3146  2.0761  0.0459
 8093SOL    HW235916   3.309   4.617   1.860  0.6931 -1.7374  0.4736
 8094SOL     OW35917   3.808   1.676   3.839  0.4949 -0.1383  0.3047
 8094SOL    HW135918   3.889   1.718   3.869  1.0080 -0.0753 -1.1883
 8094SOL    HW235919   3.775   1.664   3.928  1.7135  1.8600  1.0404
 8095SOL     OW35920   1.286   3.356   2.305 -0.8951 -0.1802  0.6879
 8095SOL    HW135921   1.310   3.430   2.249  2.0601 -1.8705 -0.2901
 8095SOL    HW235922   1.203   3.382   2.345 -0.7966  0.4831  0.4611
 8096SOL     OW35923   0.089   4.577   5.858 -0.3861  0.5283  0.4749
 8096SOL    HW135924   0.133   4.491   5.859 -1.5964 -0.0884  0.2156
 8096SOL    HW235925   0.012   4.539   5.900  0.6059 -1.9465  0.0739
 8097SOL     OW35926   1.123   2.078  10.411  0.1383 -0.3817 -0.2452
 8097SOL    HW135927   1.205   2.113  10.373 -0.2549 -0.2255 -0.9575
 8097SOL    HW235928   1.164   2.027  10.480  0.2399  0.4817  0.3419
 8098SOL     OW35929   3.683   1.817  11.686 -0.5574 -0.7011  0.2887
 8098SOL    HW135930   3.740   1.891  11.708 -2.3291  0.6187  0.5011
 8098SOL    HW235931   3.651   1.837  11.598 -1.0038 -2.6436  0.0262
 8099SOL     OW35932   0.151   1.623  15.664 -0.0934  0.2353 -0.0674
 8099SOL    HW135933   0.101   1.598  15.742 -0.1616  2.2866  0.5331
 8099SOL    HW235934   0.090   1.685  15.624 -1.6776 -0.7161  0.8764
 8100SOL     OW35935   0.167   0.178   5.434 -0.2323 -0.3603 -0.0582
 8100SOL    HW135936   0.149   0.129   5.515 -3.2814 -0.4085 -0.7621
 8100SOL    HW235937   0.126   0.138   5.358  0.6185 -0.8300 -0.2645
 8101SOL     OW35938   4.549   1.876   8.014  0.0738  0.7331 -0.2694
 8101SOL    HW135939   4.476   1.894   8.073 -1.5565 -0.3097 -1.9771
 8101SOL    HW235940   4.626   1.883   8.070 -0.1711 -1.6848  0.3593
 8102SOL     OW35941   0.840   3.069   8.463 -0.1212  0.5615  0.2770
 8102SOL    HW135942   0.770   3.132   8.447 -0.2040  0.6570  1.0063
 8102SOL    HW235943   0.789   2.990   8.483 -0.5043  1.7152  3.8016
 8103SOL     OW35944   3.797   1.353  15.904 -0.0462 -0.6245 -0.3867
 8103SOL    HW135945   3.710   1.385  15.925  1.0039  0.9848  1.4715
 8103SOL    HW235946   3.787   1.258  15.908 -2.7688 -0.4030 -2.0770
 8104SOL     OW35947   4.272   4.231   1.636  0.3008  0.0846  0.1137
 8104SOL    HW135948   4.237   4.152   1.678  1.2428 -1.0647 -1.2598
 8104SOL    HW235949   4.340   4.253   1.700  0.2749  0.7459 -0.0932
 8105SOL     OW35950   2.799   3.968  14.470  0.4478 -0.2817 -0.0852
 8105SOL    HW135951   2.720   4.020  14.457  0.3102 -0.0958  1.5307
 8105SOL    HW235952   2.854   3.990  14.394 -1.0379 -0.0165 -1.0885
 8106SOL     OW35953   2.529   2.577   8.166 -0.1358  0.5917 -0.1583
 8106SOL    HW135954   2.451   2.603   8.117 -1.3709 -1.8144  0.5216
 8106SOL    HW235955   2.501   2.576   8.257  3.0926  1.2352  0.8090
 8107SOL     OW35956   3.507   0.258   5.980  0.1303 -0.0016 -0.3538
 8107SOL    HW135957   3.461   0.341   5.972 -1.7839 -0.8512  1.6288
 8107SOL    HW235958   3.529   0.259   6.073  1.3351  1.7691 -0.6554
 8108SOL     OW35959   0.515   2.339   1.696 -0.1326 -0.0191 -0.2557
 8108SOL    HW135960   0.513   2.287   1.776  2.2178 -0.2551 -0.3560
 8108SOL    HW235961   0.443   2.397   1.723 -1.4422 -0.5349 -2.6443
 8109SOL     OW35962   3.007   2.247   4.301 -0.1105  0.6469  0.1916
 8109SOL    HW135963   3.020   2.326   4.249  2.2646  0.2750  0.2467
 8109SOL    HW235964   2.999   2.181   4.232 -4.6874 -0.1416  1.4501
 8110SOL     OW35965   0.659   0.007   9.486 -0.3747  0.2150 -0.4910
 8110SOL    HW135966   0.748   0.041   9.499 -0.0767 -1.8633  2.8861
 8110SOL    HW235967   0.675   4.649   9.495  0.7983  0.5340  0.7932
 8111SOL     OW35968   3.170   2.869  10.601  0.0561 -0.2797 -0.2954
 8111SOL    HW135969   3.131   2.956  10.600  0.8808  0.0980  0.8529
 8111SOL    HW235970   3.095   2.818  10.633  2.0516 -2.5528  0.7978
 8112SOL     OW35971   2.622   1.712   5.013 -0.1119  0.1102 -0.3740
 8112SOL    HW135972   2.648   1.642   5.072  0.8742  0.2927 -0.5862
 8112SOL    HW235973   2.642   1.683   4.924 -0.1418 -3.6872  0.8874
 8113SOL     OW35974   4.642   3.049   8.099 -0.0385 -0.3681 -0.1679
 8113SOL    HW135975   4.590   3.126   8.076  2.0657  0.3775 -2.5242
 8113SOL    HW235976   4.573   2.985   8.112 -1.6257  1.9007  2.5332
 8114SOL     OW35977   1.680   0.037  13.975 -0.5810  0.2818  0.5310
 8114SOL    HW135978   1.601   4.719  13.979 -0.7167  0.7274  3.6776
 8114SOL    HW235979   1.647   0.126  13.972  0.4657  0.7100  1.7256
 8115SOL     OW35980   4.146   3.591   4.552 -0.1724 -0.5081 -0.0810
 8115SOL    HW135981   4.091   3.669   4.559 -1.4203 -1.3429 -0.6797
 8115SOL    HW235982   4.168   3.597   4.460  0.4699 -0.2520  0.0900
 8116SOL     OW35983   0.305   0.513   3.045 -0.4497 -0.2597 -0.4218
 8116SOL    HW135984   0.350   0.517   3.130 -2.1228 -3.5880  0.6311
 8116SOL    HW235985   0.273   0.423   3.042 -0.6504 -0.2733  1.7172
 8117SOL     OW35986   0.890   2.067   0.951  0.5347  0.2042  0.1140
 8117SOL    HW135987   0.870   1.974   0.948  1.7525 -0.1257  2.4576
 8117SOL    HW235988   0.839   2.098   0.876  0.4341 -0.8539 -0.2515
 8118SOL     OW35989   2.177   2.369  12.046 -0.5823 -0.0110  0.1613
 8118SOL    HW135990   2.175   2.278  12.017 -0.6423 -0.6798  2.2246
 8118SOL    HW235991   2.148   2.417  11.969 -1.0533  0.1321  0.4277
 8119SOL     OW35992   0.025   0.282   2.186 -0.4763 -0.2821  0.2357
 8119SOL    HW135993   0.025   0.360   2.130 -1.1406 -1.4614 -1.3934
 8119SOL    HW235994   4.669   0.292   2.210 -0.8625 -2.3115 -0.4133
 8120SOL     OW35995   1.056   1.318   8.138 -0.6449  0.4469  0.4304
 8120SOL    HW135996   1.079   1.397   8.187 -2.7733  1.7961 -0.7283
 8120SOL    HW235997   1.114   1.328   8.062 -2.3527  0.6369 -0.8423
 8121SOL     OW35998   4.147   0.554   3.823  0.3987  0.2899 -0.4017
 8121SOL    HW135999   4.126   0.615   3.751 -2.8142  2.5146  2.4211
 8121SOL    HW236000   4.211   0.599   3.878 -1.0765 -1.1161  2.4580
 8122SOL     OW36001   3.090   2.907  16.936 -0.5188  0.3605 -0.2574
 8122SOL    HW136002   3.076   2.824  16.891 -1.2945 -1.0417  2.5845
 8122SOL    HW236003   3.004   2.943  16.916 -0.8397 -1.2302 -1.7323
 8123SOL     OW36004   0.203   4.172   5.586 -0.5082 -0.1326  0.1585
 8123SOL    HW136005   0.261   4.110   5.630 -0.0991  0.2434  0.1520
 8123SOL    HW236006   0.162   4.120   5.516 -1.4242 -0.2539  0.7923
 8124SOL     OW36007   1.478   0.749   3.192  0.3959  0.5539  0.7166
 8124SOL    HW136008   1.462   0.783   3.105  1.8615 -2.1891 -0.6410
 8124SOL    HW236009   1.414   0.678   3.203  0.3216  0.4542 -0.3554
 8125SOL     OW36010   0.635   0.589   8.272 -0.2615  0.1491 -0.5027
 8125SOL    HW136011   0.695   0.564   8.342 -0.0447  2.6940  0.2142
 8125SOL    HW236012   0.648   0.515   8.212 -1.7493  0.4987 -1.2463
 8126SOL     OW36013   4.000   1.455  17.080 -0.4563 -0.7117 -0.1510
 8126SOL    HW136014   3.964   1.409  17.003 -1.4145 -1.1360  0.5510
 8126SOL    HW236015   3.956   1.411  17.153  2.0675 -2.2842  0.4050
 8127SOL     OW36016   1.398   3.390  16.563  0.2926 -0.0860  0.1300
 8127SOL    HW136017   1.490   3.397  16.589 -0.3212  0.1604  2.2599
 8127SOL    HW236018   1.375   3.483  16.568  0.3287 -0.0290 -0.7701
 8128SOL     OW36019   0.524   1.887   8.702 -0.1399 -0.1552  0.0019
 8128SOL    HW136020   0.577   1.960   8.733  1.7897 -1.2834 -0.6409
 8128SOL    HW236021   0.451   1.900   8.763  0.5027 -2.6269  1.3005
 8129SOL     OW36022   1.985   0.123   3.113  0.7165  0.4938 -0.6835
 8129SOL    HW136023   1.943   0.151   3.194  1.3119  0.3937 -0.3395
 8129SOL    HW236024   2.074   0.136   3.145  0.3012  0.4171  0.5343
 8130SOL     OW36025   2.339   1.303   9.128 -0.1728  0.3868 -0.1291
 8130SOL    HW136026   2.269   1.288   9.192  0.7164  0.1304  0.7775
 8130SOL    HW236027   2.289   1.317   9.048 -0.2512 -1.1775 -0.3502
 8131SOL     OW36028   4.527   4.064  16.687 -0.1093  0.0624 -0.4372
 8131SOL    HW136029   4.449   4.047  16.634 -0.9296  0.7227  0.5685
 8131SOL    HW236030   4.594   4.034  16.626 -0.8218  0.5160 -1.4497
 8132SOL     OW36031   1.345   0.576   1.765  0.2926 -0.4656 -0.1047
 8132SOL    HW136032   1.374   0.544   1.680  0.1987 -0.4781 -0.1318
 8132SOL    HW236033   1.261   0.531   1.774  0.0839 -0.1840 -0.6388
 8133SOL     OW36034   4.672   1.316   4.006  0.3491 -0.2614  0.1734
 8133SOL    HW136035   4.603   1.382   3.995  0.3620  0.1258  2.3122
 8133SOL    HW236036   4.706   1.354   4.087  0.8777  1.1065 -0.7123
 8134SOL     OW36037   3.253   3.784   6.268  0.1360 -0.5855  0.6825
 8134SOL    HW136038   3.159   3.802   6.257  0.3322  0.2960  0.4149
 8134SOL    HW236039   3.282   3.814   6.182 -0.7672 -0.1764  0.5132
 8135SOL     OW36040   4.216   0.611   2.064  0.4704 -0.4126 -0.3912
 8135SOL    HW136041   4.156   0.685   2.069  1.0951  0.2373 -2.7959
 8135SOL    HW236042   4.299   0.652   2.041 -0.4274 -0.0234 -2.8578
 8136SOL     OW36043   4.345   2.584   5.265 -0.1769 -0.0081  0.1848
 8136SOL    HW136044   4.282   2.605   5.334 -0.3892 -0.1529  0.0366
 8136SOL    HW236045   4.369   2.495   5.290  0.3419  0.8272  2.6375
 8137SOL     OW36046   1.474   2.404  12.380 -0.3077  0.2447  0.1526
 8137SOL    HW136047   1.529   2.470  12.339 -0.1122 -0.4507 -0.7044
 8137SOL    HW236048   1.540   2.349  12.423 -1.5621  0.5826  2.5601
 8138SOL     OW36049   1.809   1.157   6.782  0.4357  1.1677  0.0427
 8138SOL    HW136050   1.826   1.124   6.693 -1.7333 -2.5913  1.0249
 8138SOL    HW236051   1.884   1.118   6.827  0.5518 -1.8566 -2.7275
 8139SOL     OW36052   1.977   1.783   1.959  0.0073  0.2478  0.6695
 8139SOL    HW136053   2.010   1.724   1.891  1.3133  0.2089  1.3189
 8139SOL    HW236054   1.921   1.726   2.012  0.1063 -0.8091 -0.3551
 8140SOL     OW36055   2.484   2.326  17.155  0.2323  0.1801 -0.1844
 8140SOL    HW136056   2.520   2.375  17.229  1.0844 -1.4552  0.4919
 8140SOL    HW236057   2.389   2.325  17.168  0.0515 -1.7198 -1.7294
 8141SOL     OW36058   3.613   2.728  12.154 -0.3143  0.4303  0.2810
 8141SOL    HW136059   3.521   2.737  12.180 -0.7407  3.1093 -2.1709
 8141SOL    HW236060   3.619   2.639  12.120 -1.5255  1.2252 -2.0434
 8142SOL     OW36061   0.658   2.123   9.076  0.2028  0.0162  0.1340
 8142SOL    HW136062   0.662   2.028   9.071  0.6860  0.0681 -0.5853
 8142SOL    HW236063   0.722   2.149   9.142 -0.0451 -1.2268  0.8606
 8143SOL     OW36064   4.604   4.429   0.506  0.1219  0.1965 -0.2265
 8143SOL    HW136065   4.619   4.523   0.518 -2.6054  1.0830 -4.0689
 8143SOL    HW236066   4.681   4.419   0.449 -0.9905  0.6669 -1.7927
 8144SOL     OW36067   1.031   4.001   7.028  0.2646 -0.7351 -0.4942
 8144SOL    HW136068   1.099   4.018   6.963  1.5725  0.1623  1.1537
 8144SOL    HW236069   0.950   4.021   6.981 -0.0964 -0.2264  0.3437
 8145SOL     OW36070   3.666   1.855   4.468  0.1086 -0.4714  0.3493
 8145SOL    HW136071   3.730   1.836   4.537 -1.8393 -2.0906  1.7042
 8145SOL    HW236072   3.599   1.906   4.513  0.7431  2.3072 -1.8846
 8146SOL     OW36073   2.280   4.677   5.693  0.3860 -0.1723  0.1965
 8146SOL    HW136074   2.257   4.646   5.606  0.5937 -0.8264  0.3704
 8146SOL    HW236075   2.273   4.602   5.753 -1.7911  0.0414  0.2154
 8147SOL     OW36076   3.235   2.770   2.007 -0.2335  0.6422  0.0765
 8147SOL    HW136077   3.220   2.681   2.040 -1.0730  0.5051 -0.6911
 8147SOL    HW236078   3.159   2.769   1.948 -0.9528 -3.0555  1.0359
 8148SOL     OW36079   2.800   0.671   6.434 -0.3589  0.6766  0.3708
 8148SOL    HW136080   2.794   0.599   6.370  1.1803  0.7212  0.1760
 8148SOL    HW236081   2.771   0.746   6.382 -1.1173 -0.3866 -0.7388
 8149SOL     OW36082   1.612   0.522   3.859 -0.5525  0.2024  0.2221
 8149SOL    HW136083   1.517   0.512   3.857 -0.4882 -0.5360  0.8791
 8149SOL    HW236084   1.626   0.588   3.927 -1.3874 -0.1106  0.6919
 8150SOL     OW36085   2.955   3.980   2.954 -0.1857 -0.1041  0.3087
 8150SOL    HW136086   2.932   3.911   3.017 -1.8463  1.6529  1.5979
 8150SOL    HW236087   3.005   3.931   2.888 -1.8339 -2.4477  0.7971
 8151SOL     OW36088   1.391   1.653  17.436 -0.1635  0.2067  0.7282
 8151SOL    HW136089   1.439   1.572  17.423 -0.2776  0.7474 -2.9270
 8151SOL    HW236090   1.384   1.678  17.344 -2.8961  1.7513  1.3687
 8152SOL     OW36091   4.183   0.006   7.752 -0.0891  0.7970 -0.1854
 8152SOL    HW136092   4.239   4.678   7.796 -1.3220  0.0242  0.2383
 8152SOL    HW236093   4.216   0.087   7.792 -1.9774  0.9427  1.0876
 8153SOL     OW36094   3.949   1.874   2.467 -0.0131  0.0036  0.1508
 8153SOL    HW136095   4.006   1.951   2.470 -0.6778  0.4608  1.1244
 8153SOL    HW236096   3.961   1.828   2.384  0.5632 -0.9090  0.7400
 8154SOL     OW36097   2.948   4.088   5.212 -0.3794  0.0857  0.2431
 8154SOL    HW136098   2.957   4.027   5.139  4.1620 -0.4371  1.2508
 8154SOL    HW236099   3.029   4.081   5.262  0.0839  3.4021 -0.0481
 8155SOL     OW36100   4.571   1.608  17.063 -0.1225  0.6744  0.4748
 8155SOL    HW136101   4.476   1.599  17.064  0.1452 -2.0956 -0.6590
 8155SOL    HW236102   4.576   1.652  16.978  1.7684 -0.9099 -0.2483
 8156SOL     OW36103   0.458   0.508   4.459  0.4144  0.4923  0.0028
 8156SOL    HW136104   0.428   0.458   4.384  2.0032  0.4198 -0.5941
 8156SOL    HW236105   0.426   0.595   4.435  0.3994  0.5617  0.2727
 8157SOL     OW36106   0.260   2.765   7.619 -0.2723 -0.7344 -0.6250
 8157SOL    HW136107   0.320   2.829   7.581 -0.7824  0.1580  0.0978
 8157SOL    HW236108   0.284   2.686   7.569  0.5373 -1.5421  1.0400
 8158SOL     OW36109   0.409   0.352   2.099  0.4386 -0.7849  0.3931
 8158SOL    HW136110   0.452   0.285   2.151  1.3979  0.4986  1.2363
 8158SOL    HW236111   0.471   0.360   2.027 -2.1406  1.7107 -1.5730
 8159SOL     OW36112   2.179   2.820   6.082  0.2315  0.1976  0.0081
 8159SOL    HW136113   2.208   2.873   6.007 -2.4545  0.4212 -0.8917
 8159SOL    HW236114   2.246   2.753   6.070  1.9399  1.9239 -0.0336
 8160SOL     OW36115   2.130   0.348   1.707  0.1999  0.1143  0.5147
 8160SOL    HW136116   2.172   0.299   1.637 -1.2537 -0.4887  0.0630
 8160SOL    HW236117   2.177   0.315   1.784 -0.2562 -0.8675  0.3698
 8161SOL     OW36118   1.632   2.377   7.445 -0.4297 -0.0485  0.3202
 8161SOL    HW136119   1.727   2.385   7.432 -0.2013  0.5821  2.4065
 8161SOL    HW236120   1.608   2.306   7.385 -0.8757 -0.5490  1.0997
 8162SOL     OW36121   1.153   1.016   4.535  0.2820 -1.3037  0.1005
 8162SOL    HW136122   1.076   0.959   4.528 -0.3815 -0.4422  0.4030
 8162SOL    HW236123   1.125   1.087   4.592  1.1422 -0.1786 -0.8686
 8163SOL     OW36124   0.984   2.308   7.653 -0.0505 -0.2730  0.2814
 8163SOL    HW136125   0.910   2.274   7.704 -1.2784 -0.6160 -1.7305
 8163SOL    HW236126   0.934   2.317   7.572 -0.0517  0.8321  0.3986
 8164SOL     OW36127   0.429   4.522   7.726 -0.0876 -0.5324  0.1860
 8164SOL    HW136128   0.522   4.499   7.730  0.8145  3.1159 -0.0531
 8164SOL    HW236129   0.404   4.439   7.766 -0.6694 -1.7163 -2.6472
 8165SOL     OW36130   2.228   0.974  10.047 -0.4749 -0.3127  0.5385
 8165SOL    HW136131   2.197   1.002   9.961 -1.1168  1.0934  1.2367
 8165SOL    HW236132   2.288   1.045  10.068 -0.2792 -0.4059  0.2865
 8166SOL     OW36133   0.776   0.473   1.448 -0.1063 -0.7268  0.4158
 8166SOL    HW136134   0.869   0.487   1.434  0.0919 -2.5280 -0.1034
 8166SOL    HW236135   0.735   0.534   1.386  1.1224 -1.1838 -0.8456
 8167SOL     OW36136   2.720   3.634  17.431  0.1301  0.5003 -0.3516
 8167SOL    HW136137   2.797   3.599  17.476  0.3888  0.2525 -0.9717
 8167SOL    HW236138   2.649   3.580  17.465  0.7150 -0.4354 -0.6148
 8168SOL     OW36139   3.472   0.425   4.213  0.5907  0.0523  0.0034
 8168SOL    HW136140   3.426   0.341   4.215  0.8221 -0.0392  1.4563
 8168SOL    HW236141   3.560   0.394   4.232  0.7822  0.2322 -0.6026
 8169SOL     OW36142   0.474   2.719   1.795  0.6336 -0.1237  0.9445
 8169SOL    HW136143   0.496   2.642   1.848  0.8274 -1.4891 -1.1359
 8169SOL    HW236144   0.549   2.740   1.739 -0.2571  0.4236 -0.0371
 8170SOL     OW36145   2.642   4.279   8.962  0.1849  0.0061 -0.3504
 8170SOL    HW136146   2.601   4.193   8.973  0.7409 -0.2568 -0.3402
 8170SOL    HW236147   2.572   4.323   9.010  0.0831  0.8423 -1.2567
 8171SOL     OW36148   1.556   4.705   9.745 -0.3040  0.2382 -0.3304
 8171SOL    HW136149   1.646   4.674   9.743 -0.1186  0.7555 -0.0184
 8171SOL    HW236150   1.503   4.627   9.760  0.6879 -1.0249 -3.2442
 8172SOL     OW36151   4.706   2.443   5.146  0.2572 -0.2388  0.4782
 8172SOL    HW136152   4.693   2.512   5.082  4.0837  1.2010  1.2086
 8172SOL    HW236153   4.633   2.450   5.208  1.0024 -0.7722  1.4268
 8173SOL     OW36154   3.820   0.977   4.797  0.6700 -0.0640 -0.5032
 8173SOL    HW136155   3.762   1.045   4.762 -0.3901 -0.1524  1.0393
 8173SOL    HW236156   3.909   0.998   4.769  0.8082 -0.6619 -0.5084
 8174SOL     OW36157   1.062   4.673   0.748  0.0804  0.5333  0.0936
 8174SOL    HW136158   1.040   0.031   0.753 -0.4022  0.3654  1.0519
 8174SOL    HW236159   0.999   4.629   0.804  0.6073 -0.5595 -0.1622
 8175SOL     OW36160   1.092   1.582   7.729 -0.1554  0.0608  0.3069
 8175SOL    HW136161   1.103   1.676   7.712 -1.4015 -0.1130 -1.6189
 8175SOL    HW236162   1.097   1.543   7.641  0.2937  1.5710 -0.3429
 8176SOL     OW36163   3.127   4.295  13.774 -0.2808  0.0751 -0.0817
 8176SOL    HW136164   3.190   4.261  13.710 -0.9506  1.9409 -1.7586
 8176SOL    HW236165   3.176   4.287  13.855  0.7168 -0.2827 -0.7240
 8177SOL     OW36166   2.900   2.001  11.718 -0.6640  0.0832 -0.2806
 8177SOL    HW136167   2.820   2.032  11.677 -0.1214 -0.3148 -1.6415
 8177SOL    HW236168   2.856   1.980  11.800 -0.5254  0.3291 -0.1431
 8178SOL     OW36169   1.170   3.414   1.931  0.0268 -0.7463  0.7687
 8178SOL    HW136170   1.196   3.325   1.907  1.5976 -0.1434  0.2527
 8178SOL    HW236171   1.078   3.412   1.956 -0.0600 -2.4239  0.3303
 8179SOL     OW36172   3.490   3.810   5.608 -0.6261  0.2492  0.6218
 8179SOL    HW136173   3.412   3.756   5.601 -0.3795 -0.0338  0.0457
 8179SOL    HW236174   3.555   3.742   5.593  0.0453  0.3129  3.2895
 8180SOL     OW36175   1.061   2.223   8.230 -0.1824 -0.0229  0.1831
 8180SOL    HW136176   1.140   2.252   8.276 -1.3198 -0.6619  2.5377
 8180SOL    HW236177   0.988   2.238   8.290 -0.2977 -2.1574  0.5843
 8181SOL     OW36178   2.582   2.820  13.515  0.6010  0.1522  0.2815
 8181SOL    HW136179   2.529   2.741  13.503  1.1837 -0.3700  1.0485
 8181SOL    HW236180   2.662   2.810  13.463  1.8075 -0.1144  2.1439
 8182SOL     OW36181   4.487   3.080   4.579 -0.5177  0.6758  0.0859
 8182SOL    HW136182   4.521   3.073   4.668 -1.1826  1.4011  0.3919
 8182SOL    HW236183   4.396   3.105   4.593 -0.0642  1.5423  1.5260
 8183SOL     OW36184   2.985   2.572  16.630  0.3110  0.8363 -0.0947
 8183SOL    HW136185   3.061   2.627  16.613  0.9929  0.3593  1.3840
 8183SOL    HW236186   2.937   2.595  16.550 -0.3311 -0.6751 -0.1473
 8184SOL     OW36187   1.211   0.703   5.908  0.0186 -0.5582 -0.3312
 8184SOL    HW136188   1.117   0.697   5.888  0.0257  1.0953 -0.8587
 8184SOL    HW236189   1.246   0.691   5.820 -2.4195 -1.6393 -1.1662
 8185SOL     OW36190   2.544   1.165  14.846  1.0757  0.3598 -0.5810
 8185SOL    HW136191   2.478   1.176  14.777  0.4002  0.7275  0.1190
 8185SOL    HW236192   2.502   1.222  14.911  0.9816  0.6888 -0.9306
 8186SOL     OW36193   2.894   4.695  16.790  0.0953  0.0958  0.0101
 8186SOL    HW136194   2.906   4.734  16.703 -0.6516 -1.2121 -0.6650
 8186SOL    HW236195   2.801   4.679  16.803  0.2646 -1.8135 -1.2571
 8187SOL     OW36196   4.072   0.866   1.772  0.1492  0.0589 -0.2111
 8187SOL    HW136197   4.055   0.960   1.762  1.7097  0.3822  0.2325
 8187SOL    HW236198   4.114   0.855   1.687  1.3074 -0.2530  0.4050
 8188SOL     OW36199   3.181   2.045   7.081 -0.0675 -0.2827 -0.7632
 8188SOL    HW136200   3.122   1.981   7.042 -0.3119 -0.2773 -0.3986
 8188SOL    HW236201   3.224   2.012   7.160  2.7618 -1.5231 -2.8216
 8189SOL     OW36202   4.247   1.140   3.916 -0.1154 -0.1527 -0.2057
 8189SOL    HW136203   4.165   1.190   3.921  0.2513  0.3913  0.2512
 8189SOL    HW236204   4.233   1.076   3.846  2.7118 -0.7742 -0.1940
 8190SOL     OW36205   0.951   2.592  11.540  0.1393  0.0958  0.2775
 8190SOL    HW136206   0.880   2.593  11.475 -2.5728 -2.5393  3.2203
 8190SOL    HW236207   0.924   2.518  11.595  0.4146  0.1777  0.5203
 8191SOL     OW36208   3.329   2.041  14.119  0.1537 -0.1716 -0.4694
 8191SOL    HW136209   3.330   2.136  14.109  1.7487 -0.1369  0.0010
 8191SOL    HW236210   3.389   2.025  14.046  2.1217  1.4162  0.7728
 8192SOL     OW36211   1.578   3.002  13.581  0.2978 -0.8361  0.1638
 8192SOL    HW136212   1.553   3.011  13.489 -0.1949  2.3190  0.5996
 8192SOL    HW236213   1.530   3.078  13.615  1.3798 -0.3254  0.5809
 8193SOL     OW36214   0.145   3.458   8.940  0.5379  0.1782 -0.1193
 8193SOL    HW136215   0.135   3.447   9.035  1.6245  3.3898  0.3391
 8193SOL    HW236216   0.226   3.508   8.941 -0.6486  2.1018  0.1643
 8194SOL     OW36217   0.215   4.361  17.171  0.3486 -0.1048  0.1143
 8194SOL    HW136218   0.173   4.361  17.085  2.7610 -0.3583 -1.0673
 8194SOL    HW236219   0.181   4.441  17.210 -0.2261 -0.1725 -0.2420
 8195SOL     OW36220   4.490   0.679  15.564 -0.0096 -0.2071 -0.2449
 8195SOL    HW136221   4.550   0.613  15.596 -0.1019 -0.0040  0.3429
 8195SOL    HW236222   4.524   0.682  15.474  1.0147  1.5032  0.2005
 8196SOL     OW36223   0.653   4.343   7.750  0.2814  0.5215 -0.0272
 8196SOL    HW136224   0.746   4.342   7.727  0.6173  2.3163  1.2781
 8196SOL    HW236225   0.648   4.266   7.806 -0.6100  1.1614  0.7819
 8197SOL     OW36226   2.144   1.074   1.997  0.3237 -0.1649 -0.2539
 8197SOL    HW136227   2.217   1.069   2.059 -1.6194  0.9270  2.1397
 8197SOL    HW236228   2.140   1.170   1.999  1.3912 -0.1700  2.2946
 8198SOL     OW36229   3.548   2.940  13.810  0.0670 -0.4425  0.3754
 8198SOL    HW136230   3.529   2.961  13.719 -1.9397 -1.0033  0.6609
 8198SOL    HW236231   3.525   2.847  13.817 -0.3313 -0.4249 -0.6796
 8199SOL     OW36232   3.002   2.737   5.067 -0.5964 -0.6594 -0.1514
 8199SOL    HW136233   2.998   2.832   5.066 -0.1469 -0.6411 -1.0440
 8199SOL    HW236234   2.963   2.725   5.153  0.3556  1.9716  0.6604
 8200SOL     OW36235   1.159   1.522   6.897 -0.3319 -0.3042  0.0876
 8200SOL    HW136236   1.112   1.598   6.931  0.3553  0.6317 -1.0491
 8200SOL    HW236237   1.228   1.505   6.962 -0.9221  2.6137  1.5056
 8201SOL     OW36238   3.000   3.341   8.872  0.0416  0.0036 -0.3488
 8201SOL    HW136239   3.059   3.301   8.935 -0.0504 -0.3999 -0.5176
 8201SOL    HW236240   2.963   3.418   8.916  2.1361  1.6813 -1.5604
 8202SOL     OW36241   3.178   3.333   4.881  0.6857 -0.8655 -0.5618
 8202SOL    HW136242   3.204   3.275   4.810 -0.6577  1.1838 -2.7228
 8202SOL    HW236243   3.096   3.359   4.839  0.3082 -0.3247  0.4949
 8203SOL     OW36244   1.641   3.149   1.353 -0.0443 -0.1768  0.4374
 8203SOL    HW136245   1.658   3.177   1.263 -2.8427 -0.5588 -0.2192
 8203SOL    HW236246   1.690   3.067   1.361 -2.9477 -1.9548 -0.1431
 8204SOL     OW36247   2.135   0.047   4.597 -0.5389  0.1407 -0.2769
 8204SOL    HW136248   2.179   0.132   4.603  0.3765 -0.3338 -0.2011
 8204SOL    HW236249   2.177   4.736   4.669  0.1314  2.8388  1.1123
 8205SOL     OW36250   1.904   2.661   6.348 -0.3838  0.0991  0.3670
 8205SOL    HW136251   1.820   2.616   6.343  0.0594 -0.8067  1.0150
 8205SOL    HW236252   1.888   2.743   6.301  1.5026  0.5484  0.5052
 8206SOL     OW36253   2.580   2.393  10.346 -0.0059 -0.1974  1.0310
 8206SOL    HW136254   2.649   2.409  10.411 -0.3046 -1.4431  1.6560
 8206SOL    HW236255   2.513   2.455  10.375  0.0499  0.8288 -1.0360
 8207SOL     OW36256   4.084   0.995   4.668  0.1738 -0.2394  0.5373
 8207SOL    HW136257   4.030   0.987   4.590  1.6419 -0.4306 -0.4554
 8207SOL    HW236258   4.166   0.970   4.627  0.5279  1.8064 -0.0303
 8208SOL     OW36259   3.907   3.407   3.158  0.7073  0.1519  0.5663
 8208SOL    HW136260   3.875   3.322   3.188 -2.2733  0.3468 -2.0780
 8208SOL    HW236261   3.823   3.450   3.144 -0.0443 -1.0473  1.4500
 8209SOL     OW36262   0.704   2.302   6.410  0.8853 -0.4966 -0.0973
 8209SOL    HW136263   0.783   2.288   6.463  0.4500  2.3122  1.2893
 8209SOL    HW236264   0.671   2.212   6.417 -2.2784  0.8756  2.5740
 8210SOL     OW36265   4.414   2.443   5.026  0.0071  0.0693 -0.3269
 8210SOL    HW136266   4.389   2.506   5.094 -4.3747 -0.8000 -1.1631
 8210SOL    HW236267   4.335   2.456   4.973 -0.1677  0.4177  0.0161
 8211SOL     OW36268   1.859   0.295   5.499 -0.2128 -0.7216  0.4066
 8211SOL    HW136269   1.858   0.361   5.430  1.2665  0.8857  1.9313
 8211SOL    HW236270   1.796   0.342   5.553 -0.2880 -1.5655  1.0513
 8212SOL     OW36271   4.664   1.390   5.353 -0.4783  0.1397 -0.4461
 8212SOL    HW136272   4.673   1.465   5.411  0.6922 -0.1036 -0.3071
 8212SOL    HW236273   4.599   1.416   5.288  0.6091 -0.8131 -1.9284
 8213SOL     OW36274   0.472   0.592   5.444  0.1412  1.2475 -0.0800
 8213SOL    HW136275   0.536   0.537   5.398  0.0983 -0.4861  1.9315
 8213SOL    HW236276   0.390   0.542   5.438  0.8440  0.2035 -1.1021
 8214SOL     OW36277   2.498   3.823  16.411 -0.3891 -0.5310 -0.6344
 8214SOL    HW136278   2.510   3.884  16.484  1.3021 -2.2259  0.4751
 8214SOL    HW236279   2.427   3.869  16.365  1.5997  1.7319 -1.4368
 8215SOL     OW36280   3.812   0.924   7.346  0.8915 -0.5759 -0.2730
 8215SOL    HW136281   3.771   0.917   7.432  2.3935 -3.0508  0.2497
 8215SOL    HW236282   3.858   1.007   7.355 -0.8723  0.1445  2.1609
 8216SOL     OW36283   0.680   0.014   8.924 -0.6922  0.2240  0.1051
 8216SOL    HW136284   0.710   0.103   8.938  1.4071 -0.1815 -1.7660
 8216SOL    HW236285   0.707   4.713   9.008 -1.7034  2.5162  1.4371
 8217SOL     OW36286   1.026   3.430   2.392  0.3544 -0.3121 -0.3344
 8217SOL    HW136287   1.001   3.518   2.420 -0.2895 -0.0945 -1.6170
 8217SOL    HW236288   0.947   3.385   2.421  2.6955 -2.3071  2.9280
 8218SOL     OW36289   0.582   1.112   7.948  0.4603 -0.1093  0.1629
 8218SOL    HW136290   0.578   1.023   7.984  0.8999  0.6675  2.1090
 8218SOL    HW236291   0.654   1.154   7.996 -0.4777  0.1453  1.3481
 8219SOL     OW36292   1.598   0.355   0.499 -0.4058  0.5141 -0.1520
 8219SOL    HW136293   1.558   0.274   0.468 -0.8790  0.4158  0.6850
 8219SOL    HW236294   1.677   0.353   0.446  0.7442  0.0545  1.5552
 8220SOL     OW36295   0.330   4.122   3.445 -0.1643  0.2268  0.0618
 8220SOL    HW136296   0.341   4.187   3.514  1.0592 -2.4619  2.4158
 8220SOL    HW236297   0.313   4.182   3.373  0.0001  0.0587 -0.1191
 8221SOL     OW36298   4.498   4.035   8.257 -0.6513 -0.0541 -0.1491
 8221SOL    HW136299   4.439   4.108   8.277 -1.5495 -1.3138  1.7765
 8221SOL    HW236300   4.437   3.998   8.193  1.6306 -0.1683 -2.2571
 8222SOL     OW36301   4.016   2.426  14.260  0.4214 -0.3876 -0.4054
 8222SOL    HW136302   4.037   2.473  14.179  2.1476 -1.2966 -0.4930
 8222SOL    HW236303   4.040   2.491  14.327 -1.3087 -0.7803  0.5941
 8223SOL     OW36304   1.058   3.409   4.208 -0.3618  0.7205 -0.0793
 8223SOL    HW136305   1.080   3.354   4.133  0.2767  0.5379  0.2462
 8223SOL    HW236306   0.962   3.403   4.211 -0.2994 -0.1905 -0.0146
 8224SOL     OW36307   1.199   0.664   3.558 -0.9629 -0.5496  0.2889
 8224SOL    HW136308   1.168   0.748   3.523 -1.6893 -0.1057  2.0103
 8224SOL    HW236309   1.143   0.611   3.501  0.9056 -1.4235 -0.7137
 8225SOL     OW36310   0.257   1.559   7.954  0.2372 -0.2508 -0.0312
 8225SOL    HW136311   0.337   1.515   7.925  0.0590  0.6797 -1.9106
 8225SOL    HW236312   0.269   1.558   8.049  0.4848 -1.4180 -0.0729
 8226SOL     OW36313   4.025   2.117  15.371  0.2296 -0.4586 -0.2683
 8226SOL    HW136314   3.938   2.154  15.379  0.7248  0.6682 -0.1129
 8226SOL    HW236315   4.076   2.185  15.416  0.1155 -1.3822  1.2553
 8227SOL     OW36316   2.119   0.118   5.106 -0.5281 -0.3691 -0.1386
 8227SOL    HW136317   2.073   0.200   5.087  2.3560  1.2603 -0.0331
 8227SOL    HW236318   2.153   0.135   5.194 -0.9608 -0.6708  0.0901
 8228SOL     OW36319   1.463   0.578   3.484  0.5648 -0.2167  0.7147
 8228SOL    HW136320   1.416   0.563   3.402  0.3041 -0.1151  0.8473
 8228SOL    HW236321   1.394   0.631   3.523  0.8715  2.0812 -1.8391
 8229SOL     OW36322   0.712   2.108   3.810 -0.1636  0.5537 -0.1528
 8229SOL    HW136323   0.778   2.057   3.762 -1.3418  0.8491 -2.0706
 8229SOL    HW236324   0.638   2.049   3.795  0.9661 -0.7222 -0.8238
 8230SOL     OW36325   0.756   3.407   6.372  0.1315 -0.6248 -0.0845
 8230SOL    HW136326   0.713   3.492   6.360 -0.8369 -0.8900  1.5369
 8230SOL    HW236327   0.817   3.429   6.443 -0.3366  0.8793 -0.1416
 8231SOL     OW36328   0.633   1.848   7.335 -0.2582 -0.2461 -0.0668
 8231SOL    HW136329   0.670   1.772   7.291 -0.3156 -1.4310  1.9295
 8231SOL    HW236330   0.555   1.809   7.374 -1.9693  1.5197 -1.6950
 8232SOL     OW36331   2.033   0.818   2.296  0.7242  0.4319  0.3529
 8232SOL    HW136332   2.001   0.729   2.312 -0.8404  0.6738 -1.3475
 8232SOL    HW236333   2.120   0.817   2.336  0.4318  1.2271  1.0012
 8233SOL     OW36334   4.730   2.404  10.308  0.6160 -0.2977  0.3806
 8233SOL    HW136335   4.669   2.471  10.279  0.2773 -1.0783 -0.6999
 8233SOL    HW236336   4.699   2.383  10.397  1.6606  0.3866  0.9036
 8234SOL     OW36337   0.868   1.772   4.481 -0.1052  0.1724  0.0032
 8234SOL    HW136338   0.905   1.754   4.394 -0.9969 -1.8248  0.0416
 8234SOL    HW236339   0.939   1.733   4.533 -1.4027 -2.8205 -0.4706
 8235SOL     OW36340   4.325   1.262  10.969 -0.3813  0.0715 -0.6308
 8235SOL    HW136341   4.386   1.201  10.928  0.8241  0.5321  0.4502
 8235SOL    HW236342   4.257   1.275  10.903 -1.5462 -1.1274  0.3247
 8236SOL     OW36343   1.039   0.762   9.529 -0.2066 -0.5640 -0.1656
 8236SOL    HW136344   1.112   0.708   9.498  0.4032 -0.0762  0.4190
 8236SOL    HW236345   1.069   0.853   9.518 -0.6484 -0.5520 -1.2497
 8237SOL     OW36346   2.821   4.548  10.525 -0.0700  0.0035  0.7295
 8237SOL    HW136347   2.799   4.455  10.521 -1.7693  0.6351 -3.4423
 8237SOL    HW236348   2.856   4.559  10.614 -0.2531  1.1949  0.6497
 8238SOL     OW36349   2.439   3.777   3.726  0.0622 -0.2547 -0.1503
 8238SOL    HW136350   2.425   3.821   3.642 -0.8257 -0.8796 -0.3280
 8238SOL    HW236351   2.529   3.803   3.747 -0.2298  0.0473  0.7146
 8239SOL     OW36352   4.153   2.148   2.817 -0.3111  0.0359  0.4453
 8239SOL    HW136353   4.122   2.058   2.806 -0.6705  0.2337 -0.1435
 8239SOL    HW236354   4.125   2.179   2.731  0.7419  0.9734  0.4411
 8240SOL     OW36355   3.707   0.573  12.549 -0.4772 -0.1897 -0.6947
 8240SOL    HW136356   3.774   0.589  12.615 -3.2158  1.7952  1.5657
 8240SOL    HW236357   3.756   0.573  12.466  0.2419  0.1804 -0.2699
 8241SOL     OW36358   3.164   3.554  11.300  0.4420  0.5981  0.0908
 8241SOL    HW136359   3.115   3.610  11.239 -0.5187  0.7096  0.9579
 8241SOL    HW236360   3.164   3.618  11.372  2.5776 -1.7553  2.1724
 8242SOL     OW36361   1.088   3.499   4.460 -0.2707  0.1115  0.9122
 8242SOL    HW136362   1.163   3.449   4.492  0.6867 -0.2817 -1.8882
 8242SOL    HW236363   1.072   3.450   4.379 -0.2378 -1.2628  1.7427
 8243SOL     OW36364   4.531   1.031   5.773  0.7230  1.0259 -0.3218
 8243SOL    HW136365   4.568   0.966   5.714 -2.5912 -0.6178 -0.6110
 8243SOL    HW236366   4.607   1.062   5.821 -0.4827 -0.0419  2.2678
 8244SOL     OW36367   2.040   1.698   1.121 -0.3178 -0.3080 -0.3421
 8244SOL    HW136368   2.073   1.743   1.043  1.1356 -0.2832  0.2810
 8244SOL    HW236369   1.985   1.763   1.165  0.7153 -0.4539  1.1976
 8245SOL     OW36370   0.763   3.578   2.675 -0.1315  0.1824 -0.0389
 8245SOL    HW136371   0.743   3.510   2.739 -1.3964  0.1018 -0.5267
 8245SOL    HW236372   0.848   3.552   2.637  1.2965  2.0711  1.8528
 8246SOL     OW36373   0.093   2.243   7.516  0.6216 -0.4716  0.5164
 8246SOL    HW136374   0.095   2.175   7.584  1.9152  0.3199  1.2782
 8246SOL    HW236375   0.123   2.196   7.438  3.4124  0.0737  1.2712
 8247SOL     OW36376   0.322   3.679  11.345  0.6148 -0.1748  0.7118
 8247SOL    HW136377   0.275   3.715  11.269  0.8081  2.0649  1.6640
 8247SOL    HW236378   0.248   3.648  11.398 -0.6582 -1.0197 -1.5105
 8248SOL     OW36379   0.338   4.006   8.658 -0.5352 -0.5201  0.4912
 8248SOL    HW136380   0.357   4.015   8.751  1.3733 -2.2753  0.2612
 8248SOL    HW236381   0.245   4.027   8.650 -0.0718  2.2335  2.1402
 8249SOL     OW36382   0.305   0.343   6.119  0.4408  0.6627  0.1486
 8249SOL    HW136383   0.239   0.283   6.154  1.0198 -0.9605 -1.5119
 8249SOL    HW236384   0.358   0.275   6.076 -0.7353 -0.4482  0.4517
 8250SOL     OW36385   0.214   4.021  14.317 -0.5096  0.0686 -0.4448
 8250SOL    HW136386   0.233   4.021  14.411 -0.7817 -0.9362 -0.3964
 8250SOL    HW236387   0.119   4.033  14.324 -0.2657  2.7986 -1.9291
 8251SOL     OW36388   4.257   4.427   9.336  0.2729 -0.5844 -0.3508
 8251SOL    HW136389   4.260   4.376   9.416  2.4055  0.5545  0.3180
 8251SOL    HW236390   4.352   4.429   9.321  0.3190  1.4220  0.1800
 8252SOL     OW36391   1.618   3.627   9.626 -0.1049  0.8758  0.1619
 8252SOL    HW136392   1.568   3.566   9.680  1.6288 -1.1173 -0.4812
 8252SOL    HW236393   1.694   3.574   9.600  0.2286  0.8357  1.1849
 8253SOL     OW36394   1.925   3.104   3.959  0.3524 -0.1778 -0.0564
 8253SOL    HW136395   1.979   3.054   4.019 -0.2528 -0.7009  0.0526
 8253SOL    HW236396   1.985   3.163   3.913 -0.6453  0.9161  0.0597
 8254SOL     OW36397   2.768   0.933   8.739  0.2547  0.0884 -0.2982
 8254SOL    HW136398   2.725   0.960   8.658 -0.9059 -0.5031  0.1184
 8254SOL    HW236399   2.848   0.901   8.699 -1.5302 -2.9955 -1.4137
 8255SOL     OW36400   3.812   3.926  10.593 -0.8512  0.2238  0.4843
 8255SOL    HW136401   3.819   3.890  10.504 -1.0684 -2.7791  1.6950
 8255SOL    HW236402   3.890   3.889  10.636 -2.2445 -1.4741  1.5311
 8256SOL     OW36403   2.578   3.784   5.890 -0.1645 -0.4139  0.3728
 8256SOL    HW136404   2.568   3.739   5.974 -0.8648 -0.0122  0.5058
 8256SOL    HW236405   2.500   3.766   5.837 -0.1968  1.0246 -0.0479
 8257SOL     OW36406   1.555   2.839   8.026  0.4329 -0.0440 -0.6062
 8257SOL    HW136407   1.510   2.860   7.944 -2.1908 -0.4153  0.7395
 8257SOL    HW236408   1.508   2.758   8.046 -0.7014  0.3955 -1.5021
 8258SOL     OW36409   0.004   2.751   4.448  0.4720 -0.4865 -0.0392
 8258SOL    HW136410   0.073   2.712   4.502  0.8815  1.6045  0.9274
 8258SOL    HW236411   4.721   2.830   4.499  1.5898 -1.5542  2.0424
 8259SOL     OW36412   0.580   3.013   4.443  0.2505 -0.0114 -1.0193
 8259SOL    HW136413   0.488   2.992   4.455 -0.0199  1.9175  0.2026
 8259SOL    HW236414   0.571   3.105   4.419 -2.5514 -0.0677 -0.1781
 8260SOL     OW36415   0.538   0.152   2.269  0.1865  1.4093 -0.6021
 8260SOL    HW136416   0.619   0.165   2.221  1.8598  1.1734  2.1324
 8260SOL    HW236417   0.529   0.058   2.284 -1.6109  1.5146 -1.0068
 8261SOL     OW36418   1.390   1.347   9.978 -0.1581  0.0325 -0.2957
 8261SOL    HW136419   1.440   1.390  10.047 -1.5212  1.3547 -0.1596
 8261SOL    HW236420   1.457   1.278   9.971 -2.6774 -2.2645 -1.6871
 8262SOL     OW36421   2.881   3.528  13.276  0.3628 -0.3834  0.1821
 8262SOL    HW136422   2.889   3.623  13.272 -0.8064 -0.4072 -2.7427
 8262SOL    HW236423   2.790   3.528  13.304  0.8750  1.5760  1.8692
 8263SOL     OW36424   1.149   4.056   7.973 -0.3066  0.3396 -0.7765
 8263SOL    HW136425   1.064   4.092   7.946  0.1447  0.5927 -1.8899
 8263SOL    HW236426   1.175   4.043   7.882  1.5838 -1.0515 -0.0179
 8264SOL     OW36427   4.127   3.368   7.692 -0.2591  0.2381  0.3280
 8264SOL    HW136428   4.112   3.462   7.689  0.7339  0.4122  1.1114
 8264SOL    HW236429   4.188   3.364   7.618 -1.6574  0.9961 -0.8735
 8265SOL     OW36430   0.505   2.450   9.904 -0.0677 -0.3850  0.1367
 8265SOL    HW136431   0.442   2.462   9.834 -0.2222  2.2021  0.6958
 8265SOL    HW236432   0.483   2.361   9.929  2.6211 -1.4273 -1.2222
 8266SOL     OW36433   3.280   4.259  14.626  0.1430 -0.4403  0.4766
 8266SOL    HW136434   3.215   4.228  14.688 -0.9755 -0.2225 -0.5737
 8266SOL    HW236435   3.226   4.284  14.551 -2.0590 -3.3626  1.0965
 8267SOL     OW36436   2.427   4.486   9.350  0.0928 -0.0191  0.1258
 8267SOL    HW136437   2.349   4.445   9.389 -0.2974 -0.1158 -0.7556
 8267SOL    HW236438   2.438   4.446   9.264 -1.8531  1.7515 -0.9318
 8268SOL     OW36439   2.699   1.571  10.386  0.8097 -0.3432 -0.1604
 8268SOL    HW136440   2.633   1.611  10.330 -2.6737 -2.1371  2.6637
 8268SOL    HW236441   2.711   1.622  10.465 -2.1118 -1.0567  0.7479
 8269SOL     OW36442   2.431   2.669  17.487  0.4584 -0.1040  0.4964
 8269SOL    HW136443   2.417   2.747  17.433 -1.3619 -1.1128 -0.5067
 8269SOL    HW236444   2.524   2.684  17.503  0.2720  0.8628  0.6275
 8270SOL     OW36445   4.112   4.170   5.543  0.2974 -0.0196  0.2666
 8270SOL    HW136446   4.077   4.098   5.595 -0.0028  0.1398  0.2908
 8270SOL    HW236447   4.197   4.137   5.514 -0.3333 -0.9700 -0.5137
 8271SOL     OW36448   4.190   1.199   2.781  0.6492  0.1602  0.3674
 8271SOL    HW136449   4.189   1.155   2.867 -1.0861 -0.0384  0.2609
 8271SOL    HW236450   4.174   1.291   2.803  1.0314  0.1532  0.6657
 8272SOL     OW36451   4.108   2.120   8.376 -0.8155  0.3535  1.2008
 8272SOL    HW136452   4.131   2.198   8.324 -0.7852 -0.7620 -0.4572
 8272SOL    HW236453   4.012   2.127   8.377 -0.8408  0.1665  0.5763
 8273SOL     OW36454   0.859   4.305   3.157  0.0833  0.1434 -0.4696
 8273SOL    HW136455   0.795   4.241   3.126 -0.1302 -0.2827  0.8272
 8273SOL    HW236456   0.803   4.382   3.162  3.7155  2.6771  1.0291
 8274SOL     OW36457   0.233   3.429  12.124 -0.3622 -0.2699  0.3378
 8274SOL    HW136458   0.262   3.366  12.058 -0.9744  0.6014 -0.7791
 8274SOL    HW236459   0.316   3.455  12.162 -0.3931  0.1357  0.1273
 8275SOL     OW36460   1.774   2.054   1.629 -0.1266  0.1616 -0.8394
 8275SOL    HW136461   1.757   1.986   1.564 -0.6350 -0.7740  0.2748
 8275SOL    HW236462   1.866   2.032   1.640 -0.2640 -0.1920 -0.3894
 8276SOL     OW36463   3.101   2.613   8.365  0.0250 -0.3320 -0.5189
 8276SOL    HW136464   3.061   2.690   8.326  1.4449  0.1367 -1.0319
 8276SOL    HW236465   3.195   2.619   8.350  0.0395  1.0655  0.1167
 8277SOL     OW36466   2.818   1.186  10.504  0.2558  0.2725  0.0465
 8277SOL    HW136467   2.732   1.221  10.528 -0.0001  0.0906 -0.6086
 8277SOL    HW236468   2.881   1.255  10.523  0.6317  0.1958 -0.9246
 8278SOL     OW36469   0.704   0.558   6.556 -0.2324  0.0600  0.3667
 8278SOL    HW136470   0.629   0.560   6.614 -0.4912  5.4328 -0.1514
 8278SOL    HW236471   0.759   0.509   6.618  0.6584  0.5212 -0.0500
 8279SOL     OW36472   2.350   1.626  13.045  0.5026  0.0037  0.1284
 8279SOL    HW136473   2.396   1.681  13.108  1.0583  1.1154 -1.2597
 8279SOL    HW236474   2.367   1.532  13.058 -1.9186 -0.6526 -1.4271
 8280SOL     OW36475   0.380   4.262  13.410  0.0355 -0.1751  0.3433
 8280SOL    HW136476   0.288   4.283  13.420  0.2877  0.6828  0.8569
 8280SOL    HW236477   0.369   4.191  13.347 -0.9625  0.6214 -0.3642
 8281SOL     OW36478   0.376   1.732   5.787  0.4224  0.2423 -0.3491
 8281SOL    HW136479   0.430   1.775   5.720  2.2925 -2.2553 -0.4463
 8281SOL    HW236480   0.313   1.691   5.728  0.7389 -1.1064  0.2573
 8282SOL     OW36481   2.656   2.172   5.045 -0.6084 -0.0091  0.2668
 8282SOL    HW136482   2.726   2.222   5.087  0.1042  0.1203 -1.0840
 8282SOL    HW236483   2.662   2.097   5.104 -0.5792  2.0355  2.8493
 8283SOL     OW36484   4.038   2.939   8.980 -0.1318  0.0394  0.1699
 8283SOL    HW136485   4.001   2.859   9.018  2.8816 -0.2393  2.4853
 8283SOL    HW236486   4.037   3.008   9.047 -1.6604  0.5916 -0.4290
 8284SOL     OW36487   2.937   1.878  10.829 -0.3852  0.5310  0.0139
 8284SOL    HW136488   2.918   1.792  10.865  3.6559 -0.3798  0.0281
 8284SOL    HW236489   2.873   1.925  10.882 -0.7764 -0.2863  0.2682
 8285SOL     OW36490   1.708   2.592   2.899  0.0184 -0.5426 -0.2930
 8285SOL    HW136491   1.619   2.570   2.926  0.5653 -1.3574  0.8053
 8285SOL    HW236492   1.736   2.648   2.972  1.6875 -1.9465  0.1316
 8286SOL     OW36493   1.820   0.129   3.319  0.0803  0.1950 -0.2941
 8286SOL    HW136494   1.770   0.051   3.342 -3.1918  2.4080  0.0271
 8286SOL    HW236495   1.836   0.171   3.404  1.3907  1.1091 -0.9930
 8287SOL     OW36496   1.015   2.486  14.656  0.4171 -0.4112  0.4258
 8287SOL    HW136497   1.059   2.562  14.617  0.3896 -0.4133  0.3899
 8287SOL    HW236498   1.085   2.422  14.664 -0.9700 -1.8368  1.1974
 8288SOL     OW36499   4.304   3.451  17.553 -0.0374  0.4894  0.1323
 8288SOL    HW136500   4.363   3.435  17.626  0.2390  1.4713  0.1234
 8288SOL    HW236501   4.365   3.463  17.481  1.7280  0.5691  1.6419
 8289SOL     OW36502   2.199   0.115   5.875 -0.2018 -0.0353 -0.3933
 8289SOL    HW136503   2.192   0.209   5.858  1.4995  0.0285 -0.7815
 8289SOL    HW236504   2.228   0.084   5.789  0.1074  0.0926 -0.3357
 8290SOL     OW36505   4.555   2.662  16.430 -0.2158  0.1091 -0.1154
 8290SOL    HW136506   4.506   2.595  16.383  0.2816 -0.0024 -0.4650
 8290SOL    HW236507   4.533   2.742  16.383 -1.2563 -0.8813 -1.3171
 8291SOL     OW36508   1.254   3.879  16.645 -0.7590 -0.0323 -0.0365
 8291SOL    HW136509   1.209   3.827  16.578  0.2692 -1.6275  0.5118
 8291SOL    HW236510   1.277   3.799  16.692  0.3413  0.3306  0.0336
 8292SOL     OW36511   2.744   2.675   7.712  0.2107 -0.4287  0.1532
 8292SOL    HW136512   2.678   2.720   7.659 -0.5134 -1.5478  0.0839
 8292SOL    HW236513   2.709   2.675   7.802 -1.6030  2.7539 -0.5382
 8293SOL     OW36514   4.579   0.303   5.284 -1.1038 -0.0818 -0.3029
 8293SOL    HW136515   4.507   0.327   5.225 -0.8561 -0.2990 -0.6968
 8293SOL    HW236516   4.646   0.371   5.276 -0.6544 -0.4824  0.1218
 8294SOL     OW36517   0.059   2.074   3.025  0.3551 -0.3320 -0.1097
 8294SOL    HW136518   0.094   2.144   3.081 -1.4087 -0.6857  1.4603
 8294SOL    HW236519   0.027   2.115   2.945  3.5852  3.5430  0.5865
 8295SOL     OW36520   3.260   2.416   6.588  0.6674  0.3561 -0.4914
 8295SOL    HW136521   3.246   2.325   6.616  0.2879  0.5555 -0.0393
 8295SOL    HW236522   3.229   2.461   6.666  0.0614 -0.4475 -0.2675
 8296SOL     OW36523   4.124   1.908   9.165 -0.0089  0.2482  0.2181
 8296SOL    HW136524   4.101   1.966   9.093 -0.9999 -2.3031 -1.5404
 8296SOL    HW236525   4.081   1.824   9.146  1.1869  0.0394 -1.5290
 8297SOL     OW36526   1.843   0.104   4.810  0.1855 -0.0962  0.3303
 8297SOL    HW136527   1.835   0.136   4.720  0.0818  2.6612  1.3267
 8297SOL    HW236528   1.902   0.030   4.794  1.9039  1.7486 -1.9335
 8298SOL     OW36529   1.884   1.408   6.884  0.4024 -0.2136 -0.3870
 8298SOL    HW136530   1.833   1.335   6.849 -3.5585  0.6248  3.5777
 8298SOL    HW236531   1.918   1.453   6.807  2.1582 -3.0598 -1.2670
 8299SOL     OW36532   4.423   0.069   4.038 -0.0538  0.3133 -0.4191
 8299SOL    HW136533   4.346   0.012   4.031 -1.2338  1.8656  0.0722
 8299SOL    HW236534   4.436   0.091   4.130 -1.1158 -0.3320 -0.1105
 8300SOL     OW36535   2.074   4.632   4.970  0.0734 -0.6337  0.3168
 8300SOL    HW136536   2.121   4.571   5.026 -0.2540 -0.6075  0.6236
 8300SOL    HW236537   2.086   4.704   5.032  0.4243 -1.3788  1.1070
 8301SOL     OW36538   0.336   0.019  12.451 -0.6816 -0.4170 -0.2897
 8301SOL    HW136539   0.307   0.018  12.359  1.5128 -0.9353 -0.9948
 8301SOL    HW236540   0.405   0.085  12.447 -0.2723 -0.6393  3.4238
 8302SOL     OW36541   1.578   4.163   5.157 -0.0741  0.2858 -0.4954
 8302SOL    HW136542   1.519   4.239   5.150 -0.2031  0.3081  1.0008
 8302SOL    HW236543   1.650   4.210   5.199  1.5228 -2.1831 -0.4962
 8303SOL     OW36544   2.603   2.559   8.617  0.5345  0.2648 -0.2090
 8303SOL    HW136545   2.688   2.567   8.574  1.4139 -0.3492  1.4159
 8303SOL    HW236546   2.606   2.469   8.650  0.5499  0.7966  1.2507
 8304SOL     OW36547   1.863   0.067   9.499  0.3984  0.1500 -0.3415
 8304SOL    HW136548   1.782   0.066   9.449  1.1730  0.7514 -1.6344
 8304SOL    HW236549   1.915   0.053   9.419 -0.8597 -0.4305 -1.0428
 8305SOL     OW36550   2.529   3.152   2.876 -0.3943 -0.3576  0.1822
 8305SOL    HW136551   2.615   3.111   2.882  0.6564  1.6939 -0.6661
 8305SOL    HW236552   2.489   3.083   2.824 -0.7655 -0.6319  0.8324
 8306SOL     OW36553   4.582   1.439  12.717  0.0897 -0.0679  0.2809
 8306SOL    HW136554   4.523   1.364  12.725  1.3813 -0.9123  1.8027
 8306SOL    HW236555   4.667   1.411  12.751  0.5239  1.8248  0.7676
 8307SOL     OW36556   3.001   2.794   3.979  0.4193  0.0625 -0.2139
 8307SOL    HW136557   2.955   2.795   3.895  0.4708 -1.1261 -0.2602
 8307SOL    HW236558   3.092   2.780   3.954  0.5476 -3.1970  2.0594
 8308SOL     OW36559   3.913   1.020   0.837  0.1916  0.1760  0.9373
 8308SOL    HW136560   3.900   1.100   0.888 -0.2407 -0.0770  1.2219
 8308SOL    HW236561   3.936   1.055   0.751 -2.4468  1.8939  0.9296
 8309SOL     OW36562   1.304   1.112   5.681  0.0432  0.0923 -0.3854
 8309SOL    HW136563   1.220   1.066   5.681 -0.3893  0.8929  0.1683
 8309SOL    HW236564   1.278   1.189   5.731 -0.2454 -1.9726  2.6423
 8310SOL     OW36565   4.634   3.968   6.905 -0.3677  0.1262  0.1002
 8310SOL    HW136566   4.568   4.035   6.888  0.4919  1.5158  2.1300
 8310SOL    HW236567   4.603   3.924   6.985  0.4000 -1.2597 -0.3654
 8311SOL     OW36568   4.631   1.579   7.920 -0.8384  0.6675 -0.2757
 8311SOL    HW136569   4.607   1.601   7.830  0.8665 -0.7136 -1.0738
 8311SOL    HW236570   4.667   1.663   7.949  0.5514  0.2079 -0.6879
 8312SOL     OW36571   3.545   3.299   3.883  0.6808  0.2571 -0.0654
 8312SOL    HW136572   3.492   3.378   3.880  0.2212 -0.1096 -1.9374
 8312SOL    HW236573   3.522   3.279   3.973 -0.0714 -1.3012 -0.6031
 8313SOL     OW36574   0.041   1.097  15.463  0.1620 -0.1700  0.1111
 8313SOL    HW136575   0.041   1.020  15.521 -0.3817 -0.0281  0.2973
 8313SOL    HW236576   0.131   1.128  15.469  0.1016  0.0362 -0.0643
 8314SOL     OW36577   0.223   1.062   3.819  0.1154  0.1697  0.5065
 8314SOL    HW136578   0.212   1.114   3.740 -0.8694 -0.2218  0.3870
 8314SOL    HW236579   0.296   1.105   3.863 -0.2160 -0.2438  1.4688
 8315SOL     OW36580   2.991   0.894   6.236  0.0400 -0.0599 -0.1260
 8315SOL    HW136581   2.904   0.854   6.233  0.2801 -0.6493  0.7805
 8315SOL    HW236582   3.044   0.848   6.171  0.4796 -0.8146  0.7663
 8316SOL     OW36583   3.799   3.575   5.250 -0.1517  0.2754  0.5485
 8316SOL    HW136584   3.887   3.597   5.282 -0.1864 -1.2072  1.7145
 8316SOL    HW236585   3.824   3.516   5.179  1.7395 -0.9730  2.2294
 8317SOL     OW36586   3.156   2.580   3.756  0.1819 -0.2567  0.1280
 8317SOL    HW136587   3.163   2.503   3.812  0.2717 -0.4720 -0.1780
 8317SOL    HW236588   3.081   2.554   3.703  0.4695  0.1435 -0.4905
 8318SOL     OW36589   2.157   1.618  17.192  0.4664  0.2694 -0.2394
 8318SOL    HW136590   2.166   1.614  17.287  1.8923  0.8584 -0.3553
 8318SOL    HW236591   2.231   1.673  17.166 -1.5207  2.4969 -1.1717
 8319SOL     OW36592   0.724   3.263   5.653 -0.3483  0.3441 -0.0901
 8319SOL    HW136593   0.689   3.179   5.624  0.2044 -0.0576  0.4012
 8319SOL    HW236594   0.813   3.267   5.618 -0.3645 -2.2458 -0.4151
 8320SOL     OW36595   3.873   3.141   6.075 -0.6403 -0.3582 -0.4529
 8320SOL    HW136596   3.894   3.076   6.008  0.1772  0.5536 -1.0823
 8320SOL    HW236597   3.904   3.091   6.150 -2.4050 -2.1318 -0.8976
 8321SOL     OW36598   4.645   1.041   8.257 -0.7090 -0.2964 -0.3993
 8321SOL    HW136599   4.699   1.066   8.332 -0.7237  0.3988 -0.6189
 8321SOL    HW236600   4.705   1.073   8.190 -0.0572  0.8123  0.7113
 8322SOL     OW36601   2.486   2.684   5.547  0.0050 -0.2751 -0.3331
 8322SOL    HW136602   2.414   2.699   5.607 -1.7570 -0.1247 -2.4586
 8322SOL    HW236603   2.536   2.615   5.591 -0.3886  0.3227  1.0158
 8323SOL     OW36604   2.424   1.724  11.755 -0.2241  0.2918 -0.0475
 8323SOL    HW136605   2.357   1.696  11.693  0.7908 -0.1965 -0.9232
 8323SOL    HW236606   2.501   1.676  11.725 -0.6902 -0.4118 -0.1169
 8324SOL     OW36607   1.966   3.328  16.043 -0.3442  0.3174  0.1749
 8324SOL    HW136608   2.018   3.395  16.086  0.9809 -0.1830 -0.6420
 8324SOL    HW236609   1.896   3.319  16.107 -0.3974  0.1769  0.0971
 8325SOL     OW36610   1.599   0.917   2.111 -0.3923  0.4271  0.2789
 8325SOL    HW136611   1.691   0.893   2.101 -0.5941  0.2311 -1.1067
 8325SOL    HW236612   1.565   0.844   2.059  3.2057 -1.9979  1.2754
 8326SOL     OW36613   1.351   1.841   3.306  0.3503  0.3113 -0.8317
 8326SOL    HW136614   1.326   1.752   3.283  1.5096 -0.2964  0.3047
 8326SOL    HW236615   1.329   1.894   3.229 -2.0127 -0.0387 -0.4156
 8327SOL     OW36616   2.561   0.966   0.907 -0.5013  0.2740 -0.3496
 8327SOL    HW136617   2.591   0.898   0.967 -2.0594  1.3840  1.6569
 8327SOL    HW236618   2.637   0.983   0.851  0.3762 -2.0357  0.1504
 8328SOL     OW36619   1.141   1.813   8.026  0.0795 -0.1998  0.0327
 8328SOL    HW136620   1.207   1.845   7.965  1.4547 -2.1355  0.4788
 8328SOL    HW236621   1.170   1.849   8.110  2.5731 -0.6771 -0.6026
 8329SOL     OW36622   3.121   3.493   6.085  0.0795  0.0766  0.3250
 8329SOL    HW136623   3.169   3.438   6.023 -1.4291 -0.0937 -0.7042
 8329SOL    HW236624   3.192   3.526   6.140  1.6615  0.2476 -1.8293
 8330SOL     OW36625   1.603   1.149   5.668 -0.2757  0.5129 -0.0413
 8330SOL    HW136626   1.611   1.244   5.663  0.4502  0.3351 -2.0833
 8330SOL    HW236627   1.509   1.131   5.681 -0.1714 -0.9628 -1.2680
 8331SOL     OW36628   0.003   2.611   5.907 -0.7592  0.0080  0.3433
 8331SOL    HW136629   4.670   2.636   5.846 -1.7509  0.4424  1.6422
 8331SOL    HW236630   0.077   2.654   5.864 -1.4314 -0.3672 -1.1719
 8332SOL     OW36631   2.046   2.213   2.449  0.3071 -0.4496  0.3086
 8332SOL    HW136632   2.023   2.305   2.432  0.2629 -0.2543  1.4580
 8332SOL    HW236633   2.047   2.210   2.544  1.1203 -0.0144  0.3161
 8333SOL     OW36634   2.774   4.009  13.315 -0.6213 -0.0330  0.5114
 8333SOL    HW136635   2.758   4.103  13.306  2.1731  0.4233  0.2648
 8333SOL    HW236636   2.701   3.990  13.373 -2.4266  1.0664 -1.4099
 8334SOL     OW36637   1.942   4.707   4.419 -0.0397 -0.1442  0.5384
 8334SOL    HW136638   2.022   4.702   4.472  0.3254 -0.0852 -0.0003
 8334SOL    HW236639   1.908   4.618   4.411 -3.9545  1.3368  0.7890
 8335SOL     OW36640   1.703   3.729   0.473 -0.0636 -0.7064  0.3468
 8335SOL    HW136641   1.640   3.669   0.432  0.5518 -1.8955  1.1479
 8335SOL    HW236642   1.650   3.809   0.474  1.7839  0.5112  0.0709
 8336SOL     OW36643   4.159   2.695   3.721 -0.1372 -0.1785  0.3685
 8336SOL    HW136644   4.206   2.639   3.783  1.1071 -0.8486 -1.1899
 8336SOL    HW236645   4.205   2.682   3.638  0.1983  0.0706  0.5173
 8337SOL     OW36646   2.246   3.086  12.892 -0.1189 -0.8325 -0.0293
 8337SOL    HW136647   2.235   3.000  12.852  2.3627  0.0634 -2.5847
 8337SOL    HW236648   2.267   3.052  12.979 -1.4178  0.6558  0.8670
 8338SOL     OW36649   2.867   1.773  17.160 -0.0870  0.2844  0.1519
 8338SOL    HW136650   2.865   1.696  17.103 -1.4024  0.9551 -0.7145
 8338SOL    HW236651   2.958   1.781  17.188 -0.1924 -1.3929  0.9851
 8339SOL     OW36652   1.166   3.084   6.402 -0.2499  0.3406  0.0185
 8339SOL    HW136653   1.112   3.092   6.480 -0.1871 -0.8171  0.1829
 8339SOL    HW236654   1.107   3.027   6.352 -0.9968  3.1040 -2.2783
 8340SOL     OW36655   0.534   0.229   9.444 -0.2306  0.1391  0.1276
 8340SOL    HW136656   0.604   0.288   9.416 -0.2017  0.4897  0.9623
 8340SOL    HW236657   0.575   0.144   9.459  2.0818  0.9445 -1.6145
 8341SOL     OW36658   1.249   2.911   3.363 -0.3603  0.4177  0.6601
 8341SOL    HW136659   1.340   2.880   3.362 -0.2741  0.6977 -0.5631
 8341SOL    HW236660   1.265   3.006   3.367  1.2234  0.1119  1.6243
 8342SOL     OW36661   1.384   0.227   6.309 -0.4883 -0.4060  0.1108
 8342SOL    HW136662   1.438   0.182   6.374  0.9254 -0.9269 -1.4209
 8342SOL    HW236663   1.460   0.264   6.263  0.4005 -1.3659  0.8039
 8343SOL     OW36664   3.614   1.893   7.261 -0.1869 -0.1911  0.4103
 8343SOL    HW136665   3.680   1.944   7.309  0.6964 -0.9255 -0.0375
 8343SOL    HW236666   3.609   1.954   7.187 -1.3291  0.5097  1.0740
 8344SOL     OW36667   1.092   4.302   8.882 -0.3513  0.0548 -0.1985
 8344SOL    HW136668   1.051   4.307   8.968 -0.0302 -0.7299  0.0013
 8344SOL    HW236669   1.048   4.224   8.848  1.3733 -0.4798 -1.1555
 8345SOL     OW36670   3.747   3.886   6.847 -0.0801 -0.4787  0.4912
 8345SOL    HW136671   3.691   3.940   6.791  0.9038 -0.8495 -0.8531
 8345SOL    HW236672   3.796   3.842   6.778  0.3673  1.8049 -0.6399
 8346SOL     OW36673   2.238   1.660   8.047 -0.3746  0.2792 -0.0451
 8346SOL    HW136674   2.184   1.606   8.104  1.7169 -1.5611  0.1956
 8346SOL    HW236675   2.193   1.743   8.033 -1.3050 -0.3853 -1.0076
 8347SOL     OW36676   2.231   1.963   7.162 -0.0025 -0.2647  0.0301
 8347SOL    HW136677   2.226   2.059   7.165 -1.5386 -0.3716  1.0091
 8347SOL    HW236678   2.150   1.925   7.196  0.0412  0.7531  1.2889
 8348SOL     OW36679   2.567   0.359   6.170 -0.0773 -0.4605 -0.5749
 8348SOL    HW136680   2.505   0.310   6.223  0.4589 -0.4778  0.0357
 8348SOL    HW236681   2.618   0.295   6.121  0.2897 -0.3488 -0.3405
 8349SOL     OW36682   1.816   1.675   3.206  0.1593  0.0612 -0.3065
 8349SOL    HW136683   1.744   1.699   3.264  1.7836 -1.6480  2.4109
 8349SOL    HW236684   1.854   1.760   3.185 -0.2922  0.6263  1.1685
 8350SOL     OW36685   4.551   2.003   9.034 -0.1312  0.8595  0.3417
 8350SOL    HW136686   4.632   2.033   8.992 -0.6626 -0.0803 -1.3078
 8350SOL    HW236687   4.493   2.079   9.026 -0.2571  0.7942  0.6419
 8351SOL     OW36688   0.758   1.795   3.615 -0.4541  0.3145 -0.1771
 8351SOL    HW136689   0.737   1.791   3.522 -1.1173  2.0021 -0.1071
 8351SOL    HW236690   0.720   1.716   3.654  0.3898  0.3011  0.6079
 8352SOL     OW36691   1.421   1.936   8.646  1.1088  0.2403 -0.3325
 8352SOL    HW136692   1.375   1.963   8.566  0.5198  2.4350  0.7740
 8352SOL    HW236693   1.452   2.022   8.673 -0.4214  0.3461  1.0648
 8353SOL     OW36694   3.623   4.371  17.596 -0.7344  0.3874 -0.0427
 8353SOL    HW136695   3.579   4.348  17.514 -2.8118  2.0525  0.5939
 8353SOL    HW236696   3.697   4.423  17.565 -1.7045  1.4604 -0.5465
 8354SOL     OW36697   0.606   0.300   7.709 -0.2507 -0.0645 -0.0452
 8354SOL    HW136698   0.586   0.360   7.781  1.1163  1.1066 -0.6338
 8354SOL    HW236699   0.606   0.367   7.641 -4.2948  1.3561  1.3402
 8355SOL     OW36700   3.824   2.070   8.164  0.0283  0.0112 -0.3185
 8355SOL    HW136701   3.902   2.017   8.179 -0.2531  0.1165  1.4894
 8355SOL    HW236702   3.808   2.063   8.070 -0.3208 -1.1735 -0.1668
 8356SOL     OW36703   1.695   0.470   8.551  0.0414  0.2250 -0.4557
 8356SOL    HW136704   1.690   0.440   8.461 -0.1575 -0.1973 -0.3030
 8356SOL    HW236705   1.617   0.427   8.586 -0.8037  1.0260 -1.3616
 8357SOL     OW36706   2.554   2.620   2.657 -0.9464 -0.3057 -0.1621
 8357SOL    HW136707   2.572   2.703   2.700 -0.7507  0.4548 -1.6985
 8357SOL    HW236708   2.459   2.613   2.664 -0.9126  1.9918  2.3421
 8358SOL     OW36709   1.213   4.045   5.205  0.0920  0.1453  0.0690
 8358SOL    HW136710   1.252   4.129   5.179  1.1743 -0.9230 -1.8298
 8358SOL    HW236711   1.121   4.069   5.206  0.3425  0.9461  2.2751
 8359SOL     OW36712   2.636   2.422   4.850  0.2413  0.1749 -0.0923
 8359SOL    HW136713   2.566   2.485   4.867 -0.9149 -0.6888 -1.6825
 8359SOL    HW236714   2.613   2.346   4.904  1.6822 -0.4868 -0.4189
 8360SOL     OW36715   4.364   1.827  17.031 -0.1832  0.1490  0.6017
 8360SOL    HW136716   4.443   1.830  17.084 -0.8311 -0.0442  1.5724
 8360SOL    HW236717   4.370   1.917  17.001 -1.0140 -0.8339 -2.5738
 8361SOL     OW36718   0.684   1.440  10.855  0.1941 -0.2135  0.2417
 8361SOL    HW136719   0.628   1.493  10.797 -0.0827 -1.1308 -0.3267
 8361SOL    HW236720   0.759   1.498  10.865  0.5359 -0.7192  0.6041
 8362SOL     OW36721   2.062   2.941   2.497  0.7219 -0.7349 -0.1520
 8362SOL    HW136722   2.115   2.966   2.421  1.7305  0.5562  0.9769
 8362SOL    HW236723   2.095   2.856   2.524  3.2156 -0.4510 -2.2071
 8363SOL     OW36724   3.350   0.626   0.802  0.0755 -0.4491  0.1762
 8363SOL    HW136725   3.334   0.538   0.836  1.8282 -0.9795 -0.3827
 8363SOL    HW236726   3.353   0.600   0.710  0.4733  0.5402 -0.0926
 8364SOL     OW36727   1.612   2.519   7.695  0.0416 -0.3690  0.2520
 8364SOL    HW136728   1.699   2.551   7.670 -0.6370  0.4528 -1.0915
 8364SOL    HW236729   1.584   2.471   7.617 -0.2186  2.3864 -1.3733
 8365SOL     OW36730   3.172   3.784   5.580  0.3719 -0.5095 -0.1945
 8365SOL    HW136731   3.157   3.871   5.616 -2.5209 -0.1329 -2.2676
 8365SOL    HW236732   3.134   3.792   5.492  0.0958 -1.0614 -0.1273
 8366SOL     OW36733   2.496   2.976   7.860  0.4543 -0.1354  0.0859
 8366SOL    HW136734   2.478   2.993   7.767  2.7837 -0.0008 -0.3295
 8366SOL    HW236735   2.529   2.887   7.875  0.5433 -0.1568 -0.2284
 8367SOL     OW36736   0.134   1.168   5.631  0.2679 -0.0007 -0.5929
 8367SOL    HW136737   0.144   1.171   5.535  1.1932  0.1582 -0.4962
 8367SOL    HW236738   0.154   1.259   5.651  1.7764 -0.7279  1.2167
 8368SOL     OW36739   0.588   2.403   2.975  0.6046 -0.2444  0.1774
 8368SOL    HW136740   0.674   2.430   2.942  0.4065 -0.3814 -0.4404
 8368SOL    HW236741   0.547   2.489   2.981 -1.9530 -1.6683  3.2073
 8369SOL     OW36742   4.353   4.568   4.882 -0.1292 -0.1867 -0.0870
 8369SOL    HW136743   4.364   4.531   4.970  4.5720  1.1894 -0.0726
 8369SOL    HW236744   4.262   4.598   4.881  0.2138  0.9627  2.4771
 8370SOL     OW36745   3.857   1.338   4.496  0.3195  0.5895 -0.4319
 8370SOL    HW136746   3.796   1.278   4.539 -0.2922  0.2250 -1.8215
 8370SOL    HW236747   3.924   1.337   4.564  0.0554 -0.5285 -0.1873
 8371SOL     OW36748   1.103   2.641   2.487  0.8036  0.1462 -0.5002
 8371SOL    HW136749   1.173   2.585   2.521  0.4334 -0.3114 -0.4935
 8371SOL    HW236750   1.061   2.677   2.565  1.3483 -0.1656 -0.0620
 8372SOL     OW36751   3.592   3.726   4.752  0.2450 -0.3205 -0.2866
 8372SOL    HW136752   3.634   3.717   4.837  0.8882  0.1227 -0.5555
 8372SOL    HW236753   3.548   3.809   4.766  2.2072  0.7356 -0.3262
 8373SOL     OW36754   0.693   3.065  13.901  0.1406  0.5555  0.3241
 8373SOL    HW136755   0.645   3.122  13.961  1.3203  0.4510  1.3938
 8373SOL    HW236756   0.681   3.105  13.815  1.9303 -0.2331 -0.2905
 8374SOL     OW36757   2.582   0.739   3.333 -0.2933  0.2265 -0.1541
 8374SOL    HW136758   2.567   0.768   3.423  0.6919 -1.1928  0.4757
 8374SOL    HW236759   2.571   0.645   3.342  1.5763  0.1614  1.5119
 8375SOL     OW36760   3.259   3.786   4.413  0.2454 -0.1676 -0.6599
 8375SOL    HW136761   3.291   3.704   4.450 -3.1343 -0.3478  1.9320
 8375SOL    HW236762   3.168   3.789   4.443  0.5256  2.0463 -0.0276
 8376SOL     OW36763   2.328   0.759  10.177 -0.1228  0.0610  0.2542
 8376SOL    HW136764   2.318   0.686  10.115  1.1231  1.7132 -1.9134
 8376SOL    HW236765   2.305   0.833  10.121  1.7468  0.7957  0.4646
 8377SOL     OW36766   4.211   1.454   8.181 -0.1322 -0.2252  0.0429
 8377SOL    HW136767   4.259   1.536   8.185  0.2417 -0.4772  0.7096
 8377SOL    HW236768   4.236   1.407   8.102 -1.5947 -0.0028 -0.5475
 8378SOL     OW36769   3.681   2.585  17.455  0.8808 -0.4275  0.8442
 8378SOL    HW136770   3.665   2.559  17.545  0.7409 -1.2784  0.5827
 8378SOL    HW236771   3.693   2.680  17.458  2.2157 -0.5950  0.9872
 8379SOL     OW36772   4.297   4.397  12.593 -0.2255  0.5722  0.2299
 8379SOL    HW136773   4.207   4.431  12.593  0.4863  2.4450 -0.0243
 8379SOL    HW236774   4.336   4.463  12.650  0.4881 -0.0486  0.4480
 8380SOL     OW36775   1.383   0.324   9.335  0.4718  0.0190  0.2321
 8380SOL    HW136776   1.438   0.282   9.401  1.7944  2.3888  0.6442
 8380SOL    HW236777   1.361   0.249   9.281 -2.7558 -0.0008  1.5658
 8381SOL     OW36778   0.194   2.138   9.831  0.6974 -0.1788 -0.3201
 8381SOL    HW136779   0.262   2.133   9.763  1.3759 -1.2366  0.4211
 8381SOL    HW236780   0.191   2.043   9.845 -1.4503 -0.2383 -1.2025
 8382SOL     OW36781   4.652   1.155   5.118 -0.1480 -1.1247 -0.1164
 8382SOL    HW136782   4.637   1.067   5.152 -1.5306 -0.3014  1.3641
 8382SOL    HW236783   4.605   1.205   5.184  2.7861 -1.3428  2.1776
 8383SOL     OW36784   0.059   2.297   8.144  0.7458  0.2791  0.0526
 8383SOL    HW136785   0.090   2.386   8.125 -0.4327  0.8890  1.0308
 8383SOL    HW236786   0.128   2.254   8.094 -1.4911 -1.5036 -1.5051
 8384SOL     OW36787   2.488   0.493  11.564 -0.1856  0.2936  0.0365
 8384SOL    HW136788   2.574   0.481  11.524  0.0067 -0.0692  0.5600
 8384SOL    HW236789   2.493   0.453  11.651  1.7987 -0.4463 -0.4186
 8385SOL     OW36790   3.973   2.311  16.771 -0.8499  0.3039 -0.0830
 8385SOL    HW136791   3.934   2.224  16.777 -1.6437  0.6845  0.2397
 8385SOL    HW236792   4.052   2.293  16.820 -1.0917 -0.1462  0.1384
 8386SOL     OW36793   1.538   3.217   6.181 -0.4747 -0.0610 -0.4908
 8386SOL    HW136794   1.624   3.233   6.144  0.2527 -2.7346  0.0255
 8386SOL    HW236795   1.551   3.262   6.265 -1.9907 -2.7800  1.2125
 8387SOL     OW36796   2.668   3.100   8.259  0.4108  0.0878 -0.2248
 8387SOL    HW136797   2.666   3.019   8.309 -0.1010 -0.5525 -1.2688
 8387SOL    HW236798   2.606   3.075   8.190 -0.5454 -0.7597  0.9538
 8388SOL     OW36799   2.518   0.180   8.949 -0.0484 -0.8464  0.5410
 8388SOL    HW136800   2.583   0.246   8.927  1.5000 -2.8742 -0.9369
 8388SOL    HW236801   2.460   0.199   8.876  1.1901 -0.9238 -0.4596
 8389SOL     OW36802   2.066   2.023   4.904 -0.0913 -0.0670 -0.2439
 8389SOL    HW136803   2.006   2.082   4.950 -0.4411 -0.7539  0.1889
 8389SOL    HW236804   2.056   1.938   4.947 -3.6710  0.5497  0.1713
 8390SOL     OW36805   0.612   1.914   8.083 -0.1008 -0.1141 -0.3881
 8390SOL    HW136806   0.569   1.831   8.102 -0.8430 -0.4130 -3.4984
 8390SOL    HW236807   0.699   1.883   8.056  0.1692  0.7667 -0.5423
 8391SOL     OW36808   3.171   0.901   0.159  0.4255  0.7336 -0.1427
 8391SOL    HW136809   3.242   0.949   0.116 -0.1855  0.9018 -0.9570
 8391SOL    HW236810   3.128   0.969   0.210  0.1779  1.0879 -0.8200
 8392SOL     OW36811   4.066   2.281   5.155  0.0312  0.3419  0.1703
 8392SOL    HW136812   4.111   2.365   5.162 -0.7017  0.6116  1.6308
 8392SOL    HW236813   4.085   2.252   5.244 -0.5353  0.4386  0.3211
 8393SOL     OW36814   4.211   2.040   6.340  0.2307 -0.0863  0.1879
 8393SOL    HW136815   4.138   1.978   6.335  0.1555  0.0518 -0.5421
 8393SOL    HW236816   4.161   2.121   6.341 -0.7303 -0.6579 -0.8454
 8394SOL     OW36817   0.425   3.566   8.412 -0.0954  0.2115  0.0491
 8394SOL    HW136818   0.511   3.592   8.444  0.0287  1.4342 -1.2638
 8394SOL    HW236819   0.449   3.515   8.335 -0.5047 -0.9987  0.7306
 8395SOL     OW36820   1.721   2.545   6.966  0.2406 -0.1213 -0.2199
 8395SOL    HW136821   1.740   2.637   6.950 -1.5987  0.6405  2.0119
 8395SOL    HW236822   1.627   2.556   6.976  0.5379  1.3137  0.9435
 8396SOL     OW36823   1.343   4.686   2.276  0.1586  0.5762  0.1586
 8396SOL    HW136824   1.362   4.703   2.184  1.3590 -0.7456  0.1684
 8396SOL    HW236825   1.336   0.045   2.285  0.2642  0.5866  0.1351
 8397SOL     OW36826   2.202   1.753   9.625  0.2967 -0.1569 -0.7056
 8397SOL    HW136827   2.153   1.690   9.572 -0.5591 -1.3822  1.5109
 8397SOL    HW236828   2.210   1.699   9.704  0.8523 -0.0817 -0.7076
 8398SOL     OW36829   0.840   3.102   4.269 -0.0706  0.3320 -0.4879
 8398SOL    HW136830   0.791   3.061   4.341  1.0269  0.6029  0.4236
 8398SOL    HW236831   0.847   3.191   4.302  1.2204 -0.1873  0.6915
 8399SOL     OW36832   0.926   1.137   6.749 -0.3536 -0.1563  0.3472
 8399SOL    HW136833   0.956   1.100   6.831 -1.3105  2.6374  1.9495
 8399SOL    HW236834   0.903   1.227   6.771  1.1854 -0.1946  2.1334
 8400SOL     OW36835   3.693   0.652   7.170  0.1145  0.0163  0.5091
 8400SOL    HW136836   3.669   0.744   7.178  0.6340  0.0883  1.1847
 8400SOL    HW236837   3.749   0.645   7.093 -1.2537 -0.2846 -0.4662
 8401SOL     OW36838   0.148   3.684  12.075  0.0307  0.2513  0.4209
 8401SOL    HW136839   0.145   3.591  12.099 -1.8942  0.2641  0.2433
 8401SOL    HW236840   0.203   3.716  12.146 -1.2679  0.8400  1.1556
 8402SOL     OW36841   3.766   3.777   6.168 -0.1522 -0.3281 -0.0399
 8402SOL    HW136842   3.717   3.730   6.235 -1.2459  1.0891  0.1404
 8402SOL    HW236843   3.755   3.724   6.089 -1.6554 -2.4720  1.6240
 8403SOL     OW36844   0.253   0.451   1.777  0.1288 -0.1158  0.1153
 8403SOL    HW136845   0.215   0.472   1.862 -1.1836  0.4606 -0.5988
 8403SOL    HW236846   0.241   0.356   1.781  0.0756 -0.0505  1.5453
 8404SOL     OW36847   1.092   2.913   1.973 -0.7272  0.4527  0.5486
 8404SOL    HW136848   1.106   2.899   2.067  1.8966 -0.0587  0.1039
 8404SOL    HW236849   0.998   2.901   1.964 -0.5346  0.1601 -1.0101
 8405SOL     OW36850   1.869   2.664   2.682  0.2405  0.6798 -0.0809
 8405SOL    HW136851   1.830   2.750   2.668 -2.6904 -0.3352  1.9628
 8405SOL    HW236852   1.817   2.645   2.760  0.5541 -1.3567 -0.3678
 8406SOL     OW36853   0.988   2.552   8.192 -0.1307  0.0050 -0.0728
 8406SOL    HW136854   0.962   2.467   8.227  0.2584  0.9601  2.6014
 8406SOL    HW236855   1.005   2.527   8.102 -1.0227  3.0250 -1.0864
 8407SOL     OW36856   4.151   2.353   2.254 -0.5973  0.0434 -0.0591
 8407SOL    HW136857   4.117   2.274   2.211  0.7455  0.2182 -1.4252
 8407SOL    HW236858   4.236   2.376   2.216  0.1315 -0.8958  1.0166
 8408SOL     OW36859   1.268   0.014   6.568 -0.0349  0.0857  0.2968
 8408SOL    HW136860   1.249   0.042   6.658 -2.2764  0.0354 -0.1603
 8408SOL    HW236861   1.363   0.024   6.560 -0.1203  0.7449  0.0993
 8409SOL     OW36862   0.238   1.811   4.724 -0.5028 -0.0913 -0.4142
 8409SOL    HW136863   0.293   1.780   4.796 -2.1416 -0.2933  0.7308
 8409SOL    HW236864   0.279   1.769   4.648 -1.7587 -1.2280 -0.4545
 8410SOL     OW36865   0.428   0.361   4.219  0.1562  0.3638 -0.3946
 8410SOL    HW136866   0.361   0.294   4.203  1.0932 -1.1716  2.0457
 8410SOL    HW236867   0.482   0.354   4.140  0.7150  1.1759 -0.0858
 8411SOL     OW36868   2.427   0.303   9.453  0.0050 -0.0301 -0.1542
 8411SOL    HW136869   2.373   0.342   9.384  0.0204  1.7594  0.8696
 8411SOL    HW236870   2.487   0.374   9.476 -1.9796  1.4905  0.3525
 8412SOL     OW36871   2.207   4.035   4.401  0.3001 -0.2557 -0.3154
 8412SOL    HW136872   2.116   4.005   4.414  0.0325  0.5695 -0.3098
 8412SOL    HW236873   2.200   4.059   4.309  0.5496 -0.2044 -0.3213
 8413SOL     OW36874   2.885   2.027   9.003 -0.0814  0.3101  0.1541
 8413SOL    HW136875   2.868   1.952   8.945  1.0599  0.3156 -0.1715
 8413SOL    HW236876   2.796   2.055   9.027 -0.1885  1.4864 -1.6561
 8414SOL     OW36877   4.581   1.539   8.245  0.3365  0.1958  0.0400
 8414SOL    HW136878   4.622   1.615   8.286 -2.2806  1.5872  0.0699
 8414SOL    HW236879   4.610   1.558   8.156 -2.8998 -1.6204 -1.3754
 8415SOL     OW36880   3.769   1.103   3.518  0.6013 -0.1831  0.1657
 8415SOL    HW136881   3.764   1.093   3.423  1.5404  1.9404 -0.1157
 8415SOL    HW236882   3.680   1.138   3.522  0.7022  0.1878 -0.8570
 8416SOL     OW36883   2.916   4.060  13.562  0.2443  0.5802 -0.6296
 8416SOL    HW136884   2.836   4.013  13.539  0.3890 -0.1692  0.3930
 8416SOL    HW236885   2.982   3.996  13.586 -0.0995  1.0121  1.4717
 8417SOL     OW36886   1.167   0.098   8.129  0.0303 -0.2063 -0.3247
 8417SOL    HW136887   1.138   0.010   8.154  0.4092 -0.3840 -0.5112
 8417SOL    HW236888   1.262   0.087   8.140 -0.5228 -1.3364  3.3333
 8418SOL     OW36889   1.390   2.168  16.621 -0.5349 -0.6146  0.4225
 8418SOL    HW136890   1.297   2.177  16.640 -0.5383  0.7144 -0.1837
 8418SOL    HW236891   1.379   2.115  16.542  0.0629 -0.1933  0.0535
 8419SOL     OW36892   1.928   2.881   6.153  0.6851  0.3013  0.0839
 8419SOL    HW136893   1.859   2.866   6.089 -1.2013  0.0636  2.1820
 8419SOL    HW236894   2.001   2.857   6.097  1.7589  2.0039  0.7312
 8420SOL     OW36895   3.276   1.839  14.607  0.2482  0.1214 -0.9900
 8420SOL    HW136896   3.269   1.868  14.698  1.8033 -2.1270 -0.1415
 8420SOL    HW236897   3.211   1.771  14.590  0.3894 -0.4341  0.6781
 8421SOL     OW36898   1.120   2.580   6.233  0.5896 -0.1177  0.1551
 8421SOL    HW136899   1.031   2.546   6.243  0.1946  1.3309  1.4904
 8421SOL    HW236900   1.125   2.609   6.324  0.5694  1.4167 -0.3353
 8422SOL     OW36901   3.410   0.031   8.059  0.2085 -0.1091  0.5768
 8422SOL    HW136902   3.499   0.068   8.057  0.8702 -1.8434 -1.8617
 8422SOL    HW236903   3.367   0.074   8.133  1.0916  1.5930  0.1214
 8423SOL     OW36904   1.032   4.622   0.479 -0.0107  0.1537 -0.2885
 8423SOL    HW136905   1.055   4.655   0.566  0.1673 -1.5618  0.3244
 8423SOL    HW236906   1.112   4.573   0.459  0.4342  0.7851 -0.0669
 8424SOL     OW36907   3.575   3.690  16.464  0.1245  0.0931  0.0921
 8424SOL    HW136908   3.555   3.670  16.556 -1.1954  0.4983 -0.1018
 8424SOL    HW236909   3.499   3.739  16.432  0.4811  1.5956  1.5387
 8425SOL     OW36910   1.768   3.375   5.838 -0.1209 -0.0486 -0.0272
 8425SOL    HW136911   1.760   3.462   5.877 -3.2541 -0.7862  0.9934
 8425SOL    HW236912   1.742   3.406   5.751 -1.1891  1.1294  0.7091
 8426SOL     OW36913   0.925   0.643   8.160  1.0045 -0.4360 -0.3833
 8426SOL    HW136914   0.865   0.568   8.163  0.4326  0.0207 -0.5228
 8426SOL    HW236915   0.979   0.626   8.082 -0.4796  1.6748 -1.8643
 8427SOL     OW36916   0.250   3.965  10.224 -0.0326  0.2080 -0.2709
 8427SOL    HW136917   0.301   3.938  10.300 -0.5618  1.4616  0.5465
 8427SOL    HW236918   0.174   4.010  10.263 -0.1885  0.2235 -0.5950
 8428SOL     OW36919   4.006   1.290   5.873  0.0208  0.2018  0.2317
 8428SOL    HW136920   4.067   1.360   5.897 -0.0316 -0.4313  2.2413
 8428SOL    HW236921   4.064   1.228   5.829  4.0038  1.4852  3.6345
 8429SOL     OW36922   3.123   2.973  11.543 -0.6292  0.1845 -0.0005
 8429SOL    HW136923   3.065   2.898  11.536  0.7405 -1.0791  2.2663
 8429SOL    HW236924   3.196   2.927  11.585 -1.0682  1.2926  1.9289
 8430SOL     OW36925   0.223   0.920   7.826 -0.4536  0.0908  0.3697
 8430SOL    HW136926   0.151   0.884   7.774 -1.0343  0.4901  0.8957
 8430SOL    HW236927   0.253   0.841   7.871 -0.5038  0.2012  0.5988
 8431SOL     OW36928   4.271   3.852   2.889 -0.0589  0.4447  0.3466
 8431SOL    HW136929   4.245   3.767   2.854  0.8176 -0.4447  1.8262
 8431SOL    HW236930   4.272   3.903   2.808  0.2540  0.7225  0.5249
 8432SOL     OW36931   1.361   2.105   5.844  0.2805  0.1121 -0.9079
 8432SOL    HW136932   1.399   2.047   5.778  1.0453  0.9542 -1.2133
 8432SOL    HW236933   1.432   2.121   5.906 -2.2352 -1.9602  2.4689
 8433SOL     OW36934   2.986   0.911   8.564  0.1292  0.2014 -0.1704
 8433SOL    HW136935   2.915   0.939   8.507 -0.2339 -1.4042 -0.5242
 8433SOL    HW236936   3.040   0.853   8.510 -0.9429  0.9720 -2.0673
 8434SOL     OW36937   2.559   2.630  16.396  0.1384  0.1335  0.5138
 8434SOL    HW136938   2.652   2.625  16.376 -0.4571 -0.6170 -2.0823
 8434SOL    HW236939   2.552   2.575  16.474  2.2414  0.6975  1.1141
 8435SOL     OW36940   4.235   1.195  13.213 -0.0872  0.7636 -0.1943
 8435SOL    HW136941   4.261   1.264  13.274  3.0517  2.6418 -3.6849
 8435SOL    HW236942   4.271   1.212  13.126 -0.2315  0.7397 -0.2592
 8436SOL     OW36943   0.674   3.467  13.113  0.0134  0.0693 -0.1838
 8436SOL    HW136944   0.744   3.453  13.178 -0.2860  0.3052  0.1850
 8436SOL    HW236945   0.725   3.526  13.058 -0.5452 -0.1546 -0.9392
 8437SOL     OW36946   2.472   0.949  17.396  0.5272  0.3177  0.3073
 8437SOL    HW136947   2.461   0.888  17.469 -3.7401 -0.1166 -0.7552
 8437SOL    HW236948   2.503   0.884  17.333  2.7442  2.7286 -1.0861
 8438SOL     OW36949   0.768   0.091   3.055  0.1839 -0.0887  0.0191
 8438SOL    HW136950   0.729   0.099   3.142  2.3355 -3.2222  1.2732
 8438SOL    HW236951   0.754   4.734   3.039 -0.7843  0.0740 -0.1115
 8439SOL     OW36952   0.990   1.427   8.403 -0.0020 -0.1118 -0.6060
 8439SOL    HW136953   1.018   1.517   8.388 -1.8236  0.5216 -0.1307
 8439SOL    HW236954   0.947   1.411   8.319 -0.8047  0.6283 -0.3293
 8440SOL     OW36955   0.567   2.058   6.425  0.4362 -0.2246  0.0926
 8440SOL    HW136956   0.474   2.071   6.408  0.7602  1.8787 -0.0905
 8440SOL    HW236957   0.555   2.016   6.510 -0.1071 -1.0708 -0.4086
 8441SOL     OW36958   3.794   0.524   4.456  0.8017  0.2354  0.5319
 8441SOL    HW136959   3.777   0.549   4.365  1.7961 -0.5334  0.1425
 8441SOL    HW236960   3.725   0.576   4.497 -0.0563 -0.0220 -0.5799
 8442SOL     OW36961   3.296   0.202   7.152 -0.2790 -0.1294 -0.1665
 8442SOL    HW136962   3.273   0.275   7.094 -0.4935 -0.1892 -0.1577
 8442SOL    HW236963   3.352   0.143   7.101 -0.2317  0.3456 -0.6707
 8443SOL     OW36964   0.738   2.905   6.472  0.4639  0.4126 -0.2259
 8443SOL    HW136965   0.648   2.874   6.459  1.2693 -1.7201 -0.7193
 8443SOL    HW236966   0.744   2.918   6.567  0.1847  1.5732 -0.3660
 8444SOL     OW36967   2.355   1.096   7.322 -0.1304 -0.1518 -0.7732
 8444SOL    HW136968   2.418   1.158   7.284  0.3963  1.7072  3.2140
 8444SOL    HW236969   2.416   1.037   7.366 -0.6538 -1.4762 -1.7834
 8445SOL     OW36970   1.929   0.548   8.629 -0.1887  0.2046  0.2998
 8445SOL    HW136971   1.844   0.521   8.594  0.2242 -1.4142  0.5625
 8445SOL    HW236972   1.904   0.616   8.691 -2.3116  0.4024 -0.7783
 8446SOL     OW36973   3.764   0.132   5.738 -0.0262  0.4577 -0.1765
 8446SOL    HW136974   3.853   0.165   5.720 -0.4036  1.6201  0.0495
 8446SOL    HW236975   3.723   0.209   5.778 -2.8289 -2.0429  1.7357
 8447SOL     OW36976   1.638   4.006  12.078 -0.5145  0.0346 -0.5996
 8447SOL    HW136977   1.564   4.043  12.127 -0.9247  1.5101 -2.3659
 8447SOL    HW236978   1.653   4.064  12.004  1.1312  0.4910  0.0874
 8448SOL     OW36979   1.226   3.929   6.783  0.2606  0.1344 -0.0943
 8448SOL    HW136980   1.272   3.973   6.712 -1.4020  1.7795 -0.1701
 8448SOL    HW236981   1.291   3.913   6.851 -0.8059  0.1760  0.9383
 8449SOL     OW36982   0.407   4.297   3.634 -0.9791  0.0289  0.3699
 8449SOL    HW136983   0.402   4.375   3.690  0.7871 -0.1168  0.7534
 8449SOL    HW236984   0.465   4.333   3.567 -0.5050 -2.1649 -0.4105
 8450SOL     OW36985   1.037   2.272   2.841 -0.5588 -0.6102  0.0005
 8450SOL    HW136986   0.959   2.326   2.854  1.7293  2.4552  1.0218
 8450SOL    HW236987   1.086   2.290   2.922 -1.1950  0.5333  0.1172
 8451SOL     OW36988   1.260   4.462  15.815  0.6329 -0.7467  0.4606
 8451SOL    HW136989   1.301   4.401  15.877 -0.1643 -1.4180  0.3216
 8451SOL    HW236990   1.255   4.540  15.872 -1.1134  0.5190 -1.4275
 8452SOL     OW36991   0.562   2.990   7.019 -0.4678  0.5360 -0.2223
 8452SOL    HW136992   0.531   2.976   7.109  1.3000  1.5601  0.5472
 8452SOL    HW236993   0.570   2.905   6.976  3.3603  0.1646  1.3080
 8453SOL     OW36994   0.945   1.528  10.656  0.1911 -0.3940 -0.6197
 8453SOL    HW136995   0.975   1.498  10.570  1.4311  0.0483 -0.3426
 8453SOL    HW236996   0.939   1.623  10.654  0.0488 -0.3857  0.2651
 8454SOL     OW36997   2.887   3.588   8.196  0.7932 -0.7285  0.0257
 8454SOL    HW136998   2.878   3.507   8.145  2.2577 -1.9700  1.7077
 8454SOL    HW236999   2.978   3.586   8.227  0.9950 -0.0896 -0.5370
 8455SOL     OW37000   3.349   1.806   9.722  0.3411 -0.2363 -0.3687
 8455SOL    HW137001   3.284   1.874   9.707  0.3449 -0.3531 -0.9239
 8455SOL    HW237002   3.290   1.746   9.768 -1.1029  0.3845 -1.4260
 8456SOL     OW37003   4.092   1.560  16.050  0.0670  0.1195 -0.6700
 8456SOL    HW137004   4.175   1.533  16.010  1.3786  1.3199  1.2562
 8456SOL    HW237005   4.113   1.518  16.134  0.8077  0.5119 -0.6524
 8457SOL     OW37006   2.151   0.275   4.258 -0.5909 -0.0202  0.3365
 8457SOL    HW137007   2.136   0.352   4.204  1.6442 -0.3281 -0.7258
 8457SOL    HW237008   2.095   0.215   4.210 -0.4052 -0.7340  1.0031
 8458SOL     OW37009   3.341   3.396  15.749 -0.2281  0.0256  0.8870
 8458SOL    HW137010   3.342   3.480  15.796  0.6340  0.8104 -0.5188
 8458SOL    HW237011   3.248   3.383  15.733 -0.1343 -1.0551  1.2544
 8459SOL     OW37012   3.917   0.562  13.200 -0.3854 -0.7931  0.4150
 8459SOL    HW137013   3.841   0.533  13.251 -1.1254 -0.9686 -0.8004
 8459SOL    HW237014   3.961   0.632  13.247  1.6666 -1.9030  0.1560
 8460SOL     OW37015   4.232   3.303  14.074  0.2496 -0.2906  0.3375
 8460SOL    HW137016   4.247   3.215  14.108  0.2178  0.1298  1.4279
 8460SOL    HW237017   4.293   3.315  14.001 -2.0303 -0.1980 -1.5390
 8461SOL     OW37018   3.802   1.811   7.607  0.6605 -0.1299  0.3069
 8461SOL    HW137019   3.714   1.781   7.628  1.0439 -0.2474  1.7610
 8461SOL    HW237020   3.794   1.839   7.516  3.8289 -0.2430 -0.0179
 8462SOL     OW37021   2.498   1.096   5.010 -0.0599  0.3599  0.1540
 8462SOL    HW137022   2.466   1.022   4.960 -0.0554 -0.8709  1.9735
 8462SOL    HW237023   2.538   1.140   4.935  0.5978 -0.2867  0.1295
 8463SOL     OW37024   3.442   1.127  10.148 -0.1193  0.1491  0.5310
 8463SOL    HW137025   3.468   1.052  10.201 -3.6609  0.3378  2.5626
 8463SOL    HW237026   3.348   1.138  10.164 -0.3206  1.1707 -1.3339
 8464SOL     OW37027   0.093   0.904  14.431 -0.3755  0.5189  0.1507
 8464SOL    HW137028   0.180   0.862  14.432  0.1654  1.6333 -0.0483
 8464SOL    HW237029   0.105   0.983  14.483  0.5788  0.0359  0.6783
 8465SOL     OW37030   2.771   2.925  10.558 -0.3461 -0.0300 -0.8209
 8465SOL    HW137031   2.751   2.863  10.488 -0.7540  0.3205 -1.0154
 8465SOL    HW237032   2.682   2.940  10.590 -0.1147 -1.5890  0.5463
 8466SOL     OW37033   4.308   4.307  11.563 -0.2958 -0.2979  0.4503
 8466SOL    HW137034   4.317   4.216  11.591 -0.8002 -0.1573  1.0623
 8466SOL    HW237035   4.334   4.351  11.644  1.1808  2.0921 -1.2902
 8467SOL     OW37036   0.153   0.537   9.440  0.2780  0.4039  0.3074
 8467SOL    HW137037   0.243   0.506   9.446 -0.0402 -0.2781  1.5985
 8467SOL    HW237038   0.106   0.465   9.398  2.7004 -0.8822 -0.1986
 8468SOL     OW37039   3.567   3.783   7.483  0.0628 -0.0149 -0.2365
 8468SOL    HW137040   3.517   3.864   7.486 -2.9884 -1.9036  0.4635
 8468SOL    HW237041   3.602   3.785   7.572 -0.4209  0.1660 -0.0553
 8469SOL     OW37042   0.041   1.157   4.880 -0.2482 -0.1644 -0.8310
 8469SOL    HW137043   4.701   1.119   4.836  0.4054  2.6181 -4.3342
 8469SOL    HW237044   0.001   1.143   4.966 -1.1127  0.0618 -1.1926
 8470SOL     OW37045   1.680   4.230   9.061 -0.3397 -0.2718 -0.3709
 8470SOL    HW137046   1.690   4.313   9.107  0.6882 -0.0969 -0.9050
 8470SOL    HW237047   1.623   4.260   8.991  0.3814  1.6742 -0.1162
 8471SOL     OW37048   1.229   4.180   7.481  0.0258 -0.2392  0.1485
 8471SOL    HW137049   1.180   4.201   7.401  1.7069 -2.0749 -1.4005
 8471SOL    HW237050   1.171   4.124   7.531  0.6296  0.3259  1.4697
 8472SOL     OW37051   4.539   4.540  16.958  0.6127 -0.2235 -0.1749
 8472SOL    HW137052   4.628   4.548  16.993 -0.2861  1.4437  1.6867
 8472SOL    HW237053   4.508   4.630  16.948 -1.4514 -0.7886  1.2994
 8473SOL     OW37054   0.811   0.397   8.189 -0.2948 -0.5340 -0.3270
 8473SOL    HW137055   0.771   0.316   8.157  0.6273 -1.0027 -0.2972
 8473SOL    HW237056   0.892   0.359   8.222 -1.5866 -1.8408  1.3405
 8474SOL     OW37057   3.201   2.972   6.344  0.1207  0.4842 -0.5040
 8474SOL    HW137058   3.123   3.007   6.301 -1.6176 -0.6985  1.7106
 8474SOL    HW237059   3.237   3.048   6.390  1.7622 -0.0215 -0.9703
 8475SOL     OW37060   4.038   3.602  16.391 -0.3336  0.5521 -0.0490
 8475SOL    HW137061   3.978   3.534  16.358 -0.6213 -0.4219  2.4706
 8475SOL    HW237062   3.970   3.669  16.401  0.0159  1.2345 -2.4367
 8476SOL     OW37063   2.917   1.891   7.134 -0.0728  0.1015  0.2463
 8476SOL    HW137064   2.928   1.948   7.210  2.3700  0.6231 -0.4753
 8476SOL    HW237065   2.833   1.916   7.096 -0.0559 -1.1977 -0.6746
 8477SOL     OW37066   3.800   0.969   2.702 -0.8300 -0.2655 -0.1099
 8477SOL    HW137067   3.772   0.919   2.779 -1.7870  0.3404 -0.0582
 8477SOL    HW237068   3.833   1.047   2.745 -0.2392  0.6800 -2.2603
 8478SOL     OW37069   4.352   1.370   0.604  0.1939 -0.3135  0.2362
 8478SOL    HW137070   4.420   1.329   0.550  0.3442  0.2089  0.0347
 8478SOL    HW237071   4.394   1.453   0.624  0.5925 -0.6803  0.9374
 8479SOL     OW37072   2.430   3.747   8.510 -0.1119 -0.1116  0.4191
 8479SOL    HW137073   2.420   3.768   8.603  0.3264  1.2386  0.1572
 8479SOL    HW237074   2.478   3.665   8.522 -0.5059 -0.2566  1.0363
 8480SOL     OW37075   3.761   2.568   7.463  0.4268 -0.1069 -0.3453
 8480SOL    HW137076   3.794   2.552   7.552 -1.2719 -1.4409  0.0673
 8480SOL    HW237077   3.790   2.658   7.448  1.9198 -0.1473  2.3412
 8481SOL     OW37078   1.588   2.999  14.801  0.4652  0.7402  0.1412
 8481SOL    HW137079   1.533   3.017  14.877 -0.5743  0.4429 -0.5488
 8481SOL    HW237080   1.666   2.959  14.841 -0.0657 -2.2155 -1.7093
 8482SOL     OW37081   2.737   4.103  16.163 -0.2854  0.2967 -0.5324
 8482SOL    HW137082   2.699   4.169  16.221  2.4022  1.8211 -0.4719
 8482SOL    HW237083   2.754   4.160  16.087  2.1752 -1.2205 -1.1137
 8483SOL     OW37084   4.108   3.276  15.462  0.3569 -0.1638 -0.4972
 8483SOL    HW137085   4.179   3.339  15.475  0.2472 -0.3523  1.0689
 8483SOL    HW237086   4.131   3.205  15.523 -1.5665 -0.1288  0.2787
 8484SOL     OW37087   4.310   3.186   5.340  0.4742 -0.2385  0.3254
 8484SOL    HW137088   4.383   3.200   5.280 -1.2556  1.3832 -1.4272
 8484SOL    HW237089   4.270   3.113   5.293 -1.5313  0.7051  0.5482
 8485SOL     OW37090   3.365   3.617   7.787 -0.2884  0.2912 -0.0593
 8485SOL    HW137091   3.369   3.704   7.827  3.0710 -0.3989  1.0536
 8485SOL    HW237092   3.339   3.576   7.869 -1.6354  0.8317 -0.2117
 8486SOL     OW37093   2.637   2.075  13.600  0.0473 -0.5163  0.0067
 8486SOL    HW137094   2.612   2.128  13.676 -1.1047 -1.2018  0.0994
 8486SOL    HW237095   2.692   2.134  13.548 -0.3759 -1.1161 -1.1227
 8487SOL     OW37096   2.962   4.469   6.028  0.3666  0.3078 -0.2449
 8487SOL    HW137097   2.927   4.412   6.096  0.9870 -0.7577 -0.8071
 8487SOL    HW237098   3.023   4.528   6.072  0.6815  0.2806 -0.6417
 8488SOL     OW37099   1.533   1.463  13.716 -0.1332  0.0084  0.0533
 8488SOL    HW137100   1.525   1.474  13.811 -0.3434  0.6225 -0.0363
 8488SOL    HW237101   1.541   1.551  13.680  1.5343 -0.7836 -1.4949
 8489SOL     OW37102   2.855   1.330   6.100  1.0396 -0.4558 -0.6389
 8489SOL    HW137103   2.800   1.407   6.112  0.7392 -0.8280  0.3790
 8489SOL    HW237104   2.941   1.370   6.085  0.7731  0.0481 -0.8034
 8490SOL     OW37105   3.956   0.012   6.618  0.8252 -0.4455 -0.0551
 8490SOL    HW137106   3.902   4.672   6.596 -1.0461  0.7761  0.3101
 8490SOL    HW237107   4.007   4.712   6.691  1.0869  0.3534  0.1596
 8491SOL     OW37108   1.313   2.855   4.838 -0.3391 -0.5426  0.4537
 8491SOL    HW137109   1.244   2.914   4.869 -0.1400  0.3408 -0.8080
 8491SOL    HW237110   1.267   2.771   4.833  1.1381 -1.1654 -2.3891
 8492SOL     OW37111   4.450   4.566   0.305  0.1861  0.1153 -0.1508
 8492SOL    HW137112   4.448   4.478   0.342  0.9318  1.0167  2.0045
 8492SOL    HW237113   4.363   4.578   0.267 -0.0434  3.1414  1.3278
 8493SOL     OW37114   1.447   0.784   8.158 -0.0589  0.4498 -0.3706
 8493SOL    HW137115   1.391   0.861   8.164 -1.3164 -0.6691  2.4819
 8493SOL    HW237116   1.441   0.754   8.249 -1.0435  0.1291 -0.5396
 8494SOL     OW37117   1.464   3.353   5.468  0.0095  0.3447 -0.5537
 8494SOL    HW137118   1.526   3.306   5.412 -0.2779 -1.6757  0.8297
 8494SOL    HW237119   1.525   3.380   5.536  1.1212  0.2972 -1.5329
 8495SOL     OW37120   0.915   3.249  16.340 -0.0549  0.0011 -0.0189
 8495SOL    HW137121   1.005   3.231  16.313  0.9799  1.9007  2.1850
 8495SOL    HW237122   0.915   3.343  16.354  0.2049  0.1005 -0.7157
 8496SOL     OW37123   0.466   4.343  13.746  0.4473 -0.6944  0.5642
 8496SOL    HW137124   0.377   4.375  13.761 -0.3310 -1.6944 -1.8816
 8496SOL    HW237125   0.450   4.250  13.734  3.1049 -1.2720  1.6251
 8497SOL     OW37126   2.367   0.879   3.233  0.4257 -0.2518 -0.3704
 8497SOL    HW137127   2.352   0.833   3.151 -2.3947 -0.7811  0.4607
 8497SOL    HW237128   2.454   0.842   3.253 -0.7084 -3.2209 -0.9396
 8498SOL     OW37129   0.181   4.572  15.533  0.0990 -0.1051 -0.0897
 8498SOL    HW137130   0.226   4.657  15.527 -0.1555 -0.0625 -1.3800
 8498SOL    HW237131   0.248   4.514  15.569  0.5534  1.0449  0.9212
 8499SOL     OW37132   2.760   2.599   7.400 -0.2310  0.5573 -0.3771
 8499SOL    HW137133   2.717   2.664   7.344  0.9668  0.8972 -0.9025
 8499SOL    HW237134   2.724   2.630   7.484 -0.6969  0.6265 -0.6016
 8500SOL     OW37135   2.975   2.459   5.735 -0.1483  0.4178 -0.4201
 8500SOL    HW137136   2.914   2.393   5.703 -0.7837  0.6305  0.3552
 8500SOL    HW237137   2.948   2.535   5.683  1.0013 -0.0108 -1.6487
 8501SOL     OW37138   3.572   2.436  13.962 -0.0638 -0.0320  0.5546
 8501SOL    HW137139   3.632   2.391  13.903 -0.1439 -1.1848  1.3648
 8501SOL    HW237140   3.624   2.514  13.982  1.9783 -1.3836  0.5203
 8502SOL     OW37141   1.902   2.845  10.029 -0.0286  0.4862 -0.5682
 8502SOL    HW137142   1.869   2.756  10.017  0.3878  0.3223 -0.4908
 8502SOL    HW237143   1.877   2.872   9.941  2.9230  1.1579 -1.1967
 8503SOL     OW37144   2.586   1.765   8.477 -0.0550  1.0347  0.0642
 8503SOL    HW137145   2.590   1.671   8.495  4.1698  1.6286  2.2107
 8503SOL    HW237146   2.602   1.793   8.567  0.8247  1.2170 -0.1531
 8504SOL     OW37147   1.770   3.650   3.455  0.1358  0.0010 -0.0612
 8504SOL    HW137148   1.785   3.591   3.529 -0.1248  0.7166  0.5655
 8504SOL    HW237149   1.684   3.685   3.476  0.5372  0.6505  0.5105
 8505SOL     OW37150   4.268   4.356   1.393 -0.4240  0.0583 -0.6544
 8505SOL    HW137151   4.269   4.330   1.485  1.2644  0.9864 -0.4194
 8505SOL    HW237152   4.189   4.319   1.354 -1.1314 -3.0571  3.6928
 8506SOL     OW37153   2.469   1.907   4.629  0.2100  0.1941 -0.2234
 8506SOL    HW137154   2.385   1.937   4.594  0.3971  0.1685 -0.6981
 8506SOL    HW237155   2.487   1.975   4.694  0.1764 -2.0632  2.1645
 8507SOL     OW37156   0.742   3.697   4.133 -0.1526  0.2987  0.0388
 8507SOL    HW137157   0.732   3.757   4.207 -1.7210 -1.9203  1.6176
 8507SOL    HW237158   0.783   3.760   4.074  0.5039 -0.7796 -0.6399
 8508SOL     OW37159   4.485   1.770   4.173  0.0721 -0.3860 -0.0950
 8508SOL    HW137160   4.532   1.850   4.196  0.5824 -0.0942 -2.1662
 8508SOL    HW237161   4.561   1.733   4.129  2.1677  2.3888  1.1466
 8509SOL     OW37162   4.232   2.556   7.219  0.0229  0.0390  0.2043
 8509SOL    HW137163   4.139   2.543   7.202  0.6109 -2.9020 -0.7263
 8509SOL    HW237164   4.236   2.650   7.238 -1.4608 -0.0409  0.8443
 8510SOL     OW37165   1.129   2.273   4.725  0.2413  0.2769  0.2566
 8510SOL    HW137166   1.224   2.259   4.717  0.3979  2.1771 -1.2810
 8510SOL    HW237167   1.123   2.302   4.816  0.0635  1.6288 -0.1925
 8511SOL     OW37168   1.914   3.246   3.369  0.0913  0.0031 -0.0806
 8511SOL    HW137169   1.818   3.247   3.377 -0.0205 -2.3178 -1.1437
 8511SOL    HW237170   1.952   3.228   3.455  0.6017 -1.2560 -0.5674
 8512SOL     OW37171   2.584   1.848   8.099 -0.3868  0.2160  0.4288
 8512SOL    HW137172   2.536   1.850   8.017 -0.0516 -0.2717  0.2207
 8512SOL    HW237173   2.618   1.937   8.110 -1.6761  0.8707 -0.9005
 8513SOL     OW37174   2.347   2.952   4.445  0.1044  0.3973  0.0766
 8513SOL    HW137175   2.395   3.017   4.394 -2.2040  2.8361  0.9722
 8513SOL    HW237176   2.254   2.961   4.421 -0.5445  1.6250  3.1437
 8514SOL     OW37177   2.929   1.538  16.551  0.0293 -0.1597 -0.4934
 8514SOL    HW137178   2.940   1.580  16.636  2.6904 -0.1471 -0.8280
 8514SOL    HW237179   2.964   1.449  16.556 -0.4154 -0.1304  2.8298
 8515SOL     OW37180   1.135   1.396  10.147  0.4561  0.6468 -0.6007
 8515SOL    HW137181   1.219   1.369  10.110  0.7615 -0.7374  1.0938
 8515SOL    HW237182   1.150   1.404  10.242 -0.4623 -1.5325 -0.2820
 8516SOL     OW37183   4.692   3.184   1.710  0.2789  0.1685 -0.1782
 8516SOL    HW137184   4.611   3.222   1.677  0.7582 -0.7861 -2.4115
 8516SOL    HW237185   4.712   3.126   1.637  2.0579 -0.2679  0.6354
 8517SOL     OW37186   1.857   0.042  12.955 -0.1042  0.2210  0.2834
 8517SOL    HW137187   1.881   4.686  12.942 -1.6456 -0.0813 -0.3734
 8517SOL    HW237188   1.876   0.050  13.048 -0.4357  1.4253  0.2537
 8518SOL     OW37189   4.301   0.700   4.776  0.2233 -0.0048 -0.1408
 8518SOL    HW137190   4.271   0.784   4.809 -1.9695 -0.0162 -2.0386
 8518SOL    HW237191   4.224   0.647   4.796  0.9691 -1.4783 -1.0921
 8519SOL     OW37192   4.421   4.398   6.096 -0.2616 -0.3067  0.0201
 8519SOL    HW137193   4.424   4.304   6.082 -1.4368 -0.3289 -0.0096
 8519SOL    HW237194   4.336   4.416   6.134 -1.0087 -4.6907  0.4174
 8520SOL     OW37195   0.424   2.261   1.968 -0.4231 -0.3235  0.0285
 8520SOL    HW137196   0.435   2.219   2.053  0.7508 -1.6932 -0.8006
 8520SOL    HW237197   0.437   2.355   1.981  1.7212 -0.6929  0.5480
 8521SOL     OW37198   2.974   0.463  10.840  0.3294  0.3759  0.1765
 8521SOL    HW137199   2.958   0.479  10.747 -1.9539  0.5751  0.5993
 8521SOL    HW237200   3.068   0.443  10.833  0.4189  0.6691  0.5002
 8522SOL     OW37201   3.513   0.584   1.890  0.3827 -0.5351  0.2061
 8522SOL    HW137202   3.545   0.674   1.895 -1.2838  0.0392  0.3846
 8522SOL    HW237203   3.556   0.555   1.809  0.1083  0.9088 -0.4565
 8523SOL     OW37204   1.073   0.082  10.742  0.1962 -0.3318 -0.2046
 8523SOL    HW137205   1.117   4.733  10.744 -3.0401 -2.1403 -3.9735
 8523SOL    HW237206   0.983   0.059  10.765  0.1539 -0.6067 -0.6351
 8524SOL     OW37207   0.362   2.785  14.001  0.0036 -0.1441  0.1066
 8524SOL    HW137208   0.339   2.878  13.998 -2.6634 -0.7932  0.9163
 8524SOL    HW237209   0.432   2.770  13.938  0.1329 -1.4168  0.5591
 8525SOL     OW37210   4.158   2.172  15.627 -0.3026  0.1879 -0.1285
 8525SOL    HW137211   4.103   2.198  15.701  0.7866  2.1750 -0.0224
 8525SOL    HW237212   4.143   2.077  15.624 -1.2022  0.3418 -0.5105
 8526SOL     OW37213   3.871   0.984   4.031  0.0060 -0.2090 -0.0474
 8526SOL    HW137214   3.869   0.973   3.935  2.1948  0.3187 -0.1380
 8526SOL    HW237215   3.782   0.956   4.054 -0.7542  1.0339 -1.4191
 8527SOL     OW37216   2.566   4.549   0.895  0.3699 -0.0932  0.4477
 8527SOL    HW137217   2.643   4.583   0.940 -0.1975 -0.0601  1.3887
 8527SOL    HW237218   2.545   4.474   0.952 -0.1630 -0.2979 -0.0163
 8528SOL     OW37219   2.171   4.607   9.108 -0.0770  0.1008  0.1391
 8528SOL    HW137220   2.154   4.516   9.131  3.7389 -0.3779  0.9446
 8528SOL    HW237221   2.208   4.597   9.020  0.0406 -2.0467  0.4317
 8529SOL     OW37222   2.147   3.690  10.971 -0.2620 -0.1430  0.4996
 8529SOL    HW137223   2.161   3.669  11.063 -0.7467  0.0368  0.6150
 8529SOL    HW237224   2.145   3.604  10.929  0.8697  0.7519 -1.3893
 8530SOL     OW37225   3.126   3.448   6.641 -0.2056 -0.0514  0.3793
 8530SOL    HW137226   3.215   3.444   6.677 -0.7334 -1.3447  1.5749
 8530SOL    HW237227   3.133   3.530   6.593 -0.2618  0.4226  1.1792
 8531SOL     OW37228   3.577   2.912   9.548 -0.3068 -0.1905  0.2775
 8531SOL    HW137229   3.596   2.828   9.591  1.2473  1.0932  2.0993
 8531SOL    HW237230   3.579   2.970   9.624 -0.5284  1.7777 -1.2119
 8532SOL     OW37231   4.596   0.052   3.553 -0.1668  0.5476  0.3743
 8532SOL    HW137232   4.519   0.086   3.598 -1.8932  1.5797 -3.3397
 8532SOL    HW237233   4.559   4.706   3.520  1.4948 -1.5415  3.7167
 8533SOL     OW37234   1.675   0.121  10.142 -0.2128 -0.3309 -0.2863
 8533SOL    HW137235   1.608   0.068  10.185  0.1419 -0.8700 -0.4016
 8533SOL    HW237236   1.750   0.063  10.132  0.3757  0.3107  0.4682
 8534SOL     OW37237   3.135   4.365   6.530  0.0036 -0.4799 -0.1739
 8534SOL    HW137238   3.127   4.317   6.613  0.0071 -1.7751 -0.9208
 8534SOL    HW237239   3.107   4.307   6.460 -1.3903  0.0268 -0.0214
 8535SOL     OW37240   3.923   3.422   3.510  0.0394 -0.0668 -0.1859
 8535SOL    HW137241   3.835   3.402   3.478 -0.6247 -0.0113  1.5976
 8535SOL    HW237242   3.966   3.340   3.484 -1.6464 -0.7981 -0.6627
 8536SOL     OW37243   2.581   3.259   3.149 -0.1633  0.1814  0.4883
 8536SOL    HW137244   2.550   3.241   3.060  0.1157 -0.6223  0.5601
 8536SOL    HW237245   2.589   3.355   3.152  0.9109  0.1103 -0.0117
 8537SOL     OW37246   1.964   2.433   6.879 -0.5917 -0.8649  0.1244
 8537SOL    HW137247   1.978   2.484   6.799  0.6717  0.8877  1.4494
 8537SOL    HW237248   1.874   2.458   6.900 -1.0013 -0.1995 -2.4466
 8538SOL     OW37249   2.381   2.010  10.746 -0.2841 -0.7713  0.0127
 8538SOL    HW137250   2.299   1.990  10.701 -1.3193 -0.4609  1.7558
 8538SOL    HW237251   2.428   1.928  10.731  0.5141 -0.7946  2.6089
 8539SOL     OW37252   3.471   1.650   3.087 -0.0209 -0.0902  0.4844
 8539SOL    HW137253   3.465   1.680   2.996 -3.2731 -1.0749  0.3597
 8539SOL    HW237254   3.512   1.565   3.073  0.0150  0.1631 -0.9815
 8540SOL     OW37255   0.558   0.603   7.279  0.3103  0.0746 -0.0725
 8540SOL    HW137256   0.557   0.693   7.247  0.5307  0.9585  2.4445
 8540SOL    HW237257   0.584   0.559   7.198 -0.2251 -2.4048  1.1068
 8541SOL     OW37258   3.494   3.089  10.736  0.1620 -0.1594 -0.1984
 8541SOL    HW137259   3.413   3.133  10.761  1.3800  0.1420  3.1891
 8541SOL    HW237260   3.483   3.007  10.785 -1.1837  0.0435 -0.1620
 8542SOL     OW37261   4.422   3.590   5.006 -0.1492  0.1920  0.1580
 8542SOL    HW137262   4.329   3.584   5.028 -0.4749 -0.7037 -1.5258
 8542SOL    HW237263   4.455   3.630   5.087 -3.8844 -0.6873  2.1441
 8543SOL     OW37264   0.252   4.145   1.976  0.3225 -0.3503 -0.0210
 8543SOL    HW137265   0.246   4.089   1.899 -0.2387 -2.2960  1.4324
 8543SOL    HW237266   0.312   4.093   2.030 -0.1078 -3.3536 -2.4415
 8544SOL     OW37267   4.384   1.171   8.362 -0.2948  0.5654  0.1657
 8544SOL    HW137268   4.453   1.111   8.334  0.2664  1.2173  0.1610
 8544SOL    HW237269   4.437   1.250   8.362  2.6525 -1.4274  0.9656
 8545SOL     OW37270   2.153   1.800   3.689 -0.3665 -0.6041 -0.3589
 8545SOL    HW137271   2.057   1.791   3.689 -0.1392 -2.8858 -2.0199
 8545SOL    HW237272   2.160   1.890   3.722  2.1291 -0.9873  0.1309
 8546SOL     OW37273   2.207   0.795   1.126 -0.2574  0.9091  0.2776
 8546SOL    HW137274   2.229   0.847   1.203 -0.7825 -1.3679  1.9430
 8546SOL    HW237275   2.126   0.760   1.162 -0.1159 -0.3870 -0.6548
 8547SOL     OW37276   3.597   0.985   4.510 -0.1985 -0.1400  0.5527
 8547SOL    HW137277   3.550   1.007   4.430 -1.8163 -5.6536 -0.0389
 8547SOL    HW237278   3.678   1.034   4.505  0.3408 -1.1341 -0.4175
 8548SOL     OW37279   0.604   0.289   1.195 -0.5697 -0.1052 -0.3993
 8548SOL    HW137280   0.676   0.255   1.247  1.2470  3.7100 -0.3738
 8548SOL    HW237281   0.596   0.382   1.220 -2.0694 -0.2273 -0.4283
 8549SOL     OW37282   3.830   0.090   1.816  0.3822 -0.1186 -0.3054
 8549SOL    HW137283   3.772   0.152   1.859 -1.6783 -2.3113  0.1041
 8549SOL    HW237284   3.766   0.022   1.794  0.1299  0.1579 -0.4237
 8550SOL     OW37285   3.612   2.771   2.134 -0.3592 -0.3394  0.1681
 8550SOL    HW137286   3.643   2.701   2.077  0.7562 -0.8417  1.3892
 8550SOL    HW237287   3.625   2.741   2.224 -0.0751 -0.3003  0.1405
 8551SOL     OW37288   3.815   1.586   5.325 -0.4236  0.1574  0.3341
 8551SOL    HW137289   3.852   1.664   5.367 -2.2336  0.1486  1.9197
 8551SOL    HW237290   3.720   1.585   5.335 -0.3589  0.3902  1.0105
 8552SOL     OW37291   2.826   1.014   7.727 -0.3271 -0.0454 -0.0324
 8552SOL    HW137292   2.779   0.934   7.704 -2.3173  2.0513 -3.1666
 8552SOL    HW237293   2.771   1.087   7.700 -0.7699 -0.2991  0.1651
 8553SOL     OW37294   4.160   0.598  11.380 -0.3655  0.0931  0.1534
 8553SOL    HW137295   4.184   0.690  11.377 -1.7637  0.4358 -0.5485
 8553SOL    HW237296   4.089   0.596  11.316  0.2705  1.5515 -0.5915
 8554SOL     OW37297   4.300   1.619   4.791  0.1357  0.0204  0.7745
 8554SOL    HW137298   4.300   1.696   4.734 -2.7647  0.7526  1.7839
 8554SOL    HW237299   4.378   1.566   4.774  1.2828  1.3889  1.6917
 8555SOL     OW37300   0.497   1.413   7.907  0.2541  0.0029  0.2560
 8555SOL    HW137301   0.530   1.388   7.821 -0.5143 -0.2208  0.0211
 8555SOL    HW237302   0.515   1.337   7.962  0.2369 -1.6419 -2.0275
 8556SOL     OW37303   1.539   3.221  10.270  0.0048  0.0203 -0.0554
 8556SOL    HW137304   1.506   3.180  10.350  3.0342 -0.2407  1.0601
 8556SOL    HW237305   1.528   3.314  10.291  0.2253 -0.6121  2.8373
 8557SOL     OW37306   1.516   0.432  11.082  0.0557  0.0520  0.5864
 8557SOL    HW137307   1.497   0.345  11.117 -1.4952 -0.4756 -1.6168
 8557SOL    HW237308   1.429   0.454  11.049 -0.6314 -0.4341  2.0685
 8558SOL     OW37309   2.770   1.865   9.686  0.1533 -0.1327  0.3930
 8558SOL    HW137310   2.842   1.829   9.738 -2.5106 -2.3511  2.5387
 8558SOL    HW237311   2.706   1.796   9.701  1.1721 -0.8138  1.6253
 8559SOL     OW37312   3.283   1.545   7.155 -0.4488 -0.0716 -0.3785
 8559SOL    HW137313   3.212   1.577   7.210  1.2704  2.9351  0.1009
 8559SOL    HW237314   3.311   1.467   7.204 -2.9312 -2.1699 -2.2664
 8560SOL     OW37315   1.735   0.091  15.478 -0.3550 -0.4543 -0.3303
 8560SOL    HW137316   1.823   0.127  15.466 -0.8538  0.4401 -1.3896
 8560SOL    HW237317   1.734   0.007  15.432 -1.8563 -0.2422 -0.6715
 8561SOL     OW37318   0.277   2.783   5.452  0.0930 -0.0399 -0.7470
 8561SOL    HW137319   0.223   2.849   5.496 -0.7836  0.5773 -2.7539
 8561SOL    HW237320   0.232   2.761   5.371  0.9896 -0.8298 -1.0321
 8562SOL     OW37321   2.455   3.575  17.502 -0.0117 -0.0978 -0.4368
 8562SOL    HW137322   2.432   3.639  17.435 -2.0817  0.9098  1.2318
 8562SOL    HW237323   2.372   3.540  17.535  0.7226  1.1723  2.7438
 8563SOL     OW37324   4.399   2.501   8.066 -0.4166 -0.9767 -0.0946
 8563SOL    HW137325   4.370   2.475   7.979 -0.8544 -1.7028  0.2689
 8563SOL    HW237326   4.488   2.534   8.056 -1.0653  0.1130 -2.2266
 8564SOL     OW37327   1.187   3.249  15.707  0.0371  0.2807 -0.2190
 8564SOL    HW137328   1.133   3.323  15.735 -0.1780  0.0289  0.0318
 8564SOL    HW237329   1.124   3.197  15.657  0.3346  0.3709 -0.6936
 8565SOL     OW37330   2.004   3.648   8.900  0.5636 -0.8604 -0.6319
 8565SOL    HW137331   1.940   3.609   8.959 -1.8092 -1.2158 -3.4191
 8565SOL    HW237332   1.961   3.726   8.865  0.4666  0.1446  1.7695
 8566SOL     OW37333   2.741   1.626  14.182  0.1422  0.8097 -0.9482
 8566SOL    HW137334   2.828   1.592  14.200  0.3722  1.6213 -0.5290
 8566SOL    HW237335   2.717   1.599  14.094 -0.4745  0.4030 -0.6622
 8567SOL     OW37336   2.768   4.264  13.590 -0.0046 -0.3375  0.2288
 8567SOL    HW137337   2.746   4.247  13.498 -0.7421 -1.2722  0.5797
 8567SOL    HW237338   2.829   4.191  13.600  0.4483  0.2753  1.9093
 8568SOL     OW37339   4.119   0.756   5.028 -0.0993  0.4517  0.0321
 8568SOL    HW137340   4.166   0.709   5.097  0.3892 -0.1586 -0.7123
 8568SOL    HW237341   4.197   0.809   5.012  0.8791 -0.3140  2.1888
 8569SOL     OW37342   2.820   1.741   9.439  0.4100 -0.0016 -0.2479
 8569SOL    HW137343   2.890   1.774   9.383 -0.1807  0.1691 -0.9045
 8569SOL    HW237344   2.832   1.789   9.520 -0.0509 -2.1664  1.1127
 8570SOL     OW37345   0.674   2.127   8.793 -0.3905 -0.5165 -0.2188
 8570SOL    HW137346   0.647   2.214   8.761  0.1505  0.2559  1.4299
 8570SOL    HW237347   0.644   2.135   8.883 -0.5125  2.7030 -0.5233
 8571SOL     OW37348   0.598   4.631   7.243 -0.1255  0.1869  0.4430
 8571SOL    HW137349   0.564   4.569   7.308 -0.1930  0.7513  0.9429
 8571SOL    HW237350   0.531   4.631   7.175  1.2485  0.7040 -0.9211
 8572SOL     OW37351   1.496   1.652   1.944 -0.0986 -0.4198 -1.0528
 8572SOL    HW137352   1.547   1.711   1.890  1.7585 -0.4329  0.6772
 8572SOL    HW237353   1.426   1.711   1.974 -0.1640 -1.8005  1.5919
 8573SOL     OW37354   1.448   1.521   5.077 -0.5033 -0.5443 -0.6071
 8573SOL    HW137355   1.478   1.471   5.001 -1.2484 -3.4326  0.9774
 8573SOL    HW237356   1.501   1.596   5.051 -0.6050 -0.6172 -1.0271
 8574SOL     OW37357   4.016   3.765   5.730  0.3443 -0.0408 -0.1647
 8574SOL    HW137358   4.028   3.745   5.823 -1.7227  4.0590  0.9632
 8574SOL    HW237359   4.048   3.683   5.693 -0.3999  0.0611 -1.0243
 8575SOL     OW37360   2.138   2.873   6.789 -0.2984  0.2634 -0.5833
 8575SOL    HW137361   2.084   2.798   6.762 -1.2640  1.0854 -0.9069
 8575SOL    HW237362   2.213   2.828   6.827 -2.2465 -2.6567 -0.1830
 8576SOL     OW37363   1.838   2.369   3.819  0.2118 -0.2344 -0.6783
 8576SOL    HW137364   1.788   2.413   3.888 -0.5934 -1.6671 -0.3426
 8576SOL    HW237365   1.891   2.312   3.876  0.3677  1.8963  1.2814
 8577SOL     OW37366   1.789   0.759   2.580 -0.9248 -0.2516 -1.2407
 8577SOL    HW137367   1.755   0.822   2.644  0.5759  1.2017 -1.8642
 8577SOL    HW237368   1.711   0.746   2.526 -1.2560 -1.0615 -0.5646
 8578SOL     OW37369   0.898   0.701  15.930 -0.0906 -0.0625  0.1535
 8578SOL    HW137370   0.976   0.655  15.961 -1.1608  0.0528  2.9915
 8578SOL    HW237371   0.919   0.788  15.965  0.6636 -0.5086  0.8207
 8579SOL     OW37372   1.270   3.377   6.380  0.0658 -0.1030 -0.4083
 8579SOL    HW137373   1.241   3.287   6.366 -0.7431  0.0047  0.5667
 8579SOL    HW237374   1.200   3.436   6.351 -0.1269  0.2455  0.7219
 8580SOL     OW37375   2.769   2.232  12.449  0.3117  0.3764 -0.1900
 8580SOL    HW137376   2.814   2.163  12.399  1.2378  0.5245  0.4468
 8580SOL    HW237377   2.687   2.247  12.401 -0.7906 -1.3300  1.1562
 8581SOL     OW37378   2.812   0.484   6.865  0.0140  0.1600  0.2896
 8581SOL    HW137379   2.747   0.424   6.828  1.0922 -0.3787 -0.7226
 8581SOL    HW237380   2.877   0.444   6.807  0.6846  1.8688 -0.1396
 8582SOL     OW37381   0.554   1.650   5.442 -0.3864  0.7994  0.1859
 8582SOL    HW137382   0.460   1.657   5.425 -0.7884 -3.8411  0.5243
 8582SOL    HW237383   0.591   1.707   5.374  0.1111  0.3805  0.1041
 8583SOL     OW37384   0.602   1.299   5.106 -0.2778 -0.6241  0.3076
 8583SOL    HW137385   0.695   1.280   5.092 -0.6490 -0.6239 -2.1187
 8583SOL    HW237386   0.557   1.217   5.088 -1.8805  0.8755 -2.4979
 8584SOL     OW37387   3.955   4.267   3.035  0.3055  0.1293 -0.1646
 8584SOL    HW137388   3.912   4.185   3.013 -0.0426  0.2495  0.0806
 8584SOL    HW237389   3.980   4.305   2.950  0.0889  2.0369  0.6269
 8585SOL     OW37390   3.094   0.910  17.085  0.1259 -0.2212 -0.4367
 8585SOL    HW137391   3.092   0.904  16.990 -0.8733  1.3143 -0.5057
 8585SOL    HW237392   3.026   0.847  17.107  1.0338 -0.9803  0.2311
 8586SOL     OW37393   3.585   3.506  11.575  0.2658  0.1310  0.3408
 8586SOL    HW137394   3.562   3.467  11.490 -1.7049  2.7103 -0.3198
 8586SOL    HW237395   3.499   3.532  11.609  0.7702 -0.3504  1.9707
 8587SOL     OW37396   2.327   4.426   9.959  0.3908  0.0363 -0.1421
 8587SOL    HW137397   2.404   4.385   9.998  0.4483 -1.1534 -1.5567
 8587SOL    HW237398   2.288   4.473  10.033 -0.7595 -0.3156 -0.5299
 8588SOL     OW37399   2.410   3.771   5.698 -0.3915 -0.5909  0.4946
 8588SOL    HW137400   2.424   3.849   5.645 -1.9627 -0.7948 -0.2289
 8588SOL    HW237401   2.318   3.748   5.682  0.3429 -2.4313 -1.1894
 8589SOL     OW37402   2.222   2.768   5.697 -0.0771 -0.2366  0.1678
 8589SOL    HW137403   2.255   2.825   5.767  0.0520 -2.3935  1.8664
 8589SOL    HW237404   2.196   2.694   5.752 -1.2596 -0.6207 -0.9049
 8590SOL     OW37405   0.689   0.503  13.434  0.1235  0.1503 -0.5532
 8590SOL    HW137406   0.598   0.499  13.462  0.3763 -0.5384  0.1566
 8590SOL    HW237407   0.698   0.594  13.405 -0.5943  0.1723 -0.7203
 8591SOL     OW37408   2.472   4.724   9.727  0.3216 -0.0010 -0.2262
 8591SOL    HW137409   2.540   4.685   9.672  1.8796  0.2909  1.4902
 8591SOL    HW237410   2.406   4.736   9.659  0.5279 -0.2603 -0.4712
 8592SOL     OW37411   1.517   2.166  15.023  0.1554 -0.3723  0.0569
 8592SOL    HW137412   1.566   2.101  14.972 -3.1721 -0.9479 -2.4272
 8592SOL    HW237413   1.582   2.235  15.036 -0.1529  0.0444 -0.6038
 8593SOL     OW37414   2.649   0.627   5.373  0.0995 -0.4842 -0.2444
 8593SOL    HW137415   2.714   0.588   5.315  1.7977 -1.3860  2.2759
 8593SOL    HW237416   2.609   0.685   5.308 -0.4551  2.5327  2.7833
 8594SOL     OW37417   1.774   0.791   3.773 -0.3664  0.2609 -0.1973
 8594SOL    HW137418   1.713   0.725   3.743  0.1496  0.4624 -1.6827
 8594SOL    HW237419   1.854   0.773   3.724  0.2828 -1.4875  1.5186
 8595SOL     OW37420   2.329   4.640   3.197 -0.1851  0.0504 -0.5598
 8595SOL    HW137421   2.262   4.574   3.187  2.5059 -2.7319 -0.2276
 8595SOL    HW237422   2.412   4.592   3.190 -0.2339 -0.2657  1.0443
 8596SOL     OW37423   4.640   2.528  17.512 -0.1684 -0.2815  0.2237
 8596SOL    HW137424   4.677   2.442  17.489  1.1488 -0.0059  1.3389
 8596SOL    HW237425   4.704   2.570  17.570  0.5339 -2.2596  0.8804
 8597SOL     OW37426   2.370   1.965  16.073 -0.6879  0.3304 -0.4607
 8597SOL    HW137427   2.464   1.968  16.058 -0.0067  1.4201  3.8215
 8597SOL    HW237428   2.368   1.952  16.168  1.3654  3.0726 -0.0474
 8598SOL     OW37429   3.757   0.307  15.002 -0.3838 -0.4726 -0.3974
 8598SOL    HW137430   3.849   0.326  14.983 -0.4661  0.5683  0.2449
 8598SOL    HW237431   3.745   0.224  14.957  0.7300 -0.2875 -1.0338
 8599SOL     OW37432   3.032   2.059   4.667  0.6208  0.7202 -0.8251
 8599SOL    HW137433   3.042   1.981   4.721  1.3159  0.5151 -1.2461
 8599SOL    HW237434   3.117   2.066   4.623  0.4081  1.2855 -1.1448
 8600SOL     OW37435   0.389   4.730   5.179  0.6236 -0.1693  0.1507
 8600SOL    HW137436   0.471   4.692   5.146  0.8508  0.4866 -0.0532
 8600SOL    HW237437   0.387   4.701   5.270 -0.1502 -2.0955 -0.4636
 8601SOL     OW37438   0.917   2.016   3.638 -0.4930 -0.2496  0.4189
 8601SOL    HW137439   0.863   2.055   3.569  0.2138 -2.2256 -1.2629
 8601SOL    HW237440   0.890   1.925   3.622  0.9201 -0.5693 -0.1638
 8602SOL     OW37441   2.332   0.698  12.841 -0.1018 -0.1225 -0.5721
 8602SOL    HW137442   2.282   0.779  12.834 -0.3277 -0.2172 -0.0368
 8602SOL    HW237443   2.422   0.730  12.848  0.0189 -0.8173  1.1542
 8603SOL     OW37444   4.037   1.309   7.201 -0.4884  0.9935  0.2701
 8603SOL    HW137445   4.034   1.325   7.295  0.5495 -1.2228  0.6846
 8603SOL    HW237446   4.132   1.299   7.190 -0.3001  0.5361  2.2670
 8604SOL     OW37447   0.023   3.968   3.237  0.6647 -0.3102  0.0523
 8604SOL    HW137448   4.672   3.990   3.270  0.3793 -1.0783 -0.1963
 8604SOL    HW237449   0.079   3.963   3.315 -2.7822 -0.6881  2.4932
 8605SOL     OW37450   2.378   2.073   7.488  0.2199  0.1753 -0.6675
 8605SOL    HW137451   2.453   2.045   7.540 -0.6603 -2.8284 -1.0052
 8605SOL    HW237452   2.417   2.093   7.403 -0.5522  1.5442 -0.7011
 8606SOL     OW37453   2.804   4.330   2.932  0.2368 -0.0803  0.3597
 8606SOL    HW137454   2.858   4.314   2.855 -0.6142 -2.5200  0.2822
 8606SOL    HW237455   2.762   4.245   2.944  2.2320 -1.4292 -2.1957
 8607SOL     OW37456   2.186   3.818   8.432 -1.0132 -0.1603 -0.0343
 8607SOL    HW137457   2.171   3.756   8.361  0.2672 -0.7754  0.2294
 8607SOL    HW237458   2.276   3.802   8.460 -1.7281  1.8722  3.4621
 8608SOL     OW37459   3.984   4.193   0.515 -0.1673 -0.4418 -0.4546
 8608SOL    HW137460   4.008   4.240   0.435 -2.2040  1.1762 -0.1142
 8608SOL    HW237461   4.055   4.129   0.506 -1.3106 -1.9051  0.9571
 8609SOL     OW37462   1.484   0.498   2.677 -0.0195 -0.4027  0.1908
 8609SOL    HW137463   1.487   0.505   2.582 -0.3911  0.3935  0.2432
 8609SOL    HW237464   1.394   0.467   2.686 -1.0184  2.1545 -1.2018
 8610SOL     OW37465   4.534   4.538  16.442 -0.1036  0.2219 -0.5509
 8610SOL    HW137466   4.599   4.607  16.455  0.0068  0.0414 -0.1466
 8610SOL    HW237467   4.523   4.508  16.532 -1.1015 -0.0962 -0.7733
 8611SOL     OW37468   1.979   3.586   9.911 -0.2601  0.9240 -0.2807
 8611SOL    HW137469   1.988   3.538   9.829 -0.7492 -0.4622  0.4872
 8611SOL    HW237470   2.063   3.632   9.904  0.5212 -0.5686 -0.6564
 8612SOL     OW37471   3.745   3.586   2.791  0.6827  0.1391 -0.2967
 8612SOL    HW137472   3.693   3.661   2.820 -2.6983 -2.7028  0.9540
 8612SOL    HW237473   3.780   3.615   2.707  0.5708 -1.9352 -1.0464
 8613SOL     OW37474   3.192   1.090  16.187 -0.2555 -0.1174 -0.1203
 8613SOL    HW137475   3.168   1.035  16.112 -0.4585  1.0578 -0.9252
 8613SOL    HW237476   3.254   1.148  16.143  0.6359 -0.5998  0.5085
 8614SOL     OW37477   4.373   2.638   1.991  0.5764  0.3991  0.1493
 8614SOL    HW137478   4.462   2.619   2.019 -0.2406  2.3436  3.9426
 8614SOL    HW237479   4.334   2.661   2.075 -2.1486  0.5470 -1.1449
 8615SOL     OW37480   4.476   0.081  16.877  0.4503  0.2226 -0.0924
 8615SOL    HW137481   4.480   0.155  16.938  0.7917  0.1280 -0.0014
 8615SOL    HW237482   4.498   0.120  16.793  1.0249  0.5741  0.2273
 8616SOL     OW37483   3.585   0.574  14.275 -0.2665  0.2421 -0.2871
 8616SOL    HW137484   3.649   0.599  14.342 -0.0046  1.8201 -1.1328
 8616SOL    HW237485   3.529   0.651  14.275  1.1252  1.2662  0.6997
 8617SOL     OW37486   3.919   2.701   5.812 -0.3764  0.2597 -0.8842
 8617SOL    HW137487   3.950   2.612   5.829 -2.7136 -0.3568  0.1610
 8617SOL    HW237488   3.833   2.678   5.776 -0.3471 -1.1372 -0.0575
 8618SOL     OW37489   3.733   3.811   9.867  0.1857 -0.2541  0.1885
 8618SOL    HW137490   3.689   3.860   9.937 -1.9597 -1.7315 -0.1365
 8618SOL    HW237491   3.769   3.748   9.929 -0.2400  0.4873  1.1972
 8619SOL     OW37492   3.387   0.196   5.316 -0.4178  0.2162  0.3836
 8619SOL    HW137493   3.391   0.198   5.412 -0.0550  0.1969  0.3662
 8619SOL    HW237494   3.476   0.216   5.287 -0.1007  0.6177  1.6202
 8620SOL     OW37495   1.384   3.885   4.594 -0.2118 -0.3070  0.1565
 8620SOL    HW137496   1.317   3.840   4.542  1.3673 -1.3030 -1.0015
 8620SOL    HW237497   1.337   3.964   4.621  0.3811  1.4930 -3.9977
 8621SOL     OW37498   3.300   2.060   3.162  0.6638 -0.4843  0.1944
 8621SOL    HW137499   3.267   2.013   3.085 -0.6352 -0.6824  0.8706
 8621SOL    HW237500   3.297   2.155   3.147  0.2922 -0.8837 -2.2737
 8622SOL     OW37501   1.554   4.312   8.847  0.4786  0.1433 -0.1476
 8622SOL    HW137502   1.545   4.405   8.826  0.2839  0.1791  0.1016
 8622SOL    HW237503   1.555   4.277   8.758  0.3706  0.2110 -0.1748
 8623SOL     OW37504   3.836   2.351   2.898 -0.1310  0.2725 -0.0888
 8623SOL    HW137505   3.887   2.316   2.972  1.2973  0.1012 -1.1550
 8623SOL    HW237506   3.854   2.444   2.913  1.0787  0.0976 -0.4224
 8624SOL     OW37507   0.358   3.930   9.632  0.1506  0.4264 -0.0709
 8624SOL    HW137508   0.340   3.847   9.676 -1.6611  0.7549 -0.1568
 8624SOL    HW237509   0.310   3.989   9.691 -0.0027 -0.8687  1.0926
 8625SOL     OW37510   1.978   3.388   7.479 -0.0459 -0.0834  0.6384
 8625SOL    HW137511   1.975   3.422   7.568 -2.8800 -2.8130  1.5985
 8625SOL    HW237512   1.927   3.452   7.430  0.5308  0.9613  1.4012
 8626SOL     OW37513   4.598   0.868   5.152 -0.0947 -0.1983  0.1973
 8626SOL    HW137514   4.643   0.864   5.236 -2.0326  0.7839  1.2624
 8626SOL    HW237515   4.668   0.823   5.104 -1.4994 -1.1593 -0.9620
 8627SOL     OW37516   4.206   4.663   4.506 -0.3493 -0.1348  0.1878
 8627SOL    HW137517   4.203   4.676   4.412  0.1804  3.6839  0.7313
 8627SOL    HW237518   4.196   4.568   4.515  0.1511  0.0214  2.4662
 8628SOL     OW37519   3.315   3.815  16.387  0.2343  0.1314  0.8351
 8628SOL    HW137520   3.315   3.910  16.399 -2.5719  0.1277  0.7707
 8628SOL    HW237521   3.258   3.788  16.460  1.1557 -1.9040  0.8067
 8629SOL     OW37522   1.100   1.768   8.526 -0.3034  0.0107 -0.3697
 8629SOL    HW137523   1.037   1.823   8.573 -1.0535 -0.8725 -0.3353
 8629SOL    HW237524   1.172   1.737   8.581  0.1702  1.5883 -0.0971
 8630SOL     OW37525   1.234   1.381   6.461  1.0901 -0.2450 -0.2508
 8630SOL    HW137526   1.276   1.393   6.546 -0.2498  1.9131  0.0992
 8630SOL    HW237527   1.181   1.303   6.479  2.0849 -0.3599  2.0777
 8631SOL     OW37528   2.336   4.119   1.600 -1.0890  0.4963 -0.0116
 8631SOL    HW137529   2.391   4.130   1.523 -0.6164  0.1019  0.2641
 8631SOL    HW237530   2.298   4.206   1.601 -0.8344  0.6151 -3.2557
 8632SOL     OW37531   4.369   3.078  15.298  0.1996  0.3529 -0.3013
 8632SOL    HW137532   4.301   3.091  15.365  1.4152 -1.0253  1.2055
 8632SOL    HW237533   4.367   2.984  15.285 -0.3329  0.5738 -1.7781
 8633SOL     OW37534   2.842   0.469   6.590 -0.0104 -0.1113 -0.0797
 8633SOL    HW137535   2.936   0.474   6.610 -0.1606 -2.7525  1.1941
 8633SOL    HW237536   2.833   0.556   6.551 -1.3464 -0.4231 -0.4544
 8634SOL     OW37537   0.006   1.134   5.931 -0.3571  0.4205  0.3953
 8634SOL    HW137538   4.724   1.228   5.939  1.4893  0.8503 -0.6410
 8634SOL    HW237539   0.088   1.135   5.883 -1.5042 -1.2166 -1.5640
 8635SOL     OW37540   3.473   2.492   4.855 -0.4361  0.0943 -0.8028
 8635SOL    HW137541   3.420   2.511   4.933  2.9744  1.5377  1.1748
 8635SOL    HW237542   3.470   2.575   4.808  0.3261  0.9189  0.5772
 8636SOL     OW37543   2.439   1.680   7.308  0.3243  0.4852 -0.3711
 8636SOL    HW137544   2.427   1.606   7.250 -0.0383  0.6426 -0.4995
 8636SOL    HW237545   2.519   1.720   7.275  0.4020  1.0953  0.5696
 8637SOL     OW37546   4.284   1.780  12.001  0.3732 -0.5004  0.1145
 8637SOL    HW137547   4.345   1.845  11.966  0.5549  0.0267  1.4054
 8637SOL    HW237548   4.316   1.713  11.941 -0.2836 -1.0640  0.4060
 8638SOL     OW37549   1.814   2.644  16.506  0.4690  0.0015  0.6535
 8638SOL    HW137550   1.873   2.711  16.471  0.2400  0.6315  1.4883
 8638SOL    HW237551   1.791   2.685  16.589  1.1493  1.2604  0.2261
 8639SOL     OW37552   3.066   0.598   2.855 -0.0523 -0.0344  0.3842
 8639SOL    HW137553   3.120   0.537   2.804  0.5214  1.2111 -0.4965
 8639SOL    HW237554   2.989   0.548   2.882 -0.8587  2.0581  1.8924
 8640SOL     OW37555   2.380   2.557   2.051 -0.2519  0.2918 -0.1806
 8640SOL    HW137556   2.473   2.577   2.062 -0.4196 -0.1437  2.0799
 8640SOL    HW237557   2.380   2.494   1.979  0.5765 -1.1397  1.0503
 8641SOL     OW37558   4.398   4.485   7.601 -0.3879  0.1553 -0.1738
 8641SOL    HW137559   4.480   4.494   7.552 -0.7451 -0.3312 -0.8718
 8641SOL    HW237560   4.417   4.507   7.692 -2.1630 -2.1961  0.7673
 8642SOL     OW37561   1.349   3.983  12.975 -0.3434 -0.7256 -0.0240
 8642SOL    HW137562   1.383   4.050  12.917 -0.7299 -2.6211 -2.4161
 8642SOL    HW237563   1.301   3.923  12.919  0.9440 -0.9232 -0.9061
 8643SOL     OW37564   3.318   4.194   5.503 -0.0907 -0.3833  0.0111
 8643SOL    HW137565   3.290   4.143   5.580  0.4595 -0.3448  0.2320
 8643SOL    HW237566   3.248   4.260   5.506  0.7654  0.5390 -0.6956
 8644SOL     OW37567   2.409   4.135   5.743 -0.5612 -0.0216 -0.2119
 8644SOL    HW137568   2.321   4.172   5.733 -1.6536 -3.0580 -1.8269
 8644SOL    HW237569   2.432   4.159   5.833  0.2014 -0.9121 -0.1647
 8645SOL     OW37570   4.234   4.417   2.556 -0.3952  0.5995 -0.1255
 8645SOL    HW137571   4.227   4.471   2.478  0.3651  2.1099  0.8502
 8645SOL    HW237572   4.202   4.483   2.617 -3.1477  0.8365 -1.8792
 8646SOL     OW37573   0.958   1.253   7.768 -0.3009  0.2127  0.0058
 8646SOL    HW137574   0.967   1.207   7.684  0.8292 -1.3595  0.9857
 8646SOL    HW237575   1.034   1.309   7.785  0.5917 -1.2700  0.8704
 8647SOL     OW37576   3.422   1.491  15.134  0.2697 -0.0903  0.6129
 8647SOL    HW137577   3.338   1.533  15.113 -1.3834 -3.3359  0.7704
 8647SOL    HW237578   3.447   1.551  15.205 -0.5057  1.1846 -0.1978
 8648SOL     OW37579   1.141   2.583   3.994  0.5780  0.2413  0.1907
 8648SOL    HW137580   1.220   2.559   4.042 -0.0768 -0.9319  0.6858
 8648SOL    HW237581   1.153   2.552   3.904  1.0384  2.3823 -0.4725
 8649SOL     OW37582   1.773   2.810   6.883 -0.2130  0.6283 -0.5956
 8649SOL    HW137583   1.697   2.849   6.928 -0.7568  0.1086 -1.0591
 8649SOL    HW237584   1.774   2.834   6.791 -2.0816 -0.8209 -0.9880
 8650SOL     OW37585   4.312   4.230  12.005  0.0600 -0.2981  0.0839
 8650SOL    HW137586   4.260   4.169  12.058  0.0407 -0.8598 -0.5732
 8650SOL    HW237587   4.300   4.308  12.060  0.7806 -0.2936  0.2323
 8651SOL     OW37588   1.014   2.971   8.658  0.0313 -0.1333 -0.1287
 8651SOL    HW137589   1.020   2.887   8.611  1.9552 -1.1598  1.9602
 8651SOL    HW237590   0.956   3.017   8.598  0.8471  0.0244 -0.8022
 8652SOL     OW37591   0.136   1.081   6.302 -0.1244  0.5485 -0.2428
 8652SOL    HW137592   0.167   1.112   6.217  0.7829 -1.5283 -0.6747
 8652SOL    HW237593   0.170   1.140   6.369  0.9243 -1.2755  0.8404
 8653SOL     OW37594   3.740   2.181  15.969  0.3211 -0.6246 -0.4093
 8653SOL    HW137595   3.674   2.164  16.036 -1.3526 -0.4895 -2.0391
 8653SOL    HW237596   3.797   2.106  15.987  0.7978  0.1381  1.2830
 8654SOL     OW37597   2.728   0.568   4.441 -0.1514 -0.6814  0.3419
 8654SOL    HW137598   2.707   0.478   4.416  3.7564 -1.0314 -1.6753
 8654SOL    HW237599   2.740   0.613   4.357 -1.0152 -0.7957  0.1585
 8655SOL     OW37600   1.338   1.595  15.357 -0.0561 -0.0661 -0.0570
 8655SOL    HW137601   1.251   1.564  15.331 -0.2643 -0.9999  1.7917
 8655SOL    HW237602   1.325   1.685  15.387  2.6939 -0.0861  1.1635
 8656SOL     OW37603   4.649   0.226  14.454 -0.0857  0.1837 -0.3365
 8656SOL    HW137604   4.617   0.296  14.511 -0.5869 -1.3411  1.2673
 8656SOL    HW237605   4.734   0.265  14.437 -0.9620  0.5944 -3.7742
 8657SOL     OW37606   3.354   2.434   5.114  0.0392  0.0264  0.2271
 8657SOL    HW137607   3.287   2.412   5.049 -1.1446  1.7330  0.9111
 8657SOL    HW237608   3.411   2.358   5.101  1.3950  0.9436  0.8122
 8658SOL     OW37609   1.944   1.959   3.156 -0.2473 -0.0035 -0.7180
 8658SOL    HW137610   1.985   2.045   3.146  0.4661 -0.3998 -1.2225
 8658SOL    HW237611   1.972   1.931   3.243 -0.2530  1.4639 -0.2470
 8659SOL     OW37612   1.313   0.070   4.588  0.0223  0.5311 -0.2387
 8659SOL    HW137613   1.363   0.057   4.669 -0.0149 -0.7621 -0.4283
 8659SOL    HW237614   1.230   0.034   4.619  1.0739 -1.4690  0.2368
 8660SOL     OW37615   1.044   4.600  11.465 -0.0959 -0.6041 -0.4504
 8660SOL    HW137616   1.059   4.625  11.374 -1.0266 -2.0817 -1.0221
 8660SOL    HW237617   1.064   4.506  11.472  0.2524 -0.5331 -0.5237
 8661SOL     OW37618   3.733   0.738  16.522 -0.2997 -0.3568  0.5342
 8661SOL    HW137619   3.728   0.646  16.549 -1.8437 -0.8629 -1.4502
 8661SOL    HW237620   3.703   0.731  16.432  1.6015 -1.0022 -0.0672
 8662SOL     OW37621   1.497   4.720  16.183 -0.1482 -0.4866 -0.0041
 8662SOL    HW137622   1.518   0.043  16.110  1.4863  0.4599  1.2234
 8662SOL    HW237623   1.494   0.037  16.263 -2.0057 -1.6037  0.6671
 8663SOL     OW37624   3.817   1.198  16.251  0.5604  0.1294  0.0651
 8663SOL    HW137625   3.911   1.214  16.262  0.2690  0.5773  1.9830
 8663SOL    HW237626   3.817   1.170  16.160  3.2819 -1.4451  0.5391
 8664SOL     OW37627   2.211   0.704  17.198  0.2360 -0.2833 -0.6751
 8664SOL    HW137628   2.224   0.636  17.132  1.3549  1.2460 -2.0175
 8664SOL    HW237629   2.119   0.722  17.178 -0.0308 -0.1690  0.6298
 8665SOL     OW37630   0.884   0.274   5.775 -1.0564 -0.0774 -0.1049
 8665SOL    HW137631   0.897   0.273   5.870  1.0333  1.9422 -0.3881
 8665SOL    HW237632   0.792   0.301   5.778 -1.4809 -1.1526 -2.6536
 8666SOL     OW37633   3.043   2.299   5.152 -0.9281 -0.0550  0.1244
 8666SOL    HW137634   3.008   2.212   5.131 -2.6719  0.6666  0.0290
 8666SOL    HW237635   3.093   2.302   5.070  1.0023  0.0120  1.2968
 8667SOL     OW37636   4.307   1.837  11.211 -0.0686 -0.1508 -0.3333
 8667SOL    HW137637   4.299   1.928  11.239 -1.8002 -0.9104  1.6685
 8667SOL    HW237638   4.401   1.827  11.195 -0.1606 -2.4816  0.4302
 8668SOL     OW37639   0.797   0.353  16.337 -0.6905 -0.3388 -0.7915
 8668SOL    HW137640   0.719   0.314  16.298 -0.5900 -2.1350  0.8061
 8668SOL    HW237641   0.805   0.280  16.399  1.5913  1.3657  0.9179
 8669SOL     OW37642   3.334   2.473   3.292 -0.2990  0.4006  0.2825
 8669SOL    HW137643   3.275   2.547   3.281  0.0193  0.6313  0.1214
 8669SOL    HW237644   3.420   2.510   3.272 -0.3581 -0.3391 -1.2834
 8670SOL     OW37645   0.318   2.980   5.163 -0.0582  0.2866 -0.1725
 8670SOL    HW137646   0.400   2.947   5.200 -0.5927  0.0935  0.8427
 8670SOL    HW237647   0.266   2.972   5.243  0.4216 -0.8447  0.0252
 8671SOL     OW37648   3.631   4.223   3.114 -0.0366 -0.5151 -0.1368
 8671SOL    HW137649   3.643   4.155   3.048  1.7568 -2.4297  2.1670
 8671SOL    HW237650   3.593   4.295   3.062  0.4575 -0.1354  0.0298
 8672SOL     OW37651   4.336   4.646   5.369 -0.1241  0.8285 -0.0790
 8672SOL    HW137652   4.395   4.717   5.392  0.4498 -0.2242  1.7142
 8672SOL    HW237653   4.258   4.673   5.417  0.0030  1.5203 -0.2700
 8673SOL     OW37654   1.193   2.131  12.691 -0.8574  0.5662 -0.2059
 8673SOL    HW137655   1.237   2.140  12.776 -1.1611  0.4260 -0.0358
 8673SOL    HW237656   1.272   2.117  12.638 -1.8668  2.4659 -2.1969
 8674SOL     OW37657   3.850   0.557   6.903 -0.0439  0.2671  0.5047
 8674SOL    HW137658   3.944   0.539   6.906  0.1716  1.4654  0.8632
 8674SOL    HW237659   3.818   0.467   6.904  0.5953  0.0264 -0.4823
 8675SOL     OW37660   3.199   0.451   7.023 -0.1132  0.1364  0.2208
 8675SOL    HW137661   3.217   0.545   7.020 -0.8614  0.2364 -0.9273
 8675SOL    HW237662   3.186   0.446   6.928  1.2726  0.7362 -0.0065
 8676SOL     OW37663   2.720   4.203   3.927 -0.0001  0.6172 -0.0121
 8676SOL    HW137664   2.748   4.133   3.869 -0.9440  0.3044 -0.0784
 8676SOL    HW237665   2.804   4.221   3.971  0.0984 -1.2938  0.5720
 8677SOL     OW37666   2.464   0.155   3.522  0.1612  0.2821 -0.1838
 8677SOL    HW137667   2.392   0.104   3.484  0.6616 -1.0156  0.5766
 8677SOL    HW237668   2.518   0.167   3.444 -0.4364  1.3293 -0.4280
 8678SOL     OW37669   3.008   1.739   9.779  0.4291 -0.0820 -0.1457
 8678SOL    HW137670   3.078   1.683   9.813  0.4014  0.4087  0.7060
 8678SOL    HW237671   3.039   1.828   9.796 -0.2491 -0.0511  0.9495
 8679SOL     OW37672   1.671   4.243   4.277  0.1533  0.3176  0.4056
 8679SOL    HW137673   1.642   4.181   4.344 -1.5733  2.2228  1.4231
 8679SOL    HW237674   1.599   4.306   4.290 -1.5142 -1.4707 -0.2381
 8680SOL     OW37675   0.990   1.454  14.111 -0.2347 -0.0111  0.1261
 8680SOL    HW137676   1.014   1.519  14.178  1.0109 -0.6640  0.3106
 8680SOL    HW237677   1.067   1.464  14.056 -0.6348  0.9801 -0.2521
 8681SOL     OW37678   0.048   2.840  16.856 -0.1104  0.1047  0.3024
 8681SOL    HW137679   0.132   2.886  16.852  0.3390 -0.7290  0.2225
 8681SOL    HW237680   0.078   2.754  16.886 -1.1430  0.1409  1.4476
 8682SOL     OW37681   3.013   2.616  16.904  0.2310  0.2324 -0.2969
 8682SOL    HW137682   3.008   2.589  16.812  0.7146  0.1152 -0.2880
 8682SOL    HW237683   3.108   2.615  16.918 -0.1023 -0.5258  1.9448
 8683SOL     OW37684   4.594   3.957   0.176 -0.5652  0.0061  0.0652
 8683SOL    HW137685   4.676   3.926   0.137  0.3127  1.9221  0.3762
 8683SOL    HW237686   4.593   3.904   0.256 -0.0946  2.7139  1.8904
 8684SOL     OW37687   2.590   3.498   9.128 -0.3080 -0.0097 -0.1116
 8684SOL    HW137688   2.605   3.404   9.132  0.6637  0.2072  1.2628
 8684SOL    HW237689   2.562   3.519   9.217  0.6547 -1.3446  0.4937
 8685SOL     OW37690   2.064   3.749   4.157  0.2356 -0.2668 -0.4722
 8685SOL    HW137691   1.973   3.749   4.187  0.3364  0.9873 -0.1493
 8685SOL    HW237692   2.088   3.841   4.170  2.2513 -0.6181 -1.8554
 8686SOL     OW37693   2.220   4.447   3.521  0.1229 -0.2297  0.2947
 8686SOL    HW137694   2.165   4.460   3.599 -0.7374  0.3111 -0.3995
 8686SOL    HW237695   2.218   4.351   3.517  0.9993 -0.1677 -1.5276
 8687SOL     OW37696   4.710   2.050  12.134  0.1112 -0.1944 -0.0221
 8687SOL    HW137697   0.026   1.985  12.085 -0.8832 -0.8710 -0.1797
 8687SOL    HW237698   4.652   2.071  12.060 -0.8776  0.7364  1.0212
 8688SOL     OW37699   0.896   1.014   5.349  0.4618  0.1785 -0.1032
 8688SOL    HW137700   0.824   1.015   5.412  1.1512  0.1935  0.6819
 8688SOL    HW237701   0.928   1.103   5.358 -3.8879  1.5932  1.2945
 8689SOL     OW37702   1.160   3.565   4.981 -0.1826 -0.4265 -0.2777
 8689SOL    HW137703   1.171   3.475   5.014  1.6139  0.0780  0.5192
 8689SOL    HW237704   1.242   3.565   4.931  0.4478 -0.9866  0.7515
 8690SOL     OW37705   3.632   4.046   0.313  0.1378 -0.1442  0.0840
 8690SOL    HW137706   3.591   4.048   0.227  3.5752  1.6908 -1.5193
 8690SOL    HW237707   3.597   4.129   0.345  0.4555  0.4217 -1.0404
 8691SOL     OW37708   2.129   4.627   1.250  0.0923 -0.5983 -0.2974
 8691SOL    HW137709   2.093   4.579   1.325  1.5809 -0.4992  0.4855
 8691SOL    HW237710   2.220   4.597   1.242 -0.2931 -2.9792  4.3549
 8692SOL     OW37711   1.460   0.371  13.740  0.4778  0.0401 -0.3935
 8692SOL    HW137712   1.498   0.331  13.818 -1.9104 -0.2984  0.6160
 8692SOL    HW237713   1.378   0.321  13.732 -0.4145  1.4118  0.1220
 8693SOL     OW37714   3.638   2.906  10.059  0.0539  0.0155  0.5757
 8693SOL    HW137715   3.546   2.913  10.086 -0.6631  0.5837 -1.9905
 8693SOL    HW237716   3.671   2.857  10.134 -0.5504 -0.5666  0.4673
 8694SOL     OW37717   4.637   4.610   4.036  0.0397 -0.4064 -0.2668
 8694SOL    HW137718   4.575   4.562   3.981  1.3725 -1.6792 -0.6467
 8694SOL    HW237719   4.600   4.698   4.034 -1.1395 -0.9185 -0.7400
 8695SOL     OW37720   3.468   4.446  11.400  0.3977  0.1904 -0.5330
 8695SOL    HW137721   3.482   4.465  11.307  0.3646  0.5819 -0.4582
 8695SOL    HW237722   3.454   4.530  11.443  0.2487 -0.2490  0.2848
 8696SOL     OW37723   0.858   3.937   5.770  0.3415 -0.1211  0.0643
 8696SOL    HW137724   0.947   3.953   5.740  0.6339  0.1402  1.0675
 8696SOL    HW237725   0.858   3.857   5.822  0.5191  0.8565  1.5607
 8697SOL     OW37726   1.874   1.946  17.654 -0.5239 -0.1425  0.4045
 8697SOL    HW137727   1.809   1.878  17.667 -2.4456  1.5768 -0.2483
 8697SOL    HW237728   1.833   2.014  17.600  0.2391 -0.0291 -0.0396
 8698SOL     OW37729   1.656   4.118  10.077  0.9356 -0.2173  1.0431
 8698SOL    HW137730   1.668   4.182  10.148 -0.5756  0.2962  0.8460
 8698SOL    HW237731   1.745   4.107  10.046  0.5770  0.9292 -0.3801
 8699SOL     OW37732   3.746   2.081   8.495 -0.3946 -0.1066 -0.7794
 8699SOL    HW137733   3.767   2.131   8.416  0.5068  0.4198 -0.2163
 8699SOL    HW237734   3.677   2.132   8.538  1.7451  0.7564  1.6687
 8700SOL     OW37735   3.130   4.122   7.120 -0.2771 -0.2632 -0.1252
 8700SOL    HW137736   3.070   4.192   7.095 -1.5430 -1.5684 -0.6885
 8700SOL    HW237737   3.127   4.072   7.039 -0.8527 -1.4308  0.6108
 8701SOL     OW37738   2.395   0.231   2.650 -0.5178  0.0837 -0.1171
 8701SOL    HW137739   2.365   0.152   2.604  0.2962 -0.5041  0.3661
 8701SOL    HW237740   2.359   0.292   2.585  1.7477  2.6664  1.0399
 8702SOL     OW37741   4.226   3.349  12.624  0.6096  0.6463  0.3348
 8702SOL    HW137742   4.154   3.390  12.576  2.4316 -0.8343 -3.6475
 8702SOL    HW237743   4.190   3.270  12.664  1.6592  0.2872  0.5742
 8703SOL     OW37744   3.769   1.699   2.554  0.4153 -0.3124  0.0432
 8703SOL    HW137745   3.833   1.630   2.570  2.3019  1.0787 -1.5133
 8703SOL    HW237746   3.823   1.771   2.523  1.2748 -0.7489  0.5414
 8704SOL     OW37747   4.705   2.958   3.770 -0.1658  0.0438 -0.3940
 8704SOL    HW137748   4.630   2.904   3.744  1.0704 -1.9323  0.1846
 8704SOL    HW237749   4.672   3.036   3.816 -1.0599 -1.0271  0.7725
 8705SOL     OW37750   0.247   2.472   6.517 -0.3455  0.4471  0.5509
 8705SOL    HW137751   0.333   2.487   6.478 -1.2438  1.3552 -1.0564
 8705SOL    HW237752   0.269   2.391   6.563  1.1288  0.4907 -0.0766
 8706SOL     OW37753   3.099   2.872   6.677  0.1840  0.3349 -0.2249
 8706SOL    HW137754   3.186   2.882   6.640  0.1783  1.7683  0.1582
 8706SOL    HW237755   3.129   2.829   6.757 -1.4705  1.3375  0.9570
 8707SOL     OW37756   3.323   4.513   0.833 -0.0855 -0.0121  0.4374
 8707SOL    HW137757   3.264   4.583   0.863 -1.8546 -2.2957  2.2720
 8707SOL    HW237758   3.365   4.555   0.758  0.5199 -1.8118 -0.2328
 8708SOL     OW37759   4.068   1.283  15.948 -0.4956  0.3241 -0.2774
 8708SOL    HW137760   4.058   1.284  16.043 -1.5139  1.2467 -0.3907
 8708SOL    HW237761   3.982   1.317  15.921 -1.0229 -0.6152  0.2194
 8709SOL     OW37762   1.529   0.732  13.390 -0.6469 -0.0124  0.4917
 8709SOL    HW137763   1.491   0.693  13.312 -1.2929  0.2612  0.6677
 8709SOL    HW237764   1.470   0.693  13.455 -0.5891 -1.9265 -0.6256
 8710SOL     OW37765   1.781   0.880   8.374  0.3610 -0.0157  0.1834
 8710SOL    HW137766   1.742   0.828   8.304 -0.5285  0.0936  0.6072
 8710SOL    HW237767   1.777   0.818   8.446  0.2338  1.8304  1.7612
 8711SOL     OW37768   0.592   1.461   3.356  0.6900  0.2191  0.1432
 8711SOL    HW137769   0.594   1.487   3.264 -0.2678  2.3655  0.7305
 8711SOL    HW237770   0.540   1.536   3.387  1.3914  0.6144  0.3636
 8712SOL     OW37771   3.960   3.106   7.313  0.4385 -0.5132 -0.2418
 8712SOL    HW137772   3.954   3.120   7.408  1.3624  0.8345 -0.3686
 8712SOL    HW237773   3.896   3.168   7.277  0.2378 -0.1103  0.8100
 8713SOL     OW37774   4.729   3.225   6.243  0.0895 -0.2378 -0.1810
 8713SOL    HW137775   0.016   3.169   6.318  0.7738 -0.5382 -0.6117
 8713SOL    HW237776   0.009   3.313   6.279  2.7735 -0.3512 -1.0782
 8714SOL     OW37777   4.389   0.606   3.486 -0.3048 -0.3940 -0.1780
 8714SOL    HW137778   4.318   0.638   3.542 -0.0922 -1.2114  0.5680
 8714SOL    HW237779   4.429   0.532   3.533  2.4985  0.3095 -1.4528
 8715SOL     OW37780   2.931   2.023   5.922 -0.4996 -0.2005  0.2932
 8715SOL    HW137781   3.002   2.025   5.986 -1.7605  2.1277  1.6027
 8715SOL    HW237782   2.974   2.069   5.849 -2.4485  2.1734  0.6477
 8716SOL     OW37783   1.698   0.644  12.404  0.4285  0.3011 -0.1193
 8716SOL    HW137784   1.759   0.603  12.342 -2.2627  0.4832 -2.9066
 8716SOL    HW237785   1.747   0.709  12.454 -2.4506  1.8994  0.6445
 8717SOL     OW37786   4.411   2.680   6.946  0.5002 -0.1968  0.1098
 8717SOL    HW137787   4.452   2.758   6.985 -0.7050  0.9121 -0.8551
 8717SOL    HW237788   4.316   2.686   6.946  0.4786 -0.5323  0.4484
 8718SOL     OW37789   4.304   3.484   8.031  0.5566  0.0869  0.5080
 8718SOL    HW137790   4.337   3.565   8.070  1.1219  0.7208 -1.2561
 8718SOL    HW237791   4.266   3.527   7.953  1.0094 -0.7320 -0.1607
 8719SOL     OW37792   0.246   2.928  10.878 -0.6416 -0.3632  0.4873
 8719SOL    HW137793   0.150   2.930  10.876 -0.6094  0.5017 -0.5974
 8719SOL    HW237794   0.267   2.917  10.785  0.7162 -0.1650  0.7723
 8720SOL     OW37795   4.444   3.956  12.074  0.1159 -0.2864  0.0945
 8720SOL    HW137796   4.434   4.044  12.037 -2.7569 -0.3586  0.7379
 8720SOL    HW237797   4.492   3.971  12.156 -1.6597 -1.7805  1.3835
 8721SOL     OW37798   0.057   2.382   8.886 -0.1675  0.5478  0.0194
 8721SOL    HW137799   0.003   2.411   8.813 -2.1269 -0.0662  1.2215
 8721SOL    HW237800   0.028   2.296   8.915 -0.5007  0.1807 -1.3975
 8722SOL     OW37801   0.310   3.967   2.443  0.1101 -0.4273  0.2069
 8722SOL    HW137802   0.392   4.017   2.438 -0.1097 -0.0951 -0.0690
 8722SOL    HW237803   0.267   3.996   2.523 -0.5699 -2.6583  0.6563
 8723SOL     OW37804   3.522   2.824  12.827  0.3141  0.0388  0.3182
 8723SOL    HW137805   3.454   2.764  12.795 -0.1269  0.2165  0.9164
 8723SOL    HW237806   3.480   2.908  12.845 -0.8204 -0.0356 -1.9967
 8724SOL     OW37807   1.239   4.721   9.796  0.2270 -0.0039 -0.1094
 8724SOL    HW137808   1.159   0.031   9.771 -0.9466 -0.8381  2.1343
 8724SOL    HW237809   1.240   4.715   9.892 -1.7804  0.5711 -0.0538
 8725SOL     OW37810   3.575   3.323  13.112 -0.4888 -0.1249 -0.1066
 8725SOL    HW137811   3.651   3.344  13.166  1.2650 -2.2647 -1.7540
 8725SOL    HW237812   3.573   3.389  13.042 -2.4529  0.2368  0.2717
 8726SOL     OW37813   0.768   3.408   9.082  0.2707  0.1388  0.2610
 8726SOL    HW137814   0.693   3.458   9.049 -0.4143  0.1600  1.8925
 8726SOL    HW237815   0.769   3.337   9.017  0.7923 -0.1076  0.5419
 8727SOL     OW37816   1.659   1.759   2.821 -0.7304 -0.9605  0.5175
 8727SOL    HW137817   1.692   1.689   2.877 -1.9425 -2.1735 -0.2555
 8727SOL    HW237818   1.668   1.833   2.881  1.5085 -1.3859  0.6908
 8728SOL     OW37819   0.975   0.508   2.521  0.4277 -0.2041  0.0985
 8728SOL    HW137820   0.958   0.572   2.589 -1.8075 -1.0072  0.3017
 8728SOL    HW237821   0.891   0.465   2.536  0.2714 -0.0142 -0.2366
 8729SOL     OW37822   4.281   0.237   7.851 -0.6147  0.0473  0.3173
 8729SOL    HW137823   4.296   0.290   7.773 -0.1113 -0.5444  0.0195
 8729SOL    HW237824   4.262   0.305   7.916  1.4671  0.2267  0.7339
 8730SOL     OW37825   3.531   4.493   8.731 -0.8444 -0.6580 -0.7053
 8730SOL    HW137826   3.478   4.455   8.801 -0.7889  1.1773  0.3504
 8730SOL    HW237827   3.555   4.419   8.676  0.5917  0.4440 -1.5561
 8731SOL     OW37828   1.132   2.784  15.221  0.0702  0.2475  0.5318
 8731SOL    HW137829   1.106   2.807  15.132  0.1240  1.2859  0.7859
 8731SOL    HW237830   1.045   2.782  15.260  0.5180  1.3208  1.6068
 8732SOL     OW37831   1.058   3.861   3.712  0.4687  0.3366 -0.1900
 8732SOL    HW137832   1.117   3.843   3.785  0.8166 -0.4932 -0.6737
 8732SOL    HW237833   1.112   3.901   3.644  0.7680 -0.6781 -0.5511
 8733SOL     OW37834   3.519   2.972   4.105  0.0189 -0.7053  0.6064
 8733SOL    HW137835   3.514   2.887   4.148 -1.7788 -1.0005 -0.2069
 8733SOL    HW237836   3.428   2.999   4.115  0.3742  0.2192  1.3676
 8734SOL     OW37837   1.524   2.634   6.491 -0.1013 -0.3659  0.2993
 8734SOL    HW137838   1.449   2.672   6.446  0.3538 -1.4481 -1.3645
 8734SOL    HW237839   1.494   2.611   6.579 -0.1655 -0.5192  0.2378
 8735SOL     OW37840   2.447   3.448   7.917 -0.0948 -0.4928 -0.0528
 8735SOL    HW137841   2.466   3.455   7.823  0.8149  0.4032  0.1945
 8735SOL    HW237842   2.480   3.533   7.946 -1.7243  0.0714  0.1379
 8736SOL     OW37843   0.959   3.043  13.801 -0.2375  0.4186 -0.4918
 8736SOL    HW137844   0.872   3.067  13.832 -0.1524  0.1266 -0.0310
 8736SOL    HW237845   0.973   3.106  13.730  1.0924  1.4102  0.6278
 8737SOL     OW37846   1.916   1.859  12.655 -0.3184 -0.0424  0.0364
 8737SOL    HW137847   1.934   1.820  12.741 -0.1814  2.9817  1.3760
 8737SOL    HW237848   1.995   1.912  12.649 -1.3904  1.3363 -1.8421
 8738SOL     OW37849   1.379   2.706   4.442  0.2758 -0.0954 -0.1693
 8738SOL    HW137850   1.318   2.681   4.511  0.5192 -0.5717 -0.1319
 8738SOL    HW237851   1.354   2.798   4.428 -1.5738 -0.8628 -2.0104
 8739SOL     OW37852   0.713   3.845   3.338  0.1668  0.0274 -0.1611
 8739SOL    HW137853   0.645   3.906   3.309  0.1309  0.6512  1.2719
 8739SOL    HW237854   0.698   3.857   3.432 -1.5440  0.4392 -0.4835
 8740SOL     OW37855   2.312   0.562   9.990 -0.0102 -0.2438  0.1813
 8740SOL    HW137856   2.355   0.539   9.908 -0.9341  1.5467 -0.8241
 8740SOL    HW237857   2.324   0.482  10.040 -0.0715 -0.0186  0.5531
 8741SOL     OW37858   0.487   4.437  14.385  0.3538  0.2351 -0.3356
 8741SOL    HW137859   0.410   4.467  14.435 -0.5092  1.5587 -2.4580
 8741SOL    HW237860   0.449   4.407  14.303 -2.9087  1.9626  0.5334
 8742SOL     OW37861   1.594   0.615   1.001 -0.6527  0.7109 -0.0789
 8742SOL    HW137862   1.673   0.663   0.975  0.6685 -0.5077  1.6190
 8742SOL    HW237863   1.545   0.606   0.919 -1.8037 -2.3695  0.9433
 8743SOL     OW37864   2.480   4.448   0.546 -0.3442  0.3892 -0.8756
 8743SOL    HW137865   2.541   4.414   0.611 -0.8791  0.4710 -0.3180
 8743SOL    HW237866   2.406   4.465   0.605  0.8491 -2.1661  1.3550
 8744SOL     OW37867   2.912   1.091   5.186 -0.0973  0.0638  0.9291
 8744SOL    HW137868   2.897   1.022   5.121 -0.4066 -0.8283  1.9599
 8744SOL    HW237869   2.825   1.099   5.223 -0.7339 -1.0280 -0.3453
 8745SOL     OW37870   1.155   1.334   2.007  0.4563 -0.2832 -0.2645
 8745SOL    HW137871   1.123   1.273   2.075 -0.6418  0.0220 -0.5018
 8745SOL    HW237872   1.232   1.371   2.049  1.6197 -1.3767 -1.4623
 8746SOL     OW37873   2.500   2.352   8.788 -0.0114  0.4879 -0.0661
 8746SOL    HW137874   2.529   2.291   8.857 -1.6786 -0.4845 -0.1913
 8746SOL    HW237875   2.405   2.339   8.781 -0.1378  1.1413  0.3840
 8747SOL     OW37876   1.182   1.831   3.533 -0.6520  0.2358 -0.4472
 8747SOL    HW137877   1.243   1.823   3.460 -1.1696 -0.4637 -0.8007
 8747SOL    HW237878   1.189   1.926   3.532  1.0089  0.1449  1.9777
 8748SOL     OW37879   3.195   2.436   9.465 -0.3928  0.2883 -0.1205
 8748SOL    HW137880   3.282   2.475   9.467 -0.7719  1.0742  0.9725
 8748SOL    HW237881   3.215   2.343   9.459  0.9981  0.3930  2.7574
 8749SOL     OW37882   3.012   2.147   5.424  0.4608  0.0343 -0.5689
 8749SOL    HW137883   3.030   2.066   5.377 -1.6160 -1.3559  1.0429
 8749SOL    HW237884   3.093   2.198   5.415  0.6126  0.1717  1.6291
 8750SOL     OW37885   4.036   2.339   5.736 -0.5476 -0.5456 -0.3876
 8750SOL    HW137886   4.130   2.355   5.739 -0.8624  1.5339 -1.0903
 8750SOL    HW237887   4.009   2.302   5.820 -1.1543  0.0165 -0.3268
 8751SOL     OW37888   2.982   3.212   3.128 -0.5110  0.4358 -0.1359
 8751SOL    HW137889   3.070   3.227   3.093  0.9794 -1.6451  2.6497
 8751SOL    HW237890   2.952   3.303   3.130  2.1960  1.3295  1.3682
 8752SOL     OW37891   1.851   0.271   9.702  0.2956  0.1014 -0.4775
 8752SOL    HW137892   1.878   0.214   9.630  0.8302  1.7221 -1.5461
 8752SOL    HW237893   1.921   0.256   9.765 -0.3439 -0.9846 -0.0266
 8753SOL     OW37894   2.390   1.827   3.463 -0.1252 -0.5508 -0.1529
 8753SOL    HW137895   2.327   1.843   3.393  1.1751  2.2805 -0.6692
 8753SOL    HW237896   2.416   1.735   3.462 -1.0568 -0.8046 -1.9949
 8754SOL     OW37897   1.254   3.883   7.295 -0.2799 -0.9932  0.3405
 8754SOL    HW137898   1.169   3.849   7.268 -0.8156  2.6419 -2.5630
 8754SOL    HW237899   1.232   3.974   7.315  1.0017 -0.4978 -0.4778
 8755SOL     OW37900   3.944   2.428  10.917  0.4813  0.1182  0.0418
 8755SOL    HW137901   3.907   2.340  10.915 -0.9347  0.7138  0.1006
 8755SOL    HW237902   3.986   2.425  11.002 -1.8610 -0.8978  1.1639
 8756SOL     OW37903   2.858   0.725   7.419  0.7919 -0.2725  0.3360
 8756SOL    HW137904   2.867   0.637   7.384  2.4797  0.1700 -0.3280
 8756SOL    HW237905   2.923   0.778   7.373  1.4118  0.1272  1.6603
 8757SOL     OW37906   0.157   3.691   3.768  0.2973 -0.0566 -0.1616
 8757SOL    HW137907   0.198   3.616   3.810 -0.3281 -1.8209 -2.7496
 8757SOL    HW237908   0.193   3.764   3.819  2.8846 -2.3767  1.3519
 8758SOL     OW37909   1.869   3.778   8.153 -0.0685  0.3139  0.2298
 8758SOL    HW137910   1.926   3.795   8.079 -0.9965 -0.4347 -0.6624
 8758SOL    HW237911   1.924   3.715   8.199  1.2197 -1.6055 -3.9825
 8759SOL     OW37912   3.850   2.078  17.178  0.1587  0.0337  0.4745
 8759SOL    HW137913   3.934   2.119  17.199  1.1150 -0.9142 -1.4925
 8759SOL    HW237914   3.789   2.150  17.195  2.1085  1.4858  1.3564
 8760SOL     OW37915   4.105   1.302   6.655 -0.1471 -0.5177 -0.1855
 8760SOL    HW137916   4.180   1.285   6.598 -1.4266 -0.9697 -1.7495
 8760SOL    HW237917   4.131   1.331   6.742  0.8142  1.0533 -0.9811
 8761SOL     OW37918   1.455   4.723   7.304 -0.4300  0.9029  0.0574
 8761SOL    HW137919   1.439   0.030   7.388 -1.3300  0.4933  0.0854
 8761SOL    HW237920   1.551   4.723   7.309 -0.3818 -0.7274 -0.8078
 8762SOL     OW37921   0.904   2.957   6.268  0.5433 -0.2271 -0.6062
 8762SOL    HW137922   0.868   2.890   6.210  1.0588 -0.6461 -0.4435
 8762SOL    HW237923   0.854   2.937   6.347  2.2254  2.7167  1.2199
 8763SOL     OW37924   0.736   3.046   6.736 -0.0947  0.3591 -0.3619
 8763SOL    HW137925   0.655   3.095   6.753 -1.2987 -1.6962 -0.1650
 8763SOL    HW237926   0.790   3.065   6.812 -2.1982 -0.1470  1.2620
 8764SOL     OW37927   2.695   3.232   2.025 -0.3333 -0.0858  0.5224
 8764SOL    HW137928   2.761   3.186   1.974  1.9281  2.6621  0.9851
 8764SOL    HW237929   2.645   3.282   1.961  0.5633  2.1850  1.6022
 8765SOL     OW37930   2.455   2.355   5.109  0.2034  0.2511  0.1230
 8765SOL    HW137931   2.544   2.324   5.094 -0.5196 -1.7579  0.0011
 8765SOL    HW237932   2.402   2.288   5.065  2.4589 -0.0256 -2.2205
 8766SOL     OW37933   1.531   3.457   6.355  0.4111  0.1107  0.1322
 8766SOL    HW137934   1.438   3.434   6.364  0.5823 -1.0992 -1.1526
 8766SOL    HW237935   1.517   3.525   6.420 -0.1658  0.2631 -0.1456
 8767SOL     OW37936   1.924   4.674  15.125  0.2472  0.3692  0.0037
 8767SOL    HW137937   1.873   4.594  15.109 -1.2964  1.7419 -1.9547
 8767SOL    HW237938   1.857   0.007  15.128  1.3061  1.2970  1.9769
 8768SOL     OW37939   4.629   1.220  12.161 -0.4187  0.3880  0.4317
 8768SOL    HW137940   4.675   1.136  12.158 -0.2410  0.4703  0.8779
 8768SOL    HW237941   4.580   1.210  12.079  0.6102  0.5159 -0.2112
 8769SOL     OW37942   4.008   1.678   9.050 -0.1687  0.7183 -0.2201
 8769SOL    HW137943   3.958   1.737   8.994 -0.0243 -0.2055 -1.3342
 8769SOL    HW237944   4.043   1.622   8.981 -1.3961  1.8428 -1.7687
 8770SOL     OW37945   0.695   2.196   7.186  0.3097  0.1289  0.2600
 8770SOL    HW137946   0.723   2.230   7.271  1.1125  0.4330 -0.1239
 8770SOL    HW237947   0.732   2.271   7.139 -1.4827  0.8372 -0.0054
 8771SOL     OW37948   3.807   0.904   0.075 -0.0440  0.2129  0.0370
 8771SOL    HW137949   3.828   0.811   0.066 -0.5192  0.1989 -1.0038
 8771SOL    HW237950   3.893   0.941   0.054 -0.0014 -0.2896 -0.6832
 8772SOL     OW37951   1.833   4.477   2.444  0.3077  0.0245  0.7342
 8772SOL    HW137952   1.905   4.414   2.452 -0.8489 -1.1349  2.1679
 8772SOL    HW237953   1.856   4.519   2.362 -1.0348  2.5483  1.6335
 8773SOL     OW37954   3.922   2.253   3.342  0.3088 -0.3543  0.0341
 8773SOL    HW137955   3.880   2.185   3.289  2.2308 -0.6668 -1.0904
 8773SOL    HW237956   3.886   2.231   3.429 -0.0838 -1.6757 -0.4645
 8774SOL     OW37957   1.667   2.310   4.604 -0.0310  0.2987 -0.1990
 8774SOL    HW137958   1.730   2.343   4.668 -0.9807 -0.3823  1.0681
 8774SOL    HW237959   1.620   2.391   4.587  0.1019  0.4377  0.1039
 8775SOL     OW37960   2.444   3.831   9.248  0.0485 -0.3564  0.4018
 8775SOL    HW137961   2.361   3.783   9.240 -0.2881  0.0653  1.3939
 8775SOL    HW237962   2.486   3.779   9.317  2.9310  1.9983  0.4337
 8776SOL     OW37963   3.100   4.090   0.100  1.0643 -0.0112 -0.1929
 8776SOL    HW137964   3.070   4.180   0.094 -1.6922 -0.8751  0.7089
 8776SOL    HW237965   3.040   4.046   0.161 -0.8234  0.5493 -1.6474
 8777SOL     OW37966   2.775   4.286  11.059 -0.8340 -0.2650 -0.0042
 8777SOL    HW137967   2.702   4.256  11.113 -0.1274 -2.5188 -0.2937
 8777SOL    HW237968   2.777   4.382  11.060  0.1205 -0.3031  1.0253
 8778SOL     OW37969   0.068   3.873  10.039 -0.1289 -0.0237  0.2835
 8778SOL    HW137970   0.021   3.846  10.118 -1.7877 -1.2227 -1.1289
 8778SOL    HW237971   0.150   3.913  10.069 -0.7227  1.1118  0.3761
 8779SOL     OW37972   3.938   3.710  10.011  0.2622  0.2208  0.4265
 8779SOL    HW137973   3.992   3.643  10.053  0.9481 -0.1475 -1.0384
 8779SOL    HW237974   4.003   3.778   9.993  0.2193  0.3750  0.8589
 8780SOL     OW37975   1.509   2.124   2.297 -0.7100 -0.6670 -0.2894
 8780SOL    HW137976   1.596   2.115   2.258 -0.0484 -2.1290  1.5522
 8780SOL    HW237977   1.524   2.206   2.344  0.0102 -0.5251 -0.7795
 8781SOL     OW37978   2.034   3.879   4.831 -0.0504 -0.7654 -0.3084
 8781SOL    HW137979   1.964   3.817   4.850 -0.9296  0.9445  2.1443
 8781SOL    HW237980   1.986   3.958   4.808 -1.0875 -0.6483  2.2050
 8782SOL     OW37981   3.531   3.073  12.047  0.0340 -0.2728  0.3806
 8782SOL    HW137982   3.588   3.001  12.074  0.3926  0.7206  2.2096
 8782SOL    HW237983   3.590   3.101  11.976  0.7371  0.2544  1.1704
 8783SOL     OW37984   0.647   4.337  13.519  0.6381 -0.2299  0.2327
 8783SOL    HW137985   0.588   4.280  13.471 -0.0722 -0.2687  1.1426
 8783SOL    HW237986   0.592   4.347  13.597  0.1727 -2.0889  0.1236
 8784SOL     OW37987   1.084   3.255   7.751  0.3028  0.3728  0.3922
 8784SOL    HW137988   1.078   3.256   7.656 -2.0950 -1.6288  0.5467
 8784SOL    HW237989   1.096   3.163   7.772  0.4003  0.4793  0.8134
 8785SOL     OW37990   0.140   1.365   4.736  0.2035 -0.2885  0.3392
 8785SOL    HW137991   0.073   1.430   4.759  0.7731  0.1140  0.8724
 8785SOL    HW237992   0.106   1.297   4.794  1.8646 -0.4078  1.1664
 8786SOL     OW37993   2.645   2.595   2.145  0.7168  0.2617  0.7772
 8786SOL    HW137994   2.659   2.598   2.239 -0.4171  2.6976  0.8351
 8786SOL    HW237995   2.661   2.502   2.128 -1.1735 -0.3131  2.1531
 8787SOL     OW37996   1.464   3.359  17.331  0.1543  0.3763 -0.1689
 8787SOL    HW137997   1.557   3.375  17.348 -0.1989  0.5068  1.5725
 8787SOL    HW237998   1.453   3.415  17.253 -0.0152 -0.9076 -1.0667
 8788SOL     OW37999   0.251   3.649   1.852 -0.0495  0.4031 -0.2515
 8788SOL    HW138000   0.222   3.692   1.771  1.0165  1.5150 -0.0356
 8788SOL    HW238001   0.175   3.593   1.864 -0.9455  1.9836  1.3970
 8789SOL     OW38002   3.756   4.471   4.380 -0.0608 -0.2065  0.1389
 8789SOL    HW138003   3.746   4.561   4.408  0.5795 -0.2579  0.5400
 8789SOL    HW238004   3.667   4.467   4.346  0.0428  0.8623 -0.2392
 8790SOL     OW38005   2.435   1.946   6.689  0.1576  0.2027  0.3389
 8790SOL    HW138006   2.484   1.872   6.654 -0.9489 -0.4397  0.1522
 8790SOL    HW238007   2.432   1.924   6.782 -0.5100  0.4318  0.3716
 8791SOL     OW38008   4.581   3.916   1.921 -0.3043 -0.4721 -0.2272
 8791SOL    HW138009   4.656   3.864   1.950  1.0456  2.2537  1.2371
 8791SOL    HW238010   4.545   3.956   2.000 -1.9206  1.7243 -2.0516
 8792SOL     OW38011   0.280   0.065  15.194 -0.3383  0.3248 -0.7080
 8792SOL    HW138012   0.336   4.725  15.209  1.4187  1.8384  0.3406
 8792SOL    HW238013   0.346   0.134  15.191 -0.5502  0.5063 -1.1679
 8793SOL     OW38014   4.266   2.679   2.226  0.1092  0.6173 -1.0037
 8793SOL    HW138015   4.324   2.748   2.258 -0.3497  0.7079 -0.3659
 8793SOL    HW238016   4.261   2.621   2.303  0.5647 -0.7665 -2.0205
 8794SOL     OW38017   1.792   4.333   5.307 -0.0141  0.5058  0.1843
 8794SOL    HW138018   1.784   4.406   5.246 -0.6089  0.8753  0.7112
 8794SOL    HW238019   1.736   4.359   5.380  0.5011 -2.5149  1.6342
 8795SOL     OW38020   2.576   0.643   6.588  0.0784  0.6945 -0.2371
 8795SOL    HW138021   2.517   0.662   6.516 -2.3856 -1.1040  1.3325
 8795SOL    HW238022   2.665   0.643   6.553  0.7245  0.2237  1.3802
 8796SOL     OW38023   2.278   2.211   4.929  0.4273  0.1185  0.4032
 8796SOL    HW138024   2.222   2.257   4.991 -0.4233 -2.5135  1.6230
 8796SOL    HW238025   2.216   2.162   4.874  1.4047 -1.4036  0.6635
 8797SOL     OW38026   3.266   3.462   1.973 -0.1539 -0.3800  0.7370
 8797SOL    HW138027   3.236   3.421   1.893  1.2064  0.8356 -0.4063
 8797SOL    HW238028   3.199   3.446   2.039 -1.7641 -1.3523 -1.1751
 8798SOL     OW38029   0.064   4.458   9.245 -0.1075 -0.2233 -0.2141
 8798SOL    HW138030   0.146   4.499   9.269 -0.2733 -0.6830  1.1388
 8798SOL    HW238031   0.092   4.417   9.163 -0.7560 -2.8030  0.8610
 8799SOL     OW38032   2.542   1.780  10.766  0.1949 -0.1809 -0.0253
 8799SOL    HW138033   2.628   1.810  10.737  0.5089 -0.8236  0.2381
 8799SOL    HW238034   2.518   1.720  10.696  1.2003 -1.4472  0.7244
 8800SOL     OW38035   3.905   3.985   3.061  0.1840  0.3192  0.3931
 8800SOL    HW138036   3.963   3.967   3.135 -0.1680  1.7596  1.0199
 8800SOL    HW238037   3.964   3.964   2.988 -0.8459 -0.1434 -0.3083
 8801SOL     OW38038   1.975   3.520   0.490 -0.3701  0.4878 -0.5658
 8801SOL    HW138039   1.981   3.602   0.539 -1.6102 -0.0866  0.5572
 8801SOL    HW238040   1.884   3.516   0.460  0.1383  0.9319 -2.1514
 8802SOL     OW38041   4.398   2.377   2.136  0.0402 -0.2173 -0.0292
 8802SOL    HW138042   4.434   2.440   2.073  0.3565 -0.6600 -0.2922
 8802SOL    HW238043   4.457   2.302   2.134  0.7055  0.2914  0.2746
 8803SOL     OW38044   3.376   3.393   2.740 -0.5770  0.3914  0.2135
 8803SOL    HW138045   3.421   3.409   2.823  1.2471  2.1229 -1.1188
 8803SOL    HW238046   3.325   3.474   2.735 -1.3090  0.0090  1.4053
 8804SOL     OW38047   0.923   3.267   0.130  0.0105 -0.0391 -0.2277
 8804SOL    HW138048   0.997   3.287   0.073 -0.7065  1.7414 -0.5372
 8804SOL    HW238049   0.856   3.324   0.091  0.2334  1.7352  1.9790
 8805SOL     OW38050   1.060   4.387  15.446  0.5301  0.1390 -0.5367
 8805SOL    HW138051   1.044   4.322  15.377  1.4334 -0.4047 -0.2348
 8805SOL    HW238052   1.083   4.464  15.395 -0.9875 -0.3704 -1.9946
 8806SOL     OW38053   4.425   3.023   1.815 -0.1508 -0.8315 -0.5392
 8806SOL    HW138054   4.420   2.933   1.782 -0.7095 -1.4987  1.3623
 8806SOL    HW238055   4.519   3.040   1.816 -0.0738 -1.2907 -0.1500
 8807SOL     OW38056   1.287   3.433  16.194 -0.3740  0.2849  0.1469
 8807SOL    HW138057   1.266   3.351  16.238  0.0057  0.2460  0.2553
 8807SOL    HW238058   1.380   3.431  16.212  0.0563  1.6596 -1.8418
 8808SOL     OW38059   2.235   1.823   7.474  0.1195  0.1580 -0.3148
 8808SOL    HW138060   2.296   1.896   7.475 -0.8104  0.9724 -3.4436
 8808SOL    HW238061   2.297   1.765   7.428 -0.3065  0.2802 -1.0387
 8809SOL     OW38062   3.710   2.447   6.998 -0.0844 -0.3293 -0.5066
 8809SOL    HW138063   3.728   2.429   6.906  0.4919 -0.0893 -0.4389
 8809SOL    HW238064   3.627   2.494   6.996 -0.6837 -1.3899 -0.6355
 8810SOL     OW38065   0.143   3.816  10.643 -0.2450 -0.3807 -0.2383
 8810SOL    HW138066   0.165   3.884  10.706 -0.6427 -0.9142  0.4732
 8810SOL    HW238067   0.193   3.739  10.669  1.0349  0.1800 -0.9887
 8811SOL     OW38068   0.482   0.036   6.939 -0.4923 -0.4087 -0.6405
 8811SOL    HW138069   0.547   0.096   6.903  1.7395 -1.7259  1.1641
 8811SOL    HW238070   0.419   0.091   6.984  0.1298 -1.7324  1.8845
 8812SOL     OW38071   3.264   1.204   2.623  0.1349 -0.5187 -0.1522
 8812SOL    HW138072   3.297   1.293   2.611 -0.9669  0.0495  0.9899
 8812SOL    HW238073   3.222   1.199   2.709 -1.0929 -0.5993 -0.7443
 8813SOL     OW38074   1.631   2.196   8.480 -0.3692 -0.7578 -0.3239
 8813SOL    HW138075   1.557   2.171   8.424  0.1143 -0.1831 -1.2131
 8813SOL    HW238076   1.590   2.229   8.560  0.8945  0.8633 -0.3566
 8814SOL     OW38077   2.378   1.648   5.470 -0.1561  0.1665  0.0972
 8814SOL    HW138078   2.383   1.567   5.419 -1.4455  0.5448 -0.6249
 8814SOL    HW238079   2.411   1.610   5.552  0.8292  0.9245  0.0569
 8815SOL     OW38080   4.480   4.141   1.464  0.0928  0.2143 -0.0215
 8815SOL    HW138081   4.413   4.162   1.529 -0.6026  1.1364 -1.0340
 8815SOL    HW238082   4.553   4.120   1.523 -1.5573  0.7164  2.2219
 8816SOL     OW38083   2.292   1.820  12.763 -0.3740  0.5397 -1.0054
 8816SOL    HW138084   2.357   1.750  12.757  0.2410  1.0693 -0.5972
 8816SOL    HW238085   2.213   1.769  12.747 -0.1585  0.0206 -0.4078
 8817SOL     OW38086   1.282   0.803   0.781 -0.1754 -0.0534 -0.0257
 8817SOL    HW138087   1.241   0.887   0.801  0.5367  0.1439  0.5636
 8817SOL    HW238088   1.299   0.831   0.691 -2.3549 -0.1173 -0.4678
 8818SOL     OW38089   1.423   4.683   2.009 -0.1748  0.4608  0.4022
 8818SOL    HW138090   1.378   4.638   1.938  1.3890  2.3516 -1.7920
 8818SOL    HW238091   1.437   0.034   1.971  3.1887  0.9580  2.7370
 8819SOL     OW38092   1.612   4.582  10.106 -0.0353 -0.0350  0.3254
 8819SOL    HW138093   1.584   4.559  10.018  0.7450 -5.3106  1.4827
 8819SOL    HW238094   1.707   4.585  10.096 -0.1446  2.5553  0.0278
 8820SOL     OW38095   2.459   2.099  17.496 -0.1272  0.2642  0.4752
 8820SOL    HW138096   2.485   2.058  17.413  1.4586 -2.2034  2.1560
 8820SOL    HW238097   2.540   2.079  17.544  0.5561 -0.7112 -1.0752
 8821SOL     OW38098   3.476   4.201  16.365  0.3562  0.0131  0.3208
 8821SOL    HW138099   3.412   4.142  16.405 -0.1928  0.0276 -0.5391
 8821SOL    HW238100   3.507   4.147  16.292 -0.9796 -0.8809  0.4350
 8822SOL     OW38101   1.773   3.655   2.361 -0.5090 -0.0812 -0.2275
 8822SOL    HW138102   1.691   3.698   2.386 -0.8947 -0.0817 -1.4473
 8822SOL    HW238103   1.758   3.635   2.268  1.2369  1.6477 -0.8862
 8823SOL     OW38104   3.043   4.398   5.756 -0.3576 -0.2140 -0.2779
 8823SOL    HW138105   2.984   4.416   5.830 -0.3939 -0.4616 -0.2469
 8823SOL    HW238106   3.106   4.342   5.801  0.6051  1.2243  0.1686
 8824SOL     OW38107   2.800   2.393  11.497  0.6662  0.2421  0.4634
 8824SOL    HW138108   2.825   2.441  11.577 -3.2750  0.3347  1.6153
 8824SOL    HW238109   2.715   2.433  11.484  0.7291  0.0062 -0.6803
 8825SOL     OW38110   2.521   4.407   5.704  0.0300 -0.5305 -0.1004
 8825SOL    HW138111   2.463   4.331   5.713 -1.2606  0.2063 -2.2418
 8825SOL    HW238112   2.577   4.381   5.777 -0.4110 -0.0542  0.4150
 8826SOL     OW38113   2.097   1.094  12.996  0.8469  0.1722 -0.1433
 8826SOL    HW138114   2.109   1.144  12.915 -2.2418 -1.1216 -1.3985
 8826SOL    HW238115   2.062   1.161  13.054  0.6966 -0.7609  0.8387
 8827SOL     OW38116   3.956   4.239  16.598 -0.1494  0.6449 -0.0648
 8827SOL    HW138117   3.936   4.153  16.562 -0.7207  0.2702  1.1241
 8827SOL    HW238118   3.920   4.292  16.526 -1.3021 -0.1684 -0.0812
 8828SOL     OW38119   0.291   2.479   2.139  0.3282 -0.1658  0.3484
 8828SOL    HW138120   0.305   2.514   2.227  1.3746  0.7564 -0.1813
 8828SOL    HW238121   0.376   2.492   2.097  0.6935 -1.8645  0.5578
 8829SOL     OW38122   4.600   3.615   6.803  0.1669  0.2726  0.1381
 8829SOL    HW138123   4.545   3.676   6.853 -1.0244 -1.1469  0.5532
 8829SOL    HW238124   4.560   3.619   6.716 -1.1574 -0.1772  0.7125
 8830SOL     OW38125   3.627   4.332   1.926 -0.2898 -0.0252  0.6116
 8830SOL    HW138126   3.669   4.412   1.959  0.3595  0.5217 -1.5547
 8830SOL    HW238127   3.682   4.313   1.850 -1.3451 -1.2684  0.1550
 8831SOL     OW38128   1.615   0.099   2.411 -0.0634 -0.7650  0.1526
 8831SOL    HW138129   1.665   0.021   2.387 -1.1148 -1.0815 -1.0287
 8831SOL    HW238130   1.545   0.102   2.346 -0.8824 -1.2979  0.9983
 8832SOL     OW38131   0.090   0.830   3.679  0.8168  0.0803 -0.4761
 8832SOL    HW138132   0.164   0.771   3.668  0.2001 -0.7532 -0.1270
 8832SOL    HW238133   0.119   0.890   3.749  2.1953 -0.5026 -0.5585
 8833SOL     OW38134   1.186   1.785   4.501 -0.2336 -0.1867 -0.2881
 8833SOL    HW138135   1.167   1.696   4.531  2.6519 -1.0198 -0.9459
 8833SOL    HW238136   1.236   1.757   4.424  0.2183 -0.6449  0.1799
 8834SOL     OW38137   4.565   3.877  16.040  0.2613  0.1159  0.5685
 8834SOL    HW138138   4.504   3.951  16.048 -0.6184 -0.4603 -0.7564
 8834SOL    HW238139   4.505   3.805  16.018 -1.1531  1.2617  0.6270
 8835SOL     OW38140   2.827   3.615   9.858 -0.2194 -0.6404  0.1117
 8835SOL    HW138141   2.765   3.633   9.929 -0.3155 -0.9822  0.1108
 8835SOL    HW238142   2.788   3.533   9.829  0.3110 -0.0257 -2.3456
 8836SOL     OW38143   2.266   1.073  15.220 -0.1188 -0.2785  0.3612
 8836SOL    HW138144   2.176   1.104  15.228  0.1767  0.1999  1.7226
 8836SOL    HW238145   2.295   1.089  15.309  2.6097  1.5093 -0.8435
 8837SOL     OW38146   1.647   1.146   3.156 -0.0928  0.4539 -0.4855
 8837SOL    HW138147   1.718   1.084   3.137 -1.8634 -1.6926 -0.1334
 8837SOL    HW238148   1.599   1.090   3.217  1.6876  0.7889  1.2181
 8838SOL     OW38149   3.611   0.786   6.474  0.2176  0.2416  0.1454
 8838SOL    HW138150   3.609   0.758   6.382 -0.5979 -1.0556  0.5651
 8838SOL    HW238151   3.529   0.837   6.474 -0.6448 -1.1496 -0.7157
 8839SOL     OW38152   0.332   3.139   2.963 -0.0998  0.2631  0.2667
 8839SOL    HW138153   0.245   3.126   3.002 -0.4390  0.8999 -0.2737
 8839SOL    HW238154   0.368   3.200   3.027  1.4975 -0.5520  0.1306
 8840SOL     OW38155   2.012   3.280   3.100 -0.3411  0.2817 -0.1421
 8840SOL    HW138156   1.993   3.230   3.180  0.3396  1.5326  0.7972
 8840SOL    HW238157   2.035   3.201   3.051  1.6432  0.6037  0.2541
 8841SOL     OW38158   2.368   1.739  10.529 -0.0629 -0.3396 -0.3089
 8841SOL    HW138159   2.276   1.739  10.501  0.6682 -0.4954 -2.7195
 8841SOL    HW238160   2.410   1.777  10.452 -0.5358  2.4646  0.8041
 8842SOL     OW38161   4.113   4.491  11.512  0.4618 -0.0612 -0.6346
 8842SOL    HW138162   4.172   4.424  11.547  0.5390 -0.2336 -1.0960
 8842SOL    HW238163   4.167   4.502  11.433  1.6360 -0.2714  0.1333
 8843SOL     OW38164   3.728   0.529   1.700 -0.9180  0.1117  0.2225
 8843SOL    HW138165   3.772   0.457   1.745 -1.9081  0.1891  1.3120
 8843SOL    HW238166   3.785   0.560   1.629  1.3191 -3.8053  0.2872
 8844SOL     OW38167   1.141   2.550  15.392  0.2121  0.1271  0.2451
 8844SOL    HW138168   1.144   2.638  15.353  0.0077  0.1956  0.3805
 8844SOL    HW238169   1.219   2.512  15.351  1.0635  1.6095  0.4870
 8845SOL     OW38170   2.974   1.945  12.103  0.0860 -0.2551 -0.8191
 8845SOL    HW138171   2.952   1.980  12.190 -0.2782 -0.3290 -0.8835
 8845SOL    HW238172   2.891   1.962  12.060 -0.9374 -0.8395  0.8870
 8846SOL     OW38173   4.286   1.261   7.994 -0.2417  0.3123  0.1478
 8846SOL    HW138174   4.375   1.283   7.966 -0.8013  1.4793 -0.6653
 8846SOL    HW238175   4.307   1.177   8.034 -0.0829 -0.6666 -2.0043
 8847SOL     OW38176   0.370   1.539  15.785  0.1033  0.0155  0.1371
 8847SOL    HW138177   0.300   1.519  15.723  0.1947  1.5749 -0.4799
 8847SOL    HW238178   0.327   1.583  15.858  1.1938  0.8805  0.2644
 8848SOL     OW38179   2.705   0.807   7.611 -0.2669 -0.4416  0.1863
 8848SOL    HW138180   2.773   0.778   7.551 -1.0777 -0.2228 -0.8380
 8848SOL    HW238181   2.638   0.739   7.605  0.0821 -0.5959 -1.8142
 8849SOL     OW38182   3.547   2.220   6.747  0.0391  0.1658  0.0493
 8849SOL    HW138183   3.460   2.246   6.719 -0.7197  0.1839  2.3667
 8849SOL    HW238184   3.512   2.158   6.811  0.0671  1.0951  0.9763
 8850SOL     OW38185   2.647   1.638   4.751 -0.7904 -0.5546  0.7858
 8850SOL    HW138186   2.556   1.653   4.727 -0.1171  1.1000 -0.7212
 8850SOL    HW238187   2.669   1.565   4.693 -1.5621 -0.6103  0.5724
 8851SOL     OW38188   2.150   1.925   6.663  0.0350  0.6462 -0.0100
 8851SOL    HW138189   2.111   2.012   6.669 -1.6856 -0.0854 -0.5038
 8851SOL    HW238190   2.244   1.940   6.671  0.5706 -2.5322 -0.4872
 8852SOL     OW38191   4.353   3.543   7.046  0.4295  0.0459  0.2813
 8852SOL    HW138192   4.353   3.638   7.036 -2.0790  0.1300  1.1187
 8852SOL    HW238193   4.334   3.508   6.958 -0.6788  0.8300  0.2228
 8853SOL     OW38194   0.603   1.134   9.470 -0.0851 -0.3768 -0.0558
 8853SOL    HW138195   0.524   1.080   9.475  0.9233 -1.7265  1.5889
 8853SOL    HW238196   0.555   1.216   9.481  1.1462 -0.1228  3.4035
 8854SOL     OW38197   0.849   4.455   6.421  0.2978  0.3084 -0.0572
 8854SOL    HW138198   0.787   4.486   6.354 -0.3776  1.1079  0.9320
 8854SOL    HW238199   0.812   4.497   6.498  0.5146 -1.1822  0.8623
 8855SOL     OW38200   2.335   0.768   9.340 -0.5047  0.4540  0.2230
 8855SOL    HW138201   2.304   0.682   9.309 -1.3793  1.3494 -1.4207
 8855SOL    HW238202   2.320   0.763   9.434 -1.0523  1.2589  0.1814
 8856SOL     OW38203   0.867   4.453  11.796 -0.5115  0.1635 -0.0837
 8856SOL    HW138204   0.897   4.363  11.780  0.1845  0.4680 -0.5095
 8856SOL    HW238205   0.950   4.498  11.812 -0.8165  0.2770  1.1581
 8857SOL     OW38206   3.585   2.659   5.946  0.1597  1.0157 -0.1495
 8857SOL    HW138207   3.520   2.645   6.015  1.5273  0.5385  1.0399
 8857SOL    HW238208   3.598   2.753   5.957 -0.3627  1.0602  0.0670
 8858SOL     OW38209   4.194   2.879  11.996 -0.5339  0.0165 -0.4163
 8858SOL    HW138210   4.222   2.821  12.067  0.7955 -0.6880 -1.5135
 8858SOL    HW238211   4.128   2.828  11.950 -1.7270 -2.2392  3.7956
 8859SOL     OW38212   2.990   0.890   7.892  0.6824  0.2509 -0.5731
 8859SOL    HW138213   3.031   0.965   7.935 -0.3950 -0.1332  1.1400
 8859SOL    HW238214   2.923   0.935   7.841  1.9236  0.5215 -1.9654
 8860SOL     OW38215   3.695   3.183   4.224 -0.0832 -0.1067 -0.3176
 8860SOL    HW138216   3.745   3.218   4.151 -1.9092 -0.3424 -1.6740
 8860SOL    HW238217   3.633   3.123   4.184  1.5148 -0.7807 -1.7548
 8861SOL     OW38218   1.127   4.438   4.022 -0.1447  0.1950 -0.3745
 8861SOL    HW138219   1.108   4.345   4.016  1.7790 -0.4062  3.4043
 8861SOL    HW238220   1.065   4.464   4.091 -2.5326 -2.2096 -1.5952
 8862SOL     OW38221   3.557   1.232   5.429  0.1076 -0.5986 -0.8574
 8862SOL    HW138222   3.592   1.242   5.340  0.0087  1.1877 -0.6981
 8862SOL    HW238223   3.522   1.143   5.420 -0.9597 -0.5746  3.0352
 8863SOL     OW38224   1.151   4.596   2.929  0.3127  0.3341 -0.3460
 8863SOL    HW138225   1.211   4.606   3.003 -2.0680  0.0345  1.5883
 8863SOL    HW238226   1.139   4.501   2.931  1.3627  0.2157  0.2295
 8864SOL     OW38227   3.872   1.851   8.893 -0.1648 -0.0472 -0.6692
 8864SOL    HW138228   3.892   1.887   8.807  1.3143  0.8535  0.0526
 8864SOL    HW238229   3.838   1.923   8.945  1.4450 -1.2641  2.0826
 8865SOL     OW38230   2.808   2.198  13.441 -0.0390  0.0149  0.6205
 8865SOL    HW138231   2.799   2.126  13.379 -1.9249  0.0828  0.7995
 8865SOL    HW238232   2.879   2.252  13.406 -1.7232  2.3372  0.7832
 8866SOL     OW38233   2.240   2.201  17.283  0.6764  0.5132  0.2456
 8866SOL    HW138234   2.196   2.140  17.342 -0.8708  2.6568  1.2556
 8866SOL    HW238235   2.263   2.271  17.344 -0.1550  0.5198  0.5370
 8867SOL     OW38236   2.927   0.940   3.712 -0.4177 -0.1750  0.0102
 8867SOL    HW138237   2.925   0.861   3.658  3.7529  0.2180 -0.7670
 8867SOL    HW238238   2.839   0.936   3.749 -0.1751 -0.9873  0.4888
 8868SOL     OW38239   1.796   3.104   8.020  0.1739  0.4069  0.5523
 8868SOL    HW138240   1.853   3.139   8.089  1.1326 -0.1720  0.0577
 8868SOL    HW238241   1.731   3.170   7.996 -2.3032 -2.0867  0.4520
 8869SOL     OW38242   0.372   3.695  10.894  0.6577 -0.8388  0.1891
 8869SOL    HW138243   0.333   3.642  10.825 -0.6336  2.0261 -1.2619
 8869SOL    HW238244   0.302   3.700  10.959 -1.4972 -1.5984 -2.0734
 8870SOL     OW38245   0.463   2.269  15.151 -0.3155  0.4333  0.4892
 8870SOL    HW138246   0.517   2.314  15.216  0.4828 -0.2937  0.3361
 8870SOL    HW238247   0.500   2.309  15.073 -1.2460  0.1968 -0.0715
 8871SOL     OW38248   3.883   2.993   8.774  0.1406  0.1040 -0.4246
 8871SOL    HW138249   3.937   2.985   8.852  0.7423  1.1059 -0.7445
 8871SOL    HW238250   3.892   2.908   8.730 -1.1226 -0.6005  0.6360
 8872SOL     OW38251   1.354   2.979   1.651  0.4933 -0.0690  0.4662
 8872SOL    HW138252   1.334   2.887   1.666  0.0088  0.3474  2.3668
 8872SOL    HW238253   1.264   3.007   1.637  0.9352  1.2080  0.2249
 8873SOL     OW38254   3.240   2.482  10.294  0.3211  0.0492 -0.1180
 8873SOL    HW138255   3.258   2.456  10.385  0.7666 -0.5431 -0.3731
 8873SOL    HW238256   3.298   2.559  10.297  1.2411 -0.5803 -1.7193
 8874SOL     OW38257   2.325   4.307   6.903 -0.0579 -0.2169 -0.5683
 8874SOL    HW138258   2.241   4.353   6.912  1.8202  2.2623  4.3643
 8874SOL    HW238259   2.318   4.249   6.827 -1.0163  0.8786 -1.3065
 8875SOL     OW38260   1.452   2.898   1.213 -0.2302 -0.2260 -0.4460
 8875SOL    HW138261   1.543   2.875   1.233  0.0387  1.6771  0.5415
 8875SOL    HW238262   1.441   2.989   1.241 -0.0096 -0.5553  0.7036
 8876SOL     OW38263   1.384   4.487  10.231 -0.0218  0.3275  0.4682
 8876SOL    HW138264   1.394   4.422  10.301 -0.1416 -0.2906 -0.0961
 8876SOL    HW238265   1.469   4.525  10.210 -0.3162 -0.0892 -1.4534
 8877SOL     OW38266   1.101   1.471   4.118  0.0080  0.1196 -0.0424
 8877SOL    HW138267   1.177   1.434   4.162 -1.2018 -0.0563  1.8761
 8877SOL    HW238268   1.110   1.426   4.033  0.4450  0.1977 -0.0395
 8878SOL     OW38269   2.033   4.211   8.263  0.4598 -0.3053  0.3643
 8878SOL    HW138270   2.116   4.169   8.288  0.7527 -0.7057 -1.2744
 8878SOL    HW238271   2.018   4.174   8.176 -0.5548  2.2369 -0.5234
 8879SOL     OW38272   3.456   3.664   5.953 -0.5066  0.0977  0.2655
 8879SOL    HW138273   3.550   3.674   5.941 -0.6079  1.8353  0.9276
 8879SOL    HW238274   3.452   3.569   5.964  0.3332  0.1948  1.5362
 8880SOL     OW38275   3.449   2.496   2.620  0.5597 -0.2149 -0.5591
 8880SOL    HW138276   3.457   2.570   2.681  1.7329 -0.6892 -0.1419
 8880SOL    HW238277   3.385   2.443   2.668  2.0745 -0.2778  1.4107
 8881SOL     OW38278   2.651   2.577   6.017  0.6508  0.3757 -0.5514
 8881SOL    HW138279   2.667   2.483   6.014  3.0007  0.8216 -2.6791
 8881SOL    HW238280   2.656   2.604   5.925 -1.1430  1.5668 -0.2968
 8882SOL     OW38281   3.183   2.260   8.046  0.9230  0.5947 -0.3236
 8882SOL    HW138282   3.133   2.307   8.113 -2.3625 -2.1437 -0.8581
 8882SOL    HW238283   3.149   2.307   7.969  1.1750  1.9058  0.3554
 8883SOL     OW38284   2.070   1.376  15.699 -0.6375 -0.3614 -0.6139
 8883SOL    HW138285   2.094   1.407  15.786  2.7329 -1.2432 -1.2451
 8883SOL    HW238286   2.025   1.293  15.715  2.2458 -1.8274 -0.1503
 8884SOL     OW38287   4.355   2.526   3.833  0.1002  0.5621 -0.0269
 8884SOL    HW138288   4.391   2.446   3.796  0.1305  0.5892 -0.0559
 8884SOL    HW238289   4.432   2.558   3.879  1.7057  2.1681 -3.8164
 8885SOL     OW38290   4.661   4.550   7.533  0.3790 -0.1274 -0.2488
 8885SOL    HW138291   0.011   4.571   7.570  0.6328 -4.9398  1.8492
 8885SOL    HW238292   4.630   4.640   7.535  2.2001  0.4933  0.0225
 8886SOL     OW38293   2.445   1.422  10.247 -0.0514 -0.1188 -0.4296
 8886SOL    HW138294   2.494   1.497  10.212  1.1683 -0.9823 -0.5933
 8886SOL    HW238295   2.361   1.464  10.229  0.2842  0.5965 -0.3041
 8887SOL     OW38296   2.177   1.161   5.333 -0.4141 -0.5295  0.4876
 8887SOL    HW138297   2.240   1.186   5.265 -1.6189  0.9021 -0.1250
 8887SOL    HW238298   2.229   1.137   5.409 -1.6078  0.9137  1.7594
 8888SOL     OW38299   4.477   3.946  12.935  0.2433 -0.0379  0.4489
 8888SOL    HW138300   4.572   3.958  12.935  0.3228 -0.6699 -0.8848
 8888SOL    HW238301   4.456   3.949  13.028  0.9808  0.4025  0.6039
 8889SOL     OW38302   4.237   0.932   0.976 -0.1519  0.2045 -0.2761
 8889SOL    HW138303   4.205   0.887   0.898  0.2175 -1.3490  0.4881
 8889SOL    HW238304   4.243   0.863   1.041 -1.5434  0.2768 -0.0772
 8890SOL     OW38305   1.241   2.671   2.254 -0.1447 -0.1894  0.2734
 8890SOL    HW138306   1.186   2.660   2.331 -2.8087 -0.4482 -1.6967
 8890SOL    HW238307   1.270   2.762   2.261  2.1537 -0.7925 -1.1317
 8891SOL     OW38308   4.673   4.142   5.421 -0.6843 -0.2112  0.2861
 8891SOL    HW138309   4.673   4.173   5.512 -1.6850  0.1852  0.1541
 8891SOL    HW238310   4.651   4.227   5.383  0.3988  0.1274  0.4236
 8892SOL     OW38311   0.645   1.041   7.662  0.8574  0.4094 -0.3513
 8892SOL    HW138312   0.567   0.999   7.624  0.2367  0.0982  1.2388
 8892SOL    HW238313   0.604   1.071   7.743  1.1094 -0.2835  0.0385
 8893SOL     OW38314   3.063   1.175  16.824 -0.4361  0.0667 -0.0048
 8893SOL    HW138315   3.104   1.094  16.793  1.4265  0.5388  1.2169
 8893SOL    HW238316   3.127   1.216  16.882 -0.3467  1.4766 -1.1294
 8894SOL     OW38317   3.203   3.600   4.914 -0.2140 -0.2788  0.0634
 8894SOL    HW138318   3.292   3.630   4.937 -0.2555  0.8173 -1.1559
 8894SOL    HW238319   3.213   3.506   4.926  0.5626 -0.2316 -0.1524
 8895SOL     OW38320   2.426   2.884   3.098 -0.0286 -0.3842  0.4929
 8895SOL    HW138321   2.488   2.883   3.171  2.9228 -1.7948 -2.0247
 8895SOL    HW238322   2.369   2.957   3.123 -0.7457 -0.7601 -0.0219
 8896SOL     OW38323   1.822   0.817   8.721 -0.0224  0.4054 -0.5375
 8896SOL    HW138324   1.859   0.884   8.665  1.4515  0.0611  0.0154
 8896SOL    HW238325   1.898   0.809   8.780 -0.4136  1.3541  0.0923
 8897SOL     OW38326   4.318   4.036  16.366  0.1299 -0.6015 -0.2223
 8897SOL    HW138327   4.357   4.050  16.280 -0.4529  2.0789 -0.0671
 8897SOL    HW238328   4.337   4.121  16.405 -1.8181  0.2851 -1.1916
 8898SOL     OW38329   3.590   2.631   7.152  0.5023 -0.4616  0.2325
 8898SOL    HW138330   3.673   2.678   7.164  0.6575 -0.5478 -0.5481
 8898SOL    HW238331   3.564   2.628   7.244 -0.1451  0.7680  0.0878
 8899SOL     OW38332   4.558   2.868   4.094  0.6470  0.2020 -0.1183
 8899SOL    HW138333   4.619   2.941   4.091  2.0454 -0.8868  1.3285
 8899SOL    HW238334   4.503   2.893   4.169  0.4248  0.3335 -0.3253
 8900SOL     OW38335   0.983   2.549   5.795 -0.9197 -0.0921  0.1728
 8900SOL    HW138336   1.014   2.589   5.876  0.3717  0.7279 -0.7157
 8900SOL    HW238337   1.059   2.508   5.753 -1.3447 -0.8439  0.1439
 8901SOL     OW38338   2.437   1.137   8.834 -0.2840  0.1890  0.3962
 8901SOL    HW138339   2.364   1.199   8.831  0.5989  1.0962 -2.2853
 8901SOL    HW238340   2.507   1.198   8.809  0.7767 -0.7785  0.9877
 8902SOL     OW38341   2.246   2.031   1.530 -0.0000 -0.1153  0.0931
 8902SOL    HW138342   2.279   2.104   1.479 -0.7904 -0.6706 -1.2027
 8902SOL    HW238343   2.318   1.970   1.516  1.2707  1.8505 -1.8522
 8903SOL     OW38344   1.515   4.514   8.081 -0.2327  0.7001  0.3863
 8903SOL    HW138345   1.466   4.585   8.122  1.6147  2.6508 -0.7724
 8903SOL    HW238346   1.444   4.466   8.039  1.6931  0.2886 -2.4130
 8904SOL     OW38347   0.361   3.750   2.623 -0.2468  0.4142 -0.1516
 8904SOL    HW138348   0.269   3.725   2.634  0.0158 -0.2929  0.4781
 8904SOL    HW238349   0.352   3.802   2.544 -2.9506  1.2176  0.6694
 8905SOL     OW38350   0.825   3.192   1.225  0.2227 -0.1306  0.0091
 8905SOL    HW138351   0.800   3.123   1.286  2.3005  0.3957  1.4606
 8905SOL    HW238352   0.916   3.210   1.251  0.8123 -0.5564 -1.7650
 8906SOL     OW38353   3.045   3.656   5.852  0.4782  0.0940 -0.0511
 8906SOL    HW138354   3.024   3.597   5.924 -3.4679  0.7050 -0.6836
 8906SOL    HW238355   3.050   3.595   5.778  0.5415 -0.1510  0.1579
 8907SOL     OW38356   0.364   2.060   2.345  0.1090  0.4126  0.1742
 8907SOL    HW138357   0.408   2.074   2.429 -2.6388  0.6766  1.5566
 8907SOL    HW238358   0.410   1.981   2.315  0.1490  0.6672 -0.4476
 8908SOL     OW38359   1.229   4.727   5.708 -0.3065  0.2994 -0.0307
 8908SOL    HW138360   1.205   0.035   5.790 -0.5786  0.2442 -0.0843
 8908SOL    HW238361   1.214   0.074   5.662  0.4874  1.0311  1.0156
 8909SOL     OW38362   3.178   4.645   3.228 -0.2112  0.3801 -0.0004
 8909SOL    HW138363   3.224   4.588   3.166  0.6397 -0.2726  1.2293
 8909SOL    HW238364   3.103   4.587   3.244  0.4449 -0.6111 -0.5165
 8910SOL     OW38365   2.038   2.896   8.433 -0.4129  0.7022 -0.3868
 8910SOL    HW138366   2.114   2.955   8.425 -0.1815  0.4822  0.2324
 8910SOL    HW238367   2.030   2.886   8.527 -0.2138  2.2909 -0.1956
 8911SOL     OW38368   3.547   2.856   9.168 -0.6566  0.7362  0.4707
 8911SOL    HW138369   3.605   2.781   9.154  3.6857  4.1242  0.6653
 8911SOL    HW238370   3.479   2.809   9.216 -0.4906 -0.7325 -0.7325
 8912SOL     OW38371   4.022   3.167   3.463  0.4722 -0.1632 -0.2813
 8912SOL    HW138372   4.014   3.123   3.548 -1.1543 -0.9699 -0.8514
 8912SOL    HW238373   3.970   3.123   3.395 -0.2005 -1.9621  1.4016
 8913SOL     OW38374   3.608   4.095   2.334  0.1422 -0.3001  0.6508
 8913SOL    HW138375   3.567   4.071   2.251  0.1178 -1.0183  0.8716
 8913SOL    HW238376   3.606   4.016   2.387 -1.5042 -1.0883 -0.5522
 8914SOL     OW38377   3.186   1.705   7.505 -0.4009  0.1800  0.4086
 8914SOL    HW138378   3.249   1.708   7.433  1.1439  0.0932  1.7625
 8914SOL    HW238379   3.139   1.788   7.497  0.2673  0.2273 -2.7281
 8915SOL     OW38380   3.201   1.176   8.851  0.1900 -0.6403  0.0993
 8915SOL    HW138381   3.110   1.203   8.864  0.2084 -1.1072  1.2339
 8915SOL    HW238382   3.213   1.144   8.941  0.9310 -0.1076  0.1887
 8916SOL     OW38383   0.503   3.502   8.966 -0.1016 -0.0350 -0.7263
 8916SOL    HW138384   0.458   3.553   9.033  0.1742 -1.3549  0.4485
 8916SOL    HW238385   0.515   3.561   8.891  0.4866 -0.3691 -0.8975
 8917SOL     OW38386   1.114   1.440   5.626  0.3110 -0.1182 -0.0952
 8917SOL    HW138387   1.140   1.489   5.704  1.8201 -0.7938 -0.1873
 8917SOL    HW238388   1.059   1.510   5.588 -1.6732 -1.4827  0.2440
 8918SOL     OW38389   2.668   2.875  17.135  0.3478 -0.3379  0.7278
 8918SOL    HW138390   2.681   2.783  17.109  0.8055 -0.1653  0.3567
 8918SOL    HW238391   2.754   2.907  17.109 -0.0628 -0.0743 -0.3034
 8919SOL     OW38392   1.619   0.827   6.160 -0.1021  0.0288  0.0985
 8919SOL    HW138393   1.545   0.813   6.101 -1.4102 -2.2983  2.2936
 8919SOL    HW238394   1.601   0.916   6.190 -0.6135 -0.2674  0.6770
 8920SOL     OW38395   2.602   0.726  10.721  0.2640  0.2653  0.2290
 8920SOL    HW138396   2.556   0.650  10.686  1.3720 -0.2209 -0.1803
 8920SOL    HW238397   2.548   0.725  10.800  0.3386  0.1459  0.2789
 8921SOL     OW38398   3.820   4.246   4.130 -0.1545 -0.0479  0.2194
 8921SOL    HW138399   3.726   4.254   4.115  0.1059  0.4738 -1.1888
 8921SOL    HW238400   3.862   4.332   4.116  0.0552  0.1023  1.7449
 8922SOL     OW38401   1.436   2.911  15.392 -0.0566  0.9479 -0.1086
 8922SOL    HW138402   1.480   2.970  15.453  0.5681  0.9468 -0.5625
 8922SOL    HW238403   1.451   2.956  15.308  0.1014  2.3037  0.6511
 8923SOL     OW38404   0.709   0.202  10.631 -0.4224  0.3308 -0.3554
 8923SOL    HW138405   0.616   0.221  10.643 -1.2351 -2.8494 -1.4149
 8923SOL    HW238406   0.711   0.129  10.568 -0.9238  0.4525 -0.5109
 8924SOL     OW38407   1.718   2.557   5.926 -0.1269  0.6044 -0.2229
 8924SOL    HW138408   1.797   2.561   5.980 -0.1203  2.5885 -0.3961
 8924SOL    HW238409   1.679   2.642   5.946 -0.4050  0.3007  0.5518
 8925SOL     OW38410   1.668   3.473   6.114 -0.2612 -0.2298  0.4307
 8925SOL    HW138411   1.751   3.426   6.124  1.8990  3.5721  0.5290
 8925SOL    HW238412   1.644   3.480   6.206 -1.3338  1.2224  0.0364
 8926SOL     OW38413   4.703   4.351   8.947  0.6218  0.3845 -0.3930
 8926SOL    HW138414   4.693   4.435   8.992 -0.8949 -0.4706  0.8856
 8926SOL    HW238415   4.678   4.380   8.859  0.4418  0.2317 -0.3933
 8927SOL     OW38416   2.455   3.056  13.863 -0.1033  0.3333 -0.1571
 8927SOL    HW138417   2.364   3.082  13.877  0.0524  0.8081 -0.0082
 8927SOL    HW238418   2.467   3.013  13.947 -0.6981  0.4830  0.0074
 8928SOL     OW38419   0.520   2.665   6.083 -0.1438  0.4197  0.3645
 8928SOL    HW138420   0.458   2.738   6.082 -0.4728  0.1182 -1.6549
 8928SOL    HW238421   0.514   2.644   5.990 -0.1828 -1.4807  0.7969
 8929SOL     OW38422   3.173   2.812   5.340 -0.1974  0.1359 -0.1815
 8929SOL    HW138423   3.238   2.744   5.324  0.4216  0.9438 -1.1807
 8929SOL    HW238424   3.175   2.821   5.435 -0.1176  1.3418 -0.2945
 8930SOL     OW38425   1.773   0.647   7.581  0.6461 -0.4217  0.5313
 8930SOL    HW138426   1.827   0.572   7.556 -0.0950 -1.0071  0.6933
 8930SOL    HW238427   1.712   0.603   7.640  0.0146  1.7101  1.4471
 8931SOL     OW38428   0.816   1.687   7.186 -0.1995  0.0522 -0.0800
 8931SOL    HW138429   0.855   1.736   7.113 -1.1690  1.7513  0.5523
 8931SOL    HW238430   0.849   1.730   7.265 -0.0881  1.6348 -0.9798
 8932SOL     OW38431   0.693   1.576   7.550 -0.2691 -0.3598 -0.6065
 8932SOL    HW138432   0.694   1.484   7.577 -0.6406  0.2352  1.4145
 8932SOL    HW238433   0.779   1.591   7.511  0.3127 -0.6755  0.5335
 8933SOL     OW38434   3.452   2.298  12.433 -0.1476 -0.1593  0.3407
 8933SOL    HW138435   3.502   2.220  12.408  1.9753  1.9368 -1.8370
 8933SOL    HW238436   3.364   2.261  12.421  0.9056 -3.0293  1.3834
 8934SOL     OW38437   3.001   1.206  12.087 -0.1746 -0.6529  0.1684
 8934SOL    HW138438   2.915   1.166  12.104  0.3158 -2.0689 -0.6481
 8934SOL    HW238439   2.982   1.290  12.128 -0.5461 -0.6283 -0.0458
 8935SOL     OW38440   2.683   0.521   2.554  0.4579  0.2770  0.3020
 8935SOL    HW138441   2.625   0.584   2.597 -0.9082 -0.0931 -0.9787
 8935SOL    HW238442   2.678   0.440   2.606 -0.1156  0.6398  0.8094
 8936SOL     OW38443   0.169   1.368   5.177 -0.3822 -0.2469 -0.0014
 8936SOL    HW138444   0.080   1.390   5.202 -0.5247  0.0673 -0.7628
 8936SOL    HW238445   0.209   1.451   5.152 -0.9651  0.0985  0.2279
 8937SOL     OW38446   1.331   1.327   4.250  0.0795 -0.0367 -0.1565
 8937SOL    HW138447   1.339   1.379   4.330 -1.9169  1.4993 -0.9424
 8937SOL    HW238448   1.422   1.325   4.219 -0.4876 -0.2465 -1.8050
 8938SOL     OW38449   0.897   0.144   5.536 -0.0414  0.3343 -0.2175
 8938SOL    HW138450   0.806   0.134   5.509  0.4922 -1.4267 -1.3611
 8938SOL    HW238451   0.887   0.187   5.621  0.3219  2.7813 -1.3929
 8939SOL     OW38452   3.406   0.244   8.769  0.2247  0.2812 -0.1408
 8939SOL    HW138453   3.410   0.155   8.733 -1.1958 -0.4601  1.5384
 8939SOL    HW238454   3.482   0.290   8.733  0.8046 -0.6454 -0.1010
 8940SOL     OW38455   4.112   1.570  10.859 -0.3405  0.5991  0.6664
 8940SOL    HW138456   4.136   1.516  10.934 -1.8191 -2.0315 -0.7480
 8940SOL    HW238457   4.029   1.528  10.836 -1.1113  1.6804  1.4957
 8941SOL     OW38458   0.061   0.619   3.281 -0.4718 -0.4753  0.6325
 8941SOL    HW138459   0.106   0.701   3.301 -0.6263 -0.1448 -0.3918
 8941SOL    HW238460   0.020   0.617   3.367 -0.5089 -0.4706  0.6150
 8942SOL     OW38461   1.908   4.417  10.001  0.0264  0.0728 -0.2648
 8942SOL    HW138462   1.930   4.409   9.909  1.4837 -0.3008  0.1064
 8942SOL    HW238463   1.820   4.379  10.004 -1.1008  2.7460  0.1202
 8943SOL     OW38464   1.823   1.050   8.978 -0.7163 -0.3930  0.0524
 8943SOL    HW138465   1.915   1.065   8.959 -0.5193 -2.9777 -1.0898
 8943SOL    HW238466   1.800   1.095   9.059 -0.7977 -1.8017  0.8097
 8944SOL     OW38467   3.321   4.631   2.235 -0.0316  0.0033 -0.3335
 8944SOL    HW138468   3.250   4.690   2.261 -0.8152 -1.0152 -0.1953
 8944SOL    HW238469   3.279   4.565   2.181  0.5389 -1.1687  0.6614
 8945SOL     OW38470   2.741   0.055   2.893 -0.5569  0.1469 -0.0450
 8945SOL    HW138471   2.741   4.695   2.881 -0.7630  0.1535 -0.0888
 8945SOL    HW238472   2.649   0.069   2.912 -1.6273 -4.4399 -1.7585
 8946SOL     OW38473   0.794   4.197   5.431  0.4178  0.5692 -0.6870
 8946SOL    HW138474   0.700   4.214   5.435  1.0229  2.8579  3.2693
 8946SOL    HW238475   0.798   4.103   5.414  0.0521  0.1254  1.7478
 8947SOL     OW38476   2.147   2.780   3.562  0.0670  0.3079 -0.2167
 8947SOL    HW138477   2.069   2.782   3.507 -0.5690 -0.4793  0.6501
 8947SOL    HW238478   2.135   2.848   3.629  0.5491  0.6015 -0.4296
 8948SOL     OW38479   3.316   4.216   9.421  0.2629 -0.0978  0.1686
 8948SOL    HW138480   3.251   4.161   9.376 -1.1424  1.1615  0.6543
 8948SOL    HW238481   3.316   4.172   9.506  3.2656  0.4342  0.4559
 8949SOL     OW38482   4.335   1.756  16.574 -0.2075  0.1032 -0.4156
 8949SOL    HW138483   4.358   1.724  16.661 -1.4950  0.7158  0.1496
 8949SOL    HW238484   4.368   1.845  16.584  0.1241  0.0390 -0.9234
 8950SOL     OW38485   1.357   3.348   6.648 -0.4669 -0.0601  0.5726
 8950SOL    HW138486   1.296   3.398   6.593 -0.5203  0.5097  1.1595
 8950SOL    HW238487   1.335   3.373   6.737  0.4603 -0.0566  0.7964
 8951SOL     OW38488   0.109   1.980  11.122  0.4397  0.4369 -0.2729
 8951SOL    HW138489   0.184   1.922  11.106  0.5442  0.0610  1.5896
 8951SOL    HW238490   0.089   1.949  11.210 -0.2713  0.3690 -0.4646
 8952SOL     OW38491   3.994   4.208  13.489 -0.4688 -0.6105  0.2955
 8952SOL    HW138492   3.975   4.244  13.402 -0.1620  1.6268  1.1369
 8952SOL    HW238493   3.916   4.154  13.500 -0.2030 -0.8699  0.8919
 8953SOL     OW38494   4.717   0.984  10.849 -0.0885  0.1737 -0.5470
 8953SOL    HW138495   4.730   0.899  10.805  3.0298  0.1080  0.5030
 8953SOL    HW238496   4.725   0.960  10.941 -0.3792  1.5645 -0.1632
 8954SOL     OW38497   3.894   3.915  16.618  0.3162 -0.7500 -0.0415
 8954SOL    HW138498   3.848   3.853  16.561  0.0581  1.4717 -2.2441
 8954SOL    HW238499   3.982   3.901  16.582 -0.0175 -0.3725 -1.0109
 8955SOL     OW38500   3.822   1.077  15.926  0.1682 -0.2970  0.8788
 8955SOL    HW138501   3.889   1.012  15.949 -0.2958 -0.3333  2.1394
 8955SOL    HW238502   3.807   1.053  15.835 -0.1772  1.4464  0.4817
 8956SOL     OW38503   3.759   0.792   1.413  0.1792 -0.6732 -0.3038
 8956SOL    HW138504   3.703   0.715   1.400 -2.2890  0.7179  2.0511
 8956SOL    HW238505   3.827   0.745   1.462  2.8513  2.0961 -1.3804
 8957SOL     OW38506   0.114   1.220   1.694  0.5145  0.3822 -0.7542
 8957SOL    HW138507   0.183   1.203   1.759  0.4781  0.3841 -0.7150
 8957SOL    HW238508   0.052   1.149   1.710  2.5070 -1.0318  0.8458
 8958SOL     OW38509   1.051   4.181   7.241  0.1081 -0.3385 -0.0705
 8958SOL    HW138510   1.072   4.248   7.177  0.5005  0.2533  0.6708
 8958SOL    HW238511   1.040   4.102   7.188  0.2150  0.2094 -0.9051
 8959SOL     OW38512   2.953   4.487   3.098 -0.0805  0.3824 -0.0573
 8959SOL    HW138513   2.900   4.419   3.056  0.8846 -0.6605  0.4283
 8959SOL    HW238514   2.932   4.449   3.183  3.1131  1.9228  1.4161
 8960SOL     OW38515   1.468   4.446   2.726  1.1706 -0.1586  0.1103
 8960SOL    HW138516   1.491   4.512   2.660  1.1612  0.7135  0.9806
 8960SOL    HW238517   1.387   4.407   2.694  0.0853  1.2355  1.1695
 8961SOL     OW38518   4.262   4.285  13.428  0.2602  0.4448  0.3535
 8961SOL    HW138519   4.174   4.250  13.442  0.0571  1.5073  1.7737
 8961SOL    HW238520   4.233   4.372  13.402 -2.4940 -1.2674 -2.2901
 8962SOL     OW38521   0.179   1.533   8.469  0.3625  0.0186 -0.5231
 8962SOL    HW138522   0.264   1.497   8.494  0.3536 -0.0183 -0.5470
 8962SOL    HW238523   0.121   1.483   8.525 -0.0142 -0.4011 -1.2929
 8963SOL     OW38524   0.189   1.414   1.522  0.2234  0.6036  0.0875
 8963SOL    HW138525   0.271   1.417   1.571  0.3522  1.7598 -0.2038
 8963SOL    HW238526   0.139   1.359   1.582  1.4084 -3.0794 -2.3246
 8964SOL     OW38527   1.970   3.164   2.725  0.2365 -0.5034  1.0521
 8964SOL    HW138528   1.901   3.107   2.689  0.7709  0.1914 -1.0817
 8964SOL    HW238529   1.995   3.217   2.650  1.3396 -0.1847  1.6501
 8965SOL     OW38530   4.077   0.077   6.371  0.2626  0.4366  0.2768
 8965SOL    HW138531   4.032   0.047   6.450 -1.7568 -1.4875 -1.6120
 8965SOL    HW238532   4.007   0.060   6.308 -0.9284  1.0257  1.4398
 8966SOL     OW38533   3.061   0.868   8.885  0.2551  0.0110  0.1026
 8966SOL    HW138534   3.151   0.837   8.896  1.1831  2.9004  0.6371
 8966SOL    HW238535   3.071   0.921   8.806 -1.6294  0.2853  0.0441
 8967SOL     OW38536   3.229   1.438   8.768 -0.0593  0.2411 -0.0033
 8967SOL    HW138537   3.235   1.364   8.828  1.7824  0.3134 -0.0758
 8967SOL    HW238538   3.308   1.439   8.714 -1.9306 -0.5021 -2.7407
 8968SOL     OW38539   3.145   4.057   9.289 -0.0432 -0.8587  0.5448
 8968SOL    HW138540   3.148   4.050   9.194  0.4631 -1.7865  0.6352
 8968SOL    HW238541   3.118   3.966   9.300  0.5514 -0.9013  1.6863
 8969SOL     OW38542   0.801   2.140   5.721  0.0393  0.3853 -0.1830
 8969SOL    HW138543   0.752   2.098   5.651 -0.7324  1.1626 -0.0975
 8969SOL    HW238544   0.853   2.201   5.669  0.6268  0.7786  0.8584
 8970SOL     OW38545   1.709   3.282   1.120  0.5324 -0.0446 -0.0471
 8970SOL    HW138546   1.663   3.217   1.067 -0.1542  1.9391 -1.9087
 8970SOL    HW238547   1.786   3.294   1.065  1.5605  1.0053  1.6095
 8971SOL     OW38548   1.767   1.559  15.437  0.1069 -0.2604  0.0584
 8971SOL    HW138549   1.833   1.594  15.378  0.1243 -0.2893  0.0607
 8971SOL    HW238550   1.783   1.607  15.518  0.0635  0.2093 -0.2136
 8972SOL     OW38551   4.697   0.850   2.084  0.6353 -0.4892  0.1332
 8972SOL    HW138552   4.715   0.912   2.014  1.6147  0.7023  1.4319
 8972SOL    HW238553   4.721   0.898   2.163 -0.0391 -2.0570  1.3055
 8973SOL     OW38554   0.796   0.297   7.192 -0.1028 -0.3054 -0.5138
 8973SOL    HW138555   0.851   0.231   7.148  0.5742  0.5413 -0.9359
 8973SOL    HW238556   0.859   0.367   7.207 -0.1202 -0.5125  0.4880
 8974SOL     OW38557   0.372   2.962   7.925  0.0585  0.1046  0.0510
 8974SOL    HW138558   0.288   3.007   7.933 -1.1108 -1.8017 -1.4449
 8974SOL    HW238559   0.429   3.022   7.973 -1.3009 -0.2451  2.0733
 8975SOL     OW38560   2.554   4.150   3.581 -1.0095 -0.0707 -0.4730
 8975SOL    HW138561   2.510   4.206   3.646 -1.2731  0.5250 -1.1681
 8975SOL    HW238562   2.535   4.189   3.496  0.4640 -1.1706 -1.3112
 8976SOL     OW38563   4.457   2.278  16.272  0.0677 -0.3477  0.1109
 8976SOL    HW138564   4.375   2.282  16.321 -0.3426  2.8589 -0.8749
 8976SOL    HW238565   4.476   2.370  16.255  2.0045 -0.6996  0.3854
 8977SOL     OW38566   3.406   2.094   8.704 -0.3556  0.1932  0.0262
 8977SOL    HW138567   3.335   2.123   8.762  1.7366  4.4509  0.4195
 8977SOL    HW238568   3.455   2.022   8.743 -0.0795  0.6388  0.4976
 8978SOL     OW38569   2.312   4.431   4.043  0.3902 -0.0796  0.0634
 8978SOL    HW138570   2.290   4.365   3.977 -1.8362 -1.7245  2.4385
 8978SOL    HW238571   2.404   4.407   4.045  0.3530 -0.3223 -1.6777
 8979SOL     OW38572   1.611   2.137  15.389  0.3025  0.7299 -0.4646
 8979SOL    HW138573   1.608   2.160  15.482 -0.4948 -0.4617 -0.2018
 8979SOL    HW238574   1.545   2.196  15.353  1.3086  0.7653 -2.2284
 8980SOL     OW38575   0.278   4.020   5.168 -0.1261 -0.2888 -0.1340
 8980SOL    HW138576   0.203   4.046   5.114 -0.0605  1.1818  0.4763
 8980SOL    HW238577   0.301   3.938   5.125 -1.1712 -0.4539 -0.3711
 8981SOL     OW38578   3.622   4.720   7.793 -0.2543  0.6985  0.1455
 8981SOL    HW138579   3.714   4.731   7.769 -0.5089  2.8120  0.1368
 8981SOL    HW238580   3.592   0.075   7.783 -2.4013  0.1430  1.7584
 8982SOL     OW38581   2.407   1.801   1.462  0.0860 -0.0826  0.3241
 8982SOL    HW138582   2.482   1.839   1.417 -1.4624 -0.0894 -2.2148
 8982SOL    HW238583   2.388   1.725   1.407 -1.1335  1.5530 -1.4784
 8983SOL     OW38584   1.995   2.224  10.819  0.4250  0.7474  0.1023
 8983SOL    HW138585   1.920   2.195  10.871  1.0838  1.3921  1.4102
 8983SOL    HW238586   2.067   2.170  10.852  1.5953  1.6900 -0.9029
 8984SOL     OW38587   3.375   4.651   4.067 -0.4538 -0.6907  0.4268
 8984SOL    HW138588   3.353   0.006   4.043 -1.6117 -1.3354 -0.8792
 8984SOL    HW238589   3.387   4.608   3.983 -0.6156 -1.6236  0.8825
 8985SOL     OW38590   4.314   3.344   4.911  0.6157 -0.4850 -0.3618
 8985SOL    HW138591   4.383   3.409   4.899  2.1090 -2.0105 -0.0878
 8985SOL    HW238592   4.257   3.361   4.836 -1.8514 -3.5643  0.8082
 8986SOL     OW38593   3.206   1.581   2.285  0.2315  0.5099  0.2688
 8986SOL    HW138594   3.296   1.608   2.301  0.7271 -0.3399 -1.0340
 8986SOL    HW238595   3.171   1.608   2.370 -1.0311 -0.6017  0.1091
 8987SOL     OW38596   1.738   3.695   6.677 -0.2200  0.0152 -0.2842
 8987SOL    HW138597   1.791   3.770   6.701  1.8937 -1.2880 -0.8586
 8987SOL    HW238598   1.798   3.621   6.689  0.2948  0.6338  0.9555
 8988SOL     OW38599   1.047   4.184   3.996 -0.2322  1.0207  0.7463
 8988SOL    HW138600   1.024   4.132   4.073  2.0459 -0.3936  0.4880
 8988SOL    HW238601   0.977   4.164   3.935  0.4708 -0.2740  0.3612
 8989SOL     OW38602   1.431   0.177   0.365  0.2022 -0.2047 -0.1932
 8989SOL    HW138603   1.384   0.112   0.313  1.3524 -1.4115  0.2899
 8989SOL    HW238604   1.422   0.252   0.307 -2.5525 -0.9660 -0.7416
 8990SOL     OW38605   0.400   3.488   5.420 -0.2430 -0.6945 -0.3344
 8990SOL    HW138606   0.329   3.518   5.476  1.0637 -2.0911  2.0381
 8990SOL    HW238607   0.447   3.438   5.486  1.9194 -1.5095 -2.4926
 8991SOL     OW38608   4.615   1.141   5.460  0.0107  0.5091  0.3763
 8991SOL    HW138609   4.638   1.222   5.415 -0.0809  0.2890 -0.0675
 8991SOL    HW238610   4.525   1.160   5.486 -0.6520 -1.1371 -0.7009
 8992SOL     OW38611   2.094   2.529   6.227  0.1774  0.3053 -0.3455
 8992SOL    HW138612   2.056   2.570   6.305 -1.8238 -0.3970 -0.9686
 8992SOL    HW238613   2.111   2.608   6.175 -3.5834  1.4482  0.1913
 8993SOL     OW38614   4.146   3.979   8.278 -0.9679  0.3184 -0.2187
 8993SOL    HW138615   4.195   3.915   8.331  1.0852  2.2297  0.1599
 8993SOL    HW238616   4.091   4.012   8.349  1.5035 -1.4633  2.5419
 8994SOL     OW38617   4.604   4.262   7.835  0.2472  0.3445  0.0518
 8994SOL    HW138618   4.512   4.235   7.839  0.2651  0.6064  2.4053
 8994SOL    HW238619   4.650   4.205   7.897  0.1766 -0.0455 -0.2574
 8995SOL     OW38620   2.245   3.209   7.754  0.4191 -0.0944 -0.3260
 8995SOL    HW138621   2.154   3.188   7.734  1.0613 -2.1064 -1.1231
 8995SOL    HW238622   2.259   3.152   7.831  1.9009 -0.1869 -0.6670
 8996SOL     OW38623   3.795   4.499   3.980  0.7801 -0.6085  0.1546
 8996SOL    HW138624   3.791   4.429   3.914 -0.7606  0.0279 -0.4303
 8996SOL    HW238625   3.883   4.536   3.968  0.1033  0.9167 -0.0941
 8997SOL     OW38626   3.084   0.206   6.534  0.3661  0.7469  0.4383
 8997SOL    HW138627   3.047   0.259   6.462  1.0084  0.7995  0.1455
 8997SOL    HW238628   3.072   0.119   6.498  5.1254 -0.1328  1.0079
 8998SOL     OW38629   4.184   4.135   4.331  0.0363 -0.2806  0.0589
 8998SOL    HW138630   4.227   4.097   4.408 -2.8311 -1.3072  1.1645
 8998SOL    HW238631   4.117   4.069   4.310  1.7711 -1.2041 -2.5657
 8999SOL     OW38632   2.159   4.026   7.405  0.8062  0.4077 -0.2802
 8999SOL    HW138633   2.075   4.031   7.449 -0.7169  0.8412 -3.2342
 8999SOL    HW238634   2.176   3.932   7.416  2.1488  0.7796  0.7746
 9000SOL     OW38635   1.219   3.201   5.533 -0.3043 -0.1748 -0.0142
 9000SOL    HW138636   1.286   3.269   5.525  1.9937 -2.4269  0.1341
 9000SOL    HW238637   1.208   3.159   5.448  3.4614 -0.9240 -0.1540
 9001SOL     OW38638   0.442   3.199   1.609 -1.0782  0.1152  0.3139
 9001SOL    HW138639   0.523   3.177   1.563 -1.0550 -0.4883  0.6531
 9001SOL    HW238640   0.457   3.163   1.696  0.4934 -0.4080 -0.1752
 9002SOL     OW38641   4.196   2.226   3.308 -0.4261 -0.4278  0.0919
 9002SOL    HW138642   4.197   2.160   3.238 -0.7049 -0.1550 -0.1723
 9002SOL    HW238643   4.101   2.239   3.303 -0.3676  0.2250  0.8493
 9003SOL     OW38644   4.544   0.781   0.164  0.6287 -0.3917 -0.2192
 9003SOL    HW138645   4.497   0.847   0.215  1.0712  0.0130 -0.3345
 9003SOL    HW238646   4.586   0.825   0.089 -2.0945  1.5249 -0.6300
 9004SOL     OW38647   0.433   3.587   3.496  0.1130 -0.7353  0.0928
 9004SOL    HW138648   0.449   3.637   3.576 -0.8888 -1.6438  0.8473
 9004SOL    HW238649   0.525   3.580   3.469 -0.0723 -0.0805 -0.7100
 9005SOL     OW38650   3.574   3.802   9.650 -0.4442 -0.2171 -0.0724
 9005SOL    HW138651   3.636   3.788   9.722 -1.5384 -1.5219  0.6118
 9005SOL    HW238652   3.498   3.798   9.708  0.9485 -2.7527  1.5415
 9006SOL     OW38653   3.747   0.038  14.932 -0.2505  0.5544 -0.2292
 9006SOL    HW138654   3.823   0.033  14.874  0.6123  1.3038  0.8414
 9006SOL    HW238655   3.712   4.685  14.921  0.0842  0.4776 -0.6565
 9007SOL     OW38656   2.890   4.709  13.455 -0.0747 -0.5897 -0.1059
 9007SOL    HW138657   2.918   4.647  13.522 -1.2290  0.5322  1.4184
 9007SOL    HW238658   2.796   4.695  13.445 -0.3452  0.0391  1.6773
 9008SOL     OW38659   0.259   2.271   2.802  0.0081  0.2397  0.0278
 9008SOL    HW138660   0.247   2.313   2.717 -0.3138 -0.0434 -0.0675
 9008SOL    HW238661   0.169   2.292   2.829 -0.9124 -2.6437 -0.8483
 9009SOL     OW38662   2.934   3.275   0.080  0.7345 -0.2690  0.0923
 9009SOL    HW138663   2.919   3.189   0.040 -1.4864 -0.6837  1.8001
 9009SOL    HW238664   2.930   3.252   0.173  1.8662  1.0562  0.4645
 9010SOL     OW38665   1.413   3.273   8.295 -0.3653  0.3186  0.1827
 9010SOL    HW138666   1.456   3.191   8.271 -0.8648  0.2249 -0.3694
 9010SOL    HW238667   1.331   3.273   8.247  0.4176  0.6888 -1.1424
 9011SOL     OW38668   2.064   4.216   1.931 -0.4700  0.6021  0.2575
 9011SOL    HW138669   1.996   4.263   1.883  0.5179  0.1059 -1.6400
 9011SOL    HW238670   2.140   4.267   1.903  0.5409 -0.5883  0.8677
 9012SOL     OW38671   4.437   4.557   1.481 -0.2416  0.6213 -0.3597
 9012SOL    HW138672   4.411   4.636   1.433 -0.0848 -0.9055 -2.9411
 9012SOL    HW238673   4.397   4.480   1.442  2.2182 -1.2128  0.7486
 9013SOL     OW38674   1.979   2.231   4.004 -0.5570  0.6380 -0.0491
 9013SOL    HW138675   1.947   2.218   4.093  0.8344  0.2789  0.3998
 9013SOL    HW238676   2.068   2.260   4.026 -0.6799  1.4108 -0.5784
 9014SOL     OW38677   1.915   3.412   7.736 -0.1930  0.6551  0.5849
 9014SOL    HW138678   1.853   3.485   7.734 -0.1965  0.6283 -0.4934
 9014SOL    HW238679   1.959   3.416   7.820 -0.2637 -1.4472  0.7401
 9015SOL     OW38680   3.723   0.378  10.785 -0.2572 -0.7269  0.3039
 9015SOL    HW138681   3.755   0.361  10.696 -0.1156 -2.1832  0.6234
 9015SOL    HW238682   3.800   0.368  10.841  0.2400  0.3534 -0.1922
 9016SOL     OW38683   0.990   0.247   6.595 -0.4617  0.2459 -0.3669
 9016SOL    HW138684   1.062   0.296   6.555  0.2999 -0.1334  0.5316
 9016SOL    HW238685   0.975   0.189   6.520  1.9165  1.0446 -1.4731
 9017SOL     OW38686   0.298   3.822   3.133 -0.3871 -0.2105 -0.1895
 9017SOL    HW138687   0.298   3.731   3.163 -0.0648  0.3962  1.6348
 9017SOL    HW238688   0.209   3.829   3.099 -0.9996 -2.8282  0.8513
 9018SOL     OW38689   1.364   2.354   5.614 -0.3029  0.1122 -0.5532
 9018SOL    HW138690   1.436   2.373   5.674 -1.4427 -2.1689  1.5296
 9018SOL    HW238691   1.297   2.345   5.682  0.3820 -0.2087  0.0817
 9019SOL     OW38692   3.524   1.841   7.608  0.2122  0.2645 -0.2204
 9019SOL    HW138693   3.511   1.932   7.581 -0.8986  0.0161 -0.5458
 9019SOL    HW238694   3.487   1.790   7.536  0.4604 -0.2456  0.0159
 9020SOL     OW38695   0.053   2.797  16.514  0.0382  0.3573 -0.7443
 9020SOL    HW138696   4.714   2.738  16.507 -0.8547  1.4812 -0.6622
 9020SOL    HW238697   0.074   2.812  16.422 -2.1562  0.0435 -1.2951
 9021SOL     OW38698   3.079   2.308  15.490  0.2004 -0.0240 -0.2908
 9021SOL    HW138699   2.995   2.343  15.521 -0.4961  0.2168 -2.4415
 9021SOL    HW238700   3.061   2.215  15.482 -0.6130  0.0917  0.2185
 9022SOL     OW38701   2.077   1.323   6.096  0.8382  0.0915 -0.2919
 9022SOL    HW138702   2.096   1.393   6.158 -3.0068 -0.5928  1.6768
 9022SOL    HW238703   2.131   1.353   6.022 -0.4424  0.1703 -1.1838
 9023SOL     OW38704   0.050   1.789   3.209 -0.4575  0.2617 -0.4028
 9023SOL    HW138705   0.039   1.838   3.127 -0.2796 -1.2582 -1.3415
 9023SOL    HW238706   4.726   1.831   3.271 -0.3147  0.8255 -0.6506
 9024SOL     OW38707   2.982   4.578   4.504  0.3405  0.5556 -0.5584
 9024SOL    HW138708   2.987   4.509   4.570 -1.1297  0.5232 -0.4934
 9024SOL    HW238709   2.887   4.585   4.509  0.2874 -0.8433  0.4605
 9025SOL     OW38710   2.326   0.405   7.330 -0.1065  0.4371  0.5036
 9025SOL    HW138711   2.250   0.426   7.385  0.3661  1.0231  0.9435
 9025SOL    HW238712   2.279   0.421   7.249 -2.0628 -0.4110  1.4676
 9026SOL     OW38713   3.781   1.737   7.080 -0.0427  0.2302  0.3954
 9026SOL    HW138714   3.722   1.788   7.136 -0.8060  0.4166 -0.5703
 9026SOL    HW238715   3.728   1.711   7.005  1.4489 -4.1536  0.8842
 9027SOL     OW38716   4.009   4.010   7.468  0.0810 -0.3402 -0.6143
 9027SOL    HW138717   4.020   3.927   7.421 -0.9333 -0.7527 -0.1080
 9027SOL    HW238718   3.915   4.027   7.462 -0.2911 -2.1218  0.3727
 9028SOL     OW38719   0.641   2.747  14.173  0.0966 -0.0554  0.7175
 9028SOL    HW138720   0.702   2.739  14.100 -0.3669 -2.4867  0.6121
 9028SOL    HW238721   0.577   2.679  14.151 -0.6605  0.7756  0.3508
 9029SOL     OW38722   0.068   3.067   6.432  0.5737  0.1887 -0.0104
 9029SOL    HW138723   0.088   3.132   6.499 -1.4394 -1.1036  1.8593
 9029SOL    HW238724   0.005   3.014   6.482  1.3301  0.3138  1.0714
 9030SOL     OW38725   3.419   4.223   3.697  0.2684  0.4559  0.2478
 9030SOL    HW138726   3.379   4.256   3.778  0.6176  0.4110  0.4359
 9030SOL    HW238727   3.354   4.257   3.634  0.2735  0.7614  0.4055
 9031SOL     OW38728   1.568   1.755  12.471 -0.0979 -0.3386 -0.1304
 9031SOL    HW138729   1.609   1.841  12.454  0.7927 -0.0620  3.5218
 9031SOL    HW238730   1.481   1.783  12.443 -0.3970  0.0676  1.2252
 9032SOL     OW38731   1.933   1.150   0.534 -0.6428  0.3325  0.4135
 9032SOL    HW138732   1.907   1.190   0.617  3.0859 -0.9887  2.2465
 9032SOL    HW238733   2.020   1.122   0.565 -1.2175 -0.4344  1.3572
 9033SOL     OW38734   1.616   0.962   9.602  0.5039 -0.4711 -0.1735
 9033SOL    HW138735   1.698   0.982   9.557 -0.9710 -0.3072 -2.7720
 9033SOL    HW238736   1.574   0.918   9.529  2.2566 -1.3730 -0.6287
 9034SOL     OW38737   0.145   2.723   5.224 -0.2470 -0.2909 -0.0795
 9034SOL    HW138738   0.157   2.683   5.138 -0.2570  2.3882 -1.3304
 9034SOL    HW238739   0.051   2.741   5.218  0.1170  1.4276 -0.6278
 9035SOL     OW38740   0.197   0.529   5.860  0.5060 -0.0241 -0.2499
 9035SOL    HW138741   0.218   0.574   5.779 -2.9181  1.0639 -0.5220
 9035SOL    HW238742   0.278   0.542   5.909  0.3964  0.9132 -0.3310
 9036SOL     OW38743   3.295   3.416   8.668  0.1890 -0.3578 -0.2085
 9036SOL    HW138744   3.361   3.478   8.698  0.5551 -1.9390  2.2548
 9036SOL    HW238745   3.289   3.359   8.745  0.9207 -0.4202 -0.1989
 9037SOL     OW38746   2.677   3.780   8.149  0.1272 -0.3363 -0.3817
 9037SOL    HW138747   2.731   3.701   8.149  0.9274  0.2286  3.5175
 9037SOL    HW238748   2.754   3.837   8.145  0.4795 -0.8749 -1.3401
 9038SOL     OW38749   1.415   1.355   2.157 -0.2475 -0.0351 -0.1196
 9038SOL    HW138750   1.425   1.266   2.123  0.2810  0.1325 -0.3964
 9038SOL    HW238751   1.497   1.390   2.123 -0.3410 -2.2563 -2.5705
 9039SOL     OW38752   2.212   4.421   9.730  0.0450  0.2298 -0.0960
 9039SOL    HW138753   2.138   4.476   9.752  1.2280  2.5106 -1.8180
 9039SOL    HW238754   2.267   4.416   9.808 -0.5016 -1.2823  0.1898
 9040SOL     OW38755   4.033   3.100   8.128 -0.2382 -0.1410  0.1942
 9040SOL    HW138756   4.084   3.179   8.115 -1.7401  0.7475 -0.3523
 9040SOL    HW238757   3.946   3.124   8.094  0.3244  0.9583 -0.4586
 9041SOL     OW38758   2.167   2.069  10.955  0.0260 -0.1409  0.3610
 9041SOL    HW138759   2.210   2.022  11.027 -0.0287 -0.2275  0.3380
 9041SOL    HW238760   2.202   2.021  10.880 -2.4020 -1.0749 -0.1789
 9042SOL     OW38761   0.074   1.397   8.980  0.3437  1.0536 -0.2549
 9042SOL    HW138762   0.022   1.325   9.017 -0.3795  0.9991 -1.3709
 9042SOL    HW238763   0.162   1.360   8.973  0.7955  1.3642  3.4987
 9043SOL     OW38764   1.042   0.210  11.854 -0.4407  0.0847 -0.2411
 9043SOL    HW138765   1.135   0.191  11.856 -1.0163 -2.2700  3.5476
 9043SOL    HW238766   1.009   0.163  11.930 -1.8225  0.1569 -0.7760
 9044SOL     OW38767   3.579   4.671   9.553 -0.1675  0.0868 -0.2466
 9044SOL    HW138768   3.654   4.707   9.601 -0.3620  0.0672  0.0728
 9044SOL    HW238769   3.516   0.007   9.553 -1.6686 -1.2438  2.9317
 9045SOL     OW38770   3.296   0.186   4.004  0.2362  0.5130 -0.3558
 9045SOL    HW138771   3.268   0.188   3.912 -0.7428  2.4640  0.0009
 9045SOL    HW238772   3.224   0.228   4.050 -0.1002 -0.3789 -0.0720
 9046SOL     OW38773   1.414   4.427  15.027  0.6921 -0.1945  0.3040
 9046SOL    HW138774   1.480   4.415  14.959 -0.8808  0.2383 -1.2873
 9046SOL    HW238775   1.421   4.518  15.054 -2.0651 -0.0798  0.6428
 9047SOL     OW38776   0.129   1.710   1.720  0.1682 -0.5204  0.2053
 9047SOL    HW138777   0.070   1.653   1.770  0.0620  0.3275  1.0524
 9047SOL    HW238778   0.076   1.712   1.640 -1.2159  1.9553  1.1529
 9048SOL     OW38779   0.820   0.724   7.421  0.5690  0.0502 -0.2948
 9048SOL    HW138780   0.782   0.730   7.333  3.5487  0.0094 -1.5683
 9048SOL    HW238781   0.830   0.629   7.431  1.2162  0.1649  0.1025
 9049SOL     OW38782   1.268   0.516   8.777 -0.6519 -0.1592 -0.6453
 9049SOL    HW138783   1.305   0.557   8.855 -0.0214 -0.0496 -0.9932
 9049SOL    HW238784   1.187   0.471   8.801 -2.5054  3.2099 -0.6182
 9050SOL     OW38785   4.272   3.414   9.211  0.3789 -0.0572 -0.0795
 9050SOL    HW138786   4.245   3.332   9.252  2.1664 -0.8794 -0.5278
 9050SOL    HW238787   4.356   3.425   9.255  0.8234 -1.0974 -0.6639
 9051SOL     OW38788   2.526   3.664   6.757 -0.0501 -0.1224  0.1657
 9051SOL    HW138789   2.552   3.579   6.792 -2.3492 -0.4164  1.1677
 9051SOL    HW238790   2.590   3.726   6.793 -0.4772 -0.0454  0.7874
 9052SOL     OW38791   0.772   3.541   6.063  0.1811  0.0348 -0.1765
 9052SOL    HW138792   0.817   3.620   6.031 -0.7031 -0.4483 -2.6166
 9052SOL    HW238793   0.841   3.488   6.102 -0.6801 -0.4586  0.6686
 9053SOL     OW38794   3.211   1.668  11.853  0.0108 -0.4866 -0.0996
 9053SOL    HW138795   3.226   1.717  11.934 -1.3978  0.4551 -0.4047
 9053SOL    HW238796   3.299   1.667  11.815  1.1741  2.6575  2.5600
 9054SOL     OW38797   2.210   0.529   6.400  0.4338 -0.7135  0.1746
 9054SOL    HW138798   2.263   0.606   6.419 -0.3888 -0.0257 -0.2809
 9054SOL    HW238799   2.134   0.571   6.359 -2.1277 -3.7166  1.8555
 9055SOL     OW38800   2.602   3.278  10.886  0.1880 -0.4288  0.3541
 9055SOL    HW138801   2.522   3.224  10.881 -0.5040  0.5378  0.9974
 9055SOL    HW238802   2.568   3.364  10.909 -0.1195 -0.5855  0.4849
 9056SOL     OW38803   3.588   0.904   6.145 -0.1466  0.4977 -0.3481
 9056SOL    HW138804   3.638   0.825   6.165 -1.3125  0.0502  0.8189
 9056SOL    HW238805   3.496   0.876   6.142 -0.3577  0.9946  1.9116
 9057SOL     OW38806   1.167   4.501   2.429 -0.0578 -0.1073 -0.0989
 9057SOL    HW138807   1.228   4.575   2.419  1.8445 -1.9230 -1.7906
 9057SOL    HW238808   1.132   4.490   2.341  0.1118 -1.8314  0.0580
 9058SOL     OW38809   4.523   1.366  17.715  0.2805 -0.1779 -0.8476
 9058SOL    HW138810   4.599   1.414   0.007 -0.9131  0.6701  0.6921
 9058SOL    HW238811   4.448   1.384   0.030 -0.1440 -1.1103 -1.1200
 9059SOL     OW38812   0.496   0.793  15.176  0.9751  0.1308  0.3086
 9059SOL    HW138813   0.538   0.878  15.163  0.4499  0.4436  0.6358
 9059SOL    HW238814   0.565   0.746  15.223  0.3544 -0.0183  1.0760
 9060SOL     OW38815   1.376   0.904   3.918  0.5678 -0.3203  0.0640
 9060SOL    HW138816   1.369   0.811   3.901 -0.1984 -0.3302  0.4115
 9060SOL    HW238817   1.471   0.921   3.917  0.3763  0.9182  1.4109
 9061SOL     OW38818   1.283   0.701   4.867 -0.2825 -0.0415 -0.0058
 9061SOL    HW138819   1.317   0.748   4.791  0.9692 -0.4304  0.3156
 9061SOL    HW238820   1.347   0.630   4.879 -0.5092 -0.0991  0.8722
 9062SOL     OW38821   3.228   2.722   6.323  0.5635  0.4593  0.5418
 9062SOL    HW138822   3.216   2.812   6.353  2.1292  0.6330  0.6536
 9062SOL    HW238823   3.147   2.681   6.353  0.7454  0.3907  0.9396
 9063SOL     OW38824   3.321   3.259   8.915  0.3081  0.9535 -0.0104
 9063SOL    HW138825   3.339   3.270   9.008 -2.1464  0.9145  0.4630
 9063SOL    HW238826   3.289   3.169   8.908  1.0812  0.5984  0.9297
 9064SOL     OW38827   2.496   3.845  12.648 -0.2310  0.5331 -0.4426
 9064SOL    HW138828   2.443   3.924  12.662  0.3124  0.8532 -0.2127
 9064SOL    HW238829   2.557   3.874  12.580  1.6726 -2.6950 -0.0943
 9065SOL     OW38830   0.685   1.216  10.643 -0.6759 -0.1632  0.5653
 9065SOL    HW138831   0.706   1.294  10.695 -4.1356  1.1864 -0.0526
 9065SOL    HW238832   0.597   1.198  10.676 -0.0642  1.3870  3.0335
 9066SOL     OW38833   2.203   3.236   9.396  0.0542  0.1830 -0.1239
 9066SOL    HW138834   2.207   3.141   9.386  2.0603  0.2181  0.3311
 9066SOL    HW238835   2.141   3.258   9.327 -2.0624 -0.5501  1.5530
 9067SOL     OW38836   3.481   1.264   5.954 -0.1100  0.5864 -1.0752
 9067SOL    HW138837   3.430   1.340   5.980 -1.5972 -1.5045  2.1066
 9067SOL    HW238838   3.402   1.223   5.918 -0.7837  1.0537 -0.1246
 9068SOL     OW38839   3.452   3.356  11.980  0.2513  0.2149 -0.1932
 9068SOL    HW138840   3.517   3.426  11.989  2.1060 -1.3933 -1.1149
 9068SOL    HW238841   3.477   3.301  12.055 -2.1517 -0.0866  0.3857
 9069SOL     OW38842   2.426   1.866   5.317 -0.3919  0.5697 -0.5553
 9069SOL    HW138843   2.335   1.882   5.290 -1.3193  0.1604  2.3084
 9069SOL    HW238844   2.420   1.779   5.358  0.4994  0.8725  0.2161
 9070SOL     OW38845   1.344   1.853   1.080 -0.5613 -0.1442 -0.0366
 9070SOL    HW138846   1.351   1.787   1.010 -0.7446 -2.4644  2.1496
 9070SOL    HW238847   1.385   1.928   1.037  0.3189  0.1592  1.3598
 9071SOL     OW38848   3.953   1.105   7.793  0.1566  0.1098 -0.2443
 9071SOL    HW138849   3.995   1.078   7.875 -1.4158 -1.9871 -0.1057
 9071SOL    HW238850   3.989   1.192   7.781  0.9254 -0.2301 -0.4235
 9072SOL     OW38851   1.546   0.640   9.664  0.1241  0.8297  0.0024
 9072SOL    HW138852   1.496   0.681   9.594  1.3893  0.6470 -0.9977
 9072SOL    HW238853   1.479   0.610   9.725 -0.8230 -1.8835 -2.4211
 9073SOL     OW38854   3.782   1.896   0.771 -0.4385  0.1195  0.0633
 9073SOL    HW138855   3.773   1.826   0.836  2.5521  0.5504  0.9481
 9073SOL    HW238856   3.875   1.893   0.749 -0.4633  1.0600 -0.1782
 9074SOL     OW38857   1.528   3.763  11.917  0.0902  0.5543 -0.2277
 9074SOL    HW138858   1.584   3.756  11.841 -1.9011 -3.9953 -1.2822
 9074SOL    HW238859   1.575   3.827  11.970  0.1666 -0.2331  0.6584
 9075SOL     OW38860   2.101   3.061  14.794  0.5931 -0.3536  0.3771
 9075SOL    HW138861   2.133   3.012  14.870  1.9167  0.9265  0.6518
 9075SOL    HW238862   2.144   3.000  14.734 -0.2486 -0.1685 -0.4045
 9076SOL     OW38863   2.236   4.663   2.858 -0.0359 -0.1301  0.4216
 9076SOL    HW138864   2.194   4.709   2.786 -1.3549 -2.6279 -0.4111
 9076SOL    HW238865   2.162   4.609   2.884 -0.8816  0.9622  0.2741
 9077SOL     OW38866   4.098   3.710  17.694 -0.8558  0.2934 -0.2085
 9077SOL    HW138867   4.085   3.733   0.044 -2.8566  1.0462 -0.6716
 9077SOL    HW238868   4.104   3.616  17.711  2.8446  1.0259  2.3519
 9078SOL     OW38869   4.625   1.732   4.672 -0.4559  0.0692  0.1500
 9078SOL    HW138870   4.599   1.774   4.754 -0.2868 -0.7918  0.6431
 9078SOL    HW238871   4.669   1.650   4.695  0.8495  1.5500  2.8451
 9079SOL     OW38872   1.251   1.202  17.126 -0.5261 -0.6254 -0.2696
 9079SOL    HW138873   1.234   1.296  17.125  0.2935 -0.5106 -1.9364
 9079SOL    HW238874   1.160   1.172  17.114 -0.2165 -1.4843 -0.4574
 9080SOL     OW38875   0.427   4.470   4.724 -0.2587  0.1943  0.1099
 9080SOL    HW138876   0.341   4.427   4.718  0.5782 -1.6214  0.9711
 9080SOL    HW238877   0.413   4.545   4.667 -0.6272  0.3221  0.3632
 9081SOL     OW38878   1.674   0.825   9.097 -0.2785 -0.0324  0.0818
 9081SOL    HW138879   1.749   0.863   9.052 -1.7397  0.2765 -2.0830
 9081SOL    HW238880   1.697   0.733   9.106 -0.7879 -0.1558  0.1100
 9082SOL     OW38881   4.204   0.518   2.321 -0.1519 -0.3256 -0.2081
 9082SOL    HW138882   4.108   0.523   2.321 -0.1234  0.3144 -1.8996
 9082SOL    HW238883   4.225   0.544   2.231  0.7847 -1.0353 -0.1926
 9083SOL     OW38884   3.101   3.339  12.002  0.0500 -0.4087 -0.0008
 9083SOL    HW138885   3.154   3.368  11.928  1.1233 -0.3278  0.8151
 9083SOL    HW238886   3.141   3.252  12.011 -0.0799 -0.2822  1.6505
 9084SOL     OW38887   1.670   0.473   2.045 -0.6642 -0.1649 -0.2197
 9084SOL    HW138888   1.720   0.397   2.016 -0.9375 -0.2714 -0.4140
 9084SOL    HW238889   1.653   0.527   1.967  3.0375  0.0363 -0.8873
 9085SOL     OW38890   3.320   3.394  16.568  0.0996 -0.0320 -0.0667
 9085SOL    HW138891   3.305   3.299  16.576 -0.3946  0.0184 -0.3722
 9085SOL    HW238892   3.414   3.392  16.585  0.3254 -0.3651 -1.3909
 9086SOL     OW38893   4.411   1.518   2.408 -0.1200 -0.3487  0.2978
 9086SOL    HW138894   4.401   1.588   2.343 -2.2852  0.9422  2.0338
 9086SOL    HW238895   4.340   1.457   2.389  0.0682  0.0655 -1.7473
 9087SOL     OW38896   0.199   2.404  16.807  0.7815 -0.0264  0.4145
 9087SOL    HW138897   0.172   2.455  16.884 -0.0162  0.3727 -0.1261
 9087SOL    HW238898   0.223   2.476  16.750 -0.7417 -1.9499 -2.6507
 9088SOL     OW38899   4.566   3.157   2.990  0.0626  0.0527  0.4347
 9088SOL    HW138900   4.651   3.176   3.031  0.9928 -0.8622 -1.0688
 9088SOL    HW238901   4.594   3.167   2.899  0.5529 -1.2240  0.4446
 9089SOL     OW38902   0.710   4.427   4.760  0.0734  0.3101  0.0999
 9089SOL    HW138903   0.646   4.444   4.691  0.6716 -1.4094 -0.8797
 9089SOL    HW238904   0.699   4.333   4.771  0.7646  0.1314 -0.7088
 9090SOL     OW38905   4.381   1.514   8.409  0.3108 -0.4610  0.0674
 9090SOL    HW138906   4.443   1.542   8.342  0.4147 -2.0011 -0.4748
 9090SOL    HW238907   4.308   1.472   8.363  0.6748  0.2158 -1.0962
 9091SOL     OW38908   4.388   0.988   6.712  0.1230  0.5837  0.0259
 9091SOL    HW138909   4.418   0.980   6.802  0.9658  1.5717 -0.1726
 9091SOL    HW238910   4.411   0.903   6.674  2.1076  0.5331  1.3594
 9092SOL     OW38911   1.835   2.340   2.762  0.1985  0.3781  0.5217
 9092SOL    HW138912   1.794   2.372   2.843 -1.0190  1.5923 -0.5571
 9092SOL    HW238913   1.789   2.387   2.692 -0.1234  0.0997  0.5529
 9093SOL     OW38914   1.003   3.573   0.953  0.1707 -0.0489 -0.8609
 9093SOL    HW138915   0.941   3.642   0.974 -2.4616 -2.4758 -0.7270
 9093SOL    HW238916   0.977   3.514   1.023  0.9881  0.5205 -0.0771
 9094SOL     OW38917   1.331   4.634   3.141 -0.1967 -0.2242  0.0115
 9094SOL    HW138918   1.384   4.555   3.139 -0.5407 -0.4376 -0.4584
 9094SOL    HW238919   1.354   4.673   3.226  0.1997 -0.6381  0.0949
 9095SOL     OW38920   4.143   2.029  10.563 -0.0496 -0.1566  0.7132
 9095SOL    HW138921   4.111   1.955  10.511  0.9633  0.5953 -0.9811
 9095SOL    HW238922   4.220   1.989  10.604  0.2481 -2.5906 -2.2396
 9096SOL     OW38923   0.676   2.095   4.567 -0.1666 -0.1078  0.3293
 9096SOL    HW138924   0.616   2.098   4.641 -0.5939 -0.3747 -0.0012
 9096SOL    HW238925   0.718   2.010   4.580 -0.6691 -0.2750  0.8131
 9097SOL     OW38926   0.502   4.231   1.267  0.1716  0.5510  0.1653
 9097SOL    HW138927   0.552   4.232   1.185  0.3936 -1.1238  0.2723
 9097SOL    HW238928   0.477   4.139   1.275 -0.6436  0.5803 -2.0044
 9098SOL     OW38929   4.193   3.146   4.674  0.3177 -0.6059  0.6192
 9098SOL    HW138930   4.174   3.219   4.732  1.2127  2.2672 -2.6722
 9098SOL    HW238931   4.178   3.192   4.591 -0.0578 -2.3294 -0.2761
 9099SOL     OW38932   1.177   4.337  12.765 -0.2487 -0.2376  1.0708
 9099SOL    HW138933   1.176   4.250  12.725 -2.0974 -0.7981  2.3485
 9099SOL    HW238934   1.245   4.301  12.822  0.7531  0.0347  0.0604
 9100SOL     OW38935   2.580   0.194  12.858 -0.3835  0.4890 -0.7502
 9100SOL    HW138936   2.561   0.175  12.950 -0.9558 -2.3692 -1.4636
 9100SOL    HW238937   2.663   0.239  12.874 -0.2549 -0.6753  1.7930
 9101SOL     OW38938   0.147   3.641   6.855  0.3536 -0.3335  0.1332
 9101SOL    HW138939   0.055   3.646   6.830  0.0639 -0.8809  1.0698
 9101SOL    HW238940   0.153   3.718   6.911  0.1252 -0.5864  0.5140
 9102SOL     OW38941   1.639   1.841   0.246 -0.0993 -0.8799  0.2430
 9102SOL    HW138942   1.621   1.805   0.159  1.2783  0.4414 -0.5912
 9102SOL    HW238943   1.652   1.933   0.223 -0.6277 -0.9228 -0.2397
 9103SOL     OW38944   0.443   3.984   2.181  0.0962 -0.2053  0.3246
 9103SOL    HW138945   0.476   3.910   2.130  0.0286  0.7147 -1.0643
 9103SOL    HW238946   0.387   3.946   2.249 -0.6484  1.0231  0.4060
 9104SOL     OW38947   4.004   3.474   8.586  0.2624  0.4349  0.2704
 9104SOL    HW138948   3.987   3.420   8.663 -1.2841 -2.5668 -2.1590
 9104SOL    HW238949   3.994   3.409   8.516  2.1002 -0.4886  0.8597
 9105SOL     OW38950   4.148   0.368   2.865 -0.4560 -0.4345 -0.2976
 9105SOL    HW138951   4.216   0.407   2.810 -0.1052  1.0813  1.1891
 9105SOL    HW238952   4.172   0.279   2.890  2.6793  0.2748 -0.7417
 9106SOL     OW38953   4.111   0.147  13.958 -0.0928 -0.1180  0.9020
 9106SOL    HW138954   4.023   0.164  13.991 -0.6207 -1.1970  0.0681
 9106SOL    HW238955   4.148   0.235  13.952 -1.1461  0.3653  1.5921
 9107SOL     OW38956   2.957   0.052   9.560  0.1124 -0.8024 -0.0500
 9107SOL    HW138957   3.008   0.131   9.542 -0.8738  0.6169  3.3923
 9107SOL    HW238958   3.028   4.725   9.570 -0.7127 -1.8451 -0.7165
 9108SOL     OW38959   3.710   2.226   7.705  0.1604  0.0670  0.5389
 9108SOL    HW138960   3.770   2.227   7.630  0.1443  3.1939  0.5774
 9108SOL    HW238961   3.624   2.213   7.664 -0.3944 -1.3143  2.1481
 9109SOL     OW38962   2.572   2.364   7.733 -0.0469 -0.3744 -0.1824
 9109SOL    HW138963   2.628   2.369   7.811  0.9136 -0.4035 -0.8657
 9109SOL    HW238964   2.602   2.283   7.692  0.2038 -0.9072  1.0379
 9110SOL     OW38965   4.702   3.372   8.507 -0.3614  0.2411 -0.2644
 9110SOL    HW138966   4.680   3.421   8.587 -0.2347 -1.4371  0.8101
 9110SOL    HW238967   0.060   3.361   8.522 -0.2499 -0.9319 -1.8655
 9111SOL     OW38968   2.873   1.535   2.623 -0.4685 -0.0441 -0.1994
 9111SOL    HW138969   2.920   1.521   2.705  1.1641  1.0460 -0.9677
 9111SOL    HW238970   2.859   1.445   2.593  1.1388 -0.7955  1.2868
 9112SOL     OW38971   1.070   1.961  10.123 -0.3059  0.5465  0.1024
 9112SOL    HW138972   0.974   1.969  10.124 -0.4980 -1.5196 -1.3339
 9112SOL    HW238973   1.075   1.888  10.184 -2.1532 -1.3159 -1.9495
 9113SOL     OW38974   2.787   2.335   7.404  0.1434 -0.6530  0.0313
 9113SOL    HW138975   2.727   2.325   7.330 -0.4475  4.1667 -0.0975
 9113SOL    HW238976   2.777   2.429   7.417 -0.2403 -0.7396  0.3450
 9114SOL     OW38977   3.952   2.879   6.001 -0.7263  0.0178  0.1443
 9114SOL    HW138978   3.918   2.825   5.930 -0.6889  0.8896 -0.5240
 9114SOL    HW238979   4.047   2.864   5.998 -0.4689  0.8894  3.4630
 9115SOL     OW38980   0.136   2.290   8.411 -0.4488 -0.1261  0.3744
 9115SOL    HW138981   0.056   2.249   8.443 -0.3869 -0.3389  0.2540
 9115SOL    HW238982   0.129   2.263   8.320 -2.1976  1.1916  0.1244
 9116SOL     OW38983   1.558   0.651  13.112 -0.5384  0.3341  0.1705
 9116SOL    HW138984   1.583   0.565  13.145 -1.7623 -0.6407 -1.4664
 9116SOL    HW238985   1.620   0.655  13.040 -2.1362  1.8977 -1.1229
 9117SOL     OW38986   1.764   2.220  11.213 -0.4981  0.4016 -0.4992
 9117SOL    HW138987   1.855   2.225  11.242 -0.2332  0.7786 -1.3949
 9117SOL    HW238988   1.731   2.168  11.286  0.0645 -0.7462 -1.0701
 9118SOL     OW38989   4.034   3.252   5.346  0.1498 -0.2604  0.0482
 9118SOL    HW138990   4.128   3.245   5.329  0.5498  0.1924  1.9710
 9118SOL    HW238991   3.999   3.242   5.258  0.5839 -0.4675 -0.0993
 9119SOL     OW38992   0.836   0.115   6.184  0.4102 -0.2276 -0.6302
 9119SOL    HW138993   0.904   0.079   6.242  0.6897  0.3862 -0.5777
 9119SOL    HW238994   0.874   0.199   6.156 -1.4349  0.7070 -0.2930
 9120SOL     OW38995   3.611   1.049   6.579  0.2023 -0.7531  0.5673
 9120SOL    HW138996   3.670   1.070   6.507 -1.2973  1.6450  0.0341
 9120SOL    HW238997   3.535   1.027   6.525  0.0733  1.8639 -0.3534
 9121SOL     OW38998   4.510   3.625   8.649 -0.1978  0.1179 -0.0420
 9121SOL    HW138999   4.416   3.614   8.641 -0.2875 -0.2645  1.6353
 9121SOL    HW239000   4.526   3.565   8.721 -0.5715  0.6718  0.5041
 9122SOL     OW39001   3.771   0.293   4.641 -0.3795 -0.1649 -0.2186
 9122SOL    HW139002   3.750   0.327   4.554  0.4999  2.0332  0.4403
 9122SOL    HW239003   3.855   0.250   4.621 -0.9772 -0.2828 -2.5213
 9123SOL     OW39004   0.907   4.557   9.701  0.0250  0.0446  0.0194
 9123SOL    HW139005   0.914   4.644   9.740 -1.1115 -0.1164  0.5527
 9123SOL    HW239006   0.920   4.512   9.784 -2.0335 -0.9821 -0.2292
 9124SOL     OW39007   0.919   2.471   4.897  0.4289 -0.9958  0.1200
 9124SOL    HW139008   0.994   2.477   4.956  0.4773  0.1759 -0.0615
 9124SOL    HW239009   0.861   2.406   4.937 -1.2909  0.0356 -0.6908
 9125SOL     OW39010   0.785   2.259  11.497  0.1480 -0.1904  0.3937
 9125SOL    HW139011   0.837   2.287  11.572 -0.4214 -0.2200  0.7980
 9125SOL    HW239012   0.693   2.266  11.523  0.3988 -2.2986  1.8660
 9126SOL     OW39013   1.119   1.624  17.435 -0.3042 -0.3910  0.4591
 9126SOL    HW139014   1.088   1.586  17.518 -1.5397  1.1441  0.7041
 9126SOL    HW239015   1.214   1.627  17.446 -0.3061 -0.2961  0.4497
 9127SOL     OW39016   2.292   1.858   6.364  0.1143 -0.3406  0.2356
 9127SOL    HW139017   2.324   1.944   6.336 -1.0808 -0.5440 -1.7661
 9127SOL    HW239018   2.198   1.871   6.372 -0.1525  0.2359 -3.8101
 9128SOL     OW39019   2.292   4.110   6.190 -0.0436 -0.4989 -0.0546
 9128SOL    HW139020   2.202   4.108   6.158 -0.0367  0.9148 -0.1386
 9128SOL    HW239021   2.294   4.192   6.238 -0.6665 -0.8549  0.5825
 9129SOL     OW39022   2.482   1.633  12.764  0.1086  0.0408 -0.1108
 9129SOL    HW139023   2.461   1.631  12.857  0.4329 -1.1058 -0.0632
 9129SOL    HW239024   2.421   1.571  12.724 -2.0173  0.4859  2.4630
 9130SOL     OW39025   4.430   0.402  10.851  0.7467  0.2925  0.5636
 9130SOL    HW139026   4.340   0.373  10.838  0.5892  1.6044 -1.3378
 9130SOL    HW239027   4.475   0.319  10.835  0.7596  0.1924  1.1008
 9131SOL     OW39028   1.717   4.268   2.124 -0.3935 -0.6761 -0.1143
 9131SOL    HW139029   1.622   4.272   2.134 -0.2418  2.3777  0.3371
 9131SOL    HW239030   1.745   4.207   2.192 -0.2954  0.1474  0.5896
 9132SOL     OW39031   3.353   0.338   8.015 -0.0040  0.3464 -0.5242
 9132SOL    HW139032   3.267   0.372   8.040 -0.6536 -0.9775 -0.9800
 9132SOL    HW239033   3.319   0.264   7.964 -0.7845 -1.9852  3.4458
 9133SOL     OW39034   2.898   0.714   6.966 -0.2607  0.0383 -0.2680
 9133SOL    HW139035   2.892   0.762   6.883 -0.3928  1.5255  0.6070
 9133SOL    HW239036   2.879   0.624   6.942  0.6075  0.2878 -1.8913
 9134SOL     OW39037   2.890   4.429   3.373 -0.0168 -0.3747  0.6491
 9134SOL    HW139038   2.808   4.455   3.415 -1.0801 -2.3468 -0.1876
 9134SOL    HW239039   2.944   4.407   3.450  1.1561 -0.9667 -0.3381
 9135SOL     OW39040   2.897   4.210  13.922  0.7151 -0.3587 -0.2584
 9135SOL    HW139041   2.965   4.253  13.870  0.1116 -0.7956 -1.4111
 9135SOL    HW239042   2.892   4.280  13.987  1.2886  0.1800 -0.7914
 9136SOL     OW39043   4.018   4.641   5.769 -0.6551 -0.0852 -0.4781
 9136SOL    HW139044   3.964   4.573   5.811  0.4925  0.4669  1.9101
 9136SOL    HW239045   4.042   4.595   5.689 -1.2948 -1.7559  0.2934
 9137SOL     OW39046   1.579   0.361   3.630  0.7866 -0.1420  0.4632
 9137SOL    HW139047   1.560   0.428   3.564 -0.5328 -0.1533  0.8286
 9137SOL    HW239048   1.592   0.425   3.700 -0.2641  0.3946  0.1693
 9138SOL     OW39049   4.213   0.498   8.962 -0.2144  0.1097  0.1581
 9138SOL    HW139050   4.251   0.413   8.941  0.1817 -0.2404  2.2485
 9138SOL    HW239051   4.291   0.532   9.005 -1.0513  1.0363  0.9570
 9139SOL     OW39052   2.079   3.731   3.243 -0.3597  0.1937  0.5577
 9139SOL    HW139053   2.104   3.655   3.297  2.0742 -0.1853 -1.0855
 9139SOL    HW239054   2.059   3.796   3.310  1.1873  0.3879  0.8433
 9140SOL     OW39055   0.507   4.201  16.989  0.0273  0.0787  0.1667
 9140SOL    HW139056   0.500   4.206  16.894  2.3680 -0.5245 -0.0358
 9140SOL    HW239057   0.501   4.294  17.012 -0.2200 -0.2091  1.2687
 9141SOL     OW39058   2.361   2.955   9.397 -0.2210  0.0735 -0.2418
 9141SOL    HW139059   2.405   3.020   9.452 -0.3882 -2.1196  2.4876
 9141SOL    HW239060   2.270   2.963   9.425 -0.6489 -1.0538 -1.3463
 9142SOL     OW39061   2.545   2.247  16.079  0.6701  0.2522  0.2755
 9142SOL    HW139062   2.497   2.303  16.139 -1.2777 -1.7220  0.5525
 9142SOL    HW239063   2.594   2.185  16.133  1.0398  0.0990 -0.2263
 9143SOL     OW39064   1.831   4.352   8.715 -0.4083 -0.9520  0.6275
 9143SOL    HW139065   1.841   4.410   8.791  2.3377  2.6247 -2.4606
 9143SOL    HW239066   1.918   4.316   8.700 -0.3290 -0.7454  0.5922
 9144SOL     OW39067   1.209   2.574   4.611  0.0325 -0.0794  0.3165
 9144SOL    HW139068   1.118   2.572   4.639  0.3638 -0.1215  1.4244
 9144SOL    HW239069   1.252   2.517   4.675 -0.4211  1.1134  1.6772
 9145SOL     OW39070   1.481   2.713   6.998  0.2002  0.8888  0.1428
 9145SOL    HW139071   1.511   2.792   6.954  0.4409 -0.4969 -2.2106
 9145SOL    HW239072   1.464   2.738   7.089  0.6178 -1.4405  0.8801
 9146SOL     OW39073   2.521   1.232   3.891 -0.2454 -0.2307 -0.5495
 9146SOL    HW139074   2.477   1.279   3.820 -0.4914 -0.3821 -0.4966
 9146SOL    HW239075   2.506   1.295   3.962  1.2769 -1.0911  0.5512
 9147SOL     OW39076   2.729   1.770   7.751 -0.1641 -0.3432  0.2069
 9147SOL    HW139077   2.805   1.774   7.809 -0.9222 -0.4659  1.2158
 9147SOL    HW239078   2.652   1.758   7.807  0.9102 -3.0093  1.1037
 9148SOL     OW39079   4.576   3.708   5.244  0.1624 -0.0460  0.4187
 9148SOL    HW139080   4.635   3.783   5.245  0.2712 -0.1145 -0.3001
 9148SOL    HW239081   4.540   3.720   5.332  0.0327 -1.5853  0.5797
 9149SOL     OW39082   4.163   3.008   7.835 -0.5068  0.1180  0.3550
 9149SOL    HW139083   4.084   2.989   7.884 -0.4269  0.3625  0.5792
 9149SOL    HW239084   4.187   3.089   7.880 -1.1425  1.1858 -1.2278
 9150SOL     OW39085   3.152   0.570   5.693  0.5105 -0.1675  0.0920
 9150SOL    HW139086   3.247   0.561   5.697  0.5309 -0.3269 -0.7679
 9150SOL    HW239087   3.126   0.596   5.605 -0.0836  1.2809  0.6805
 9151SOL     OW39088   4.414   1.087   2.639  0.1880 -0.1019 -0.6628
 9151SOL    HW139089   4.388   1.003   2.676 -1.0669  0.5670 -0.0097
 9151SOL    HW239090   4.348   1.149   2.671  0.0705 -0.3916 -0.3414
 9152SOL     OW39091   3.680   4.206  14.145  0.5363  0.0133  0.0879
 9152SOL    HW139092   3.637   4.286  14.175  0.5011  1.5780 -4.0702
 9152SOL    HW239093   3.651   4.137  14.204 -1.8143  2.0802  1.3199
 9153SOL     OW39094   4.069   0.948   2.402  0.0156  0.3865  0.1154
 9153SOL    HW139095   3.999   0.894   2.437  1.8704 -1.3245  1.1806
 9153SOL    HW239096   4.043   1.036   2.428 -0.8063  0.3533 -0.6031
 9154SOL     OW39097   3.914   4.175  14.760  0.4527 -0.1607  0.0920
 9154SOL    HW139098   3.988   4.138  14.807 -0.6649 -3.0990 -0.4656
 9154SOL    HW239099   3.932   4.268  14.743 -0.2003 -0.4370 -2.0596
 9155SOL     OW39100   0.214   2.829   2.798  0.4767 -0.2947 -0.0412
 9155SOL    HW139101   0.297   2.869   2.819  0.1751 -0.0120  0.6003
 9155SOL    HW239102   0.186   2.796   2.883 -0.9360 -0.2979 -0.5029
 9156SOL     OW39103   3.718   3.952   3.360 -0.5343 -0.6543 -0.7645
 9156SOL    HW139104   3.675   4.018   3.415 -0.2031 -2.2877  1.4931
 9156SOL    HW239105   3.805   3.990   3.351 -0.6376 -1.2997 -4.3015
 9157SOL     OW39106   0.371   4.670   4.548  0.4959 -0.4473  0.1099
 9157SOL    HW139107   0.419   4.668   4.465 -0.0052  1.6356 -0.2226
 9157SOL    HW239108   0.352   0.028   4.556 -0.3465 -0.4796 -1.4921
 9158SOL     OW39109   0.671   3.956   5.976 -0.1930  0.0441  0.2184
 9158SOL    HW139110   0.715   3.963   5.891  1.3115 -0.3412  0.9815
 9158SOL    HW239111   0.701   4.038   6.013  2.5907 -0.9043  0.0606
 9159SOL     OW39112   4.456   2.341  17.372  0.2701 -0.3122 -0.4337
 9159SOL    HW139113   4.370   2.383  17.368  1.2051  1.7082  0.6080
 9159SOL    HW239114   4.486   2.307  17.288  0.9020  1.4917 -0.9313
 9160SOL     OW39115   0.560   3.728   5.328  0.1657 -0.2496  0.4927
 9160SOL    HW139116   0.646   3.693   5.306  0.4254  0.9021 -0.3395
 9160SOL    HW239117   0.540   3.689   5.414 -0.2959  0.6747  0.8135
 9161SOL     OW39118   4.181   0.034  11.947 -0.0382 -0.4886 -0.2465
 9161SOL    HW139119   4.181   0.118  11.901 -0.4253 -0.6017 -0.4530
 9161SOL    HW239120   4.229   4.717  11.883 -0.9291 -2.4029  0.6287
 9162SOL     OW39121   2.193   0.148  10.430 -0.0312  0.3176  0.4271
 9162SOL    HW139122   2.135   0.219  10.457 -2.1791 -0.9946 -0.7415
 9162SOL    HW239123   2.252   0.144  10.505  0.3900  0.3073  0.0969
 9163SOL     OW39124   4.508   1.525   3.976 -0.0971  0.3846  0.4098
 9163SOL    HW139125   4.449   1.526   3.901 -0.6068 -1.4119  0.7788
 9163SOL    HW239126   4.442   1.510   4.044  0.1789 -0.3303  0.5213
 9164SOL     OW39127   1.973   1.807   5.738  0.0668 -0.0867 -0.0186
 9164SOL    HW139128   2.068   1.804   5.745 -0.1492  1.9629  3.7595
 9164SOL    HW239129   1.975   1.769   5.650  0.7116  2.7234 -1.2305
 9165SOL     OW39130   2.115   2.065  12.725  0.2569 -0.6169 -0.3152
 9165SOL    HW139131   2.123   2.159  12.738  0.7258 -0.8615  1.1460
 9165SOL    HW239132   2.193   2.039  12.773 -1.1816 -4.1317  0.1128
 9166SOL     OW39133   4.046   3.322   9.413 -0.1465 -0.1732  0.0630
 9166SOL    HW139134   4.108   3.375   9.462 -1.8620  1.5810  0.3529
 9166SOL    HW239135   3.975   3.386   9.412  1.1963  1.2248 -2.8130
 9167SOL     OW39136   3.488   0.479  16.318 -0.3065  0.0868  0.5614
 9167SOL    HW139137   3.433   0.419  16.369  0.2971  1.3000  2.6371
 9167SOL    HW239138   3.573   0.465  16.359 -0.5306 -0.2903  0.8946
 9168SOL     OW39139   3.395   1.395   8.578 -0.2699 -0.1284  0.3675
 9168SOL    HW139140   3.485   1.419   8.556  0.0294 -1.3243  0.2755
 9168SOL    HW239141   3.371   1.362   8.491 -1.2418 -1.1208  1.0087
 9169SOL     OW39142   1.539   4.579   4.643  0.2260 -0.2832  0.7159
 9169SOL    HW139143   1.570   4.607   4.729  0.7124 -1.9984  1.0897
 9169SOL    HW239144   1.444   4.572   4.658  0.5109 -1.5993  1.9374
 9170SOL     OW39145   4.548   3.433   4.327  0.7429  0.1421  0.4150
 9170SOL    HW139146   4.506   3.372   4.267 -1.7107  2.3988 -0.1508
 9170SOL    HW239147   4.517   3.412   4.414 -0.1568  1.2914  0.3708
 9171SOL     OW39148   4.170   0.810   3.298 -0.3737  0.2693  0.0420
 9171SOL    HW139149   4.249   0.846   3.339 -0.0584  0.3805 -0.6619
 9171SOL    HW239150   4.182   0.821   3.204  1.1607  0.2557  0.2278
 9172SOL     OW39151   0.758   1.909   4.180  0.1591 -0.1885 -0.3091
 9172SOL    HW139152   0.850   1.924   4.199  0.5133 -1.8369 -0.7361
 9172SOL    HW239153   0.760   1.816   4.158 -0.3577 -0.1301 -0.6085
 9173SOL     OW39154   2.299   1.461   8.404 -0.4524 -0.1164 -0.5012
 9173SOL    HW139155   2.391   1.480   8.421 -0.1166 -1.9102 -0.2496
 9173SOL    HW239156   2.295   1.369   8.431  1.4164  0.6195  2.3332
 9174SOL     OW39157   1.936   3.772  16.565  0.4034  0.4366 -0.0708
 9174SOL    HW139158   1.876   3.808  16.630  0.3756 -1.2914  0.8605
 9174SOL    HW239159   1.926   3.834  16.493  2.2480 -0.0514 -0.7571
 9175SOL     OW39160   0.223   0.661   5.627  0.2450  0.0228  0.0340
 9175SOL    HW139161   0.200   0.752   5.647 -0.3869 -0.0587 -0.3140
 9175SOL    HW239162   0.280   0.684   5.553 -1.2156  1.6167 -0.5788
 9176SOL     OW39163   1.597   2.182   5.990  0.3131 -0.2559  0.2646
 9176SOL    HW139164   1.651   2.104   5.978 -1.7657 -1.8436  1.1936
 9176SOL    HW239165   1.640   2.222   6.066 -0.9386  0.6768  0.4879
 9177SOL     OW39166   1.795   2.890   2.566 -0.0939 -0.5163  0.3388
 9177SOL    HW139167   1.886   2.908   2.546 -0.9724  2.2879 -1.0891
 9177SOL    HW239168   1.750   2.864   2.486  1.5060 -0.9313 -0.4196
 9178SOL     OW39169   3.597   3.019   7.812  0.5163 -0.1012  0.3028
 9178SOL    HW139170   3.636   2.936   7.782 -0.1145 -0.4676  0.4948
 9178SOL    HW239171   3.631   3.084   7.750 -0.8408  2.8443  2.6401
 9179SOL     OW39172   1.521   1.233   9.109 -0.5882  0.7442 -0.5009
 9179SOL    HW139173   1.604   1.209   9.151 -1.9190 -0.8444  1.2814
 9179SOL    HW239174   1.535   1.231   9.015 -1.0069  0.8366 -0.5645
 9180SOL     OW39175   2.244   2.123   0.598 -0.4654  0.3572 -0.1464
 9180SOL    HW139176   2.262   2.065   0.672 -0.6577  0.0666 -0.3278
 9180SOL    HW239177   2.242   2.058   0.528 -0.1883  0.4978 -0.2823
 9181SOL     OW39178   3.254   4.193   8.635  0.3032 -0.4155  0.5322
 9181SOL    HW139179   3.236   4.260   8.700 -0.0541 -1.5345  1.5893
 9181SOL    HW239180   3.169   4.150   8.630  0.0303  0.1708  0.2187
 9182SOL     OW39181   3.328   3.336  14.950 -0.3373  0.0580 -0.4447
 9182SOL    HW139182   3.284   3.256  14.978  2.2052 -1.9295 -2.1252
 9182SOL    HW239183   3.269   3.380  14.888 -0.3185 -1.3310 -1.4628
 9183SOL     OW39184   1.948   0.246   2.486  0.7230  0.0141  0.3946
 9183SOL    HW139185   1.875   0.270   2.544 -0.5045 -0.7450 -0.8078
 9183SOL    HW239186   1.981   0.168   2.531 -0.8612 -2.0682 -2.0586
 9184SOL     OW39187   1.251   2.428   4.354 -0.1249  0.4013  0.4407
 9184SOL    HW139188   1.328   2.485   4.351  0.6887 -0.7027 -0.3300
 9184SOL    HW239189   1.208   2.476   4.424 -0.0656  3.1180 -1.3936
 9185SOL     OW39190   1.465   1.086   3.616  0.9590 -0.0806 -0.5957
 9185SOL    HW139191   1.529   1.075   3.687  1.4525  1.4799 -0.7840
 9185SOL    HW239192   1.523   1.144   3.568  0.0086  0.4536 -1.1010
 9186SOL     OW39193   1.505   1.521   3.914 -0.0427 -0.5034 -0.0699
 9186SOL    HW139194   1.493   1.428   3.936  0.3194 -0.0339  2.1214
 9186SOL    HW239195   1.413   1.546   3.912  0.4561  1.2687 -0.6784
 9187SOL     OW39196   1.652   3.700   1.740 -0.2194  0.1292  0.2277
 9187SOL    HW139197   1.619   3.752   1.813 -2.0926 -1.3914  0.4671
 9187SOL    HW239198   1.584   3.635   1.721  0.2151 -0.3998  0.4701
 9188SOL     OW39199   1.485   4.136   7.388 -0.4845  0.2003 -0.5837
 9188SOL    HW139200   1.408   4.164   7.438 -0.5020 -0.6510 -0.1175
 9188SOL    HW239201   1.540   4.214   7.387  1.0198 -0.7684  4.5022
 9189SOL     OW39202   1.684   4.465   8.524 -0.2905  0.1658 -0.4002
 9189SOL    HW139203   1.730   4.431   8.601 -0.0607 -0.6424 -0.8870
 9189SOL    HW239204   1.606   4.409   8.522 -1.2914  1.6130 -1.9688
 9190SOL     OW39205   2.488   0.474   9.774 -0.2088 -0.2829 -0.7583
 9190SOL    HW139206   2.552   0.536   9.808 -0.3213  0.6004 -2.1454
 9190SOL    HW239207   2.516   0.477   9.682 -1.5219 -0.6490 -1.1718
 9191SOL     OW39208   3.418   0.971  12.958  0.4487 -0.2594  0.0220
 9191SOL    HW139209   3.466   0.892  12.982  1.6642  0.9234  1.5820
 9191SOL    HW239210   3.338   0.959  13.010 -0.1477 -0.4974 -0.9610
 9192SOL     OW39211   3.318   0.632   8.193  0.6640 -0.5865  0.1446
 9192SOL    HW139212   3.228   0.634   8.159  1.0208 -1.2122 -0.8274
 9192SOL    HW239213   3.368   0.705   8.158  1.9330 -1.3069  0.4801
 9193SOL     OW39214   3.613   3.003   9.814 -0.2746 -0.3822 -0.3896
 9193SOL    HW139215   3.518   3.007   9.826 -0.1461 -1.7467  1.0912
 9193SOL    HW239216   3.636   2.979   9.904  4.9046  1.6190 -1.1733
 9194SOL     OW39217   2.185   3.459   5.907 -0.3494 -0.2475  0.5191
 9194SOL    HW139218   2.264   3.466   5.960 -1.2654  1.6200  1.6259
 9194SOL    HW239219   2.219   3.473   5.819 -0.4535 -1.5720  0.2715
 9195SOL     OW39220   0.274   0.552  16.113 -0.1532 -0.5380 -0.2347
 9195SOL    HW139221   0.300   0.539  16.022 -0.5582  2.1301 -0.7231
 9195SOL    HW239222   0.210   0.622  16.105  0.3444  0.0263  0.7353
 9196SOL     OW39223   4.084   1.441  14.041  0.1366  0.1786  0.4874
 9196SOL    HW139224   3.992   1.467  14.050 -0.2926 -1.0571 -0.3468
 9196SOL    HW239225   4.087   1.396  13.957 -0.4546  0.1797  0.4682
 9197SOL     OW39226   2.393   2.693  14.216 -0.2736  0.2213 -0.4432
 9197SOL    HW139227   2.302   2.666  14.226 -0.4795  1.2294  0.4431
 9197SOL    HW239228   2.406   2.624  14.151 -2.9560  0.4608 -1.2277
 9198SOL     OW39229   4.321   4.257   8.422  0.3863  0.2169  0.0305
 9198SOL    HW139230   4.353   4.265   8.512 -0.7888  1.5992  0.3247
 9198SOL    HW239231   4.320   4.346   8.386 -1.3817 -0.1446 -0.8170
 9199SOL     OW39232   4.199   0.030  16.862  0.2606  0.1331  0.5090
 9199SOL    HW139233   4.291   0.032  16.833 -0.0261 -1.3346 -0.5148
 9199SOL    HW239234   4.182   4.679  16.898 -1.4750  1.0275  1.7948
 9200SOL     OW39235   0.024   3.228   5.955 -1.0639 -0.1201 -0.4244
 9200SOL    HW139236   0.023   3.219   6.050 -0.0862 -1.0198 -0.4956
 9200SOL    HW239237   0.022   3.323   5.945 -0.9924 -0.0310  0.4787
 9201SOL     OW39238   2.953   2.060   5.067  0.7772  0.0220 -0.8133
 9201SOL    HW139239   2.868   2.048   5.024 -0.6398  2.5067  1.2489
 9201SOL    HW239240   3.010   2.001   5.019 -0.1491 -0.6632 -1.0577
 9202SOL     OW39241   0.926   3.000   0.213 -0.1142 -0.2763  0.3239
 9202SOL    HW139242   0.950   3.031   0.300 -1.2875  3.5350 -0.6688
 9202SOL    HW239243   0.898   3.080   0.167 -0.0961 -0.2908  0.2870
 9203SOL     OW39244   3.979   4.403   3.682  0.4542 -0.3375  0.3603
 9203SOL    HW139245   3.888   4.378   3.665 -0.2566  1.9174  0.7633
 9203SOL    HW239246   3.961   4.496   3.697 -0.0080 -0.7265  2.2118
 9204SOL     OW39247   3.480   1.427   7.836  0.6219 -0.2426  0.2784
 9204SOL    HW139248   3.537   1.365   7.790  1.8565  3.1494 -2.6886
 9204SOL    HW239249   3.546   1.488   7.869 -0.9069  1.6606 -0.2000
 9205SOL     OW39250   2.942   2.440   6.064  0.6980 -0.5082  0.0428
 9205SOL    HW139251   2.991   2.427   5.983  0.5651 -1.3405  0.0930
 9205SOL    HW239252   2.994   2.506   6.110 -0.0703  1.1449 -1.4641
 9206SOL     OW39253   3.309   1.478   5.974  0.3712 -0.6187 -0.6915
 9206SOL    HW139254   3.360   1.559   5.966  1.2094 -1.4127 -3.3262
 9206SOL    HW239255   3.257   1.489   6.053  0.7974  0.1035 -0.5105
 9207SOL     OW39256   4.573   3.591  11.583 -0.5124 -0.1151 -0.0869
 9207SOL    HW139257   4.553   3.660  11.646 -0.9618  0.2911 -0.6771
 9207SOL    HW239258   4.517   3.517  11.608 -0.9792  0.2902  0.0642
 9208SOL     OW39259   3.392   4.068   3.119 -0.2239 -0.4670 -0.0620
 9208SOL    HW139260   3.477   4.105   3.140  0.3277 -2.0139  0.4764
 9208SOL    HW239261   3.413   4.064   3.026 -2.8052  2.7964 -0.7904
 9209SOL     OW39262   2.310   1.651   1.675  0.1701 -0.0221  0.2333
 9209SOL    HW139263   2.395   1.636   1.717  1.6340  1.1558 -2.3018
 9209SOL    HW239264   2.317   1.715   1.604  0.8223 -1.0319 -0.5973
 9210SOL     OW39265   2.485   3.293  13.492 -0.1771 -0.1822 -0.1261
 9210SOL    HW139266   2.465   3.362  13.554 -0.1780 -1.8048  1.6767
 9210SOL    HW239267   2.477   3.213  13.545  2.9704  0.0790  0.7349
 9211SOL     OW39268   3.880   3.832  10.349  0.3065 -0.1796  0.1780
 9211SOL    HW139269   3.906   3.884  10.272  1.9914 -2.8025 -1.0234
 9211SOL    HW239270   3.925   3.749  10.333  0.7365  0.3310 -1.3195
 9212SOL     OW39271   2.675   0.219   5.339 -0.0497  0.5751 -0.1229
 9212SOL    HW139272   2.707   0.296   5.386 -2.3627  1.4650  0.0064
 9212SOL    HW239273   2.749   0.205   5.279  0.6336  1.7377  0.4299
 9213SOL     OW39274   4.292   0.719   1.218  0.0651  0.5953 -0.2358
 9213SOL    HW139275   4.317   0.806   1.248 -1.4682  0.9592 -0.0275
 9213SOL    HW239276   4.361   0.670   1.263 -1.0760  1.5733  2.6319
 9214SOL     OW39277   1.851   4.049   5.559  0.1628  0.1147  0.2268
 9214SOL    HW139278   1.787   3.978   5.555  0.3003 -0.0944  1.7221
 9214SOL    HW239279   1.921   4.023   5.500  0.5372 -0.0996  0.7623
 9215SOL     OW39280   1.434   3.204   7.857  0.1444 -0.4209 -0.3837
 9215SOL    HW139281   1.453   3.242   7.771 -0.2607 -0.0211 -0.2954
 9215SOL    HW239282   1.402   3.277   7.909 -0.3697  0.6046 -2.1439
 9216SOL     OW39283   2.510   0.268  14.013  0.1901  0.3646  0.3019
 9216SOL    HW139284   2.465   0.214  14.077  0.0006  0.2131  0.0449
 9216SOL    HW239285   2.433   0.313  13.978  0.2330  0.1972 -0.0070
 9217SOL     OW39286   2.988   1.133   4.881  0.4420 -0.4943 -0.3748
 9217SOL    HW139287   2.922   1.072   4.847  2.2247 -1.3610 -2.2468
 9217SOL    HW239288   3.054   1.069   4.907  0.6639 -0.1237 -0.0338
 9218SOL     OW39289   0.868   1.925   7.032  0.3676  0.3583 -0.6632
 9218SOL    HW139290   0.899   1.990   7.094  1.6325 -0.4096 -0.4825
 9218SOL    HW239291   0.774   1.921   7.050  0.2611  2.7655 -0.7127
 9219SOL     OW39292   0.131   0.490   2.011 -0.1120  0.5150 -0.2794
 9219SOL    HW139293   0.072   0.541   2.066 -2.5651 -4.9297  2.1262
 9219SOL    HW239294   0.191   0.475   2.083 -2.1324  2.8614  1.9155
 9220SOL     OW39295   0.113   1.532  10.620  0.2869 -0.0189 -0.1572
 9220SOL    HW139296   0.145   1.498  10.703  1.6300 -0.0982 -0.7146
 9220SOL    HW239297   0.115   1.627  10.628  0.7325 -0.1362  1.1278
 9221SOL     OW39298   2.906   2.248   6.634  0.6662  0.1475 -0.2007
 9221SOL    HW139299   2.936   2.210   6.551  0.4831 -0.9279  0.2287
 9221SOL    HW239300   2.830   2.300   6.608 -0.2846 -0.0811  2.1392
 9222SOL     OW39301   1.172   4.381  10.096  0.0327 -0.5247 -0.1880
 9222SOL    HW139302   1.229   4.320  10.049 -1.0929 -0.2186 -1.9400
 9222SOL    HW239303   1.230   4.448  10.132 -1.0622 -0.6368  1.7752
 9223SOL     OW39304   2.998   2.552  10.166 -0.4670  0.2974 -0.0946
 9223SOL    HW139305   2.996   2.623  10.229  0.8075 -0.4194  0.7479
 9223SOL    HW239306   3.089   2.520  10.164 -1.4415 -2.3977 -1.1034
 9224SOL     OW39307   2.661   1.255   7.734 -0.4654  0.2595 -0.0412
 9224SOL    HW139308   2.704   1.339   7.743 -0.2090  0.1891 -0.5732
 9224SOL    HW239309   2.655   1.222   7.824  2.1102  0.4162  0.1665
 9225SOL     OW39310   0.744   4.150  16.663 -0.1502 -0.3600  0.2530
 9225SOL    HW139311   0.753   4.160  16.568  3.2695 -0.5472  0.5586
 9225SOL    HW239312   0.651   4.172  16.667 -0.2411 -1.1172  2.0845
 9226SOL     OW39313   1.998   4.045   6.298 -0.4099 -0.4989 -0.4076
 9226SOL    HW139314   1.980   3.955   6.271 -1.5344  0.2115 -1.9818
 9226SOL    HW239315   1.976   4.094   6.219  0.3872  4.3481  2.3653
 9227SOL     OW39316   0.312   3.917  15.596  0.4853 -0.8321 -0.0710
 9227SOL    HW139317   0.371   3.881  15.529 -1.9121 -0.5628 -2.2969
 9227SOL    HW239318   0.334   3.849  15.660 -0.7585 -0.0201  1.1877
 9228SOL     OW39319   1.019   0.683  11.200 -0.0996  0.4543  0.2856
 9228SOL    HW139320   1.084   0.634  11.250 -2.1007 -1.4853  1.0263
 9228SOL    HW239321   0.982   0.615  11.143  0.7087  1.4571 -1.4306
 9229SOL     OW39322   0.112   3.528   1.192  0.2174  0.1817 -0.2902
 9229SOL    HW139323   0.057   3.606   1.202 -0.9396 -0.5518 -0.8036
 9229SOL    HW239324   0.083   3.470   1.262 -0.7871  1.9271  0.7389
 9230SOL     OW39325   1.709   1.347  17.680 -0.0539 -0.4183 -0.0823
 9230SOL    HW139326   1.666   1.265  17.655 -0.8163  0.8562 -2.8387
 9230SOL    HW239327   1.639   1.396  17.722  0.4359 -1.1684  1.6494
 9231SOL     OW39328   4.735   4.507   6.653 -0.5691  0.0838  0.0018
 9231SOL    HW139329   4.658   4.556   6.680 -1.2097  0.2081 -2.0379
 9231SOL    HW239330   0.065   4.577   6.650 -0.3052 -0.1127  1.3628
 9232SOL     OW39331   4.150   2.610   8.364 -0.3826  0.0374  0.0312
 9232SOL    HW139332   4.241   2.625   8.339 -0.3163 -0.3464  0.0430
 9232SOL    HW239333   4.128   2.681   8.424 -1.2557  0.8719 -1.2833
 9233SOL     OW39334   1.391   4.329   7.114 -0.0140  0.1186  0.0603
 9233SOL    HW139335   1.481   4.351   7.139  0.3226 -2.7027  1.2735
 9233SOL    HW239336   1.356   4.372   7.192 -0.5476  0.7241 -0.5244
 9234SOL     OW39337   3.570   1.752   0.645  0.5894  0.2082  0.0604
 9234SOL    HW139338   3.532   1.732   0.730 -2.8415 -1.1637 -1.7884
 9234SOL    HW239339   3.639   1.813   0.670  3.1620 -2.4521 -0.5402
 9235SOL     OW39340   1.433   1.263   3.943  0.5024 -0.2000  0.5721
 9235SOL    HW139341   1.484   1.195   3.898 -1.5178 -0.0595 -1.9475
 9235SOL    HW239342   1.351   1.216   3.958 -0.2413  1.3397  1.2889
 9236SOL     OW39343   1.610   2.765   8.870  0.1321 -0.3821 -0.3145
 9236SOL    HW139344   1.554   2.696   8.907 -0.4319 -1.0260 -2.3440
 9236SOL    HW239345   1.655   2.788   8.951  2.5726 -0.8431 -1.5316
 9237SOL     OW39346   3.860   3.470  11.305  0.3680 -0.3605 -0.4753
 9237SOL    HW139347   3.821   3.554  11.327 -1.1076 -1.5842  1.6226
 9237SOL    HW239348   3.837   3.462  11.213 -1.2740 -1.5214  0.0321
 9238SOL     OW39349   2.831   2.785   7.091 -0.1398 -0.7789 -0.4149
 9238SOL    HW139350   2.915   2.750   7.121  0.1671  0.3836  0.0813
 9238SOL    HW239351   2.821   2.726   7.017 -0.2104 -1.1145 -0.1381
 9239SOL     OW39352   1.769   3.155   7.339  0.6542  0.8025 -0.0469
 9239SOL    HW139353   1.855   3.144   7.381  0.4367 -0.7903 -0.0241
 9239SOL    HW239354   1.787   3.161   7.246 -1.8330  0.5348 -0.5526
 9240SOL     OW39355   2.463   4.282   4.411 -0.6158 -0.3917  0.4278
 9240SOL    HW139356   2.509   4.246   4.336 -1.4397  1.1775 -0.8198
 9240SOL    HW239357   2.374   4.289   4.378 -0.4685 -0.0649  0.0994
 9241SOL     OW39358   2.681   0.675  15.419  0.2709  0.2206 -0.3486
 9241SOL    HW139359   2.607   0.631  15.377 -0.8309  1.4406  0.3052
 9241SOL    HW239360   2.730   0.595  15.436  1.6120  0.8178 -1.4142
 9242SOL     OW39361   2.004   2.236  13.712  0.6620 -0.1711  0.4022
 9242SOL    HW139362   1.986   2.143  13.724  0.5122  0.0018  1.5214
 9242SOL    HW239363   1.949   2.253  13.636 -0.8860  1.0030  1.7883
 9243SOL     OW39364   0.258   0.947   8.235  0.8451 -0.6263 -0.3814
 9243SOL    HW139365   0.244   0.931   8.329 -0.4554  2.5935 -0.0322
 9243SOL    HW239366   0.303   0.865   8.216  1.0120 -0.6014 -0.1000
 9244SOL     OW39367   1.151   3.610  16.660 -0.3176  0.3418 -0.5347
 9244SOL    HW139368   1.071   3.641  16.617 -0.8514  0.5149  0.5961
 9244SOL    HW239369   1.109   3.540  16.710 -3.1449  4.6163  3.0804
 9245SOL     OW39370   0.617   1.101   5.491  0.0170 -0.3785  0.0201
 9245SOL    HW139371   0.587   1.180   5.445  1.1533 -0.3652 -0.7035
 9245SOL    HW239372   0.623   1.132   5.581 -2.6764 -1.8149  0.6964
 9246SOL     OW39373   1.051   0.987   8.809 -0.3514  0.2575  0.1903
 9246SOL    HW139374   1.114   0.999   8.880  0.0871 -1.2828  0.0577
 9246SOL    HW239375   1.098   1.025   8.734  0.4937  2.0555  1.6363
 9247SOL     OW39376   3.674   3.048   2.145 -0.2581  0.5555 -0.2461
 9247SOL    HW139377   3.703   3.022   2.233  1.0390  0.1615 -0.7867
 9247SOL    HW239378   3.638   2.960   2.130  1.2287  0.0773 -1.0232
 9248SOL     OW39379   0.577   0.339   5.552 -0.5192 -0.4640 -0.5870
 9248SOL    HW139380   0.604   0.253   5.520  0.3876  0.0702 -1.2529
 9248SOL    HW239381   0.488   0.320   5.581 -0.4034  0.8655  0.6259
 9249SOL     OW39382   0.693   4.312  14.571  0.1177  0.0692  0.1902
 9249SOL    HW139383   0.726   4.234  14.615  1.3659  0.9475  0.8228
 9249SOL    HW239384   0.603   4.306  14.602 -0.1897 -0.7953 -0.8865
 9250SOL     OW39385   3.969   0.446   5.159 -0.4296  0.2209 -0.0343
 9250SOL    HW139386   3.909   0.375   5.180 -1.1163  0.3931 -1.3849
 9250SOL    HW239387   3.998   0.427   5.069 -1.9358  0.1602 -0.5027
 9251SOL     OW39388   2.334   4.623  11.304 -0.0061 -0.7695  0.0422
 9251SOL    HW139389   2.354   4.620  11.398  1.5241  3.0362 -0.1481
 9251SOL    HW239390   2.420   4.642  11.265  0.8740  0.1726  2.4477
 9252SOL     OW39391   3.756   2.824   6.220  0.0839  0.5183  0.1426
 9252SOL    HW139392   3.837   2.874   6.233 -0.6524  2.1756 -1.6533
 9252SOL    HW239393   3.700   2.875   6.161  0.9641  2.1569  0.6971
 9253SOL     OW39394   1.162   2.637  13.501  0.6078 -0.5410  0.0591
 9253SOL    HW139395   1.254   2.620  13.523  0.3140 -0.6024  1.2406
 9253SOL    HW239396   1.157   2.712  13.559  1.7900 -0.3909 -0.0395
 9254SOL     OW39397   3.634   4.310   8.533  0.5474  0.6538 -0.0649
 9254SOL    HW139398   3.621   4.353   8.449 -1.3884  1.3004  0.5670
 9254SOL    HW239399   3.726   4.328   8.550  0.0562  2.4301  0.6682
 9255SOL     OW39400   2.899   3.008   7.235  0.3572  0.5279 -0.1160
 9255SOL    HW139401   2.859   2.928   7.202  1.8025 -0.4549  0.5140
 9255SOL    HW239402   2.960   3.041   7.169  0.2970 -0.6796 -0.7621
 9256SOL     OW39403   0.340   2.337  12.576  0.0587 -0.1091  0.1799
 9256SOL    HW139404   0.407   2.303  12.516  0.3745 -0.1609  0.5622
 9256SOL    HW239405   0.395   2.396  12.628  0.2629 -0.4620  0.3659
 9257SOL     OW39406   3.680   0.641   6.224 -0.6323  0.2971 -0.2518
 9257SOL    HW139407   3.665   0.551   6.252 -0.9711 -0.0814 -1.6349
 9257SOL    HW239408   3.678   0.625   6.129  2.5881 -1.4176 -0.0235
 9258SOL     OW39409   2.765   1.033   7.227  0.0987 -0.4405 -0.3816
 9258SOL    HW139410   2.845   0.983   7.242  0.4334  0.2093  0.0025
 9258SOL    HW239411   2.706   0.963   7.198  0.3126 -1.3391  1.3633
 9259SOL     OW39412   2.084   4.316   7.646 -0.0827 -0.3302  0.3804
 9259SOL    HW139413   2.006   4.262   7.649  0.4187 -1.1140 -0.5830
 9259SOL    HW239414   2.048   4.379   7.708  0.8213 -0.9525  1.5394
 9260SOL     OW39415   0.426   2.768   4.652  0.0952  0.6490 -0.1970
 9260SOL    HW139416   0.390   2.849   4.617  3.5388  1.3981 -2.0392
 9260SOL    HW239417   0.415   2.773   4.747  0.0323  3.2566 -0.3425
 9261SOL     OW39418   0.872   3.244   3.213 -0.8676  0.6954 -0.2802
 9261SOL    HW139419   0.902   3.156   3.236 -2.5281 -0.0704 -1.0261
 9261SOL    HW239420   0.840   3.276   3.297 -0.4880  0.6850 -0.1311
 9262SOL     OW39421   4.330   3.800  15.462  0.6620 -0.4580  0.3221
 9262SOL    HW139422   4.279   3.719  15.450 -1.9031  1.5619 -2.4764
 9262SOL    HW239423   4.292   3.849  15.534 -3.0646 -2.6110 -0.1854
 9263SOL     OW39424   1.655   1.963   7.916  0.5143 -0.3837 -0.7196
 9263SOL    HW139425   1.658   2.057   7.934  1.5241 -1.0483  2.5655
 9263SOL    HW239426   1.738   1.941   7.874  0.5695 -2.5538  0.5224
 9264SOL     OW39427   4.435   3.117   7.067  0.2650 -0.1862  0.1985
 9264SOL    HW139428   4.361   3.063   7.095 -0.2676 -0.3961 -1.6465
 9264SOL    HW239429   4.501   3.048   7.059 -0.1772 -0.7053  1.0246
 9265SOL     OW39430   2.807   2.707   8.921  0.7443 -0.2119  0.0337
 9265SOL    HW139431   2.802   2.611   8.920 -0.5071 -0.1053 -4.1656
 9265SOL    HW239432   2.764   2.719   9.006  2.2688  0.5349  0.6885
 9266SOL     OW39433   3.437   3.649   2.520  0.0015 -0.3558 -0.2721
 9266SOL    HW139434   3.468   3.564   2.489  2.4082 -0.4823  2.4389
 9266SOL    HW239435   3.382   3.612   2.589 -0.7920 -0.5631 -1.0141
 9267SOL     OW39436   2.675   0.246   0.904 -0.0258 -0.3357  0.0892
 9267SOL    HW139437   2.649   0.273   0.816 -1.6073  2.9561  1.5833
 9267SOL    HW239438   2.626   0.163   0.903  1.9702 -1.5110  1.6104
 9268SOL     OW39439   0.009   3.720   0.746  0.1860  0.3725  0.3585
 9268SOL    HW139440   0.035   3.628   0.740  0.7856  0.4749  1.4793
 9268SOL    HW239441   4.715   3.739   0.835 -1.8109 -0.0716 -0.2075
 9269SOL     OW39442   1.528   0.841   9.359 -0.3520 -0.1648  0.0227
 9269SOL    HW139443   1.480   0.759   9.359  1.6188 -1.2995 -1.3743
 9269SOL    HW239444   1.524   0.842   9.264  0.6112  0.9475 -0.0170
 9270SOL     OW39445   2.883   2.101   3.423 -0.1978  0.0013  0.2816
 9270SOL    HW139446   2.948   2.033   3.439 -1.6258 -1.2235  0.8906
 9270SOL    HW239447   2.935   2.175   3.391  0.6122  0.3103  2.3337
 9271SOL     OW39448   1.998   1.795   5.039 -0.5192 -0.0845  0.2757
 9271SOL    HW139449   1.997   1.813   5.133  1.6247 -0.9204  0.4493
 9271SOL    HW239450   1.979   1.701   5.036 -0.8077 -0.0462  0.8541
 9272SOL     OW39451   0.149   3.140   7.926 -0.3069  0.0174 -0.5859
 9272SOL    HW139452   0.125   3.076   7.858  1.3601  1.0472 -2.1355
 9272SOL    HW239453   0.061   3.166   7.952  0.0521  0.0034  0.6793
 9273SOL     OW39454   0.484   1.031   2.713 -0.3246  0.2131  0.0740
 9273SOL    HW139455   0.536   0.973   2.768  2.4155  0.0512 -2.6811
 9273SOL    HW239456   0.453   1.098   2.774 -1.1242  0.5179 -0.6582
 9274SOL     OW39457   2.887   3.889   6.546  0.1950 -0.1997 -0.1312
 9274SOL    HW139458   2.879   3.884   6.642  0.3952  1.2636 -0.0399
 9274SOL    HW239459   2.798   3.857   6.530 -0.3679  0.8351  0.8952
 9275SOL     OW39460   3.773   2.821  16.023  0.1466  0.1692 -0.0238
 9275SOL    HW139461   3.801   2.786  16.108  2.0979 -0.3901 -0.9003
 9275SOL    HW239462   3.678   2.818  16.035 -0.0567  2.6723 -1.1362
 9276SOL     OW39463   3.446   4.610  10.257  0.4479 -0.1568 -0.0288
 9276SOL    HW139464   3.458   4.702  10.278  0.1105 -0.3785  1.1469
 9276SOL    HW239465   3.464   4.562  10.338 -1.6824  1.5389  1.4398
 9277SOL     OW39466   2.792   4.149   7.954 -0.1818 -0.3388 -0.2032
 9277SOL    HW139467   2.796   4.077   8.017  2.7929 -0.6821 -0.7724
 9277SOL    HW239468   2.697   4.149   7.947 -0.1936 -1.0729 -0.0627
 9278SOL     OW39469   2.524   0.363   8.575  0.4007 -0.1577 -0.0995
 9278SOL    HW139470   2.482   0.291   8.622  1.4450 -2.3030 -2.4503
 9278SOL    HW239471   2.563   0.415   8.645  1.6160  1.1781 -1.7726
 9279SOL     OW39472   0.010   2.713   2.591 -0.2036 -0.5107 -0.1498
 9279SOL    HW139473   0.018   2.767   2.512  0.8543  0.8292  0.8716
 9279SOL    HW239474   0.058   2.768   2.653 -0.0035  1.7130 -2.2763
 9280SOL     OW39475   4.504   0.624   2.350 -0.2754 -0.0796  0.0801
 9280SOL    HW139476   4.450   0.703   2.345 -0.6391 -0.3292  0.0451
 9280SOL    HW239477   4.443   0.550   2.352 -0.8507  0.3613 -1.0675
 9281SOL     OW39478   2.629   4.050   7.699 -0.2610 -0.1299  0.2376
 9281SOL    HW139479   2.559   4.097   7.745 -3.1100 -3.2087 -0.9656
 9281SOL    HW239480   2.645   3.977   7.759  2.6385 -1.0677 -1.6655
 9282SOL     OW39481   0.161   3.093  17.162 -0.0963  0.4122  0.2205
 9282SOL    HW139482   0.115   3.171  17.132  0.7607  0.8606  0.0848
 9282SOL    HW239483   0.139   3.103  17.254  0.4864 -1.8393  0.6076
 9283SOL     OW39484   0.055   2.429   6.110  0.1088  0.2980 -0.3441
 9283SOL    HW139485   0.037   2.480   6.031 -1.7881 -0.4644 -0.3891
 9283SOL    HW239486   0.055   2.340   6.075  0.2561  0.5473 -0.9733
 9284SOL     OW39487   4.680   2.863  12.291  0.3574 -0.3513 -0.2914
 9284SOL    HW139488   4.672   2.819  12.376 -1.5360  0.4547 -0.0488
 9284SOL    HW239489   4.587   2.884  12.278 -0.1309 -1.9282  0.5975
 9285SOL     OW39490   1.694   0.787   5.421  0.8797 -0.1350 -0.2855
 9285SOL    HW139491   1.618   0.772   5.364  1.7517  0.8766 -1.6958
 9285SOL    HW239492   1.757   0.801   5.351  1.0292 -0.9570 -0.3176
 9286SOL     OW39493   1.222   3.189  16.294 -0.1606 -0.0802 -0.4142
 9286SOL    HW139494   1.211   3.131  16.218 -1.2493  0.1747 -0.4574
 9286SOL    HW239495   1.308   3.156  16.319 -0.3972  1.3156  2.2078
 9287SOL     OW39496   0.200   0.064   6.177  0.1319  0.0601  0.1234
 9287SOL    HW139497   0.211   0.048   6.083 -0.4762  0.4429 -0.0141
 9287SOL    HW239498   0.251   4.729   6.216 -0.2026 -0.0235  0.4063
 9288SOL     OW39499   0.665   0.290   2.893 -0.3198 -0.0379 -0.0924
 9288SOL    HW139500   0.703   0.228   2.955  2.9270  2.4828  0.4409
 9288SOL    HW239501   0.583   0.247   2.870  0.0895 -0.2870 -1.0605
 9289SOL     OW39502   1.002   1.060  11.561 -0.2560 -0.2018  0.1255
 9289SOL    HW139503   1.038   0.989  11.508 -1.2794 -0.1961 -0.5669
 9289SOL    HW239504   0.999   1.017  11.647 -2.1112  0.1803  0.2445
 9290SOL     OW39505   0.239   0.979  16.282 -0.0059  0.6853  0.5023
 9290SOL    HW139506   0.333   0.983  16.300  0.2760 -1.1239 -0.5265
 9290SOL    HW239507   0.221   1.072  16.295  1.2148  1.0518 -0.4927
 9291SOL     OW39508   1.250   4.705  11.626 -0.2119  0.1005  0.2241
 9291SOL    HW139509   1.181   4.676  11.567 -1.6562 -0.3526  2.1549
 9291SOL    HW239510   1.296   4.624  11.647  1.1092  0.7103 -0.3051
 9292SOL     OW39511   0.315   1.003   8.532 -0.0076  0.6205 -0.2042
 9292SOL    HW139512   0.360   0.929   8.491  1.9627  0.8959  1.4996
 9292SOL    HW239513   0.379   1.074   8.532  0.8095 -0.1216 -1.2575
 9293SOL     OW39514   3.065   4.432  13.369 -0.3827 -0.4032 -0.0756
 9293SOL    HW139515   3.018   4.471  13.443  1.0504  0.8388  0.1879
 9293SOL    HW239516   3.025   4.481  13.297  1.0062 -0.5233 -0.9122
 9294SOL     OW39517   3.307   3.179   9.620  0.1605  0.2676 -0.8200
 9294SOL    HW139518   3.394   3.207   9.648 -0.2082 -0.0627  0.6251
 9294SOL    HW239519   3.262   3.262   9.606 -0.4742  0.0164 -0.2272
 9295SOL     OW39520   3.138   1.130   1.342 -0.2605  0.3331 -0.1954
 9295SOL    HW139521   3.056   1.111   1.387 -0.7159  0.7956 -0.8382
 9295SOL    HW239522   3.175   1.208   1.383 -0.6122 -0.9568  2.6188
 9296SOL     OW39523   0.163   0.919   4.699  0.2038 -0.0400 -0.2576
 9296SOL    HW139524   0.087   0.883   4.653  0.2091  1.4897 -1.4636
 9296SOL    HW239525   0.123   0.970   4.769 -0.0844  0.5770 -0.8754
 9297SOL     OW39526   3.901   4.259   2.582 -0.5875  0.1329  0.4887
 9297SOL    HW139527   3.823   4.296   2.540  0.7009 -0.0294 -2.0341
 9297SOL    HW239528   3.922   4.323   2.650 -1.4182  2.1791 -1.1691
 9298SOL     OW39529   1.461   0.679   1.228  0.0319  0.4156 -0.2707
 9298SOL    HW139530   1.377   0.687   1.182  0.0995  0.8022 -0.3306
 9298SOL    HW239531   1.521   0.660   1.155  2.0648  0.8499  1.3104
 9299SOL     OW39532   4.109   1.954   7.355  0.0241 -0.3264 -0.6823
 9299SOL    HW139533   4.137   2.024   7.414  1.3756 -0.6939 -0.8792
 9299SOL    HW239534   4.165   1.887   7.394 -1.3317 -1.7377 -1.1852
 9300SOL     OW39535   0.303   0.809   3.944 -0.1548 -0.3009  0.1082
 9300SOL    HW139536   0.250   0.885   3.920 -0.8175 -0.7039  0.2995
 9300SOL    HW239537   0.326   0.834   4.033  1.6775 -0.1500 -0.3898
 9301SOL     OW39538   1.158   2.402  10.515 -0.1821 -0.3075 -0.4380
 9301SOL    HW139539   1.242   2.405  10.469 -0.2608 -1.3682 -0.6536
 9301SOL    HW239540   1.177   2.445  10.598 -2.1998  0.5352 -0.4202
 9302SOL     OW39541   2.250   2.286   3.672 -0.2188 -0.1673  0.3476
 9302SOL    HW139542   2.258   2.228   3.596  1.3674  0.2857  0.1646
 9302SOL    HW239543   2.241   2.372   3.631 -2.1840 -1.0857 -1.1473
 9303SOL     OW39544   4.416   0.296   3.310  0.0962  0.3489 -0.6383
 9303SOL    HW139545   4.417   0.328   3.400  1.9366 -1.1141 -0.1505
 9303SOL    HW239546   4.354   0.361   3.277  0.1188  0.6585 -0.0622
 9304SOL     OW39547   2.487   0.502  13.604  0.0079  0.4514 -0.0983
 9304SOL    HW139548   2.479   0.538  13.693 -0.0251 -0.3053  0.2022
 9304SOL    HW239549   2.397   0.514  13.575  0.9048  1.1353 -2.5830
 9305SOL     OW39550   3.871   0.378   9.031  0.4447 -0.0592  0.0984
 9305SOL    HW139551   3.804   0.314   9.056  0.0953  0.4187  0.3667
 9305SOL    HW239552   3.893   0.406   9.120  3.3952  0.6622 -0.8367
 9306SOL     OW39553   3.582   2.639   3.243  0.4329 -1.1647 -0.3224
 9306SOL    HW139554   3.591   2.697   3.319 -0.0265 -1.4992 -0.0137
 9306SOL    HW239555   3.672   2.625   3.214  0.6124  1.8806 -1.1940
 9307SOL     OW39556   0.040   3.430  16.607  0.5430  0.1032 -0.2717
 9307SOL    HW139557   4.735   3.502  16.559  0.2715  0.0466 -0.1282
 9307SOL    HW239558   0.101   3.489  16.652  0.1366  0.3875 -0.0887
 9308SOL     OW39559   3.872   3.176   9.603  0.2540  0.0257  0.3092
 9308SOL    HW139560   3.943   3.202   9.545  2.2955 -2.5173  1.7026
 9308SOL    HW239561   3.892   3.091   9.641 -1.4543 -1.4218 -1.9908
 9309SOL     OW39562   0.071   3.433  14.822  0.0928  0.0844  0.1009
 9309SOL    HW139563   0.059   3.433  14.917  2.7433 -1.7915  0.4618
 9309SOL    HW239564   0.044   3.521  14.796 -1.9978 -0.6518 -0.1903
 9310SOL     OW39565   3.914   0.974  10.701 -0.4327  0.0830 -0.0546
 9310SOL    HW139566   3.978   0.915  10.661 -0.5490 -1.3859  1.9387
 9310SOL    HW239567   3.952   0.995  10.786 -0.4947  2.1551 -0.5294
 9311SOL     OW39568   2.496   1.522   9.182  0.0857 -0.3396  0.4749
 9311SOL    HW139569   2.517   1.494   9.271 -2.3508 -0.3991  1.0185
 9311SOL    HW239570   2.444   1.445   9.160  0.6212 -0.6720  0.3820
 9312SOL     OW39571   3.013   0.687  13.610 -1.0187 -0.3801 -0.0993
 9312SOL    HW139572   3.059   0.698  13.526  1.4661 -0.6772  1.2109
 9312SOL    HW239573   2.946   0.754  13.621 -0.0639  0.7550 -1.1004
 9313SOL     OW39574   1.957   2.743   0.081  0.2860 -0.1536 -0.7188
 9313SOL    HW139575   2.018   2.718   0.150  2.9867  0.7339 -2.8042
 9313SOL    HW239576   1.901   2.799   0.134  0.5775 -1.1789  0.6593
 9314SOL     OW39577   3.722   1.688  15.058  0.1765  0.3844 -0.1975
 9314SOL    HW139578   3.693   1.749  15.126 -1.9376 -1.2216  0.3318
 9314SOL    HW239579   3.688   1.725  14.977 -0.3865  0.5672  0.1170
 9315SOL     OW39580   3.243   3.303   3.729  0.1042 -0.3796 -0.0097
 9315SOL    HW139581   3.172   3.309   3.666  1.8956  1.4900 -1.8429
 9315SOL    HW239582   3.256   3.208   3.723  0.2571 -0.3269 -0.4885
 9316SOL     OW39583   2.356   4.447   8.133 -0.0235 -0.0302 -0.4144
 9316SOL    HW139584   2.269   4.479   8.107 -0.0265  1.0588  0.9182
 9316SOL    HW239585   2.353   4.368   8.080 -1.6184  1.5901 -2.7681
 9317SOL     OW39586   0.824   2.500   2.840 -0.1948 -0.3204  0.2368
 9317SOL    HW139587   0.815   2.538   2.752 -0.3410  0.8272  0.7417
 9317SOL    HW239588   0.830   2.579   2.894  1.7167 -0.2317 -0.0871
 9318SOL     OW39589   3.238   0.828   2.281 -0.0017  0.2023 -1.0555
 9318SOL    HW139590   3.209   0.782   2.360  2.0823 -1.7138 -1.4089
 9318SOL    HW239591   3.233   0.919   2.309  0.2187 -0.6519  1.7656
 9319SOL     OW39592   1.613   2.258   6.865  0.2234 -0.7902 -0.4457
 9319SOL    HW139593   1.637   2.324   6.800  0.6398 -0.0340  0.4655
 9319SOL    HW239594   1.545   2.212   6.817 -1.3172 -1.1219  2.0405
 9320SOL     OW39595   4.058   0.070   7.522  0.2475 -0.2974 -0.5845
 9320SOL    HW139596   4.134   0.065   7.581  0.6529  0.8635 -1.0101
 9320SOL    HW239597   4.069   4.716   7.490  0.4306 -0.1615 -0.9047
 9321SOL     OW39598   3.548   3.837   7.771  0.1689 -0.1522  0.1979
 9321SOL    HW139599   3.545   3.918   7.822  0.3478  0.7348 -1.1835
 9321SOL    HW239600   3.613   3.783   7.814  0.1645  0.2556  0.7117
 9322SOL     OW39601   4.236   4.308   3.541  0.9931 -0.0037  0.1656
 9322SOL    HW139602   4.148   4.332   3.571  1.5336  0.9473  0.9749
 9322SOL    HW239603   4.236   4.334   3.449  0.3558  0.1870  0.2186
 9323SOL     OW39604   2.029   4.414   3.730  0.2017  0.5879  0.1868
 9323SOL    HW139605   1.956   4.458   3.773 -0.4185 -0.9361  0.7036
 9323SOL    HW239606   2.007   4.329   3.769  0.5566  1.0851  1.4925
 9324SOL     OW39607   3.393   2.581  17.561 -0.0157 -0.2654 -0.1519
 9324SOL    HW139608   3.348   2.557  17.642 -1.8866  0.4220 -0.9858
 9324SOL    HW239609   3.417   2.501  17.514 -1.4132 -1.9381  1.9777
 9325SOL     OW39610   3.829   0.395   0.105 -0.1613 -0.0430 -0.3215
 9325SOL    HW139611   3.844   0.385   0.011 -1.1794 -0.4486 -0.4481
 9325SOL    HW239612   3.834   0.303   0.132  0.8799 -1.2470 -4.6364
 9326SOL     OW39613   1.573   3.694   5.245 -0.4100 -0.4610  0.3838
 9326SOL    HW139614   1.540   3.731   5.328  0.2214 -2.6934  1.6226
 9326SOL    HW239615   1.490   3.689   5.197 -0.7867 -1.7306  1.1523
 9327SOL     OW39616   1.783   4.440  15.167  0.5212 -0.0234  0.0526
 9327SOL    HW139617   1.789   4.346  15.187  0.0477 -0.1809 -0.5362
 9327SOL    HW239618   1.754   4.440  15.076  0.0604  0.4942  0.1988
 9328SOL     OW39619   2.953   1.962  12.673  0.2647  0.5370  0.5633
 9328SOL    HW139620   2.956   2.055  12.695  3.0725  0.0681  1.9971
 9328SOL    HW239621   2.875   1.952  12.727 -0.1147  1.6552  0.2427
 9329SOL     OW39622   1.704   3.187   7.701  0.0885 -0.2231 -0.4106
 9329SOL    HW139623   1.739   3.127   7.768 -3.8050 -2.0024  0.0231
 9329SOL    HW239624   1.766   3.260   7.703  0.2612 -0.4087  1.4355
 9330SOL     OW39625   1.706   4.466   7.631 -0.0435 -0.2728 -0.7179
 9330SOL    HW139626   1.634   4.528   7.621 -0.9333 -1.3642 -1.0714
 9330SOL    HW239627   1.729   4.500   7.718 -0.8151 -3.3273  0.7002
 9331SOL     OW39628   2.350   1.160   0.487 -0.3345  0.5221  0.2139
 9331SOL    HW139629   2.272   1.149   0.542 -1.4237  2.5548 -0.9190
 9331SOL    HW239630   2.342   1.253   0.466  0.1818  0.5703  0.2380
 9332SOL     OW39631   3.183   0.714   7.011 -0.4714 -0.0180  0.0786
 9332SOL    HW139632   3.200   0.806   7.027 -1.1033  0.2356 -0.7080
 9332SOL    HW239633   3.087   0.716   7.008 -0.3618  0.3261 -2.9653
 9333SOL     OW39634   2.250   2.613   7.119  0.2648  1.1942  0.2789
 9333SOL    HW139635   2.235   2.635   7.027  0.4169 -2.1844 -0.5410
 9333SOL    HW239636   2.193   2.537   7.134  1.2342  0.1686 -1.3965
 9334SOL     OW39637   3.184   3.294  16.838 -0.0265 -0.2926  0.6771
 9334SOL    HW139638   3.176   3.354  16.764  0.1874 -1.6056 -0.4241
 9334SOL    HW239639   3.253   3.237  16.804  0.2932  0.6366 -0.2467
 9335SOL     OW39640   1.278   3.340   5.186  0.1791  0.2955  0.1481
 9335SOL    HW139641   1.341   3.273   5.159  1.0155  0.1285  2.5230
 9335SOL    HW239642   1.207   3.304   5.133  0.4213 -0.8755  0.6080
 9336SOL     OW39643   2.900   2.190   2.914  0.3928 -0.2666  0.4041
 9336SOL    HW139644   2.816   2.146   2.927  0.3787 -0.1342  0.7547
 9336SOL    HW239645   2.958   2.114   2.918 -0.4168 -0.8489  1.0277
 9337SOL     OW39646   4.585   0.213   6.836 -0.0824  0.5348  0.0334
 9337SOL    HW139647   4.678   0.236   6.837  0.2187 -0.6957  0.0657
 9337SOL    HW239648   4.571   0.227   6.742  0.5068 -0.1161 -0.1509
 9338SOL     OW39649   0.944   1.297  16.649  0.5657  0.2297 -0.3280
 9338SOL    HW139650   1.019   1.252  16.610 -0.4751 -2.6739  1.0340
 9338SOL    HW239651   0.979   1.321  16.735 -2.4015  0.0523  0.9289
 9339SOL     OW39652   1.291   3.061   5.779  0.0836  0.2212 -0.0307
 9339SOL    HW139653   1.231   3.131   5.752 -0.1568  0.2038  0.4510
 9339SOL    HW239654   1.379   3.081   5.748 -1.2244  1.2698 -3.0354
 9340SOL     OW39655   0.981   0.036   6.772  0.0093 -0.0610  0.4140
 9340SOL    HW139656   0.990   0.108   6.710 -1.4110 -0.4834 -0.2812
 9340SOL    HW239657   0.995   4.692   6.721 -0.9702  0.2922 -0.4027
 9341SOL     OW39658   0.190   1.131   4.274 -0.0930  0.2976  0.1390
 9341SOL    HW139659   0.209   1.211   4.225  3.1417 -1.0338 -0.7272
 9341SOL    HW239660   0.184   1.158   4.366  1.8360 -0.3535  0.4575
 9342SOL     OW39661   3.910   2.456   0.767 -0.2984 -0.3248 -0.0141
 9342SOL    HW139662   3.916   2.442   0.672 -2.8672  1.9362 -0.4920
 9342SOL    HW239663   3.825   2.499   0.769  0.7264  1.6185  1.1611
 9343SOL     OW39664   4.106   1.829   8.443 -0.6523 -0.0933 -0.5665
 9343SOL    HW139665   4.167   1.895   8.408 -1.4278  0.9783  0.0864
 9343SOL    HW239666   4.069   1.801   8.359 -0.8125  2.3701 -1.3293
 9344SOL     OW39667   1.920   2.687  15.737  0.4883  0.3988  0.5732
 9344SOL    HW139668   1.867   2.751  15.690  0.5891 -1.0764 -1.5776
 9344SOL    HW239669   2.010   2.720  15.733  0.8502 -0.7049 -0.4349
 9345SOL     OW39670   2.751   4.060   2.550 -0.1971  0.0857  0.3624
 9345SOL    HW139671   2.768   4.009   2.471 -1.8976 -0.6387  0.4562
 9345SOL    HW239672   2.657   4.073   2.543 -0.6623 -2.3467  1.8497
 9346SOL     OW39673   2.104   1.129   1.237 -0.0069  0.4146  0.1727
 9346SOL    HW139674   2.179   1.123   1.178 -1.4120  0.0873 -1.5720
 9346SOL    HW239675   2.120   1.204   1.293 -0.8721 -0.8890  2.1647
 9347SOL     OW39676   2.777   4.281   6.703 -0.5505 -0.2142  0.1258
 9347SOL    HW139677   2.690   4.261   6.735 -0.8363 -1.1264 -1.2182
 9347SOL    HW239678   2.787   4.364   6.749  0.5687 -0.6765  0.7175
 9348SOL     OW39679   1.001   0.185  12.501 -0.5799  0.4240 -0.0930
 9348SOL    HW139680   0.993   0.098  12.462 -0.0561  0.9187 -1.2744
 9348SOL    HW239681   1.077   0.178  12.559 -0.2483  0.4503 -0.5272
 9349SOL     OW39682   2.578   4.537   3.177 -0.1708  0.6565 -0.0290
 9349SOL    HW139683   2.603   4.537   3.084 -1.3013  0.4664 -0.3262
 9349SOL    HW239684   2.651   4.573   3.227  0.6526 -0.1678 -0.6229
 9350SOL     OW39685   4.011   3.748   9.045 -0.0316  0.9769 -0.1754
 9350SOL    HW139686   4.074   3.776   9.111 -0.5981  0.8269  0.4342
 9350SOL    HW239687   4.057   3.698   8.978 -1.4490  0.0005 -0.4454
 9351SOL     OW39688   2.702   4.261   1.650  0.1582  1.0161 -0.1684
 9351SOL    HW139689   2.738   4.188   1.600 -0.9816 -0.1120  0.6656
 9351SOL    HW239690   2.685   4.324   1.580  1.2309  0.6868 -0.7278
 9352SOL     OW39691   4.044   2.074   8.977  0.0831 -0.4084 -0.9001
 9352SOL    HW139692   4.002   2.123   9.049  1.1218  0.3345 -0.8055
 9352SOL    HW239693   3.984   2.093   8.904 -0.1494  1.2417 -0.2974
 9353SOL     OW39694   1.742   3.609   1.498  0.1749 -0.8161  0.1832
 9353SOL    HW139695   1.665   3.562   1.467  0.6766 -1.8067  0.4667
 9353SOL    HW239696   1.719   3.634   1.588 -0.8139 -0.2627 -0.2264
 9354SOL     OW39697   2.789   4.539   9.641 -0.2989 -0.4357 -0.0660
 9354SOL    HW139698   2.713   4.580   9.601 -1.6519 -0.1841  2.7303
 9354SOL    HW239699   2.861   4.567   9.585 -0.2521 -1.3007 -0.4314
 9355SOL     OW39700   0.068   2.891   6.067 -0.1579  0.4961 -0.1398
 9355SOL    HW139701   0.134   2.883   6.137 -0.7226  2.5768  0.6444
 9355SOL    HW239702   0.093   2.962   6.008 -0.2690  1.5513  1.0770
 9356SOL     OW39703   4.275   3.886   2.195  0.5219 -0.3925  0.0720
 9356SOL    HW139704   4.348   3.932   2.154  1.2223 -1.3674  0.2147
 9356SOL    HW239705   4.216   3.959   2.212  0.9819 -0.2706  1.1622
 9357SOL     OW39706   1.393   0.314   4.718 -0.0284 -0.3742  0.1148
 9357SOL    HW139707   1.306   0.279   4.738 -0.4794  0.2742 -0.7382
 9357SOL    HW239708   1.389   0.391   4.661  2.0718  0.3742  0.9483
 9358SOL     OW39709   0.534   3.307   4.396 -0.0702 -0.1472 -0.1636
 9358SOL    HW139710   0.475   3.267   4.332 -2.2018  1.5972  0.6903
 9358SOL    HW239711   0.496   3.394   4.409 -1.2782 -0.6865 -0.0834
 9359SOL     OW39712   3.184   0.216  15.282  0.2925 -0.3817 -0.7155
 9359SOL    HW139713   3.257   0.155  15.275  0.2780 -0.4662 -0.1480
 9359SOL    HW239714   3.226   0.292  15.242 -0.9272 -0.3108 -1.8639
 9360SOL     OW39715   0.880   0.366   7.760 -0.1593  0.0330 -0.4588
 9360SOL    HW139716   0.941   0.293   7.760  0.5939  0.6684  1.8743
 9360SOL    HW239717   0.800   0.328   7.794 -0.0554 -0.4608 -0.7698
 9361SOL     OW39718   0.233   3.121   1.833  0.0268 -0.5622  0.2210
 9361SOL    HW139719   0.164   3.100   1.771 -0.2224 -0.3821  0.4360
 9361SOL    HW239720   0.238   3.216   1.823  0.7554 -0.9800 -3.3925
 9362SOL     OW39721   2.587   0.719   2.718 -0.1834 -0.2869 -0.2961
 9362SOL    HW139722   2.571   0.769   2.638  1.4683 -0.7704 -0.9429
 9362SOL    HW239723   2.668   0.758   2.752 -1.5232  0.2195  2.2773
 9363SOL     OW39724   2.771   4.519   8.911 -0.0028 -0.6011 -0.8292
 9363SOL    HW139725   2.767   4.567   8.993 -3.0227  1.5915 -2.2380
 9363SOL    HW239726   2.731   4.435   8.936  1.0936 -1.1913 -1.0582
 9364SOL     OW39727   1.039   1.677   3.709  0.0858  0.1833  0.1389
 9364SOL    HW139728   1.011   1.614   3.644  0.0470  0.2299  0.1105
 9364SOL    HW239729   1.088   1.733   3.648 -1.2923 -0.0488 -1.1723
 9365SOL     OW39730   4.634   2.485   3.410 -0.0247  0.0252 -0.0716
 9365SOL    HW139731   4.644   2.574   3.442 -1.9797  0.1996  0.0891
 9365SOL    HW239732   4.572   2.507   3.340 -0.0884 -0.7421 -0.2600
 9366SOL     OW39733   2.847   0.357   9.361  0.6131  0.2436 -0.7844
 9366SOL    HW139734   2.875   0.361   9.270  1.4129  0.9317 -0.5089
 9366SOL    HW239735   2.925   0.328   9.409 -0.7579 -0.4657  1.0090
 9367SOL     OW39736   1.240   0.627  14.936 -0.3216  0.1969 -0.2400
 9367SOL    HW139737   1.190   0.666  14.865 -0.4782 -1.7343 -1.1896
 9367SOL    HW239738   1.303   0.580  14.882 -1.2680 -1.4531  0.0875
 9368SOL     OW39739   4.000   0.083  14.766 -0.2602 -0.6275 -0.5559
 9368SOL    HW139740   4.039   0.143  14.702  0.0307 -0.1775  0.0287
 9368SOL    HW239741   4.007   0.003  14.715  0.0058 -1.2499  0.4609
 9369SOL     OW39742   0.233   1.218   8.315 -0.5008  0.2233  0.2415
 9369SOL    HW139743   0.175   1.183   8.383 -0.8900 -1.5860 -1.0428
 9369SOL    HW239744   0.240   1.152   8.247  0.0908  0.3183  0.2099
 9370SOL     OW39745   1.265   2.051   2.330 -0.4861  0.4692  0.0336
 9370SOL    HW139746   1.350   2.063   2.289 -0.7390 -1.3241 -1.0092
 9370SOL    HW239747   1.278   1.964   2.369 -0.4471  0.5217  0.1369
 9371SOL     OW39748   2.224   1.963   0.361  0.2905  0.2015  0.2678
 9371SOL    HW139749   2.296   1.900   0.364 -1.9707 -2.2787  1.8511
 9371SOL    HW239750   2.192   1.938   0.274  0.4152 -0.1829  0.3355
 9372SOL     OW39751   4.336   2.058  15.185  0.0830 -0.1484  0.4493
 9372SOL    HW139752   4.405   2.124  15.190 -1.9732  2.0149  0.1013
 9372SOL    HW239753   4.258   2.113  15.190  0.7779  0.7366  1.8385
 9373SOL     OW39754   0.625   0.103   5.424 -0.3202 -0.6889 -0.2980
 9373SOL    HW139755   0.595   0.113   5.334 -2.3019  1.3695  0.5685
 9373SOL    HW239756   0.654   0.012   5.428 -1.6234 -1.1346 -1.0729
 9374SOL     OW39757   3.322   0.550   8.458 -0.3504 -0.6906 -0.3742
 9374SOL    HW139758   3.354   0.571   8.370 -0.6198  2.1507  0.1976
 9374SOL    HW239759   3.407   0.550   8.501 -1.3226 -0.6010  1.5590
 9375SOL     OW39760   1.644   0.379   4.681  0.1551 -0.1943 -0.4265
 9375SOL    HW139761   1.673   0.299   4.639  2.3730  0.6015 -0.3742
 9375SOL    HW239762   1.566   0.354   4.731  1.3326 -1.1293  0.9476
 9376SOL     OW39763   0.497   3.995   4.485  0.4590 -0.0423  0.0812
 9376SOL    HW139764   0.451   3.985   4.568 -0.7552 -1.9536 -0.8136
 9376SOL    HW239765   0.499   4.090   4.479 -0.5049  0.2008  3.8061
 9377SOL     OW39766   4.449   1.655  12.764  0.4906 -0.0030  0.0423
 9377SOL    HW139767   4.508   1.579  12.758  1.0042  0.5579 -1.9310
 9377SOL    HW239768   4.521   1.704  12.803 -0.4070  1.7767 -0.5586
 9378SOL     OW39769   2.810   3.919  12.110 -0.2863  0.6981 -0.7394
 9378SOL    HW139770   2.870   3.908  12.185 -1.9886 -2.8090  0.0895
 9378SOL    HW239771   2.857   3.990  12.066  4.0697 -1.9243 -0.3495
 9379SOL     OW39772   3.323   1.825   5.454  0.3867 -0.2885  0.7006
 9379SOL    HW139773   3.399   1.880   5.438 -0.6803  0.8436 -0.4782
 9379SOL    HW239774   3.293   1.849   5.542 -0.5455  0.4047  0.1970
 9380SOL     OW39775   1.016   3.814  13.576  0.3240 -0.5380  0.4073
 9380SOL    HW139776   1.029   3.725  13.610  0.9747 -0.5954  0.0162
 9380SOL    HW239777   0.948   3.857  13.627  1.5171  1.3403  0.3990
 9381SOL     OW39778   4.451   2.585   4.690 -0.1158  0.1627  0.0636
 9381SOL    HW139779   4.463   2.512   4.751  2.4390  0.1933 -0.4014
 9381SOL    HW239780   4.367   2.555   4.653  0.3313 -2.0515  0.8197
 9382SOL     OW39781   2.966   0.364   7.151 -0.0051  0.1394  0.2317
 9382SOL    HW139782   2.982   0.343   7.243 -0.2447 -0.1984  0.1948
 9382SOL    HW239783   3.054   0.394   7.126  0.5443 -0.4906  1.4153
 9383SOL     OW39784   3.678   4.111   5.876  0.2804 -0.3792  0.0632
 9383SOL    HW139785   3.766   4.085   5.850  0.4669  1.0205 -0.6940
 9383SOL    HW239786   3.683   4.107   5.972 -3.5285  1.3413  0.3141
 9384SOL     OW39787   3.030   3.779   5.360  0.6161  0.1484 -0.0887
 9384SOL    HW139788   3.063   3.855   5.313  0.0253  0.4607  0.0105
 9384SOL    HW239789   2.936   3.786   5.344  0.7790  0.3563 -0.9266
 9385SOL     OW39790   1.787   4.628   2.644  0.4735  0.1266 -0.0147
 9385SOL    HW139791   1.793   4.552   2.587  2.1847 -0.7812  1.3622
 9385SOL    HW239792   1.693   4.641   2.655  0.7750  0.9485  1.6814
 9386SOL     OW39793   1.793   3.781   6.429 -0.3675 -0.0935 -0.1116
 9386SOL    HW139794   1.776   3.753   6.518 -0.6625  1.6628  0.3965
 9386SOL    HW239795   1.885   3.759   6.418 -0.4075 -0.5743  0.5974
 9387SOL     OW39796   2.212   0.858  16.600 -0.4315  0.1047 -0.0359
 9387SOL    HW139797   2.163   0.890  16.675 -0.4472  1.2968 -0.5472
 9387SOL    HW239798   2.192   0.919  16.529 -0.7797  0.6413  0.5235
 9388SOL     OW39799   1.539   0.605  11.325  0.5096 -0.6938  0.4862
 9388SOL    HW139800   1.520   0.537  11.260 -0.6323  1.4184 -1.3551
 9388SOL    HW239801   1.613   0.565  11.371  0.0712  0.0558  1.8567
 9389SOL     OW39802   1.313   4.104   3.649  0.5450 -0.3586 -0.5572
 9389SOL    HW139803   1.314   4.148   3.564 -0.5125  1.7155  0.5083
 9389SOL    HW239804   1.386   4.043   3.637  1.1083 -0.0220  1.1996
 9390SOL     OW39805   0.938   2.995   2.818  0.7574 -0.0969 -0.5282
 9390SOL    HW139806   1.010   2.932   2.824  1.5541  0.8188 -0.5850
 9390SOL    HW239807   0.922   3.002   2.724 -1.1233  0.7106 -0.1545
 9391SOL     OW39808   2.250   2.086   2.989 -0.0862  0.6330 -0.1400
 9391SOL    HW139809   2.335   2.129   3.001  1.5969 -2.2447 -1.7852
 9391SOL    HW239810   2.188   2.158   2.993 -1.4145 -0.5709  1.1517
 9392SOL     OW39811   2.284   4.702   3.485  0.0281  0.0282  0.1449
 9392SOL    HW139812   2.315   4.700   3.394  0.2635  0.7812  0.2020
 9392SOL    HW239813   2.273   4.611   3.511  2.2449 -0.2889 -0.0169
 9393SOL     OW39814   2.637   1.967  13.129 -0.2381 -0.0588  0.0681
 9393SOL    HW139815   2.622   1.905  13.200  1.0752 -1.5031 -0.9228
 9393SOL    HW239816   2.577   2.035  13.160  1.3378  0.8238  1.1972
 9394SOL     OW39817   1.581   1.842   2.207  0.0309 -0.0629  0.5517
 9394SOL    HW139818   1.518   1.876   2.145  0.4737 -1.6914 -0.7981
 9394SOL    HW239819   1.631   1.923   2.218  1.6875 -0.7904 -1.6544
 9395SOL     OW39820   2.717   1.512  17.147  0.4005  0.4651 -0.3416
 9395SOL    HW139821   2.773   1.500  17.223 -2.2211 -0.8351  1.3939
 9395SOL    HW239822   2.647   1.454  17.176  0.2280 -0.0833 -1.8336
 9396SOL     OW39823   3.672   0.786   5.299 -0.0221  0.0086 -0.5509
 9396SOL    HW139824   3.614   0.745   5.235 -0.0242 -0.0275 -0.5259
 9396SOL    HW239825   3.758   0.751   5.272 -0.3320 -1.7132  0.6997
 9397SOL     OW39826   0.860   0.454   2.775 -1.0395  0.0509 -0.3230
 9397SOL    HW139827   0.947   0.417   2.786 -1.2658 -0.5222 -0.4602
 9397SOL    HW239828   0.803   0.390   2.818 -0.8310 -0.3872 -0.6989
 9398SOL     OW39829   1.368   1.908   0.086 -0.0664 -0.3094 -0.1967
 9398SOL    HW139830   1.383   1.999   0.113 -0.0544 -0.4463  0.2552
 9398SOL    HW239831   1.342   1.866   0.167 -1.4987  1.0022  0.0161
 9399SOL     OW39832   3.497   0.898   4.946 -0.2644  0.6914 -0.0919
 9399SOL    HW139833   3.585   0.913   4.981  1.3850 -0.0567 -3.9978
 9399SOL    HW239834   3.507   0.806   4.920 -0.3529  0.6746 -0.0658
 9400SOL     OW39835   1.900   3.032  12.496 -0.4503  0.0048 -0.1558
 9400SOL    HW139836   1.867   3.063  12.412 -0.4559  1.9403  0.5709
 9400SOL    HW239837   1.896   3.114  12.544  0.5855  0.7254 -1.2991
 9401SOL     OW39838   0.401   2.734  13.525  0.7707 -0.1912 -0.1884
 9401SOL    HW139839   0.335   2.668  13.505  2.4737 -2.4906  1.9806
 9401SOL    HW239840   0.451   2.724  13.444  1.4332 -1.5878  0.4034
 9402SOL     OW39841   2.519   1.044   1.245 -0.3880 -0.1815  0.5798
 9402SOL    HW139842   2.435   1.007   1.271 -1.8262  0.9781 -2.4652
 9402SOL    HW239843   2.562   0.958   1.242 -2.5936 -1.2211 -1.5588
 9403SOL     OW39844   2.906   3.069  17.657 -0.0729  0.1794  0.3697
 9403SOL    HW139845   2.998   3.077  17.635 -0.2534 -2.1115 -1.1741
 9403SOL    HW239846   2.866   3.053  17.572 -1.4194  1.2067  0.7929
 9404SOL     OW39847   0.285   4.088   6.486  0.5436 -0.3539 -0.1253
 9404SOL    HW139848   0.224   4.161   6.499  0.9442 -0.0023 -0.2313
 9404SOL    HW239849   0.299   4.083   6.581  1.8150  0.5356 -0.2591
 9405SOL     OW39850   4.404   2.949  10.241 -0.0043  0.1766  0.0318
 9405SOL    HW139851   4.473   2.912  10.186  0.6789  1.3231  0.1066
 9405SOL    HW239852   4.459   3.009  10.292  0.4713 -1.2270  1.1884
 9406SOL     OW39853   4.388   2.213   9.007 -0.3656 -0.0205 -0.0879
 9406SOL    HW139854   4.415   2.286   9.063  0.6874  0.3566 -1.0640
 9406SOL    HW239855   4.302   2.196   9.044  0.0924 -5.0430 -1.3558
 9407SOL     OW39856   0.750   2.146   3.459 -1.1608 -0.1581  0.5740
 9407SOL    HW139857   0.737   2.224   3.513  0.7376  0.5850 -0.0023
 9407SOL    HW239858   0.667   2.129   3.415 -0.4137 -0.7868 -0.5919
 9408SOL     OW39859   1.592   3.083   0.971  0.3696  0.7344  0.0398
 9408SOL    HW139860   1.497   3.094   0.969  0.0217 -2.3880 -0.5190
 9408SOL    HW239861   1.598   2.991   0.948 -1.2825  0.6140  0.0586
 9409SOL     OW39862   4.647   4.237   5.675  0.0875 -0.3196  0.3025
 9409SOL    HW139863   4.618   4.197   5.757  1.2441 -1.6029  0.0760
 9409SOL    HW239864   4.727   4.278   5.707  0.6537  0.2366 -1.8070
 9410SOL     OW39865   1.276   1.617   7.464 -0.2786  0.0856 -0.1095
 9410SOL    HW139866   1.337   1.601   7.535  2.2262  1.1336 -2.0160
 9410SOL    HW239867   1.282   1.534   7.416  0.1794  0.2040 -0.2588
 9411SOL     OW39868   3.648   1.437  13.018 -0.1308 -0.3197  0.0136
 9411SOL    HW139869   3.711   1.381  13.063 -2.2351 -1.0333  2.0397
 9411SOL    HW239870   3.634   1.381  12.941  0.8004 -2.2515  1.2527
 9412SOL     OW39871   0.339   0.544   8.492  0.4710 -0.0053 -0.4790
 9412SOL    HW139872   0.293   0.584   8.566  1.1152  0.3568 -0.2711
 9412SOL    HW239873   0.269   0.504   8.442  1.0111 -0.3956 -0.9267
 9413SOL     OW39874   2.116   4.253   8.564  0.6761  0.0280  0.0734
 9413SOL    HW139875   2.123   4.335   8.516 -1.2973  1.4234  2.2073
 9413SOL    HW239876   2.143   4.195   8.492  0.2912  1.2721 -1.0834
 9414SOL     OW39877   0.668   4.287   6.871  0.0854  0.8318  0.0679
 9414SOL    HW139878   0.722   4.360   6.841 -0.7686  2.0240  1.3934
 9414SOL    HW239879   0.592   4.329   6.913 -1.0830  0.9631 -2.1514
 9415SOL     OW39880   0.535   2.664   9.054  0.5958 -0.1100 -0.2729
 9415SOL    HW139881   0.532   2.752   9.017 -1.7233 -0.1806 -0.2150
 9415SOL    HW239882   0.443   2.645   9.072  0.4156  0.7256 -0.2999
 9416SOL     OW39883   4.583   4.365   3.156  1.1511 -0.1923 -0.1089
 9416SOL    HW139884   4.525   4.290   3.146  3.2162 -1.9129  1.0928
 9416SOL    HW239885   4.608   4.379   3.065 -1.5134 -2.1829 -1.1325
 9417SOL     OW39886   0.063   3.943   2.295 -0.2440 -0.1848  0.4707
 9417SOL    HW139887   0.024   3.937   2.382  1.3089 -1.6881  1.0660
 9417SOL    HW239888   0.154   3.943   2.325  0.8483 -0.4539 -2.7742
 9418SOL     OW39889   0.126   2.073   6.206 -0.3860 -0.8696 -0.2562
 9418SOL    HW139890   0.118   1.978   6.197 -0.5046 -0.7349 -1.5754
 9418SOL    HW239891   0.034   2.091   6.188 -0.1095 -0.0694 -0.8220
 9419SOL     OW39892   4.107   3.390   2.764 -0.4667 -0.2310  0.0189
 9419SOL    HW139893   4.194   3.352   2.771  0.2190  1.4390  0.6054
 9419SOL    HW239894   4.064   3.350   2.688  1.1380 -0.3636 -0.8120
 9420SOL     OW39895   0.502   2.727  12.803  0.2369 -0.2779  0.0707
 9420SOL    HW139896   0.413   2.692  12.804  0.4982 -0.8420  6.3183
 9420SOL    HW239897   0.523   2.710  12.895 -0.7380 -1.0049  0.1589
 9421SOL     OW39898   2.652   3.646   5.587  0.3792 -0.5118 -0.5326
 9421SOL    HW139899   2.580   3.701   5.617 -0.9750 -2.5515 -0.0530
 9421SOL    HW239900   2.723   3.689   5.634 -1.0612 -0.7505  1.8673
 9422SOL     OW39901   1.803   0.308   3.816 -0.4107  0.8693 -0.0645
 9422SOL    HW139902   1.894   0.286   3.837 -1.0650 -2.2005 -0.4373
 9422SOL    HW239903   1.804   0.401   3.839 -1.8264 -0.0058  3.5336
 9423SOL     OW39904   0.394   2.195  11.111 -0.3940 -0.0123  0.0673
 9423SOL    HW139905   0.465   2.143  11.074 -0.2930 -0.9221  1.5499
 9423SOL    HW239906   0.377   2.154  11.196  0.2043  2.7469  1.5203
 9424SOL     OW39907   0.241   4.587  16.923  0.2390 -0.3000  0.5271
 9424SOL    HW139908   0.198   4.506  16.894 -1.1794  1.2755 -1.8146
 9424SOL    HW239909   0.169   4.616  16.977 -1.7724 -1.0175 -1.7688
 9425SOL     OW39910   4.381   2.773   1.706  0.2215  0.5435 -0.3258
 9425SOL    HW139911   4.421   2.716   1.771 -0.9739  0.7000  0.5403
 9425SOL    HW239912   4.288   2.766   1.727  0.3623  3.3317  1.2447
 9426SOL     OW39913   4.696   2.675   5.535  1.1494 -0.1335  0.2119
 9426SOL    HW139914   0.018   2.749   5.553  1.5998  0.4898 -3.8247
 9426SOL    HW239915   4.729   2.638   5.453 -0.4385 -0.6803 -0.1833
 9427SOL     OW39916   2.607   0.543  11.934  0.4067 -0.0908 -0.0127
 9427SOL    HW139917   2.686   0.538  11.881  0.4574 -0.2597  0.0769
 9427SOL    HW239918   2.622   0.486  12.010  0.7652  1.2139  0.9017
 9428SOL     OW39919   0.042   4.272   2.111 -0.1610 -0.3772  0.4121
 9428SOL    HW139920   0.109   4.259   2.044 -2.5805  2.0924 -2.4497
 9428SOL    HW239921   0.085   4.266   2.197  1.9148  1.6710 -0.4897
 9429SOL     OW39922   1.642   3.053   6.431  0.0087  0.1835 -0.4752
 9429SOL    HW139923   1.550   3.032   6.443  0.4157 -1.7374 -0.7372
 9429SOL    HW239924   1.641   3.146   6.456  1.7533  0.0145  0.2610
 9430SOL     OW39925   0.618   2.393  13.211  0.5319  1.0399  0.2977
 9430SOL    HW139926   0.686   2.374  13.276  1.9687  2.6013 -0.7559
 9430SOL    HW239927   0.572   2.310  13.204 -2.1380  2.4457  1.3451
 9431SOL     OW39928   1.432   0.683   7.776  0.3186  0.0904 -0.1447
 9431SOL    HW139929   1.377   0.618   7.820  4.6424 -2.8805  0.8501
 9431SOL    HW239930   1.407   0.653   7.689 -2.0235  0.5630  0.3530
 9432SOL     OW39931   2.921   2.365   9.849 -0.3560 -0.3426 -0.0137
 9432SOL    HW139932   2.916   2.368   9.754 -1.1259  0.9688  0.0675
 9432SOL    HW239933   2.913   2.458   9.870 -0.2706 -0.5318  0.8641
 9433SOL     OW39934   0.839   1.227   8.497  0.0980 -0.2427 -0.0847
 9433SOL    HW139935   0.874   1.316   8.499 -1.2745  0.2535  2.1165
 9433SOL    HW239936   0.921   1.182   8.476  1.1678  2.4557 -1.6090
 9434SOL     OW39937   3.201   4.315   8.859 -0.2021 -0.2225 -0.5091
 9434SOL    HW139938   3.144   4.252   8.903  1.5456 -1.6523 -0.2535
 9434SOL    HW239939   3.256   4.351   8.929 -2.6769  0.2889  1.1954
 9435SOL     OW39940   2.738   4.167   0.648 -0.9668 -0.2790 -0.0354
 9435SOL    HW139941   2.787   4.225   0.706  3.0274 -2.0184 -1.6489
 9435SOL    HW239942   2.649   4.175   0.681 -1.4775 -1.0205 -1.2239
 9436SOL     OW39943   2.187   1.498   5.914  0.2562  0.0038 -0.2975
 9436SOL    HW139944   2.155   1.565   5.974  1.3483  2.0972 -2.0783
 9436SOL    HW239945   2.240   1.544   5.849 -0.7176  0.7410 -0.5750
 9437SOL     OW39946   1.591   3.982   0.501  0.1636 -0.2913  0.0820
 9437SOL    HW139947   1.558   4.022   0.420  0.0630  0.1002  0.3185
 9437SOL    HW239948   1.609   4.058   0.556  2.7594 -0.3756 -0.6461
 9438SOL     OW39949   4.560   3.293   2.553  0.2992 -0.2517 -0.5760
 9438SOL    HW139950   4.597   3.339   2.477  1.1381 -1.0852 -0.6723
 9438SOL    HW239951   4.503   3.235   2.501 -1.6152  0.8274  0.3346
 9439SOL     OW39952   2.314   2.664   7.829  0.0385 -0.1323  0.0781
 9439SOL    HW139953   2.234   2.707   7.798  0.2405  0.5828  0.5352
 9439SOL    HW239954   2.316   2.693   7.921 -0.5361  0.6915 -0.1677
 9440SOL     OW39955   3.166   1.992   9.690 -0.0485  0.8030  0.3062
 9440SOL    HW139956   3.147   2.079   9.726  1.1753  0.7252  1.1198
 9440SOL    HW239957   3.095   1.977   9.627  1.1755 -1.0814 -0.6083
 9441SOL     OW39958   3.597   1.273   6.251 -0.5074 -0.1530 -0.6077
 9441SOL    HW139959   3.662   1.216   6.292 -1.0633 -0.2151  0.2034
 9441SOL    HW239960   3.634   1.321   6.177 -0.7016  0.4133 -0.3312
 9442SOL     OW39961   1.534   1.118   0.623  0.3364 -0.5585  0.0834
 9442SOL    HW139962   1.519   1.151   0.712  0.2359 -1.8599  0.5416
 9442SOL    HW239963   1.528   1.205   0.582  2.4490  0.0221  0.9752
 9443SOL     OW39964   3.924   4.161  10.896  0.4009  0.4042  0.2413
 9443SOL    HW139965   3.829   4.163  10.904  0.4137 -1.4698  0.7997
 9443SOL    HW239966   3.950   4.088  10.951  2.0174  0.1149 -0.9092
 9444SOL     OW39967   3.624   4.524   5.825  0.4817  0.4564 -0.0019
 9444SOL    HW139968   3.588   4.536   5.913 -0.8205 -1.1036 -0.3071
 9444SOL    HW239969   3.551   4.479   5.782 -0.0613  1.7826 -0.4684
 9445SOL     OW39970   1.825   0.286  15.105  0.0353 -0.2516 -0.9478
 9445SOL    HW139971   1.919   0.270  15.108  0.1660 -0.0239 -3.8705
 9445SOL    HW239972   1.826   0.380  15.084 -1.8249  0.1826  0.9009
 9446SOL     OW39973   3.738   1.329   7.695  0.0114  0.3419 -0.6270
 9446SOL    HW139974   3.683   1.308   7.619  1.9881 -1.0228 -1.6681
 9446SOL    HW239975   3.789   1.401   7.657  0.5530  0.9739  1.3224
 9447SOL     OW39976   2.319   3.934   3.519 -0.1749 -0.6397  0.5533
 9447SOL    HW139977   2.369   3.909   3.441  0.0144  1.3037  0.0611
 9447SOL    HW239978   2.249   3.870   3.512 -2.1397  1.3372  2.2974
 9448SOL     OW39979   0.158   3.179  14.780 -0.2547  0.0930 -0.2619
 9448SOL    HW139980   0.139   3.176  14.687  0.7522 -2.1422 -0.3948
 9448SOL    HW239981   0.107   3.258  14.795 -1.3020 -0.2270 -2.1724
 9449SOL     OW39982   1.341   2.525  14.516  0.7626  0.8710  0.3810
 9449SOL    HW139983   1.283   2.598  14.537  2.6478  2.8593 -1.3955
 9449SOL    HW239984   1.311   2.463  14.582  3.1516  0.9401  1.5500
 9450SOL     OW39985   1.376   3.617   2.201 -0.5531  0.2733 -0.4050
 9450SOL    HW139986   1.304   3.677   2.181 -0.5936  0.1963 -0.4890
 9450SOL    HW239987   1.438   3.664   2.257  1.5182 -2.8568 -0.0549
 9451SOL     OW39988   1.359   3.997   6.549 -0.5095 -0.1555  0.4110
 9451SOL    HW139989   1.322   3.911   6.528 -1.7277  0.5941 -0.5440
 9451SOL    HW239990   1.435   3.996   6.491 -0.6412 -1.2687  0.2452
 9452SOL     OW39991   2.117   2.666   2.597 -0.1891 -0.3269  0.5417
 9452SOL    HW139992   2.110   2.585   2.547  0.9228  0.5499 -1.0149
 9452SOL    HW239993   2.023   2.681   2.613 -0.9082 -0.4909 -3.6664
 9453SOL     OW39994   2.391   4.400   2.830  0.2839 -0.1389  0.1247
 9453SOL    HW139995   2.332   4.474   2.812  0.2838 -0.7220 -2.2635
 9453SOL    HW239996   2.391   4.340   2.755  1.8026 -1.1815  0.9763
 9454SOL     OW39997   0.053   2.967   1.307 -0.0997  0.4181 -0.4989
 9454SOL    HW139998   4.704   3.006   1.328  0.7003  2.3749 -0.9268
 9454SOL    HW239999   0.091   2.956   1.394  1.2963 -0.7178 -1.2389
 9455SOL     OW40000   2.639   4.728   8.431  0.0682 -0.2124  0.6543
 9455SOL    HW140001   2.685   4.728   8.515 -1.1678  0.3908  1.3286
 9455SOL    HW240002   2.554   0.008   8.472  0.9243 -0.0906  2.3715
 9456SOL     OW40003   0.375   4.085   8.943  0.5698  0.4040 -0.2220
 9456SOL    HW140004   0.291   4.041   8.946  0.8606 -0.1535 -0.2273
 9456SOL    HW240005   0.428   4.046   9.013  1.4318 -1.4072 -1.8842
 9457SOL     OW40006   0.904   2.398   0.843  0.5413 -0.1855 -0.1633
 9457SOL    HW140007   0.966   2.350   0.899  0.8081  0.8594  0.4287
 9457SOL    HW240008   0.836   2.331   0.834 -0.1502  0.3250  1.2258
 9458SOL     OW40009   2.621   4.500   8.024  0.5588 -0.1896 -0.5963
 9458SOL    HW140010   2.673   4.562   8.076 -0.6792 -0.4858  0.9926
 9458SOL    HW240011   2.555   4.482   8.090  0.2414  0.2285 -0.7978
 9459SOL     OW40012   3.591   1.681   7.931  0.7019 -0.0816 -0.1931
 9459SOL    HW140013   3.518   1.645   7.982 -0.7400  1.3645 -1.2310
 9459SOL    HW240014   3.570   1.775   7.931 -1.3817 -0.5239  1.5455
 9460SOL     OW40015   2.168   2.669  13.649 -0.7797  0.2304  0.3805
 9460SOL    HW140016   2.191   2.576  13.641  0.7924  0.4938  1.9967
 9460SOL    HW240017   2.157   2.689  13.556  0.7765  1.1509  0.4049
 9461SOL     OW40018   2.417   0.304   4.338  0.0440  0.0642 -0.5077
 9461SOL    HW140019   2.322   0.313   4.347  0.1152 -0.4657  0.6716
 9461SOL    HW240020   2.439   0.360   4.263 -2.8879  2.0126  0.0644
 9462SOL     OW40021   3.245   1.400  12.205  0.0179 -0.4709  0.3293
 9462SOL    HW140022   3.252   1.308  12.232  0.7278 -0.3124  0.6942
 9462SOL    HW240023   3.180   1.423  12.271 -0.1575  0.2601 -0.0996
 9463SOL     OW40024   3.780   1.341   7.958 -0.4805 -0.0425  0.3189
 9463SOL    HW140025   3.701   1.288   7.970 -0.5813  0.2405  0.9080
 9463SOL    HW240026   3.780   1.342   7.863  2.7128 -1.4940  0.3004
 9464SOL     OW40027   0.867   1.231   5.023  0.0494 -0.3024  0.1911
 9464SOL    HW140028   0.943   1.179   5.048  0.3702 -0.5008 -1.2011
 9464SOL    HW240029   0.905   1.302   4.970  1.4581 -1.1112  0.1211
 9465SOL     OW40030   0.750   0.410   9.314 -0.2872  0.3894  0.0179
 9465SOL    HW140031   0.789   0.477   9.371 -0.0611 -0.7789  1.2299
 9465SOL    HW240032   0.822   0.364   9.271  0.3224  0.2998  1.1132
 9466SOL     OW40033   1.109   1.153   4.263 -0.5242 -0.1377  0.0995
 9466SOL    HW140034   1.187   1.206   4.250 -0.5227 -0.1558  0.0366
 9466SOL    HW240035   1.151   1.074   4.296  1.3376  0.1458 -1.6362
 9467SOL     OW40036   1.575   2.096   8.808 -0.5414  0.4906  0.5595
 9467SOL    HW140037   1.629   2.018   8.795 -2.1741 -0.2669 -1.7981
 9467SOL    HW240038   1.611   2.138   8.886  2.6351 -2.1474  0.5525
 9468SOL     OW40039   3.483   4.055   8.702  0.3162 -0.1978 -0.4943
 9468SOL    HW140040   3.433   4.025   8.778  0.3013  1.1066  0.0114
 9468SOL    HW240041   3.412   4.113   8.676 -1.6691 -2.7650 -0.8626
 9469SOL     OW40042   2.925   0.147   3.557  0.2253  0.5166  0.3790
 9469SOL    HW140043   2.967   0.220   3.511 -1.7706 -0.0703 -2.3467
 9469SOL    HW240044   2.899   0.091   3.484 -0.9156  0.7982  0.5782
 9470SOL     OW40045   1.006   0.762  12.456  0.6609  0.6276  0.2244
 9470SOL    HW140046   0.955   0.786  12.533 -1.4663 -1.0351 -0.6767
 9470SOL    HW240047   0.964   0.676  12.450 -0.6112  1.1833  1.1297
 9471SOL     OW40048   1.826   1.991   2.638  0.4970 -0.0691 -0.0941
 9471SOL    HW140049   1.732   2.007   2.632  0.6320 -0.0266 -2.0134
 9471SOL    HW240050   1.827   1.943   2.721  2.5314  0.9772  0.4855
 9472SOL     OW40051   0.489   4.219   6.166  0.0337  0.3528  0.2315
 9472SOL    HW140052   0.505   4.136   6.211 -0.9922 -0.5831 -1.1417
 9472SOL    HW240053   0.574   4.227   6.124  0.8186  1.8272  2.0740
 9473SOL     OW40054   2.370   0.107  10.221  0.8903  0.3898 -0.1068
 9473SOL    HW140055   2.312   0.133  10.292  0.5498 -0.8147  0.0615
 9473SOL    HW240056   2.435   0.055  10.267  0.2994 -0.6154 -0.3986
 9474SOL     OW40057   3.300   0.084   2.806  0.3789 -0.3241  0.4672
 9474SOL    HW140058   3.260   4.734   2.824  0.7097 -0.2558  1.5266
 9474SOL    HW240059   3.355   0.084   2.884  1.9199  1.8596 -0.6244
 9475SOL     OW40060   3.799   4.292   8.851  0.5222  0.0071  0.0286
 9475SOL    HW140061   3.730   4.248   8.900 -1.5716  1.9104 -1.2495
 9475SOL    HW240062   3.827   4.220   8.794 -0.0886  1.5306 -2.1858
 9476SOL     OW40063   4.728   0.407   1.321 -0.0542  0.8148  0.3265
 9476SOL    HW140064   4.704   0.332   1.267 -0.2618  0.9171  0.2748
 9476SOL    HW240065   0.056   0.456   1.269 -0.8351  0.0963 -1.2867
 9477SOL     OW40066   0.802   2.417  12.736 -0.3320  0.3757 -0.0763
 9477SOL    HW140067   0.829   2.356  12.804 -0.3089  0.0824 -0.3522
 9477SOL    HW240068   0.839   2.499  12.769 -0.4884 -0.1162  1.3199
 9478SOL     OW40069   1.029   2.493  10.293 -0.3771  0.3914  0.2155
 9478SOL    HW140070   1.044   2.458  10.380  0.8742  0.2684 -0.0530
 9478SOL    HW240071   1.100   2.451  10.245 -0.4935 -0.1466  0.5143
 9479SOL     OW40072   2.595   1.048   4.604 -0.2716 -0.1108  0.4326
 9479SOL    HW140073   2.611   1.012   4.517 -0.9994  0.6500 -0.0159
 9479SOL    HW240074   2.555   1.132   4.580 -0.0981 -0.5251 -1.2965
 9480SOL     OW40075   1.696   1.628  10.951 -0.4038  0.5568  0.2662
 9480SOL    HW140076   1.773   1.581  10.983 -1.9488 -0.4917  2.3811
 9480SOL    HW240077   1.637   1.578  11.006 -0.9142 -0.8891 -1.6066
 9481SOL     OW40078   4.046   1.617   6.916 -0.1535  0.1620  0.1349
 9481SOL    HW140079   3.991   1.544   6.943 -0.9271  0.1241 -1.5900
 9481SOL    HW240080   4.108   1.624   6.989  0.0559 -2.1139  0.1833
 9482SOL     OW40081   0.570   3.094   1.863  0.6668 -0.1668 -0.2178
 9482SOL    HW140082   0.496   3.086   1.924 -1.6408  0.0826 -3.0204
 9482SOL    HW240083   0.636   3.051   1.917 -0.4951 -0.9245  0.5997
 9483SOL     OW40084   0.019   2.812   8.112  0.1634 -0.3918 -0.2660
 9483SOL    HW140085   4.702   2.892   8.116  0.8786  0.0418  0.5647
 9483SOL    HW240086   0.099   2.858   8.086  0.7347 -1.2195  0.0218
 9484SOL     OW40087   4.273   4.451   6.511 -0.6111  0.5781  0.7361
 9484SOL    HW140088   4.323   4.378   6.547  1.3935  0.9119 -1.3922
 9484SOL    HW240089   4.338   4.488   6.451 -0.7332 -0.5833 -0.1015
 9485SOL     OW40090   2.343   2.994   7.584  0.2196  0.4926 -0.5238
 9485SOL    HW140091   2.329   3.088   7.597 -0.4280  0.8969 -4.1400
 9485SOL    HW240092   2.253   2.963   7.573  0.3613 -1.0306  2.5764
 9486SOL     OW40093   1.969   3.879   8.749 -0.4192  0.4205 -0.6116
 9486SOL    HW140094   1.914   3.957   8.756  1.3478  1.8970 -3.0248
 9486SOL    HW240095   2.050   3.906   8.792 -1.0986 -2.4899  2.5081
 9487SOL     OW40096   4.162   1.979   6.686  0.1919  0.3077  0.2361
 9487SOL    HW140097   4.216   2.056   6.667  0.0219  0.4454  0.3135
 9487SOL    HW240098   4.182   1.959   6.777  1.1024 -0.2582 -0.0885
 9488SOL     OW40099   2.443   1.303  11.270  0.3256  0.2608 -0.4461
 9488SOL    HW140100   2.503   1.230  11.284  3.0465  2.4452 -0.7379
 9488SOL    HW240101   2.424   1.284  11.178 -2.5002 -0.4713  0.2810
 9489SOL     OW40102   2.089   0.491   5.331  0.9133  0.5267  0.2816
 9489SOL    HW140103   1.996   0.492   5.310  0.9156  0.4348  0.2689
 9489SOL    HW240104   2.097   0.557   5.401 -1.2786  2.1809 -1.0324
 9490SOL     OW40105   0.237   3.042  15.308 -0.3212  0.0076  0.2014
 9490SOL    HW140106   0.238   3.066  15.215  0.8986 -0.0649  0.1918
 9490SOL    HW240107   0.312   2.982  15.303 -0.1889  0.1710  0.2175
 9491SOL     OW40108   3.498   2.462   6.481 -0.1275 -0.4155  0.3284
 9491SOL    HW140109   3.413   2.433   6.514 -0.7184  1.8286  0.7796
 9491SOL    HW240110   3.496   2.447   6.387 -1.8487 -0.3428  0.3548
 9492SOL     OW40111   0.446   2.818  16.670 -0.1881  0.6552 -0.2893
 9492SOL    HW140112   0.463   2.911  16.653 -0.4083  0.5761 -0.9724
 9492SOL    HW240113   0.504   2.807  16.745 -0.3193  1.8312 -0.0047
 9493SOL     OW40114   0.690   3.016   5.931 -0.3583  0.0165 -0.6446
 9493SOL    HW140115   0.713   3.078   6.000  0.0659 -1.5406  0.5949
 9493SOL    HW240116   0.777   2.989   5.900 -0.3598 -1.2068  0.4183
 9494SOL     OW40117   3.203   4.547   2.779 -0.5094 -0.2036 -0.0871
 9494SOL    HW140118   3.173   4.516   2.694  2.2699  0.8033 -1.4398
 9494SOL    HW240119   3.269   4.479   2.795  0.9300  1.0656 -0.6181
 9495SOL     OW40120   0.102   0.997   3.028  0.3483  0.5953 -0.4998
 9495SOL    HW140121   0.193   0.991   3.054  0.4436 -1.5664 -1.3465
 9495SOL    HW240122   0.086   1.089   3.004 -1.4936  0.0741 -1.3052
 9496SOL     OW40123   2.402   0.074  13.366 -0.0646  0.3527  0.2052
 9496SOL    HW140124   2.316   0.114  13.379  0.5596  1.8721 -0.3240
 9496SOL    HW240125   2.457   0.152  13.373 -0.8443  0.9752 -0.6281
 9497SOL     OW40126   4.077   0.445  14.077  0.1895 -0.1479 -0.3082
 9497SOL    HW140127   4.030   0.514  14.030 -0.1491  0.4809  0.9525
 9497SOL    HW240128   4.156   0.442  14.024  1.0320 -1.2118  0.9846
 9498SOL     OW40129   1.972   3.658   3.757 -0.2818  0.7022 -0.5106
 9498SOL    HW140130   2.001   3.620   3.840 -0.1620  0.8970 -0.4626
 9498SOL    HW240131   1.899   3.599   3.738  0.6022 -0.6502  0.3271
 9499SOL     OW40132   1.478   2.475  13.480 -0.1575  0.3655  0.3161
 9499SOL    HW140133   1.490   2.567  13.505 -2.5861  1.2053 -1.5255
 9499SOL    HW240134   1.451   2.445  13.566  0.8266  1.5542  1.0399
 9500SOL     OW40135   2.149   1.346   1.960  0.3058  0.2574 -0.0554
 9500SOL    HW140136   2.121   1.349   2.051 -0.7402 -1.7417 -0.3140
 9500SOL    HW240137   2.063   1.329   1.921  0.3003  0.3523 -0.0845
 9501SOL     OW40138   4.430   3.560  11.150  0.7541 -0.0672  0.6545
 9501SOL    HW140139   4.409   3.635  11.205 -1.9847 -1.6012  1.6962
 9501SOL    HW240140   4.495   3.521  11.207  2.2296  1.0175 -0.2851
 9502SOL     OW40141   1.919   1.280   0.311 -0.5736 -0.6542  0.0466
 9502SOL    HW140142   1.914   1.360   0.363  0.4203  1.2435 -2.7873
 9502SOL    HW240143   1.896   1.210   0.372  0.9444 -1.1254  0.1014
 9503SOL     OW40144   1.441   4.400  13.622  0.2651 -0.9222  0.1972
 9503SOL    HW140145   1.401   4.349  13.552 -2.2067 -0.1189  1.0207
 9503SOL    HW240146   1.413   4.354  13.701 -0.1459 -2.4256 -0.8243
 9504SOL     OW40147   1.541   1.490   2.450  0.5227  0.2383 -0.0725
 9504SOL    HW140148   1.520   1.397   2.450 -1.4452  0.6937  0.9771
 9504SOL    HW240149   1.518   1.517   2.361  4.2940  0.9741 -0.8234
 9505SOL     OW40150   2.720   2.706   5.785  0.6108  0.5431 -0.2439
 9505SOL    HW140151   2.783   2.694   5.714  0.0363 -0.3866 -0.5842
 9505SOL    HW240152   2.731   2.800   5.804 -1.7896  0.5981  0.7977
 9506SOL     OW40153   0.907   2.370   7.403  0.1489  0.1447 -0.4403
 9506SOL    HW140154   0.983   2.381   7.347 -1.9125  1.3564 -2.9946
 9506SOL    HW240155   0.893   2.462   7.424 -1.6935 -0.4012  0.7272
 9507SOL     OW40156   0.454   3.302   3.161  0.5751 -0.7518 -0.0727
 9507SOL    HW140157   0.510   3.378   3.144 -1.7020  0.6774 -1.0825
 9507SOL    HW240158   0.432   3.301   3.254 -2.7437  0.6208 -0.8268
 9508SOL     OW40159   2.488   0.051   4.448  0.3893 -0.5425 -0.1678
 9508SOL    HW140160   2.437   0.121   4.408  1.5177 -0.0626 -0.7647
 9508SOL    HW240161   2.529   0.025   4.365 -0.1113 -1.8236 -0.0189
 9509SOL     OW40162   1.428   0.012   3.372  0.2509  0.5415  0.3677
 9509SOL    HW140163   1.406   0.075   3.440  0.9950  1.2407 -0.0498
 9509SOL    HW240164   1.511   4.709   3.401  0.3184 -0.4604 -1.1581
 9510SOL     OW40165   1.805   0.672   0.042  0.7335 -0.0245  0.0284
 9510SOL    HW140166   1.738   0.681  17.716  1.7707  1.9945 -0.7279
 9510SOL    HW240167   1.881   0.698  17.733  3.2400 -1.5532  3.0120
 9511SOL     OW40168   1.057   2.697   5.129 -0.1478 -0.2225 -0.0022
 9511SOL    HW140169   0.992   2.755   5.091  2.6905  1.6909 -1.8790
 9511SOL    HW240170   1.004   2.623   5.161  0.5314 -1.4454 -1.6825
 9512SOL     OW40171   0.556   2.401   5.817 -0.2645  0.1126 -0.1546
 9512SOL    HW140172   0.532   2.419   5.908 -0.9765  2.5937 -0.8206
 9512SOL    HW240173   0.634   2.352   5.841  0.7293  1.4895 -0.5460
 9513SOL     OW40174   4.484   1.281   4.817  0.2700 -0.8745 -0.3023
 9513SOL    HW140175   4.398   1.259   4.853  1.0018  0.8380  2.5023
 9513SOL    HW240176   4.496   1.209   4.755 -1.4245  0.5213 -2.2218
 9514SOL     OW40177   2.660   4.337  15.662 -0.1807 -0.2946 -0.2224
 9514SOL    HW140178   2.659   4.376  15.575 -1.4070  0.0893 -0.0400
 9514SOL    HW240179   2.737   4.282  15.647 -0.1350  0.0739 -1.3428
 9515SOL     OW40180   4.003   3.958  11.043  0.4895  0.3232  0.0705
 9515SOL    HW140181   3.965   3.870  11.041  2.6414 -0.6226  0.9817
 9515SOL    HW240182   4.090   3.919  11.055 -0.4199 -1.5396  0.6814
 9516SOL     OW40183   2.215   2.006   6.117 -0.2337 -0.2356  0.0061
 9516SOL    HW140184   2.306   2.035   6.114  0.7208 -3.0374  1.9691
 9516SOL    HW240185   2.170   2.091   6.124 -1.3960 -0.9321  1.0130
 9517SOL     OW40186   3.795   1.781   6.472  0.0856 -0.4873  0.8195
 9517SOL    HW140187   3.847   1.859   6.495  0.7566 -0.3148 -1.3236
 9517SOL    HW240188   3.822   1.723   6.543  1.3535  2.2399  2.5787
 9518SOL     OW40189   3.093   3.823   5.054 -0.4541 -0.2995 -0.4270
 9518SOL    HW140190   3.160   3.892   5.055  0.3555 -1.0895  0.3340
 9518SOL    HW240191   3.142   3.746   5.025 -2.6602 -1.3056 -1.4256
 9519SOL     OW40192   4.551   2.395  11.573 -0.3217  0.5028 -0.1603
 9519SOL    HW140193   4.546   2.405  11.668  0.2071  3.0509 -0.4123
 9519SOL    HW240194   4.482   2.460  11.561 -2.0325 -1.1939  0.4863
 9520SOL     OW40195   0.553   0.546   8.716  0.0940 -0.4355  0.0788
 9520SOL    HW140196   0.508   0.616   8.764 -0.7045  0.1752 -1.5537
 9520SOL    HW240197   0.523   0.568   8.628 -0.1688 -0.1346  0.2398
 9521SOL     OW40198   3.657   4.231  12.036 -0.2414 -0.0633 -0.7133
 9521SOL    HW140199   3.712   4.155  12.016 -0.7317 -0.6065  0.0295
 9521SOL    HW240200   3.623   4.191  12.116  0.5038 -0.3367 -0.5338
 9522SOL     OW40201   3.823   1.929  10.342  0.1993  0.3878 -0.3595
 9522SOL    HW140202   3.771   1.934  10.262  1.8848 -1.1138 -1.5317
 9522SOL    HW240203   3.895   1.885  10.297  1.0061  0.1343  1.2017
 9523SOL     OW40204   0.471   1.078   3.302  0.1610  0.5037  0.0620
 9523SOL    HW140205   0.552   1.065   3.252 -1.3032 -6.4719 -0.4589
 9523SOL    HW240206   0.476   1.002   3.360 -1.9027  0.3444  0.0364
 9524SOL     OW40207   3.550   1.215   7.999 -0.1523 -0.1033 -0.0359
 9524SOL    HW140208   3.500   1.288   7.960  0.6058 -0.5348 -1.8156
 9524SOL    HW240209   3.486   1.189   8.065 -1.7269  3.2992 -0.2001
 9525SOL     OW40210   3.855   4.606   7.140 -0.4894  0.1741  0.3686
 9525SOL    HW140211   3.777   4.556   7.115  0.5315 -0.8080 -0.8482
 9525SOL    HW240212   3.824   4.642   7.223 -0.6422  1.8050 -0.3923
 9526SOL     OW40213   1.208   2.934   8.015  0.5806  0.3644  0.3849
 9526SOL    HW140214   1.192   2.958   7.924  1.3109 -0.0058  0.1587
 9526SOL    HW240215   1.216   3.025   8.045 -0.2101  0.8634 -0.9319
 9527SOL     OW40216   0.858   2.585   8.636 -0.6636  0.0890 -0.3046
 9527SOL    HW140217   0.783   2.534   8.607 -1.3231  1.3515 -0.8299
 9527SOL    HW240218   0.825   2.595   8.725 -1.2469  1.1234 -0.6370
 9528SOL     OW40219   3.290   0.895   7.862 -0.0404  0.3117 -0.4469
 9528SOL    HW140220   3.297   0.824   7.798 -1.7272 -0.9125  0.6962
 9528SOL    HW240221   3.195   0.895   7.872  0.0907  0.8819  0.8328
 9529SOL     OW40222   1.075   4.152  13.278  0.0015  0.0032 -0.1732
 9529SOL    HW140223   1.045   4.243  13.280  0.2514  0.0981 -0.8587
 9529SOL    HW240224   1.161   4.154  13.320 -0.4433  0.0736  0.7294
 9530SOL     OW40225   1.180   0.400   5.353  0.3811 -0.1107 -0.1875
 9530SOL    HW140226   1.145   0.459   5.420 -1.5730 -1.0917 -0.3435
 9530SOL    HW240227   1.128   0.411   5.273 -0.7968 -1.1953  0.4223
 9531SOL     OW40228   1.434   2.129   0.621 -0.0981  0.4043  0.3234
 9531SOL    HW140229   1.371   2.191   0.584 -0.1201 -0.8388 -1.7158
 9531SOL    HW240230   1.480   2.181   0.687 -0.8136  2.4413 -0.7990
 9532SOL     OW40231   0.255   3.067  15.030  0.3145 -0.4249 -0.1472
 9532SOL    HW140232   0.248   3.111  14.945 -1.6422 -0.4592 -0.0256
 9532SOL    HW240233   0.350   3.056  15.034  0.4146  0.2940 -0.6052
 9533SOL     OW40234   4.477   0.320   8.873 -0.0121 -0.1061 -0.1886
 9533SOL    HW140235   4.416   0.286   8.938 -1.1848  0.0401 -1.2215
 9533SOL    HW240236   4.551   0.260   8.882  0.1358 -0.1620 -1.8385
 9534SOL     OW40237   1.217   3.413   8.023  0.0348  0.1775 -0.0827
 9534SOL    HW140238   1.184   3.431   7.935  1.2937  1.5576 -0.2753
 9534SOL    HW240239   1.189   3.324   8.043 -0.7484  0.0918 -1.5516
 9535SOL     OW40240   1.318   4.040   9.738  0.3794  0.2870 -0.2899
 9535SOL    HW140241   1.329   4.094   9.660 -0.5983  1.1467  0.1772
 9535SOL    HW240242   1.337   3.957   9.694 -0.6961  0.5803 -1.2877
 9536SOL     OW40243   4.475   2.932   6.023 -0.2061 -0.0149 -0.0921
 9536SOL    HW140244   4.550   2.908   5.969  1.1295  0.0990  1.7218
 9536SOL    HW240245   4.515   2.919   6.109  0.4024 -2.8123 -0.7928
 9537SOL     OW40246   1.355   4.506   3.720 -0.0914 -0.4763  0.0096
 9537SOL    HW140247   1.421   4.555   3.769 -0.3025 -0.7234  0.5398
 9537SOL    HW240248   1.405   4.445   3.666 -1.8687 -3.7055  2.0246
 9538SOL     OW40249   2.233   0.748   6.676 -0.3364  0.4080  0.4394
 9538SOL    HW140250   2.306   0.755   6.738 -0.9001  1.1187  1.0179
 9538SOL    HW240251   2.176   0.679   6.711  1.5715 -0.7850  1.2214
 9539SOL     OW40252   0.409   1.355   3.669 -0.4388  0.1782  0.0381
 9539SOL    HW140253   0.369   1.358   3.582  1.3404 -1.1079 -0.8174
 9539SOL    HW240254   0.434   1.264   3.680 -0.1382  0.0527 -1.7238
 9540SOL     OW40255   2.302   1.282   3.394  0.3098 -0.4349  0.1759
 9540SOL    HW140256   2.294   1.188   3.376  1.6669 -0.6539  0.6798
 9540SOL    HW240257   2.219   1.295   3.348 -0.2839  0.8285  1.6327
 9541SOL     OW40258   2.385   0.764   7.095  0.0589 -0.2419  0.5930
 9541SOL    HW140259   2.473   0.785   7.127  1.2621 -1.3789 -1.8929
 9541SOL    HW240260   2.412   0.740   7.006  3.0397 -0.8412  1.6437
 9542SOL     OW40261   1.884   3.460   6.566 -0.4268  0.2817  0.0916
 9542SOL    HW140262   1.951   3.521   6.537 -0.0152 -0.7762 -1.1620
 9542SOL    HW240263   1.940   3.391   6.601 -0.4163  0.5472  0.6057
 9543SOL     OW40264   3.342   4.681   6.798  0.5685 -0.0756  0.8628
 9543SOL    HW140265   3.437   4.674   6.805  0.9334  3.4787 -0.4396
 9543SOL    HW240266   3.318   4.651   6.711  2.9311 -0.6778  0.4473
 9544SOL     OW40267   0.796   4.690   8.135  0.0641  0.2516  0.0185
 9544SOL    HW140268   0.886   4.672   8.165  0.4413  2.4933  0.1744
 9544SOL    HW240269   0.809   4.703   8.041 -0.0010 -1.9610 -0.2994
 9545SOL     OW40270   0.214   1.259   6.091 -0.0877 -0.0885 -0.2690
 9545SOL    HW140271   0.274   1.322   6.132  1.3402 -1.0829 -0.8182
 9545SOL    HW240272   0.271   1.203   6.038 -1.1206 -0.5439 -0.8969
 9546SOL     OW40273   1.234   1.473   2.346 -0.3219  0.5036 -0.2407
 9546SOL    HW140274   1.295   1.438   2.281  0.5666 -1.4509  1.6170
 9546SOL    HW240275   1.162   1.410   2.352  0.9679 -1.0292 -0.5385
 9547SOL     OW40276   4.344   1.100  10.051 -0.4864 -0.0178 -0.2500
 9547SOL    HW140277   4.426   1.107  10.100 -0.0038 -0.8539 -0.9391
 9547SOL    HW240278   4.287   1.053  10.113 -2.3611  1.6663 -0.7102
 9548SOL     OW40279   0.722   3.374   1.453  0.3384 -0.2433  0.0114
 9548SOL    HW140280   0.693   3.285   1.469  1.1650 -0.7544 -1.3588
 9548SOL    HW240281   0.736   3.361   1.360 -0.6636  3.1782 -0.6309
 9549SOL     OW40282   3.295   1.587  14.848  0.0234  0.2735  0.3146
 9549SOL    HW140283   3.249   1.621  14.771 -0.4327 -0.9603  0.0372
 9549SOL    HW240284   3.305   1.668  14.898  0.4922  0.7298 -0.5168
 9550SOL     OW40285   1.820   4.515  14.632 -0.0683 -0.0003 -0.1023
 9550SOL    HW140286   1.804   4.582  14.565  1.5182 -1.2523 -1.7333
 9550SOL    HW240287   1.808   4.435  14.580  0.5687  0.7081 -1.3383
 9551SOL     OW40288   3.866   2.294   8.339  0.1221  0.2762  0.2644
 9551SOL    HW140289   3.787   2.345   8.351  1.6486  2.1734  2.3071
 9551SOL    HW240290   3.850   2.251   8.255 -1.4657 -1.0695  1.2579
 9552SOL     OW40291   3.989   4.728  17.550  0.3946  0.6288 -0.0789
 9552SOL    HW140292   4.045   4.656  17.578 -2.4788 -0.9948  1.5386
 9552SOL    HW240293   4.052   0.063  17.564  0.5192  0.2210  1.3573
 9553SOL     OW40294   3.138   2.244   9.792  0.6986 -0.1726  0.5506
 9553SOL    HW140295   3.204   2.313   9.797  1.0682 -0.6222  1.6981
 9553SOL    HW240296   3.060   2.278   9.835 -0.6158 -0.5261 -1.5180
 9554SOL     OW40297   3.539   1.033   1.078 -0.2884  0.4070 -0.0601
 9554SOL    HW140298   3.470   1.077   1.029 -0.5921 -1.2914 -1.1452
 9554SOL    HW240299   3.497   1.010   1.161 -0.7224  2.2326  0.2351
 9555SOL     OW40300   3.853   1.417   3.021 -0.3826 -0.7969  0.4171
 9555SOL    HW140301   3.768   1.458   3.040  1.2115  2.8659 -0.4036
 9555SOL    HW240302   3.911   1.483   3.060 -2.0246 -0.7094  2.7597
 9556SOL     OW40303   1.376   2.806   6.339  0.0821 -0.2115  0.0280
 9556SOL    HW140304   1.280   2.803   6.333 -0.0565  1.0080  1.5453
 9556SOL    HW240305   1.393   2.867   6.268 -1.7986  1.5068  1.0358
 9557SOL     OW40306   3.664   3.359   4.938  0.9199 -0.5794  0.1586
 9557SOL    HW140307   3.634   3.269   4.940  0.9248 -0.6307 -1.8017
 9557SOL    HW240308   3.585   3.407   4.964  0.6528 -0.6197 -0.5717
 9558SOL     OW40309   4.539   1.171  14.941 -0.5368  0.0298 -0.5399
 9558SOL    HW140310   4.488   1.149  15.019 -1.1095 -0.3445 -1.0239
 9558SOL    HW240311   4.622   1.127  14.958 -0.3317  1.1067  1.2274
 9559SOL     OW40312   3.696   0.263   4.221  0.3099 -0.2894  0.1839
 9559SOL    HW140313   3.782   0.282   4.185  0.3916  0.1357  0.5974
 9559SOL    HW240314   3.710   0.170   4.240 -1.4079 -0.8233 -1.1518
 9560SOL     OW40315   1.847   0.095   4.170 -0.3979  0.3758  0.6029
 9560SOL    HW140316   1.799   0.026   4.124  0.4846 -1.0621  1.8672
 9560SOL    HW240317   1.854   0.060   4.258  0.7961 -2.0141 -0.4524
 9561SOL     OW40318   1.979   1.112  15.697  0.3396 -0.4963 -0.3889
 9561SOL    HW140319   1.987   1.057  15.619  0.1995 -0.8003 -0.1884
 9561SOL    HW240320   1.885   1.099  15.708  0.2873  1.8369  1.7475
 9562SOL     OW40321   2.489   3.200   7.215  0.5234 -0.2268 -0.6398
 9562SOL    HW140322   2.405   3.241   7.231  1.7245  1.6089  0.9065
 9562SOL    HW240323   2.520   3.238   7.133  0.3370  1.0461 -0.1097
 9563SOL     OW40324   2.184   0.556   5.077  0.0503  0.1333 -0.0352
 9563SOL    HW140325   2.099   0.569   5.034  0.3012 -1.0921 -0.8974
 9563SOL    HW240326   2.163   0.555   5.170 -1.7749 -3.2221 -0.4911
 9564SOL     OW40327   3.839   3.370   4.464 -0.1558 -0.1651 -0.1380
 9564SOL    HW140328   3.853   3.454   4.421 -0.5082  0.9225  1.9050
 9564SOL    HW240329   3.825   3.401   4.553 -0.7533 -2.9378  0.7432
 9565SOL     OW40330   2.838   3.879  16.048 -0.0666  0.5187 -0.2507
 9565SOL    HW140331   2.799   3.948  16.102  2.2537  1.8082 -0.2231
 9565SOL    HW240332   2.850   3.819  16.122  0.6341 -0.9983 -1.6178
 9566SOL     OW40333   0.430   1.094  12.584  0.2840 -0.1274 -0.0488
 9566SOL    HW140334   0.416   1.000  12.568  2.7218 -0.3561 -0.8810
 9566SOL    HW240335   0.393   1.129  12.503  3.3210  0.6223 -1.1154
 9567SOL     OW40336   3.761   1.295   8.266 -0.1834 -0.5523  0.6440
 9567SOL    HW140337   3.729   1.297   8.176  0.4832 -1.6868  0.3862
 9567SOL    HW240338   3.820   1.370   8.264  1.5407 -1.8875  1.3971
 9568SOL     OW40339   2.563   4.653   1.892  0.0864  0.2574 -0.5279
 9568SOL    HW140340   2.596   4.698   1.970 -0.9046  1.9638 -1.0984
 9568SOL    HW240341   2.494   4.712   1.863 -0.1795  0.7844  1.1508
 9569SOL     OW40342   0.191   3.257  15.938 -0.5345 -0.0481  0.3862
 9569SOL    HW140343   0.181   3.163  15.951  1.1186 -0.2541  0.0968
 9569SOL    HW240344   0.285   3.268  15.954 -0.1282  1.6079 -3.2431
   4.73568   4.73568  17.74142
