Membrane in water
40344
    1TMC1    C1    1   4.210   0.306  11.795 -0.1723 -0.3919 -0.1934
    1TMC1    C2    2   4.234   0.353  11.921 -0.6920  0.1363 -0.8789
    1TMC1    C3    3   4.362   0.384  11.964 -0.3704  0.2046  0.5834
    1TMC1    C4    4   4.316   0.270  11.714  0.3129  0.6255  0.3746
    1TMC1    C5    5   4.440   0.297  11.763  0.8289 -0.1716 -0.0167
    1TMC1    C6    6   4.469   0.356  11.884  0.2307  0.4810  0.1436
    1TMC1     C    7   4.064   0.281  11.757  0.4603 -0.3434  0.1856
    1TMC1     O    8   3.979   0.275  11.847 -0.2350  0.1287 -0.0663
    1TMC1     H    9   4.149   0.374  11.985 -0.3715 -0.0459 -0.3977
    1TMC1    H1   10   4.307   0.226  11.615 -1.4768 -0.6661  1.1102
    1TMC1    H2   11   4.570   0.381  11.911  0.1691  0.4211  0.4339
    1TMC1    C7   12   4.545   0.278  11.670  0.5939 -0.3919  0.0849
    1TMC1    C8   13   4.373   0.397  12.111 -0.0631 -0.2202  0.2135
    1TMC1    O1   14   4.654   0.336  11.669 -0.3785 -0.5691 -0.1696
    1TMC1    O2   15   4.291   0.355  12.191 -0.4227 -0.2279  0.0566
    1TMC1    O3   16   4.524   0.145  11.659 -0.3154 -0.0941  0.0552
    1TMC1    H3   17   4.445   0.107  11.704 -0.2907  2.6666  2.4002
    1TMC1    O5   18   4.502   0.431  12.152 -0.2200  0.4861 -0.0910
    1TMC1    H5   19   4.547   0.485  12.084 -0.6093 -1.8706 -2.2088
    2MPD2     C   20   3.727   0.034  11.461 -0.3030 -0.3123 -0.3547
    2MPD2    C1   21   3.707   0.101  11.578  0.3372 -0.3795 -0.3530
    2MPD2    C2   22   3.817   0.168  11.634 -0.1334  0.1603 -1.0178
    2MPD2    C3   23   3.944   0.161  11.574  0.3038 -0.1681  0.3397
    2MPD2    C4   24   3.965   0.085  11.457 -0.0160 -0.3448  0.1530
    2MPD2    C5   25   3.851   0.022  11.410 -0.3645 -0.1112 -0.8205
    2MPD2     H   26   3.807   0.224  11.726 -3.0072  1.1609 -1.9407
    2MPD2    H1   27   4.060   0.088  11.405  1.5021  0.3054  2.9885
    2MPD2    H2   28   3.645   0.001  11.399 -0.5252  1.3042 -0.9184
    2MPD2    H3   29   3.863   4.693  11.325 -1.7928 -0.7570 -0.5123
    2MPD2     N   30   4.056   0.214  11.639 -0.0187  0.7813 -0.1245
    2MPD2    H5   31   4.143   0.205  11.587 -0.3927 -0.3731 -0.5410
    2MPD2    N1   32   3.583   0.110  11.640  0.1733  0.0723  0.0018
    2MPD2    H7   33   3.583   0.159  11.729  2.1147 -1.7031  0.9742
    3TMC1    C1   34   3.138   1.212  10.790 -0.0112 -0.1741 -0.0409
    3TMC1    C2   35   3.198   1.335  10.797  0.4072 -0.0589 -0.2881
    3TMC1    C3   36   3.257   1.384  10.681 -0.0623 -0.2455  0.2936
    3TMC1    C4   37   3.149   1.136  10.678  0.2981 -0.3998 -0.0914
    3TMC1    C5   38   3.219   1.183  10.579 -0.3998 -0.2585 -0.0074
    3TMC1    C6   39   3.270   1.310  10.566  0.2074  0.0364  0.8850
    3TMC1     C   40   3.035   1.177  10.886 -0.1148 -0.4280  0.2007
    3TMC1     O   41   3.016   1.060  10.910  0.2206 -0.5008  0.1343
    3TMC1     H   42   3.190   1.399  10.885 -0.1790 -0.8754  0.2522
    3TMC1    H1   43   3.091   1.044  10.679  2.9227 -2.0565  0.1699
    3TMC1    H2   44   3.323   1.346  10.479  1.5422 -1.5851  1.0298
    3TMC1    C7   45   3.244   1.097  10.470 -0.0699 -0.4833 -0.6610
    3TMC1    C8   46   3.340   1.496  10.705  0.6162 -0.1179  0.7633
    3TMC1    O1   47   3.177   0.997  10.450  0.3317 -0.3631  0.0388
    3TMC1    O2   48   3.316   1.582  10.790 -0.1650  0.4551  0.1337
    3TMC1    O3   49   3.365   1.128  10.415 -0.6144  0.2312 -0.2227
    3TMC1    H3   50   3.412   1.181  10.482 -0.2457 -1.2679  0.6980
    3TMC1    O5   51   3.468   1.457  10.675 -0.1711  0.1354  0.4552
    3TMC1    H5   52   3.471   1.363  10.649 -0.7057  0.2696 -0.0858
    4MPD2     C   53   2.708   1.286  11.273 -0.0878  0.0919 -0.3106
    4MPD2    C1   54   2.772   1.405  11.234 -0.6013 -0.1358 -0.2097
    4MPD2    C2   55   2.871   1.397  11.137  0.0677 -0.7078 -0.0397
    4MPD2    C3   56   2.902   1.277  11.075 -0.2825  0.5986  0.5693
    4MPD2    C4   57   2.837   1.160  11.112  0.5953 -0.3666  0.8768
    4MPD2    C5   58   2.745   1.169  11.210  0.0770  0.5431  0.2965
    4MPD2     H   59   2.924   1.491  11.120  1.1548 -1.3194  0.0044
    4MPD2    H1   60   2.870   1.065  11.072 -1.7056 -1.7599  2.3229
    4MPD2    H2   61   2.646   1.277  11.362  0.9376  0.9693  0.4943
    4MPD2    H3   62   2.711   1.076  11.255 -0.8477  0.2456 -0.9987
    4MPD2     N   63   2.992   1.285  10.961 -0.1270  0.4175 -0.3106
    4MPD2    H5   64   3.006   1.382  10.936  0.9576  0.0142 -1.2456
    4MPD2    N1   65   2.750   1.531  11.298 -0.3085 -0.3001 -0.1046
    4MPD2    H7   66   2.810   1.609  11.274  0.2608 -0.0912  1.9834
    5TCq1    O1   67   4.336   3.145  11.758 -0.5305  0.8992 -0.4652
    5TCq1    C1   68   4.432   3.180  11.673 -0.2698  0.5650  0.1268
    5TCq1    O2   69   4.547   3.212  11.708  0.7403  0.1614  0.2979
    5TCq1    C2   70   4.366   3.247  11.571  0.4581 -0.6720  0.0132
    5TCq1    C3   71   4.425   3.359  11.516 -0.2005  0.0936 -0.1323
    5TCq1    C4   72   4.370   3.415  11.404 -0.9658  0.4330  0.1809
    5TCq1    C5   73   4.255   3.375  11.351 -0.3207 -0.5510 -0.0889
    5TCq1    C6   74   4.197   3.256  11.405  0.2056 -0.7887  1.1531
    5TCq1    C7   75   4.251   3.196  11.517 -1.0233  0.3537 -0.6850
    5TCq1    C8   76   4.111   3.178  11.325  0.8143  0.2526 -0.1168
    5TCq1    O4   77   4.120   3.058  11.338 -0.2768  0.9953 -0.0769
    5TCq1    C9   78   4.422   3.535  11.353 -0.2742  0.0111 -0.6533
    5TCq1    O5   79   4.404   3.555  11.230  0.3631  0.1843 -0.3361
    5TCq1    O6   80   4.494   3.606  11.431  0.0643  0.2013  0.1449
    5TCq1    H1   81   4.247   3.125  11.723  0.8902 -1.9024 -2.5637
    5TCq1    H2   82   4.514   3.398  11.563 -0.9992 -1.5225  2.7126
    5TCq1    H3   83   4.224   3.436  11.266 -2.1907  0.0153  1.0014
    5TCq1    H4   84   4.215   3.100  11.555 -0.2051 -0.3086 -1.6007
    6MPD2     C   85   3.899   3.299  11.049  0.0428  0.2198 -0.0239
    6MPD2    C1   86   3.955   3.213  11.137 -0.1359  0.0625  0.0981
    6MPD2    C2   87   3.932   3.078  11.118  0.5029  0.2670 -0.2395
    6MPD2    C3   88   3.870   3.034  11.003  0.4070 -0.3996  0.8530
    6MPD2    C4   89   3.829   3.128  10.905 -0.2218  0.3585  0.0796
    6MPD2    C5   90   3.836   3.258  10.933  0.7778  0.1538 -0.3106
    6MPD2     H   91   3.957   3.010  11.199  1.3023 -0.3651 -1.0308
    6MPD2    H1   92   3.788   3.095  10.810 -1.4943 -0.3701  0.8746
    6MPD2    H2   93   3.915   3.406  11.055  1.5825 -0.0441  0.6582
    6MPD2    H3   94   3.793   3.332  10.866 -2.1355 -3.1265 -2.0931
    6MPD2     N   95   3.862   2.895  10.989  0.2231  0.2174 -0.0237
    6MPD2    H5   96   3.888   2.842  11.072  0.0577 -0.0432 -0.1371
    6MPD2    N1   97   4.038   3.258  11.238  0.2261 -0.1610 -0.5830
    6MPD2    H7   98   4.055   3.357  11.252 -1.3121  0.2337 -1.5422
    7TCq1    O1   99   1.120   2.807  13.970 -0.6993  0.3256  0.4692
    7TCq1    C1  100   1.136   2.903  13.873  0.1967 -0.3962  0.2515
    7TCq1    O2  101   1.172   3.017  13.900 -0.1751 -0.4612 -0.5367
    7TCq1    C2  102   1.207   2.830  13.774  0.3656 -0.4615 -0.5446
    7TCq1    C3  103   1.256   2.902  13.675  0.4623  0.2038  0.6937
    7TCq1    C4  104   1.315   2.842  13.568  0.1931 -0.2212 -0.0474
    7TCq1    C5  105   1.314   2.707  13.563 -0.2007  0.4797 -0.6268
    7TCq1    C6  106   1.267   2.633  13.671 -0.0565 -1.0650 -0.0295
    7TCq1    C7  107   1.209   2.693  13.777  0.0963  0.3199 -0.1013
    7TCq1    C8  108   1.237   2.490  13.639  0.1307 -0.0135  0.3231
    7TCq1    O4  109   1.125   2.446  13.664 -0.6748  0.0598 -0.3695
    7TCq1    C9  110   1.361   2.916  13.455 -0.3658  0.0501 -0.1289
    7TCq1    O5  111   1.424   2.860  13.362  0.1242 -0.0657  0.2771
    7TCq1    O6  112   1.339   3.039  13.454 -0.4689  0.1657  0.2845
    7TCq1    H1  113   1.059   2.737  13.937 -1.0295 -0.1143  2.0211
    7TCq1    H2  114   1.246   3.010  13.677  1.1517  0.3023 -1.0698
    7TCq1    H3  115   1.371   2.660  13.483  1.5270  0.2752  0.7074
    7TCq1    H4  116   1.182   2.628  13.859  0.5340  1.0234  0.5972
    8MPD2     C  117   1.326   2.128  13.302  0.5765 -0.3283  0.0163
    8MPD2    C1  118   1.212   2.152  13.380 -0.0474  0.1764  0.1850
    8MPD2    C2  119   1.210   2.253  13.473  0.5454 -0.8156 -0.0001
    8MPD2    C3  120   1.323   2.330  13.477 -0.5113 -0.2193 -0.5471
    8MPD2    C4  121   1.438   2.306  13.399 -0.2311  0.1066  0.0630
    8MPD2    C5  122   1.444   2.204  13.316 -0.0106 -0.2775 -0.0405
    8MPD2     H  123   1.121   2.277  13.529  0.8766  0.4155  0.0015
    8MPD2    H1  124   1.525   2.371  13.404 -1.1897  1.6542 -3.0893
    8MPD2    H2  125   1.330   2.050  13.228  0.8462  0.5229 -0.8707
    8MPD2    H3  126   1.532   2.181  13.257  0.0045 -2.9564  1.0106
    8MPD2     N  127   1.339   2.442  13.555 -0.3403 -0.1141 -0.2861
    8MPD2    H5  128   1.418   2.502  13.534 -2.0831  1.1384 -3.2786
    8MPD2    N1  129   1.101   2.066  13.368 -0.1225 -0.2910 -0.1368
    8MPD2    H7  130   1.107   1.988  13.303 -2.6487 -0.4065 -0.2225
    9TMC1    C1  131   4.018   1.899  10.918  0.1786  0.4204 -0.1457
    9TMC1    C2  132   4.039   1.779  10.849 -0.8388  0.2180  1.1914
    9TMC1    C3  133   4.056   1.796  10.717 -0.1233 -0.8263  0.0265
    9TMC1    C4  134   4.044   2.025  10.864  0.2763 -0.0616 -0.6008
    9TMC1    C5  135   4.092   2.026  10.736  0.1166 -0.0267  0.2837
    9TMC1    C6  136   4.077   1.915  10.657  0.5369  0.3212 -0.5844
    9TMC1     C  137   3.942   1.900  11.040 -0.3840  0.5409  0.1573
    9TMC1     O  138   3.893   2.008  11.077  0.2685  0.3018 -0.1402
    9TMC1     H  139   4.023   1.681  10.892 -0.2003 -0.6092 -0.4550
    9TMC1    H1  140   4.027   2.111  10.928  1.7353 -0.8204  0.8178
    9TMC1    H2  141   4.081   1.923  10.549 -0.2651 -0.3190 -0.6588
    9TMC1    C7  142   4.076   2.151  10.654 -0.3237 -0.3275 -0.7559
    9TMC1    C8  143   4.013   1.694  10.633  0.1902  0.1045 -0.4208
    9TMC1    O1  144   4.029   2.153  10.540  0.5092 -0.6741 -0.8362
    9TMC1    O2  145   3.942   1.611  10.684  0.5800 -0.5342 -0.4532
    9TMC1    O3  146   4.083   2.261  10.734 -0.2768 -0.3185 -0.2834
    9TMC1    H3  147   4.149   2.240  10.803  3.1062  0.3186 -3.3383
    9TMC1    O5  148   4.104   1.691  10.533 -0.6445  0.5542  0.1497
    9TMC1    H5  149   4.156   1.772  10.516 -0.8201  0.7425  0.4900
   10MPD2     C  150   3.726   1.814  11.228 -0.4305  0.5719  0.1676
   10MPD2    C1  151   3.826   1.731  11.182 -0.5466 -0.4886  0.3645
   10MPD2    C2  152   3.830   1.603  11.232 -0.4265 -0.3105  0.0605
   10MPD2    C3  153   3.724   1.561  11.318  0.1489  0.2727 -0.1650
   10MPD2    C4  154   3.623   1.643  11.356  0.8085  0.3468 -0.0380
   10MPD2    C5  155   3.623   1.769  11.307  0.6236  0.6205  0.3774
   10MPD2     H  156   3.919   1.542  11.220  0.2760  1.0864 -1.7487
   10MPD2    H1  157   3.540   1.616  11.421  0.0595 -4.4012 -2.9223
   10MPD2    H2  158   3.707   1.916  11.199  0.2121  0.3873 -0.8868
   10MPD2    H3  159   3.545   1.838  11.336 -0.3345  0.8110 -2.6999
   10MPD2     N  160   3.720   1.430  11.374 -0.2684  0.3576 -0.1888
   10MPD2    H5  161   3.643   1.424  11.438 -0.5185  1.9207 -0.3270
   10MPD2    N1  162   3.924   1.777  11.094  0.5993  0.5582  0.0221
   10MPD2    H7  163   3.988   1.705  11.061  2.7096  1.6927  1.6987
   11TCq1    O1  164   3.026   1.255  14.771  0.2708 -0.0478  0.2055
   11TCq1    C1  165   3.088   1.145  14.809  1.0758 -0.5654 -0.0084
   11TCq1    O2  166   3.100   1.104  14.923  0.3654  0.3874  0.3420
   11TCq1    C2  167   3.090   1.063  14.685  0.5762  0.2654 -0.0043
   11TCq1    C3  168   3.071   0.928  14.704  1.1677 -0.3938 -0.3353
   11TCq1    C4  169   3.090   0.843  14.604 -0.6849  0.0226  0.3645
   11TCq1    C5  170   3.132   0.895  14.483  0.3934 -0.0027  0.0770
   11TCq1    C6  171   3.143   1.028  14.462  0.9659  0.1269 -0.0238
   11TCq1    C7  172   3.113   1.120  14.561 -0.2524 -0.7206  0.1561
   11TCq1    C8  173   3.149   1.076  14.324 -0.8156 -0.1438  0.6188
   11TCq1    O4  174   3.138   1.198  14.309 -0.0743  0.1380 -0.1078
   11TCq1    C9  175   3.061   0.703  14.625 -0.4436  0.7694 -0.0372
   11TCq1    O5  176   3.106   0.635  14.531  0.1538  0.5689 -0.3949
   11TCq1    O6  177   3.033   0.671  14.741  0.0754  0.0784  0.0664
   11TCq1    H1  178   3.009   1.255  14.674 -2.1674  0.6625  0.6283
   11TCq1    H2  179   3.052   0.904  14.808  2.1449 -0.5644 -0.1999
   11TCq1    H3  180   3.153   0.821  14.406  0.8893  1.5447 -1.2672
   11TCq1    H4  181   3.126   1.228  14.563  0.5958 -0.8383  1.1221
   12MPD2     C  182   3.159   1.117  14.031 -0.7420  0.0019  0.0030
   12MPD2    C1  183   3.193   0.993  14.090 -0.4252 -0.1950 -0.5712
   12MPD2    C2  184   3.242   0.891  14.006  0.5673  0.1879  0.4452
   12MPD2    C3  185   3.271   0.916  13.873 -0.4920  0.6202 -0.2795
   12MPD2    C4  186   3.226   1.036  13.819  0.1278  0.0179 -0.2168
   12MPD2    C5  187   3.176   1.136  13.894 -0.3976  0.3426  0.3506
   12MPD2     H  188   3.262   0.798  14.058  0.0863 -0.9430 -1.3625
   12MPD2    H1  189   3.223   1.062  13.714 -0.3651 -1.8727 -0.6702
   12MPD2    H2  190   3.117   1.201  14.087 -0.4059  0.9661 -1.1867
   12MPD2    H3  191   3.151   1.231  13.848  2.6599  1.3965  0.9248
   12MPD2     N  192   3.337   0.828  13.789 -0.0418 -0.0983  0.3370
   12MPD2    H5  193   3.335   0.857  13.692  0.8556 -3.2284 -0.5985
   12MPD2    N1  194   3.184   0.975  14.232 -0.1740  0.1979 -0.4430
   12MPD2    H7  195   3.204   0.885  14.274 -0.6677  0.6298  0.7290
   13TCq1    O1  196   3.953   0.905  10.778 -0.0780  0.5491 -0.0726
   13TCq1    C1  197   3.900   0.782  10.752 -0.2223  0.3224 -1.0026
   13TCq1    O2  198   3.918   0.687  10.825 -0.9838 -0.4892  0.6536
   13TCq1    C2  199   3.770   0.830  10.709  0.0363  0.4597  0.1982
   13TCq1    C3  200   3.764   0.948  10.631 -0.6489 -0.1144  0.2722
   13TCq1    C4  201   3.649   1.019  10.640 -0.2668 -0.1407  0.7221
   13TCq1    C5  202   3.545   0.980  10.718 -0.6201  0.1545 -0.3380
   13TCq1    C6  203   3.551   0.866  10.785 -0.1797 -0.1226  0.0884
   13TCq1    C7  204   3.666   0.788  10.783 -0.3840  0.1602  0.4273
   13TCq1    C8  205   3.445   0.826  10.871 -0.0087  0.2935 -0.3146
   13TCq1    O4  206   3.360   0.909  10.906  0.1288 -0.3968  0.1469
   13TCq1    C9  207   3.635   1.148  10.580  0.4362  0.2928  0.3413
   13TCq1    O5  208   3.528   1.215  10.585 -0.4858  0.0219 -0.6644
   13TCq1    O6  209   3.728   1.171  10.493 -0.7228  0.0481  0.0510
   13TCq1    H1  210   3.899   0.976  10.737 -0.3909 -1.7162 -3.4975
   13TCq1    H2  211   3.842   0.998  10.574 -0.3645  0.2519  0.9792
   13TCq1    H3  212   3.454   1.039  10.720 -1.4203 -1.0061 -2.2945
   13TCq1    H4  213   3.675   0.696  10.840 -0.4675  1.0206  1.8101
   14MPD2     C  214   3.388   0.477  10.988  0.2959 -0.1051  0.3039
   14MPD2    C1  215   3.362   0.613  10.973  0.0645 -0.2545 -0.1392
   14MPD2    C2  216   3.281   0.676  11.056 -0.0358  0.0061 -0.2227
   14MPD2    C3  217   3.214   0.597  11.149  0.0503  0.3585 -0.3988
   14MPD2    C4  218   3.215   0.462  11.145  0.0151  0.1028 -0.7157
   14MPD2    C5  219   3.301   0.405  11.056  0.0527  0.2500  0.5924
   14MPD2     H  220   3.273   0.784  11.053 -1.4827 -0.0738  0.8981
   14MPD2    H1  221   3.156   0.390  11.201 -1.4871  0.6358 -1.6008
   14MPD2    H2  222   3.466   0.427  10.932 -2.1235  0.1142 -3.2633
   14MPD2    H3  223   3.306   0.296  11.060 -0.5996  0.1737 -0.4663
   14MPD2     N  224   3.137   0.663  11.241  0.1268 -0.2843  0.0932
   14MPD2    H5  225   3.133   0.765  11.236  1.2041 -0.1749  1.4552
   14MPD2    N1  226   3.447   0.688  10.890  0.2661 -0.6655 -0.1115
   14MPD2    H7  227   3.513   0.634  10.836 -2.4843 -2.0621 -2.0456
   15TCq1    O1  228   1.042   1.112   2.094  0.6406  1.0939 -0.4421
   15TCq1    C1  229   0.959   1.214   2.068 -0.2192 -0.5533 -0.4588
   15TCq1    O2  230   0.984   1.328   2.099  0.5710 -0.2925 -0.2926
   15TCq1    C2  231   0.833   1.170   2.002 -0.0888  0.2916  0.4200
   15TCq1    C3  232   0.723   1.216   2.066 -0.7476 -0.1597  0.9013
   15TCq1    C4  233   0.596   1.159   2.054 -0.4185 -0.0113  0.1848
   15TCq1    C5  234   0.588   1.046   1.972  0.7334 -0.7227 -0.4809
   15TCq1    C6  235   0.706   0.994   1.915  0.5097 -0.4506  0.3560
   15TCq1    C7  236   0.827   1.054   1.938  0.5457 -0.1861 -0.8736
   15TCq1    C8  237   0.698   0.937   1.786 -0.0287 -1.0556 -0.6263
   15TCq1    O4  238   0.810   0.920   1.733  0.9786  0.0830  0.3122
   15TCq1    C9  239   0.487   1.185   2.152 -0.0237 -0.3713 -0.3463
   15TCq1    O5  240   0.519   1.258   2.250 -0.0759 -0.5084 -0.2576
   15TCq1    O6  241   0.377   1.130   2.130 -0.2629  1.0823 -0.3882
   15TCq1    H1  242   1.004   1.026   2.067  1.9406 -0.0005  1.2448
   15TCq1    H2  243   0.733   1.305   2.127 -0.1125  1.6069 -1.7412
   15TCq1    H3  244   0.504   0.980   1.992  0.2556 -1.1734 -4.0698
   15TCq1    H4  245   0.919   1.009   1.902 -0.0762 -1.4949 -0.8157
   16MPD2     C  246   0.410   0.784   1.591  0.4271 -0.2147 -0.7038
   16MPD2    C1  247   0.541   0.811   1.637  0.6132 -0.4652  0.1423
   16MPD2    C2  248   0.643   0.738   1.569  0.2570 -0.1088 -0.2010
   16MPD2    C3  249   0.618   0.657   1.459 -0.6978  0.6268 -0.3403
   16MPD2    C4  250   0.489   0.631   1.427 -0.0234  0.2705  0.0433
   16MPD2    C5  251   0.384   0.705   1.481  0.0963 -0.4072  0.2057
   16MPD2     H  252   0.744   0.753   1.605  0.4024  0.1345 -0.7095
   16MPD2    H1  253   0.464   0.559   1.349 -0.4416 -1.0041  1.3581
   16MPD2    H2  254   0.334   0.840   1.643  2.6177  0.2790  2.0089
   16MPD2    H3  255   0.280   0.688   1.455 -0.2702  1.1158  0.6696
   16MPD2     N  256   0.732   0.595   1.400 -0.1082 -0.9746 -0.2126
   16MPD2    H5  257   0.824   0.619   1.434 -0.8879  3.2913 -1.1316
   16MPD2    N1  258   0.571   0.898   1.750 -0.0394  0.1313  0.2284
   16MPD2    H7  259   0.489   0.924   1.805  0.7246  1.8995  0.5372
   17TMC1    C1  260   3.924   0.454  11.402  1.1646  0.2312 -0.0473
   17TMC1    C2  261   3.850   0.546  11.471  0.4768 -1.1081  0.1079
   17TMC1    C3  262   3.723   0.560  11.425  0.2495 -0.0501 -0.2331
   17TMC1    C4  263   3.882   0.387  11.291  0.3907  0.1771  0.1189
   17TMC1    C5  264   3.754   0.405  11.251  0.1711  0.2513  0.0900
   17TMC1    C6  265   3.672   0.501  11.308  0.8020  0.2699  0.2760
   17TMC1     C  266   4.065   0.462  11.408  0.1821  0.2650  0.2540
   17TMC1     O  267   4.119   0.495  11.513  0.3137  0.3146 -0.1003
   17TMC1     H  268   3.895   0.603  11.551  0.1401  0.4809 -0.8301
   17TMC1    H1  269   3.931   0.315  11.227 -1.3101  0.5270 -1.5944
   17TMC1    H2  270   3.570   0.508  11.274  1.6165  0.4479 -2.1436
   17TMC1    C7  271   3.717   0.355  11.120  0.6281 -0.1700 -0.1401
   17TMC1    C8  272   3.631   0.653  11.486 -0.6730 -0.5684 -0.7186
   17TMC1    O1  273   3.782   0.352  11.017  0.0373 -0.0065  0.1183
   17TMC1    O2  274   3.625   0.671  11.608  0.1807 -0.0946 -0.3975
   17TMC1    O3  275   3.598   0.312  11.137  0.6041  0.3019  0.0814
   17TMC1    H3  276   3.548   0.323  11.221 -0.1780  0.4915 -0.4074
   17TMC1    O5  277   3.577   0.728  11.386 -0.6134  0.6062  0.3025
   17TMC1    H5  278   3.626   0.715  11.303  1.3663 -1.4106  1.8008
   18MPD2     C  279   4.360   0.475  11.363  0.1443 -0.1427 -0.1598
   18MPD2    C1  280   4.264   0.473  11.260  0.1460 -0.4949  0.0071
   18MPD2    C2  281   4.307   0.477  11.131 -0.3377 -0.1506 -0.0902
   18MPD2    C3  282   4.442   0.485  11.093 -0.1342  0.1218  0.6397
   18MPD2    C4  283   4.535   0.493  11.195 -0.6402  0.9111  0.3240
   18MPD2    C5  284   4.488   0.496  11.325 -0.2341 -0.2519  0.8040
   18MPD2     H  285   4.234   0.476  11.051 -1.2168  1.6940  0.7046
   18MPD2    H1  286   4.642   0.480  11.180 -0.4040  2.5052  0.6262
   18MPD2    H2  287   4.328   0.470  11.466 -2.7550 -0.0119 -1.0735
   18MPD2    H3  288   4.565   0.497  11.402 -1.6869  1.9051  2.2116
   18MPD2     N  289   4.494   0.484  10.953 -0.4884  0.5515 -0.3364
   18MPD2    H5  290   4.595   0.492  10.950 -0.3976 -0.9836 -1.5930
   18MPD2    N1  291   4.125   0.451  11.286 -0.5518 -0.1575  0.1010
   18MPD2    H7  292   4.063   0.475  11.209 -0.0166  0.0314 -0.2674
   19TMC2    C1  293   0.351   0.820  13.977  0.6162 -0.0379  0.1589
   19TMC2    C2  294   0.372   0.903  13.874  0.0977 -0.5091  0.3059
   19TMC2    C3  295   0.270   0.925  13.783 -0.0384  0.5878 -0.1610
   19TMC2    C4  296   0.234   0.761  13.998  0.9843 -0.3832  0.2087
   19TMC2    C5  297   0.141   0.768  13.904 -0.1101 -0.3216 -0.7375
   19TMC2    C6  298   0.160   0.845  13.797  0.4778  0.8854 -0.1684
   19TMC2     C  299   0.466   0.746  14.036  0.5689 -0.2400  0.0537
   19TMC2     O  300   0.444   0.643  14.095  0.1657  0.9110 -0.0426
   19TMC2     H  301   0.463   0.959  13.860 -1.3305  2.0351  1.2232
   19TMC2    H1  302   0.222   0.692  14.081 -0.2225  1.8040  1.8570
   19TMC2    H2  303   0.089   0.840  13.716  1.8562 -1.3927 -1.2317
   19TMC2    C7  304   0.031   0.674  13.912  0.6742 -0.2183  0.1890
   19TMC2    C8  305   0.311   0.980  13.655  0.8589  0.3232  0.1127
   19TMC2    O1  306   0.047   0.574  13.979  0.4965  0.3842 -0.2261
   19TMC2    O2  307   0.428   1.014  13.642 -0.0108  0.1123 -0.1414
   19TMC2    O5  308   0.213   0.982  13.556 -0.0521  0.3393 -0.3032
   19TMC2    H5  309   0.130   0.980  13.610  0.6884 -0.2454  0.8156
   20MPD2     C  310   0.817   0.858  14.062  0.9099  0.2223  0.0320
   20MPD2    C1  311   0.713   0.770  14.064  0.1150  0.3738 -0.1140
   20MPD2    C2  312   0.740   0.636  14.097 -0.8839 -0.3233 -0.3004
   20MPD2    C3  313   0.851   0.602  14.169 -0.0485 -0.0246  0.0821
   20MPD2    C4  314   0.947   0.699  14.186 -0.1656 -0.6037 -0.4731
   20MPD2    C5  315   0.927   0.826  14.137 -0.2460  0.0856 -0.3227
   20MPD2     H  316   0.667   0.558  14.079  1.0411 -2.0649 -0.5002
   20MPD2    H1  317   1.029   0.680  14.254 -0.2838  1.2612  0.2049
   20MPD2    H2  318   0.803   0.957  14.019 -1.7494 -0.5201 -0.8316
   20MPD2    H3  319   1.007   0.895  14.161  1.4145 -1.5723 -1.0844
   20MPD2     N  320   0.884   0.479  14.226  0.0116 -0.3936  0.0987
   20MPD2    H5  321   0.972   0.482  14.276  0.0346 -0.9807  0.0939
   20MPD2    N1  322   0.583   0.817  14.021  0.1731  0.1282 -0.0067
   20MPD2    H7  323   0.573   0.907  13.975  0.9151 -0.2330 -0.8564
   21TMC2    C1  324   2.736   1.763  14.178 -0.7141  0.2333 -0.1849
   21TMC2    C2  325   2.852   1.703  14.158  0.1130  0.3227  0.0459
   21TMC2    C3  326   2.867   1.584  14.100  0.1593 -0.0544 -0.3063
   21TMC2    C4  327   2.626   1.701  14.125  0.2885 -0.1305  0.1801
   21TMC2    C5  328   2.643   1.579  14.057  0.0049  0.3110 -0.3130
   21TMC2    C6  329   2.766   1.526  14.029  0.8579  0.1769 -0.6731
   21TMC2     C  330   2.727   1.814  14.312 -0.5569  0.3040  0.0486
   21TMC2     O  331   2.829   1.807  14.378 -0.3897 -0.0495  0.2522
   21TMC2     H  332   2.947   1.737  14.199  1.2307 -1.1608 -1.3004
   21TMC2    H1  333   2.526   1.737  14.144  0.2536 -1.1828  1.9878
   21TMC2    H2  334   2.762   1.427  13.984 -1.3188 -0.0834  0.0665
   21TMC2    C7  335   2.563   1.479  14.118  0.2391  0.9075 -0.1753
   21TMC2    C8  336   2.967   1.500  14.167 -0.1266 -0.0148  0.0312
   21TMC2    O1  337   2.634   1.396  14.175 -0.7443 -0.3210  0.7157
   21TMC2    O2  338   3.064   1.540  14.232 -0.0135  0.1323 -0.1815
   21TMC2    O5  339   2.906   1.387  14.198  0.1331 -0.3537  0.2433
   21TMC2    H5  340   2.811   1.386  14.174  0.3803 -0.7200 -0.7250
   22MPD2     C  341   2.426   1.617  14.679  0.4441  0.6255  0.2196
   22MPD2    C1  342   2.562   1.610  14.666  0.0982 -0.2911  0.4520
   22MPD2    C2  343   2.621   1.683  14.565  0.3155 -0.1219 -0.7049
   22MPD2    C3  344   2.544   1.750  14.474 -0.3813  0.3833 -0.1333
   22MPD2    C4  345   2.408   1.769  14.497  0.6959  0.0254 -0.6128
   22MPD2    C5  346   2.347   1.697  14.602 -0.1384 -1.1586  0.2239
   22MPD2     H  347   2.726   1.673  14.544  0.0648 -0.8129 -1.6072
   22MPD2    H1  348   2.347   1.828  14.430  0.7766  1.4884  0.6054
   22MPD2    H2  349   2.366   1.558  14.747  0.1479 -1.5252 -1.9263
   22MPD2    H3  350   2.239   1.700  14.608  0.0294  0.2554  2.6916
   22MPD2     N  351   2.595   1.823  14.359 -0.4568 -0.3313  0.6721
   22MPD2    H5  352   2.523   1.857  14.295  0.3644  0.8799  0.3979
   22MPD2    N1  353   2.643   1.521  14.737 -0.1066 -0.1594  0.2648
   22MPD2    H7  354   2.741   1.546  14.732  0.0336 -0.8600 -0.5731
   23TMC2    C1  355   3.585   2.535  14.509 -0.7512  0.7091 -0.4130
   23TMC2    C2  356   3.548   2.664  14.477 -0.3234  0.0813 -0.6730
   23TMC2    C3  357   3.425   2.685  14.419  0.4706 -0.3748  0.4793
   23TMC2    C4  358   3.495   2.430  14.505  0.0318 -0.0396 -0.0421
   23TMC2    C5  359   3.366   2.455  14.455 -0.7760 -0.0149 -0.0809
   23TMC2    C6  360   3.335   2.585  14.405 -0.0708  0.1399  0.3032
   23TMC2     C  361   3.679   2.510  14.623 -0.7737 -0.2304 -0.3012
   23TMC2     O  362   3.639   2.434  14.707 -0.4413  0.3443 -0.4934
   23TMC2     H  363   3.625   2.739  14.491 -0.7921  0.0707  1.9781
   23TMC2    H1  364   3.519   2.334  14.549  3.4822  0.8248 -0.0466
   23TMC2    H2  365   3.242   2.610  14.357  0.4385  0.7791 -0.3646
   23TMC2    C7  366   3.282   2.342  14.427 -0.3480  0.7143 -0.1585
   23TMC2    C8  367   3.367   2.817  14.447  0.1982 -0.2538 -0.5070
   23TMC2    O1  368   3.336   2.236  14.404 -0.2415 -0.7512  0.5559
   23TMC2    O2  369   3.450   2.901  14.472  0.3896  0.4616 -0.2027
   23TMC2    O5  370   3.237   2.824  14.483  0.1774 -0.1329 -0.0949
   23TMC2    H5  371   3.177   2.746  14.479 -2.1868  1.7516 -1.5371
   24MPD2     C  372   3.979   2.755  14.964  0.1164  0.3130 -0.5456
   24MPD2    C1  373   3.899   2.645  14.980 -0.0673  0.6986  0.0286
   24MPD2    C2  374   3.835   2.584  14.870  0.2516 -0.1092 -0.6963
   24MPD2    C3  375   3.844   2.650  14.753 -0.1185 -1.0889  0.3496
   24MPD2    C4  376   3.920   2.761  14.740  0.4148 -0.1425 -0.4080
   24MPD2    C5  377   3.981   2.819  14.846 -0.7559  0.2974 -0.0546
   24MPD2     H  378   3.782   2.490  14.884 -1.2256  1.0459  1.4898
   24MPD2    H1  379   3.918   2.809  14.643 -0.8272  1.9067  0.6376
   24MPD2    H2  380   4.029   2.807  15.045 -0.2022 -1.4966  0.7960
   24MPD2    H3  381   4.038   2.911  14.839 -0.3972  0.0847  0.0814
   24MPD2     N  382   3.771   2.614  14.638 -0.3388 -0.6257 -0.2421
   24MPD2    H5  383   3.779   2.678  14.559  1.8028 -0.8371 -0.2123
   24MPD2    N1  384   3.884   2.583  15.107  0.1217 -0.6398  0.0645
   24MPD2    H7  385   3.825   2.503  15.125  0.5413 -0.7788  0.8324
   25TMC2    C1  386   3.599   4.295  11.564  0.7258  0.4431  0.0862
   25TMC2    C2  387   3.716   4.357  11.601 -0.4516 -0.2415  0.3087
   25TMC2    C3  388   3.713   4.458  11.690  0.3543 -0.2834  0.8539
   25TMC2    C4  389   3.480   4.322  11.628 -0.5577 -0.1903  0.0391
   25TMC2    C5  390   3.477   4.417  11.726  0.8643  0.2768 -0.2751
   25TMC2    C6  391   3.592   4.481  11.751 -0.0931  0.3263  0.0290
   25TMC2     C  392   3.618   4.163  11.507  0.1983 -0.0480  0.7594
   25TMC2     O  393   3.730   4.120  11.509 -0.5414 -0.7834 -0.6661
   25TMC2     H  394   3.814   4.319  11.573  0.7115  2.5572  0.5605
   25TMC2    H1  395   3.396   4.255  11.618  0.3432 -1.3146  0.0370
   25TMC2    H2  396   3.588   4.573  11.808 -0.1785  1.1396 -1.2875
   25TMC2    C7  397   3.355   4.486  11.760 -0.1841 -0.3612  0.2877
   25TMC2    C8  398   3.833   4.509  11.751  0.0351 -0.3337 -0.3115
   25TMC2    O1  399   3.344   4.541  11.871 -0.3161 -0.7266 -0.1671
   25TMC2    O2  400   3.849   4.551  11.863  0.6798 -0.0635 -0.9180
   25TMC2    O5  401   3.936   4.510  11.658 -0.2686 -0.4576 -0.5225
   25TMC2    H5  402   3.908   4.513  11.564 -2.2201 -1.7769  0.0289
   26MPD2     C  403   3.521   3.801  11.166 -0.4559  0.1225 -0.2181
   26MPD2    C1  404   3.405   3.844  11.219 -0.1410  0.1568 -0.4750
   26MPD2    C2  405   3.403   3.930  11.325 -1.0135 -0.1677 -0.7459
   26MPD2    C3  406   3.521   3.996  11.358 -0.0819  0.9432 -0.4263
   26MPD2    C4  407   3.642   3.951  11.310 -0.2655  0.2873  0.2687
   26MPD2    C5  408   3.635   3.857  11.213  0.5640 -0.0175 -0.2391
   26MPD2     H  409   3.311   3.966  11.369 -0.1783  1.8947 -0.6708
   26MPD2    H1  410   3.740   3.991  11.332 -0.5182  0.9045  0.2650
   26MPD2    H2  411   3.522   3.734  11.081 -0.2410  0.7592 -0.7252
   26MPD2    H3  412   3.729   3.823  11.170 -0.3719  0.9121 -3.0080
   26MPD2     N  413   3.508   4.104  11.444 -0.3893 -0.0835  0.4747
   26MPD2    H5  414   3.417   4.146  11.455  0.6000  2.2801 -0.4039
   26MPD2    N1  415   3.287   3.797  11.150  0.2409 -0.9108 -0.4793
   26MPD2    H7  416   3.292   3.761  11.056 -1.1910 -1.3322 -0.3880
   27TMC2    C1  417   1.981   1.773  12.061  0.4852 -0.6387 -0.0619
   27TMC2    C2  418   2.116   1.785  12.064 -0.5680  0.4739 -0.1500
   27TMC2    C3  419   2.170   1.909  12.052 -0.1122 -0.0149  0.3147
   27TMC2    C4  420   1.905   1.888  12.034 -0.5344  0.4293  0.1211
   27TMC2    C5  421   1.967   2.011  12.010 -0.3381 -0.0149  0.0498
   27TMC2    C6  422   2.099   2.026  12.033  0.7113  0.1258  0.4063
   27TMC2     C  423   1.939   1.654  12.134 -0.4290  0.5857 -0.2515
   27TMC2     O  424   2.028   1.571  12.159 -0.1644 -0.4004  0.6560
   27TMC2     H  425   2.180   1.698  12.073  0.8715  1.1782 -3.8089
   27TMC2    H1  426   1.798   1.871  12.027 -0.5860  0.0975  1.8889
   27TMC2    H2  427   2.143   2.125  12.037 -1.0878  0.9033  0.9377
   27TMC2    C7  428   1.899   2.118  12.071 -0.0971  1.1209  0.2391
   27TMC2    C8  429   2.308   1.924  12.033 -0.1827 -0.6345 -0.6576
   27TMC2    O1  430   1.882   2.226  12.010  0.6379  0.4472 -0.2765
   27TMC2    O2  431   2.351   2.007  11.952  0.0860 -0.1262 -0.2468
   27TMC2    O5  432   2.380   1.830  12.090  0.0131  0.0874  0.1882
   27TMC2    H5  433   2.333   1.791  12.167  0.3252 -0.9621 -0.1505
   28MPD2     C  434   1.609   1.349  12.381 -0.1105  0.5197 -0.0637
   28MPD2    C1  435   1.552   1.477  12.385 -0.0683 -0.0097  0.0819
   28MPD2    C2  436   1.619   1.581  12.320  0.3627 -0.6956  0.0592
   28MPD2    C3  437   1.737   1.558  12.251 -0.1705 -0.7051 -0.2977
   28MPD2    C4  438   1.796   1.432  12.263 -0.2142  0.3682  0.8392
   28MPD2    C5  439   1.730   1.327  12.318 -1.1006 -0.1494 -0.2719
   28MPD2     H  440   1.576   1.680  12.319  1.4606 -0.2247 -0.1153
   28MPD2    H1  441   1.892   1.402  12.222 -1.2257  0.8142 -1.8631
   28MPD2    H2  442   1.552   1.263  12.414  1.1663  0.2331  1.4180
   28MPD2    H3  443   1.767   1.226  12.305  0.2036  0.5597 -2.1253
   28MPD2     N  444   1.806   1.663  12.189  0.0605  0.2720  0.2703
   28MPD2    H5  445   1.747   1.744  12.175 -2.4932 -1.2307  2.1915
   28MPD2    N1  446   1.420   1.486  12.433 -0.5151  0.6310  0.5831
   28MPD2    H7  447   1.373   1.397  12.448 -1.8509  1.3433  0.6463
   29TMC2    C1  448   1.138   4.233  14.323 -0.0052 -0.1459  0.1542
   29TMC2    C2  449   1.078   4.266  14.437 -0.7943  0.3008 -0.3474
   29TMC2    C3  450   1.067   4.406  14.458  0.4597 -0.1542 -0.2558
   29TMC2    C4  451   1.194   4.321  14.232  0.1410  0.1061  0.6376
   29TMC2    C5  452   1.202   4.450  14.274  0.6790 -0.2317  0.2981
   29TMC2    C6  453   1.129   4.500  14.380  0.1565  0.0127  0.6672
   29TMC2     C  454   1.112   4.101  14.277  0.2227 -0.4911  0.2882
   29TMC2     O  455   1.106   4.013  14.364 -0.2676  0.0641 -0.0189
   29TMC2     H  456   1.013   4.195  14.487 -0.1810  0.4103  0.6064
   29TMC2    H1  457   1.241   4.278  14.144 -0.4560  2.7318 -0.9526
   29TMC2    H2  458   1.120   4.605  14.404 -2.3112  0.3788 -1.8572
   29TMC2    C7  459   1.233   4.540  14.167  0.3109 -0.4250  0.1825
   29TMC2    C8  460   0.951   4.450  14.542 -0.0175  0.1352 -0.1266
   29TMC2    O1  461   1.221   4.497  14.053  0.1555  0.3989 -0.1009
   29TMC2    O2  462   0.909   4.383  14.636 -0.4464 -0.2739  0.0733
   29TMC2    O5  463   0.858   4.494  14.447 -0.5549 -0.5335 -0.1579
   29TMC2    H5  464   0.898   4.523  14.363 -1.4117 -0.7209 -0.6319
   30MPD2     C  465   0.854   3.813  13.952 -0.0455  0.8803  0.4218
   30MPD2    C1  466   0.921   3.777  14.069  0.3516 -0.1340 -0.6569
   30MPD2    C2  467   0.999   3.872  14.129  0.5071  0.6404 -0.1331
   30MPD2    C3  468   1.015   3.997  14.072 -0.1151  0.0393  0.0412
   30MPD2    C4  469   0.960   4.022  13.951 -0.5653  0.1222 -0.2064
   30MPD2    C5  470   0.873   3.934  13.897  0.7811 -0.1257 -0.1926
   30MPD2     H  471   1.034   3.841  14.227  0.9502 -1.4250 -0.9520
   30MPD2    H1  472   0.975   4.115  13.898 -3.3440  1.3978  1.2136
   30MPD2    H2  473   0.796   3.751  13.884 -0.5953  0.6138  1.1414
   30MPD2    H3  474   0.838   3.954  13.797 -1.8792  0.9566  0.9557
   30MPD2     N  475   1.072   4.107  14.144  0.1234 -0.0572 -0.6310
   30MPD2    H5  476   1.060   4.198  14.102  0.1497  0.9913  1.6845
   30MPD2    N1  477   0.931   3.643  14.113 -0.1217  0.3640 -0.0125
   30MPD2    H7  478   0.991   3.627  14.193  2.0669  0.7423 -1.5732
   31TMC2    C1  479   3.233   3.023  15.379  0.0609  0.2701 -0.4846
   31TMC2    C2  480   3.112   3.076  15.393  0.3815 -0.5132 -0.5500
   31TMC2    C3  481   3.045   3.047  15.506 -0.0525 -0.3481  0.5731
   31TMC2    C4  482   3.292   2.935  15.459  0.2308 -0.3177 -0.0346
   31TMC2    C5  483   3.239   2.925  15.584 -0.2521 -0.2735 -0.2162
   31TMC2    C6  484   3.110   2.974  15.600 -0.1242  0.1474  0.3331
   31TMC2     C  485   3.315   3.079  15.263 -1.0347  0.6949  0.8194
   31TMC2     O  486   3.264   3.161  15.190  0.0350  0.1440 -0.3520
   31TMC2     H  487   3.073   3.147  15.321 -0.6223  1.2393  1.7141
   31TMC2    H1  488   3.393   2.897  15.444 -0.7439 -1.3510 -4.0388
   31TMC2    H2  489   3.062   2.984  15.697  1.2064  0.8149  0.9162
   31TMC2    C7  490   3.323   2.884  15.697 -0.0266  0.7431  0.3817
   31TMC2    C8  491   2.937   3.137  15.549 -0.1720  0.5976  0.1377
   31TMC2    O1  492   3.422   2.819  15.662  0.0358 -0.1832  0.7436
   31TMC2    O2  493   2.893   3.133  15.665 -0.1107 -0.0330  0.3074
   31TMC2    O5  494   2.900   3.225  15.452 -0.3383 -0.5755  0.4145
   31TMC2    H5  495   2.913   3.196  15.359 -2.2363 -0.8194  0.2135
   32MPD2     C  496   3.739   3.112  14.962 -0.1514  0.4670 -0.5370
   32MPD2    C1  497   3.624   3.184  14.963 -0.2423  0.4762 -0.1076
   32MPD2    C2  498   3.523   3.155  15.058 -0.1947  0.1628  0.4633
   32MPD2    C3  499   3.542   3.056  15.151  0.0019 -0.5245 -0.0625
   32MPD2    C4  500   3.654   2.983  15.140  0.2464 -0.0021 -0.6158
   32MPD2    C5  501   3.754   3.016  15.048 -0.3344  0.1125  0.0444
   32MPD2     H  502   3.435   3.217  15.064 -0.3620  0.0822 -1.1734
   32MPD2    H1  503   3.670   2.899  15.207  1.7820  1.5252  0.9047
   32MPD2    H2  504   3.828   3.143  14.907 -0.5517  1.4970 -0.6011
   32MPD2    H3  505   3.840   2.951  15.041  0.5542  1.3940 -0.9337
   32MPD2     N  506   3.443   3.021  15.249  0.0943  0.1462 -0.0108
   32MPD2    H5  507   3.456   2.936  15.303 -0.6343  1.9924  3.0231
   32MPD2    N1  508   3.607   3.291  14.871 -0.1056 -0.2462 -0.2751
   32MPD2    H7  509   3.679   3.294  14.799  2.6019  2.3052  2.5811
   33TMC2    C1  510   4.023   1.016  10.065  1.0887  0.5469 -0.0118
   33TMC2    C2  511   3.909   0.961  10.125 -0.5799  0.1934  0.1309
   33TMC2    C3  512   3.820   1.037  10.192 -0.4751 -0.4652  0.4923
   33TMC2    C4  513   4.030   1.151  10.057 -0.8993 -0.0616 -0.1357
   33TMC2    C5  514   3.943   1.225  10.133  0.0770 -0.5200 -0.1420
   33TMC2    C6  515   3.839   1.174  10.201  1.0812 -0.2203 -0.4347
   33TMC2     C  516   4.138   0.930  10.060 -0.4374  0.2482 -0.0176
   33TMC2     O  517   4.124   0.808  10.090 -0.0531 -0.3399  0.4444
   33TMC2     H  518   3.906   0.854  10.139 -0.2320  0.0501 -0.8358
   33TMC2    H1  519   4.109   1.192   9.995  0.0953  0.1377  1.2570
   33TMC2    H2  520   3.771   1.234  10.260  0.7858 -0.0705 -0.9260
   33TMC2    C7  521   3.959   1.372  10.135  0.9901  0.2015  0.3361
   33TMC2    C8  522   3.695   0.975  10.214  0.6786  0.0223  1.0425
   33TMC2    O1  523   4.067   1.409  10.085  0.6747 -0.6133  0.3055
   33TMC2    O2  524   3.646   0.897  10.139 -0.1533 -0.9250 -0.2291
   33TMC2    O5  525   3.626   1.061  10.287  0.0061 -0.1394 -0.1615
   33TMC2    H5  526   3.676   1.108  10.358  0.8009 -0.0894 -0.7584
   34MPD2     C  527   4.631   0.899  10.134 -0.5266 -0.8266  0.6341
   34MPD2    C1  528   4.533   0.851  10.211 -0.2750 -0.4829 -0.0926
   34MPD2    C2  529   4.408   0.872  10.162  0.0649  0.1969 -0.4072
   34MPD2    C3  530   4.376   0.961  10.063  0.7808  0.4140 -0.3689
   34MPD2    C4  531   4.482   1.007   9.990 -0.2663  0.1253 -0.3682
   34MPD2    C5  532   4.614   0.976  10.024  0.1854 -0.1286  0.1311
   34MPD2     H  533   4.322   0.835  10.216  1.4565 -2.5633 -0.0600
   34MPD2    H1  534   4.459   1.069   9.904 -0.1323  0.3816 -0.2212
   34MPD2    H2  535   4.735   0.887  10.163 -0.0376  2.1865  0.0937
   34MPD2    H3  536   4.702   1.013   9.972  0.9321 -0.0928  1.4201
   34MPD2     N  537   4.246   0.996  10.019 -0.0744  0.0897 -0.1562
   34MPD2    H5  538   4.234   1.072   9.953  0.2902 -0.5747 -0.9889
   34MPD2    N1  539   4.561   0.774  10.323  0.3810  0.5253 -0.0751
   34MPD2    H7  540   4.659   0.755  10.341  0.0127 -1.9664 -0.7991
   35TMC2    C1  541   0.580   1.984  11.469  0.4990  0.5959 -0.1240
   35TMC2    C2  542   0.544   2.004  11.336 -0.4439 -0.6627  0.7908
   35TMC2    C3  543   0.497   1.894  11.272 -0.1867 -0.2724  0.0238
   35TMC2    C4  544   0.554   1.874  11.543  0.0886 -0.0845  0.0100
   35TMC2    C5  545   0.509   1.765  11.471  0.4762 -0.9737 -0.4015
   35TMC2    C6  546   0.485   1.770  11.336  0.2753  0.6215  0.2898
   35TMC2     C  547   0.677   2.073  11.528  0.0732 -0.2912 -0.2656
   35TMC2     O  548   0.685   2.179  11.465 -0.4564 -0.8134  0.8638
   35TMC2     H  549   0.587   2.078  11.269 -2.1678  0.1213  0.5530
   35TMC2    H1  550   0.554   1.872  11.651  2.6607 -1.0640 -0.0033
   35TMC2    H2  551   0.459   1.673  11.295 -0.2655  0.8755  0.0382
   35TMC2    C7  552   0.501   1.633  11.539 -1.0291 -0.3493 -0.2200
   35TMC2    C8  553   0.487   1.897  11.133 -0.2528 -0.4237 -0.1445
   35TMC2    O1  554   0.521   1.531  11.478 -0.2085 -0.2899  0.6214
   35TMC2    O2  555   0.584   1.934  11.067  0.4864 -0.1900 -0.4593
   35TMC2    O5  556   0.415   1.787  11.100 -0.3088  0.2232  0.5194
   35TMC2    H5  557   0.352   1.761  11.171 -0.0032 -2.3060 -0.1171
   36MPD2     C  558   0.964   2.243  11.920  0.2726  0.3951 -0.7478
   36MPD2    C1  559   0.958   2.104  11.937 -0.0928  0.9473  0.4923
   36MPD2    C2  560   0.876   2.032  11.844  0.6955  1.2948  0.5756
   36MPD2    C3  561   0.820   2.102  11.734 -0.2544  0.0691 -0.4421
   36MPD2    C4  562   0.826   2.238  11.722 -0.2253 -0.0994  0.1705
   36MPD2    C5  563   0.911   2.308  11.809  0.1625 -0.5765  0.4700
   36MPD2     H  564   0.860   1.925  11.847 -3.5917  1.9306 -0.0901
   36MPD2    H1  565   0.771   2.293  11.647  0.6206  1.4697  0.7099
   36MPD2    H2  566   1.021   2.301  11.992 -0.6691  1.3055 -0.7254
   36MPD2    H3  567   0.895   2.415  11.809  2.2095 -0.2590 -0.1332
   36MPD2     N  568   0.737   2.027  11.648  0.2492  0.0660 -0.4730
   36MPD2    H5  569   0.726   1.929  11.673 -0.0143  0.1862 -0.1118
   36MPD2    N1  570   1.030   2.041  12.044 -0.2850  0.3638 -0.3139
   36MPD2    H7  571   1.072   2.103  12.112 -1.3656  0.4453  0.2762
   37TMC2    C1  572   2.951   2.214  11.789 -0.4126  0.2102  0.7743
   37TMC2    C2  573   2.905   2.297  11.685  0.7093 -0.3807 -0.3659
   37TMC2    C3  574   2.997   2.368  11.616  0.6261 -0.1036  0.0467
   37TMC2    C4  575   3.083   2.201  11.818 -0.3189  0.4298 -0.1171
   37TMC2    C5  576   3.169   2.267  11.733  0.7990  1.1453  0.1289
   37TMC2    C6  577   3.132   2.356  11.639  0.6127  0.2560  0.0825
   37TMC2     C  578   2.850   2.152  11.872 -0.1024  1.1933  0.3676
   37TMC2     O  579   2.734   2.164  11.831 -0.2090 -0.0319  0.0645
   37TMC2     H  580   2.799   2.303  11.664  0.6054  1.0606  0.6032
   37TMC2    H1  581   3.120   2.133  11.894  1.8895  0.9999 -0.6761
   37TMC2    H2  582   3.198   2.431  11.597 -1.4768  2.3488  0.5576
   37TMC2    C7  583   3.306   2.269  11.781 -0.7271 -0.1005  1.0900
   37TMC2    C8  584   2.962   2.437  11.487  0.5894 -0.6897 -0.2056
   37TMC2    O1  585   3.330   2.207  11.884 -0.2352  0.3344  0.4051
   37TMC2    O2  586   3.009   2.546  11.463  0.1418  0.2444 -0.1225
   37TMC2    O5  587   2.847   2.381  11.448 -0.2548  0.0239  0.1626
   37TMC2    H5  588   2.844   2.286  11.472 -1.5522  0.0541  0.1107
   38MPD2     C  589   2.721   1.952  12.334 -0.0637 -0.2412 -1.2039
   38MPD2    C1  590   2.857   1.971  12.324  0.4717  0.2128 -0.5822
   38MPD2    C2  591   2.909   2.023  12.213 -0.8449 -0.3580  0.5207
   38MPD2    C3  592   2.831   2.055  12.102 -0.1656 -0.2160  0.5479
   38MPD2    C4  593   2.697   2.017  12.102  0.0777  0.3058  0.5080
   38MPD2    C5  594   2.644   1.965  12.223  0.4394  0.0064 -0.8323
   38MPD2     H  595   3.015   2.047  12.210 -1.5552  2.4783 -3.0379
   38MPD2    H1  596   2.635   2.022  12.013 -2.8765  1.4269  2.6127
   38MPD2    H2  597   2.672   1.916  12.424 -1.6163  2.1132 -1.1307
   38MPD2    H3  598   2.539   1.942  12.226  0.4455  0.1813  0.7348
   38MPD2     N  599   2.902   2.117  11.993  0.1438  0.3173 -0.3737
   38MPD2    H5  600   3.000   2.136  12.010 -0.5294  2.8482  0.6221
   38MPD2    N1  601   2.956   1.940  12.420 -0.1428 -0.1171  1.2346
   38MPD2    H7  602   3.048   1.934  12.377 -0.6830  1.3669 -0.1053
   39TMC2    C1  603   1.508   0.228   1.349 -0.0671 -0.2898  0.2472
   39TMC2    C2  604   1.609   0.193   1.266 -0.5660  0.2532 -0.4141
   39TMC2    C3  605   1.730   0.241   1.294 -0.1837 -0.5750  0.0226
   39TMC2    C4  606   1.528   0.318   1.445 -0.1525  0.2141 -0.5856
   39TMC2    C5  607   1.653   0.367   1.462 -0.1663 -0.1125  0.3328
   39TMC2    C6  608   1.758   0.335   1.386  0.1247 -0.0857  0.2440
   39TMC2     C  609   1.377   0.163   1.342  0.0561  0.0459 -0.3185
   39TMC2     O  610   1.286   0.235   1.379  0.3607 -0.3053  0.1257
   39TMC2     H  611   1.607   0.122   1.184  0.9497  0.8962 -1.0249
   39TMC2    H1  612   1.447   0.366   1.499 -0.2583 -1.4627  0.7277
   39TMC2    H2  613   1.859   0.374   1.392 -0.5043  1.4623  0.8557
   39TMC2    C7  614   1.660   0.481   1.547 -0.0002  0.1294  0.6097
   39TMC2    C8  615   1.846   0.167   1.238  0.0704 -0.5258  0.3392
   39TMC2    O1  616   1.561   0.536   1.595 -0.6468 -0.3411 -0.1700
   39TMC2    O2  617   1.957   0.170   1.294  0.2512 -0.3655  0.0866
   39TMC2    O5  618   1.833   0.150   1.106  0.0671 -0.1556 -0.2526
   39TMC2    H5  619   1.741   0.163   1.074  0.5460  1.9230 -0.7692
   40MPD2     C  620   1.298   4.574   1.211 -0.1892  0.2045 -0.3601
   40MPD2    C1  621   1.272   4.693   1.267  0.5601 -0.2495  0.2953
   40MPD2    C2  622   1.140   4.732   1.283  0.8247 -0.1901 -0.9342
   40MPD2    C3  623   1.039   4.645   1.234 -0.2291 -0.7304 -1.0818
   40MPD2    C4  624   1.072   4.534   1.160  0.6369  0.0420 -0.3468
   40MPD2    C5  625   1.203   4.502   1.152 -0.0067 -0.5998  0.4204
   40MPD2     H  626   1.106   0.084   1.333  1.5262 -0.6032  0.2793
   40MPD2    H1  627   1.002   4.455   1.134 -1.6438  2.6762 -2.1821
   40MPD2    H2  628   1.398   4.533   1.204  0.0663  0.8148 -0.2545
   40MPD2    H3  629   1.231   4.401   1.124 -1.9943 -0.7204 -1.1466
   40MPD2     N  630   0.897   4.659   1.240 -0.0948 -0.0735  0.2183
   40MPD2    H5  631   0.840   4.581   1.209 -0.1988  0.0889 -0.0023
   40MPD2    N1  632   1.381   0.027   1.306 -0.8203  0.1249 -0.6734
   40MPD2    H7  633   1.474   4.728   1.289 -1.2465  0.3033 -3.3328
   41TMC2    C1  634   4.451   2.646  13.712  0.4884  0.3399  0.1287
   41TMC2    C2  635   4.372   2.752  13.731  0.4759 -0.6656  0.6160
   41TMC2    C3  636   4.393   2.861  13.646  0.4538 -0.1492 -0.1249
   41TMC2    C4  637   4.549   2.641  13.612 -0.0337 -0.2524 -0.0807
   41TMC2    C5  638   4.550   2.743  13.520 -0.3297 -0.1427  0.3594
   41TMC2    C6  639   4.483   2.860  13.543 -0.3731  0.2891 -0.4658
   41TMC2     C  640   4.447   2.534  13.799 -0.3085  0.2101 -0.1918
   41TMC2     O  641   4.470   2.421  13.763 -0.2295  0.4520  0.1558
   41TMC2     H  642   4.286   2.751  13.798  0.8581 -0.0245  1.1081
   41TMC2    H1  643   4.598   2.546  13.592  0.9958 -0.0838  1.7232
   41TMC2    H2  644   4.514   2.955  13.502 -0.2173  0.6185  0.4074
   41TMC2    C7  645   4.646   2.747  13.408 -0.4265  0.7584  0.4866
   41TMC2    C8  646   4.342   2.992  13.682 -0.7101 -0.2556  0.4390
   41TMC2    O1  647   4.649   2.848  13.336  0.0635 -0.6127  0.4000
   41TMC2    O2  648   4.343   3.087  13.605  0.2227 -0.2725  0.3392
   41TMC2    O5  649   4.359   3.001  13.815 -0.0480 -0.3546 -0.1041
   41TMC2    H5  650   4.386   2.924  13.869  1.3495 -0.5230 -1.0366
   42MPD2     C  651   4.406   2.342  14.026  0.6538  0.0409  0.0141
   42MPD2    C1  652   4.402   2.480  14.037 -0.3871  0.5148 -0.0771
   42MPD2    C2  653   4.374   2.538  14.161 -0.3741  0.3410 -1.0869
   42MPD2    C3  654   4.351   2.465  14.274  0.4912  0.4625 -0.4274
   42MPD2    C4  655   4.369   2.331  14.264  0.4434 -0.8202 -0.2267
   42MPD2    C5  656   4.392   2.268  14.143 -0.4676  0.1513  0.4374
   42MPD2     H  657   4.372   2.646  14.171  0.7721  0.2260  0.4999
   42MPD2    H1  658   4.370   2.277  14.358  2.7234 -0.6005 -0.1221
   42MPD2    H2  659   4.445   2.291  13.939  0.9692 -1.3433  0.9715
   42MPD2    H3  660   4.404   2.160  14.147  2.1289  0.4905  2.1219
   42MPD2     N  661   4.328   2.521  14.401 -0.5892  0.6202 -0.1477
   42MPD2    H5  662   4.316   2.456  14.478  0.2056  1.2528  0.5079
   42MPD2    N1  663   4.422   2.571  13.928  0.2863 -0.0441  0.1125
   42MPD2    H7  664   4.415   2.670  13.950  0.3644  0.3544 -1.6189
   43TMC2    C1  665   1.061   1.044   0.741 -0.0498 -0.0038  0.6100
   43TMC2    C2  666   0.967   1.036   0.840 -0.4830  0.2089  0.3533
   43TMC2    C3  667   0.966   1.128   0.941 -0.2952 -0.1441  0.1999
   43TMC2    C4  668   1.159   1.138   0.758  0.1431  0.0310  0.4982
   43TMC2    C5  669   1.163   1.231   0.857  0.4215  0.1395  0.5199
   43TMC2    C6  670   1.062   1.227   0.951 -0.7363 -1.0009 -0.0668
   43TMC2     C  671   1.072   0.942   0.637 -0.6165 -0.3004 -0.0353
   43TMC2     O  672   1.188   0.929   0.589  0.0622 -0.8053  0.4837
   43TMC2     H  673   0.881   0.971   0.827  0.1937 -0.7602  0.7619
   43TMC2    H1  674   1.245   1.129   0.692  0.7580  0.4827  1.2303
   43TMC2    H2  675   1.063   1.301   1.031  1.0296 -2.2098  1.0422
   43TMC2    C7  676   1.265   1.333   0.876  0.2370 -0.2301 -0.1310
   43TMC2    C8  677   0.843   1.168   0.998  0.0001 -0.1833  0.5663
   43TMC2    O1  678   1.270   1.401   0.775  0.3231  0.1257  1.0821
   43TMC2    O2  679   0.841   1.250   1.092 -0.3564  0.2094 -0.1369
   43TMC2    O5  680   0.749   1.157   0.906  0.1465 -0.6859 -0.1848
   43TMC2    H5  681   0.769   1.103   0.826 -0.6417 -1.4410  0.1280
   44MPD2     C  682   0.895   0.592   0.293  0.1249  0.4239 -0.2317
   44MPD2    C1  683   1.021   0.636   0.320  0.2160 -0.3343  0.0820
   44MPD2    C2  684   1.036   0.738   0.420 -0.1408 -0.5725 -0.0034
   44MPD2    C3  685   0.930   0.789   0.498  0.2295  0.0878 -0.7155
   44MPD2    C4  686   0.804   0.738   0.472  0.9902 -0.6288 -0.0672
   44MPD2    C5  687   0.793   0.640   0.374 -0.3068  0.0498  0.0605
   44MPD2     H  688   1.139   0.770   0.431 -0.4481  0.1203  0.7785
   44MPD2    H1  689   0.711   0.781   0.508  1.0014 -0.2168 -0.5338
   44MPD2    H2  690   0.859   0.530   0.211  0.6166 -0.3064  0.1131
   44MPD2    H3  691   0.692   0.605   0.361 -0.5724  1.1374 -0.7987
   44MPD2     N  692   0.948   0.884   0.601  0.1373 -0.6111  0.0212
   44MPD2    H5  693   0.864   0.898   0.656  0.5830  1.6171  0.1429
   44MPD2    N1  694   1.132   0.605   0.242  0.3955  0.1799  0.3419
   44MPD2    H7  695   1.215   0.655   0.271  0.5816  0.2841 -0.3576
   45TMC2    C1  696   1.762   2.791   9.420 -0.1842 -0.6543 -0.3612
   45TMC2    C2  697   1.625   2.783   9.397 -0.6609  0.8430 -0.3417
   45TMC2    C3  698   1.552   2.894   9.435  0.0440 -0.4739 -0.6687
   45TMC2    C4  699   1.814   2.886   9.507 -0.6734 -0.0566 -0.3135
   45TMC2    C5  700   1.725   2.978   9.562  0.1626  0.2454 -0.0087
   45TMC2    C6  701   1.597   2.987   9.519 -0.2171  0.1101 -0.2618
   45TMC2     C  702   1.853   2.688   9.371 -0.0654  0.2531  0.7865
   45TMC2     O  703   1.976   2.696   9.380 -0.1511  0.6045  0.5358
   45TMC2     H  704   1.573   2.715   9.329  2.0003  0.3688 -1.9182
   45TMC2    H1  705   1.920   2.899   9.528 -0.1924 -1.1842 -2.0844
   45TMC2    H2  706   1.543   3.077   9.545 -2.8816 -1.2303 -1.1660
   45TMC2    C7  707   1.787   3.076   9.647 -0.6281  0.2078 -0.2591
   45TMC2    C8  708   1.414   2.897   9.384  0.1075  0.5531 -0.5120
   45TMC2    O1  709   1.886   3.042   9.706 -0.7594 -0.3033  0.3882
   45TMC2    O2  710   1.364   2.796   9.332  0.1938 -0.2323  0.1974
   45TMC2    O5  711   1.402   3.015   9.323  0.6328  0.0723  0.6068
   45TMC2    H5  712   1.473   3.077   9.349  1.9363 -0.1376 -2.3534
   46MPD2     C  713   1.954   2.420   9.284  0.0980  0.4969  0.2789
   46MPD2    C1  714   1.827   2.446   9.327  0.8606  0.4544  0.3895
   46MPD2    C2  715   1.723   2.351   9.327 -0.0531 -0.2665  0.7644
   46MPD2    C3  716   1.756   2.216   9.293  0.1677 -0.3151 -0.1243
   46MPD2    C4  717   1.882   2.182   9.267 -0.5881 -0.5196 -0.6979
   46MPD2    C5  718   1.981   2.281   9.268 -0.4635  1.0300 -0.2429
   46MPD2     H  719   1.620   2.379   9.342  0.3154  1.1953  0.5719
   46MPD2    H1  720   1.913   2.081   9.243  3.0313 -0.0054  1.7330
   46MPD2    H2  721   2.037   2.489   9.276 -0.0091  0.4446 -1.2812
   46MPD2    H3  722   2.082   2.251   9.243  0.0055  1.6999  0.8891
   46MPD2     N  723   1.648   2.118   9.298  0.1354  0.0744 -0.2260
   46MPD2    H5  724   1.557   2.155   9.323  0.1889 -0.0847  0.2010
   46MPD2    N1  725   1.779   2.576   9.354  0.0127 -0.5623 -0.1058
   46MPD2    H7  726   1.681   2.585   9.379  0.2195  0.9946  0.1449
   47TMC2    C1  727   3.794   1.924   9.141 -0.3275 -0.7592  0.7509
   47TMC2    C2  728   3.706   1.841   9.080  0.0026 -0.2328  0.0952
   47TMC2    C3  729   3.576   1.866   9.091 -0.1439 -0.3439 -0.3796
   47TMC2    C4  730   3.746   2.033   9.214  0.1686 -0.4097 -0.5720
   47TMC2    C5  731   3.610   2.048   9.233 -0.0357  0.0582 -0.2714
   47TMC2    C6  732   3.520   1.962   9.170 -0.1919 -0.8358 -0.3955
   47TMC2     C  733   3.934   1.914   9.105 -0.1766  0.4987 -0.0322
   47TMC2     O  734   3.972   1.807   9.067  0.5270 -0.8375 -0.1640
   47TMC2     H  735   3.743   1.765   9.011  1.7598 -0.4542  1.3021
   47TMC2    H1  736   3.814   2.097   9.269 -0.2909 -2.1022  1.9816
   47TMC2    H2  737   3.416   1.969   9.199  0.1859  1.3654  0.4650
   47TMC2    C7  738   3.551   2.130   9.338  0.3526 -0.1115 -0.1005
   47TMC2    C8  739   3.491   1.791   9.005  0.2681 -0.3350 -0.5076
   47TMC2    O1  740   3.629   2.163   9.430  0.2665 -0.0035 -0.0728
   47TMC2    O2  741   3.542   1.699   8.946  0.2140  0.0464 -0.1101
   47TMC2    O5  742   3.423   1.895   8.949  0.2031 -0.0699 -0.3060
   47TMC2    H5  743   3.407   1.978   8.999 -2.8984  0.1073 -1.5887
   48MPD2     C  744   4.237   1.942   9.064 -0.3123 -0.3575 -0.0494
   48MPD2    C1  745   4.142   2.049   9.095  0.0528 -0.3921  0.1479
   48MPD2    C2  746   4.192   2.180   9.097  0.3036  0.7775  0.2333
   48MPD2    C3  747   4.330   2.208   9.078 -0.5617  0.2279 -0.8215
   48MPD2    C4  748   4.417   2.096   9.065  0.7132  0.2983 -0.1418
   48MPD2    C5  749   4.367   1.971   9.048  0.8195 -0.3238  0.1082
   48MPD2     H  750   4.125   2.265   9.102  1.1895  1.6544 -2.6413
   48MPD2    H1  751   4.524   2.112   9.055  0.8378 -0.8490 -0.6571
   48MPD2    H2  752   4.207   1.839   9.049  0.8736 -0.9295  1.4331
   48MPD2    H3  753   4.438   1.894   9.018  0.4779 -0.7467  0.3772
   48MPD2     N  754   4.370   2.339   9.098  0.4449 -0.1061  0.5128
   48MPD2    H5  755   4.307   2.411   9.133 -0.4140 -0.5209 -0.1829
   48MPD2    N1  756   4.004   2.031   9.119  0.2640  0.3371  0.0775
   48MPD2    H7  757   3.949   2.115   9.135 -0.2475  0.2601 -1.2837
   49TMC2    C1  758   3.740   0.358  10.297  0.4764 -0.2901  0.1441
   49TMC2    C2  759   3.840   0.398  10.220  0.6854 -0.0013 -0.5264
   49TMC2    C3  760   3.884   0.304  10.125 -0.2405  0.2761 -0.3363
   49TMC2    C4  761   3.683   0.239  10.289  0.6564 -0.1207 -0.5407
   49TMC2    C5  762   3.730   0.148  10.194  0.1553  0.2509  0.4524
   49TMC2    C6  763   3.831   0.177  10.113 -0.2798  0.8275  0.1412
   49TMC2     C  764   3.684   0.463  10.377 -0.0240 -0.4971  0.3427
   49TMC2     O  765   3.746   0.571  10.380  0.0317 -0.3068  0.4022
   49TMC2     H  766   3.879   0.499  10.230  0.4621 -0.1172  1.5389
   49TMC2    H1  767   3.592   0.221  10.345  0.6666  0.1386 -0.4390
   49TMC2    H2  768   3.856   0.113  10.030  0.8964  0.1922  0.9775
   49TMC2    C7  769   3.685   0.012  10.195  0.2467 -0.0275 -0.2233
   49TMC2    C8  770   3.974   0.352  10.017 -0.7405 -0.0527 -0.1500
   49TMC2    O1  771   3.718   4.683  10.099 -0.1832 -0.5351  0.0456
   49TMC2    O2  772   4.031   0.273   9.944 -0.3250  0.1913 -0.5521
   49TMC2    O5  773   3.922   0.470   9.979 -0.1337 -0.2797  0.0378
   49TMC2    H5  774   3.858   0.514  10.038  0.3253 -0.1907  0.4595
   50MPD2     C  775   3.480   0.657  10.462 -0.2930 -0.1003  0.4452
   50MPD2    C1  776   3.477   0.526  10.505 -0.8871  0.0276 -0.0469
   50MPD2    C2  777   3.372   0.480  10.579 -0.2432 -0.2086 -0.2932
   50MPD2    C3  778   3.276   0.574  10.617 -0.3137  0.1115 -0.7521
   50MPD2    C4  779   3.287   0.706  10.586 -0.7198 -0.3322  0.1838
   50MPD2    C5  780   3.377   0.743  10.495  0.3254 -0.4043  0.5719
   50MPD2     H  781   3.355   0.375  10.599 -1.4753 -0.0143 -0.3425
   50MPD2    H1  782   3.218   0.783  10.617  0.3526 -0.2029  2.2147
   50MPD2    H2  783   3.556   0.707  10.405 -1.3906  0.4285 -0.5612
   50MPD2    H3  784   3.385   0.849  10.471 -3.5208 -0.0102  1.0654
   50MPD2     N  785   3.162   0.543  10.701 -0.7905  0.3187 -0.0441
   50MPD2    H5  786   3.100   0.616  10.734 -2.1620 -1.6376  1.6722
   50MPD2    N1  787   3.574   0.428  10.455 -0.2719  0.1850  0.8035
   50MPD2    H7  788   3.551   0.330  10.464 -0.4110  0.1981  0.5919
   51TMC2    C1  789   2.583   0.009   1.318 -0.6609 -0.2690  0.0281
   51TMC2    C2  790   2.551   0.083   1.429  0.4345 -0.4404  0.0349
   51TMC2    C3  791   2.632   0.186   1.467  0.1882  0.3503 -0.7148
   51TMC2    C4  792   2.695   0.041   1.248  0.2421  0.4375  0.0349
   51TMC2    C5  793   2.767   0.146   1.283  0.7530  0.1573  0.5401
   51TMC2    C6  794   2.740   0.224   1.397 -0.1317  0.0641  0.4751
   51TMC2     C  795   2.491   4.652   1.250  0.5290  0.3477  1.0422
   51TMC2     O  796   2.521   4.607   1.138  0.2529  0.4304  0.2589
   51TMC2     H  797   2.465   0.059   1.491 -1.2305  1.0593 -1.6814
   51TMC2    H1  798   2.725   4.732   1.154 -0.3985  0.2803 -0.0967
   51TMC2    H2  799   2.811   0.297   1.432  0.3249  0.7478 -1.9101
   51TMC2    C7  800   2.896   0.174   1.214 -0.6249 -0.0945  0.2893
   51TMC2    C8  801   2.609   0.239   1.599 -0.3091 -0.0720 -0.4125
   51TMC2    O1  802   2.977   0.207   1.299  0.0960 -0.5580  0.3211
   51TMC2    O2  803   2.501   0.241   1.657  0.6222  0.0759  0.2491
   51TMC2    O5  804   2.731   0.281   1.651 -0.0885  0.2156  0.1484
   51TMC2    H5  805   2.814   0.247   1.610 -0.2621  0.4182 -0.3739
   52MPD2     C  806   2.074   4.336   1.226  0.4896 -0.2675 -0.3692
   52MPD2    C1  807   2.202   4.324   1.170  0.5666  0.0898 -0.0726
   52MPD2    C2  808   2.296   4.422   1.202 -0.9037 -0.9200 -0.1586
   52MPD2    C3  809   2.268   4.530   1.285  0.1573 -0.6534  0.2598
   52MPD2    C4  810   2.147   4.540   1.336  0.1774 -0.3038  0.2704
   52MPD2    C5  811   2.047   4.443   1.311 -0.0179 -0.6675 -0.1707
   52MPD2     H  812   2.394   4.409   1.158  0.4643  2.0948  2.0610
   52MPD2    H1  813   2.120   4.617   1.407 -2.5606 -3.4841  2.6845
   52MPD2    H2  814   2.008   4.252   1.214 -0.4254  0.4750 -0.5330
   52MPD2    H3  815   1.960   4.437   1.375 -0.2359  1.0521 -0.3150
   52MPD2     N  816   2.371   4.624   1.318 -0.0939  0.1505 -0.5184
   52MPD2    H5  817   2.348   4.684   1.396  1.0733 -1.9679  1.4594
   52MPD2    N1  818   2.239   4.216   1.089 -0.2064 -0.0839 -0.3319
   52MPD2    H7  819   2.336   4.200   1.063 -0.4270 -1.6482 -0.2083
   53TMC2    C1  820   3.851   2.370  12.253  0.6293  0.2151 -0.4452
   53TMC2    C2  821   3.952   2.297  12.306 -0.3327 -0.1411  0.1520
   53TMC2    C3  822   3.923   2.213  12.411 -0.2604 -0.1184  0.1763
   53TMC2    C4  823   3.726   2.371  12.308  0.0747 -0.3169  0.0360
   53TMC2    C5  824   3.701   2.292  12.414 -0.4529  0.2029  0.2259
   53TMC2    C6  825   3.797   2.207  12.463  0.4881  0.6409  0.8381
   53TMC2     C  826   3.849   2.393  12.113  0.1266  0.3049 -0.0815
   53TMC2     O  827   3.961   2.385  12.061 -0.3707 -0.0218 -0.0417
   53TMC2     H  828   4.053   2.322  12.274 -0.7952 -0.4798 -1.5655
   53TMC2    H1  829   3.649   2.442  12.279  0.4147  0.0188 -0.0440
   53TMC2    H2  830   3.770   2.136  12.540 -0.0730  0.8340  0.8222
   53TMC2    C7  831   3.563   2.246  12.420  0.3625 -0.8246  1.0841
   53TMC2    C8  832   4.017   2.128  12.469 -1.0268  0.2166  0.9564
   53TMC2    O1  833   3.498   2.250  12.316 -0.0773  0.5317 -0.6140
   53TMC2    O2  834   4.005   2.089  12.585 -0.3762 -0.0956 -0.2050
   53TMC2    O5  835   4.100   2.079  12.370 -0.3485 -0.5285 -0.2472
   53TMC2    H5  836   4.074   2.104  12.279  0.4903  1.5164  0.0694
   54MPD2     C  837   3.781   2.442  11.832  0.5170 -0.4269 -0.1752
   54MPD2    C1  838   3.694   2.395  11.929  0.0085  0.3667 -0.1604
   54MPD2    C2  839   3.562   2.363  11.888 -0.2491 -0.5953 -0.6120
   54MPD2    C3  840   3.528   2.364  11.753  0.5481 -0.1085  0.3358
   54MPD2    C4  841   3.617   2.411  11.659 -0.2735  0.3540 -0.3985
   54MPD2    C5  842   3.743   2.454  11.703  0.5481  0.9450  0.3567
   54MPD2     H  843   3.489   2.330  11.960  0.4827 -0.7122  0.0827
   54MPD2    H1  844   3.589   2.439  11.558  2.3659 -1.3537 -1.6017
   54MPD2    H2  845   3.881   2.473  11.858  0.1079  0.0840  0.7962
   54MPD2    H3  846   3.815   2.493  11.632 -2.3406 -1.1154 -3.7161
   54MPD2     N  847   3.398   2.334  11.704 -0.0076 -0.2346  0.0550
   54MPD2    H5  848   3.387   2.350  11.604 -2.4561 -0.1466  0.3560
   54MPD2    N1  849   3.724   2.373  12.061  0.4715  0.2810 -0.7016
   54MPD2    H7  850   3.645   2.349  12.120  1.8189  1.7632  1.7240
   55TMC2    C1  851   4.354   0.959   0.474  0.1567  0.4193 -0.5909
   55TMC2    C2  852   4.397   0.952   0.342  0.3817  0.3274 -0.2086
   55TMC2    C3  853   4.443   0.827   0.299 -0.1271  0.4611 -0.2151
   55TMC2    C4  854   4.364   0.853   0.558  0.2247 -0.0379  0.2317
   55TMC2    C5  855   4.395   0.733   0.501 -0.5074  0.4743  0.0197
   55TMC2    C6  856   4.431   0.723   0.375 -0.1283 -0.4336  0.9642
   55TMC2     C  857   4.288   1.081   0.528  0.2560 -0.3137  0.8401
   55TMC2     O  858   4.210   1.061   0.623  0.0253  0.3674 -0.0775
   55TMC2     H  859   4.370   1.030   0.272 -2.9772  0.0723  0.7820
   55TMC2    H1  860   4.339   0.865   0.663  3.0822 -2.1658  1.1587
   55TMC2    H2  861   4.451   0.626   0.332  3.2574  1.1776 -1.0771
   55TMC2    C7  862   4.378   0.616   0.580  0.5453 -0.3251 -0.2062
   55TMC2    C8  863   4.471   0.815   0.157  0.3402  0.0133 -0.0832
   55TMC2    O1  864   4.449   0.517   0.558 -0.0083  0.1223 -0.1407
   55TMC2    O2  865   4.458   0.713   0.089  0.4000  0.5809  0.0284
   55TMC2    O5  866   4.537   0.924   0.124 -0.6185  1.0593 -0.1738
   55TMC2    H5  867   4.559   0.981   0.200 -1.7396 -1.1923  1.8163
   56MPD2     C  868   4.307   1.423   0.392 -0.1921  0.3000 -0.5867
   56MPD2    C1  869   4.266   1.319   0.473  0.9556 -0.9061  1.1532
   56MPD2    C2  870   4.173   1.347   0.578  0.4138  0.5066  0.3441
   56MPD2    C3  871   4.125   1.475   0.595  0.2666 -0.0399  0.4893
   56MPD2    C4  872   4.162   1.574   0.517  0.6403  1.0042  0.4142
   56MPD2    C5  873   4.249   1.544   0.414 -0.2079  0.6395 -0.2087
   56MPD2     H  874   4.139   1.271   0.647  0.6006 -0.7630 -0.9800
   56MPD2    H1  875   4.122   1.674   0.531  2.6468  1.8039  0.4643
   56MPD2    H2  876   4.366   1.406   0.303  0.9353 -0.9860  0.4088
   56MPD2    H3  877   4.279   1.631   0.355 -1.0945  0.6922 -0.5858
   56MPD2     N  878   4.029   1.489   0.695  0.4463 -0.1174  0.1228
   56MPD2    H5  879   3.990   1.402   0.731  1.9990 -0.1310  1.7731
   56MPD2    N1  880   4.321   1.192   0.453 -0.5479  0.3401  0.2912
   56MPD2    H7  881   4.388   1.180   0.378 -0.3955 -0.9013  0.6251
   57TMC2    C1  882   3.758   1.248  13.634 -0.7353  0.1303  1.0617
   57TMC2    C2  883   3.809   1.176  13.736  0.0895  0.1201 -0.1314
   57TMC2    C3  884   3.876   1.059  13.699 -0.5635 -0.1231 -0.2617
   57TMC2    C4  885   3.786   1.221  13.506 -0.3285  0.3652  0.0668
   57TMC2    C5  886   3.859   1.106  13.472  0.1156  0.0363 -0.1363
   57TMC2    C6  887   3.909   1.031  13.568  0.3726 -0.0195  0.0567
   57TMC2     C  888   3.625   1.318  13.635 -0.0175 -0.0793 -0.7836
   57TMC2     O  889   3.561   1.311  13.531  1.0907 -0.0555  0.0343
   57TMC2     H  890   3.774   1.184  13.838 -0.6808 -2.5447 -0.1996
   57TMC2    H1  891   3.752   1.287  13.426 -0.7578  0.3105  0.2034
   57TMC2    H2  892   3.970   0.944  13.546 -0.9930 -0.7661 -0.7417
   57TMC2    C7  893   3.856   1.072  13.332  0.0678 -0.3750 -0.1729
   57TMC2    C8  894   3.969   1.008  13.799  0.8249 -0.2095  0.0245
   57TMC2    O1  895   3.786   1.135  13.254  0.3602  0.2076  0.1744
   57TMC2    O2  896   4.090   1.002  13.776  0.0086 -0.2241 -0.0544
   57TMC2    O5  897   3.906   1.000  13.919  0.3991  0.6137  0.4985
   57TMC2    H5  898   3.808   1.007  13.914  0.5358  1.6924 -0.5455
   58MPD2     C  899   3.223   1.517  13.899  0.8682 -0.3924 -0.2007
   58MPD2    C1  900   3.231   1.465  13.774  1.1727  0.3124 -0.2737
   58MPD2    C2  901   3.346   1.408  13.729 -0.0177  0.7480 -0.1535
   58MPD2    C3  902   3.462   1.403  13.807  0.2826 -0.0263 -0.4108
   58MPD2    C4  903   3.458   1.457  13.932 -0.3629  0.1222 -0.7888
   58MPD2    C5  904   3.334   1.502  13.976  0.3303  0.4008  0.3252
   58MPD2     H  905   3.346   1.360  13.632 -1.3940 -0.2108  0.3294
   58MPD2    H1  906   3.548   1.461  13.992  0.0566  1.5573 -1.5119
   58MPD2    H2  907   3.138   1.574  13.934  1.4566  0.8630 -0.7967
   58MPD2    H3  908   3.326   1.551  14.072 -0.3746  2.3011 -0.6956
   58MPD2     N  909   3.590   1.354  13.765 -0.0083 -0.6106  0.0737
   58MPD2    H5  910   3.658   1.352  13.841  0.0681 -0.2677  0.0123
   58MPD2    N1  911   3.122   1.467  13.681 -0.0590  0.7772 -0.1968
   58MPD2    H7  912   3.144   1.458  13.582  0.2082  2.3025 -0.2795
   59TMC2    C1  913   0.981   0.802  12.674 -0.1483  0.6922  0.4971
   59TMC2    C2  914   0.999   0.665  12.681  0.0121  0.1379  0.6035
   59TMC2    C3  915   1.086   0.611  12.588  0.2159 -0.3701 -0.5094
   59TMC2    C4  916   1.049   0.874  12.581 -0.3542  0.4800  0.5302
   59TMC2    C5  917   1.122   0.815  12.483  0.8350 -0.2134  0.1269
   59TMC2    C6  918   1.146   0.677  12.485  0.0304  0.0904 -0.7972
   59TMC2     C  919   0.929   0.859  12.790 -0.4533  0.0189  0.1870
   59TMC2     O  920   0.841   0.795  12.855 -0.6632  0.1175 -0.4947
   59TMC2     H  921   0.958   0.604  12.760 -0.1801  0.7434  0.9709
   59TMC2    H1  922   1.032   0.981  12.580 -1.4614  0.2497 -3.7486
   59TMC2    H2  923   1.189   0.626  12.399  1.2398  1.1815 -0.8477
   59TMC2    C7  924   1.179   0.891  12.376 -0.2979 -0.4341  0.5093
   59TMC2    C8  925   1.104   0.467  12.584 -0.6015  0.1447  0.3389
   59TMC2    O1  926   1.261   0.825  12.312 -0.2107 -0.2177 -0.3621
   59TMC2    O2  927   1.024   0.384  12.636 -0.0702 -0.9721  0.2574
   59TMC2    O5  928   1.235   0.460  12.586  0.0037  0.6447 -0.4077
   59TMC2    H5  929   1.271   0.552  12.587  0.8166  0.3081  2.9613
   60MPD2     C  930   0.894   1.010  13.041  0.1785  0.0139 -0.6180
   60MPD2    C1  931   0.997   1.032  12.951  0.3237  0.5569 -0.1421
   60MPD2    C2  932   1.094   1.133  12.980 -0.0954  0.0021 -0.4468
   60MPD2    C3  933   1.085   1.210  13.097  0.6598  0.7185 -0.1327
   60MPD2    C4  934   0.978   1.187  13.180  0.2659 -0.0705  0.8506
   60MPD2    C5  935   0.882   1.094  13.151 -0.2245 -0.1075  0.2650
   60MPD2     H  936   1.181   1.158  12.920 -0.5829 -0.5495 -1.3723
   60MPD2    H1  937   0.962   1.251  13.265  0.0802 -0.6799  1.2737
   60MPD2    H2  938   0.820   0.935  13.016 -0.2176  0.4740 -0.8386
   60MPD2    H3  939   0.803   1.085  13.224  2.2142  0.4928  2.9761
   60MPD2     N  940   1.180   1.308  13.142 -0.1458 -0.1281 -0.2044
   60MPD2    H5  941   1.159   1.365  13.224 -0.2857 -1.8402  0.9670
   60MPD2    N1  942   1.007   0.966  12.828 -0.5457 -0.1578 -0.0784
   60MPD2    H7  943   1.087   0.989  12.770  0.4738 -1.9878  0.6053
   61TMC2    C1  944   0.243   2.645  15.946 -0.3791  0.8047 -0.2394
   61TMC2    C2  945   0.331   2.587  16.033  0.5505  0.1814  0.0355
   61TMC2    C3  946   0.370   2.655  16.141  1.0222  0.0615  0.3263
   61TMC2    C4  947   0.191   2.770  15.973 -0.0471  0.4225  0.3159
   61TMC2    C5  948   0.224   2.831  16.091 -0.0596 -0.3342  0.0238
   61TMC2    C6  949   0.316   2.774  16.179  0.0475  1.2875  0.1420
   61TMC2     C  950   0.258   2.611  15.809 -0.0681  0.5436 -0.4508
   61TMC2     O  951   0.316   2.503  15.782 -0.3558 -0.2123  0.2844
   61TMC2     H  952   0.368   2.487  16.017 -0.3926 -0.1458 -0.1414
   61TMC2    H1  953   0.101   2.804  15.923  1.2092 -0.6857 -2.7080
   61TMC2    H2  954   0.353   2.832  16.263  0.5294 -1.5937  1.9175
   61TMC2    C7  955   0.183   2.971  16.114  0.1809 -0.6305  0.1550
   61TMC2    C8  956   0.426   2.579  16.252  0.3992  0.1455  0.1864
   61TMC2    O1  957   0.181   3.013  16.229  0.3099 -0.5081 -0.0182
   61TMC2    O2  958   0.401   2.609  16.369  0.0107  0.0995  0.7403
   61TMC2    O5  959   0.552   2.535  16.217  0.7199  0.0046  0.1798
   61TMC2    H5  960   0.570   2.532  16.121 -0.4603 -0.4663 -0.0313
   62MPD2     C  961   0.258   2.621  15.511 -0.4139 -0.1813  1.0699
   62MPD2    C1  962   0.251   2.729  15.597 -0.1809  0.1056 -0.6625
   62MPD2    C2  963   0.247   2.851  15.539 -0.1068  0.3812  0.2504
   62MPD2    C3  964   0.266   2.864  15.400  0.3963  0.4330 -0.4913
   62MPD2    C4  965   0.273   2.752  15.321  0.1378 -0.1725  0.3478
   62MPD2    C5  966   0.262   2.627  15.375 -0.0389 -0.2221 -0.4919
   62MPD2     H  967   0.214   2.935  15.599  0.1491 -1.0280  2.4103
   62MPD2    H1  968   0.295   2.758  15.214  2.2993 -0.4079  0.7673
   62MPD2    H2  969   0.274   2.520  15.547 -1.0522 -0.8014 -0.4312
   62MPD2    H3  970   0.267   2.534  15.319 -2.8561 -0.1965 -0.7807
   62MPD2     N  971   0.294   2.983  15.343 -0.3460 -0.4733 -0.1570
   62MPD2    H5  972   0.287   3.007  15.245  0.9799 -1.2151 -0.4337
   62MPD2    N1  973   0.241   2.723  15.736 -0.0323 -0.1075 -0.1622
   62MPD2    H7  974   0.226   2.811  15.786 -2.2465 -0.4700 -0.1579
   63TMC2    C1  975   0.028   2.636  10.303 -0.3978 -0.0515  0.0420
   63TMC2    C2  976   0.153   2.595  10.335  0.5400 -0.0458 -0.4412
   63TMC2    C3  977   0.252   2.665  10.280 -0.9673 -1.1181  0.1868
   63TMC2    C4  978   0.005   2.750  10.228 -0.5098 -0.5375 -0.1241
   63TMC2    C5  979   0.111   2.815  10.173  0.4836 -0.2620 -0.2523
   63TMC2    C6  980   0.240   2.779  10.210  0.0560 -0.2735  0.5149
   63TMC2     C  981   4.644   2.552  10.331  0.0336 -0.3590  0.5335
   63TMC2     O  982   4.553   2.575  10.243  0.2045  0.1070  0.8017
   63TMC2     H  983   0.172   2.513  10.403 -0.0878 -1.9505 -2.5618
   63TMC2    H1  984   4.641   2.786  10.229 -0.1553  0.4060  1.6143
   63TMC2    H2  985   0.322   2.849  10.203 -0.8411  0.6656 -0.5505
   63TMC2    C7  986   0.082   2.926  10.083 -0.7915  0.1780 -0.3409
   63TMC2    C8  987   0.383   2.628  10.316  0.2970  0.8314  0.3841
   63TMC2    O1  988   4.706   2.966  10.079 -0.9075  0.2230  0.0793
   63TMC2    O2  989   0.397   2.555  10.416  0.5874 -0.7947 -0.2588
   63TMC2    O5  990   0.450   2.617  10.200  0.3712 -0.2194  0.3691
   63TMC2    H5  991   0.412   2.674  10.129  1.0761 -1.6366 -1.1492
   64MPD2     C  992   4.364   2.145  10.475 -0.3809  0.1617  0.0194
   64MPD2    C1  993   4.496   2.117  10.502  0.2021 -0.1745 -0.4925
   64MPD2    C2  994   4.586   2.222  10.507 -0.1809 -0.3561  0.4311
   64MPD2    C3  995   4.561   2.343  10.439 -0.0747  0.1739 -0.2551
   64MPD2    C4  996   4.428   2.360  10.406 -0.4929 -0.1933  0.0479
   64MPD2    C5  997   4.327   2.270  10.432 -0.4164  0.4257 -0.8422
   64MPD2     H  998   4.688   2.207  10.541 -0.9988 -1.8216  2.1799
   64MPD2    H1  999   4.397   2.456  10.368 -2.7315 -1.7016 -1.9088
   64MPD2    H2 1000   4.279   2.080  10.494 -0.1925 -0.1640 -0.2604
   64MPD2    H3 1001   4.222   2.296  10.423 -1.1539 -2.6967 -1.1364
   64MPD2     N 1002   4.658   2.443  10.420  0.2759  0.2819 -0.1738
   64MPD2    H5 1003   0.017   2.430  10.447  0.5409  0.4431 -1.0457
   64MPD2    N1 1004   4.539   1.986  10.541 -0.2491 -0.4558 -0.2903
   64MPD2    H7 1005   4.640   1.984  10.555 -0.3560 -1.1805  0.3272
   65TMC2    C1 1006   0.962   2.827  15.636  0.1366 -0.4932  0.1551
   65TMC2    C2 1007   1.006   2.856  15.512  0.6522  0.0165 -0.3931
   65TMC2    C3 1008   1.004   2.989  15.478  0.4235 -0.1857 -0.7176
   65TMC2    C4 1009   0.918   2.925  15.728  0.0314  0.0792 -0.1723
   65TMC2    C5 1010   0.911   3.054  15.684 -0.2559 -0.5324  0.6131
   65TMC2    C6 1011   0.953   3.088  15.557 -0.1199  0.2568 -0.4694
   65TMC2     C 1012   0.959   2.690  15.670  0.7683  0.3177 -0.0251
   65TMC2     O 1013   0.963   2.658  15.788 -0.7601  0.2063 -0.2269
   65TMC2     H 1014   1.061   2.788  15.448  0.0678 -1.8837  1.1412
   65TMC2    H1 1015   0.892   2.882  15.824  1.5137 -0.8358 -0.1700
   65TMC2    H2 1016   0.952   3.189  15.518  0.1911 -0.8625 -3.3649
   65TMC2    C7 1017   0.898   3.173  15.766 -0.8220 -0.9533 -0.6869
   65TMC2    C8 1018   1.055   3.036  15.351 -0.0122 -0.0500  0.2000
   65TMC2    O1 1019   0.961   3.268  15.724  0.1318 -0.1537  0.2065
   65TMC2    O2 1020   1.101   3.145  15.328 -0.7811 -0.6211  0.2057
   65TMC2    O5 1021   1.038   2.934  15.269  0.7071 -0.1278  0.1280
   65TMC2    H5 1022   1.002   2.852  15.310  2.4484 -0.3179  1.2683
   66MPD2     C 1023   0.902   2.408  15.685 -0.2744  0.3534  0.5919
   66MPD2    C1 1024   0.867   2.485  15.574 -0.0366 -0.1949  0.2265
   66MPD2    C2 1025   0.799   2.427  15.471  0.0538 -0.2277  0.5399
   66MPD2    C3 1026   0.771   2.287  15.471 -0.0606  0.1134 -0.1270
   66MPD2    C4 1027   0.806   2.217  15.583 -0.3940 -0.0217 -0.3640
   66MPD2    C5 1028   0.873   2.270  15.689 -0.5814  0.2315  0.0542
   66MPD2     H 1029   0.779   2.494  15.388 -0.7561  0.2444  1.1253
   66MPD2    H1 1030   0.791   2.110  15.591 -2.8235  0.5928  3.1140
   66MPD2    H2 1031   0.973   2.441  15.759  1.3581 -0.2942 -0.6794
   66MPD2    H3 1032   0.898   2.208  15.774 -1.4558  0.4754  0.4840
   66MPD2     N 1033   0.691   2.223  15.370  0.8143 -0.0119  0.3275
   66MPD2    H5 1034   0.656   2.131  15.394 -0.2892  0.0316 -1.0908
   66MPD2    N1 1035   0.916   2.616  15.558  0.3754 -0.4611 -0.0635
   66MPD2    H7 1036   0.902   2.665  15.470  1.3737 -0.1765 -0.0610
   67TMC2    C1 1037   1.116   1.323  14.282 -0.8110 -0.2198  0.1714
   67TMC2    C2 1038   1.014   1.418  14.311  0.0279  0.4766  0.3549
   67TMC2    C3 1039   1.054   1.523  14.394 -0.3082 -0.2714  0.0113
   67TMC2    C4 1040   1.244   1.343  14.317  0.5103  0.3715  0.8507
   67TMC2    C5 1041   1.264   1.454  14.396 -0.1306 -0.3118 -0.3417
   67TMC2    C6 1042   1.174   1.543  14.444 -1.0979  0.6974 -0.3512
   67TMC2     C 1043   1.097   1.240  14.163  0.8104  0.0718  1.0185
   67TMC2     O 1044   1.186   1.186  14.105  0.2942 -0.1160 -0.0839
   67TMC2     H 1045   0.912   1.420  14.277  0.7286  2.5636 -1.5413
   67TMC2    H1 1046   1.326   1.287  14.274  0.6066  0.6297  0.6984
   67TMC2    H2 1047   1.201   1.628  14.505 -1.2898  1.0446 -0.7524
   67TMC2    C7 1048   1.394   1.467  14.463  0.3054 -0.4380  0.0640
   67TMC2    C8 1049   0.961   1.608  14.461  0.2719  0.0982  0.2537
   67TMC2    O1 1050   1.488   1.433  14.399 -0.3611 -0.1237  0.1832
   67TMC2    O2 1051   0.966   1.729  14.436 -0.5763 -0.1400  0.3294
   67TMC2    O5 1052   0.844   1.534  14.475  0.9207 -0.0605 -0.2737
   67TMC2    H5 1053   0.871   1.443  14.500 -0.8882 -0.6355 -0.4567
   68MPD2     C 1054   0.981   1.157  13.895 -0.3986 -0.5148 -0.0329
   68MPD2    C1 1055   0.914   1.188  14.005 -0.3178  0.4866  0.5689
   68MPD2    C2 1056   0.775   1.201  13.993  0.2558  0.1247  0.1397
   68MPD2    C3 1057   0.708   1.193  13.875 -0.8849 -0.6118 -0.7995
   68MPD2    C4 1058   0.782   1.156  13.764 -0.6265 -0.2743 -0.1846
   68MPD2    C5 1059   0.915   1.141  13.774 -0.0049  0.3982 -0.4569
   68MPD2     H 1060   0.722   1.210  14.088  2.3228  2.6421  1.0417
   68MPD2    H1 1061   0.735   1.141  13.668  0.8766  0.5332 -1.0457
   68MPD2    H2 1062   1.085   1.123  13.893  0.0866  1.1103 -1.7180
   68MPD2    H3 1063   0.970   1.111  13.685  2.2001  0.2864  0.9342
   68MPD2     N 1064   0.572   1.230  13.849 -0.0953  0.5214 -0.0784
   68MPD2    H5 1065   0.527   1.210  13.760  0.7957 -0.7221 -0.2463
   68MPD2    N1 1066   0.961   1.224  14.134  0.6789 -0.1342  0.0858
   68MPD2    H7 1067   0.895   1.255  14.205  2.3925 -0.1231  1.6675
   69TMC2    C1 1068   2.865   2.755  12.304  0.2208 -0.3718  0.0382
   69TMC2    C2 1069   2.750   2.760  12.230 -0.2622  0.4386  0.1069
   69TMC2    C3 1070   2.753   2.817  12.104 -0.4897  0.0692  0.1052
   69TMC2    C4 1071   2.977   2.814  12.264 -0.1689 -0.9496 -0.3141
   69TMC2    C5 1072   2.980   2.884  12.144  0.0553  0.6400  0.0725
   69TMC2    C6 1073   2.871   2.876  12.064 -0.2462  0.4038  0.1244
   69TMC2     C 1074   2.853   2.723  12.445  0.5299 -0.2020  0.4384
   69TMC2     O 1075   2.761   2.649  12.470  0.0727  0.2651 -0.5947
   69TMC2     H 1076   2.654   2.725  12.265 -0.8172  0.4048 -1.4702
   69TMC2    H1 1077   3.060   2.819  12.333 -0.1089  1.7332 -0.5970
   69TMC2    H2 1078   2.869   2.926  11.968 -2.3216 -1.2179 -0.6856
   69TMC2    C7 1079   3.106   2.935  12.099  0.2895  0.3214  0.2076
   69TMC2    C8 1080   2.631   2.872  12.059 -0.1303  0.1818 -1.2446
   69TMC2    O1 1081   3.198   2.893  12.163 -0.2160  0.6028  0.2263
   69TMC2    O2 1082   2.538   2.893  12.133 -0.3543 -0.1772 -0.5339
   69TMC2    O5 1083   2.628   2.859  11.924  0.3106 -0.3003  0.1438
   69TMC2    H5 1084   2.715   2.835  11.886 -0.3480 -0.6259 -1.1540
   70MPD2     C 1085   3.015   2.892  12.732 -0.1388 -0.6362  0.3527
   70MPD2    C1 1086   2.941   2.796  12.669  0.4233 -1.0942  0.6205
   70MPD2    C2 1087   2.894   2.689  12.737 -0.1071  0.1273 -0.0526
   70MPD2    C3 1088   2.914   2.678  12.870  0.4182  0.4295  0.1002
   70MPD2    C4 1089   2.976   2.778  12.946  0.1741 -0.2088 -0.0968
   70MPD2    C5 1090   3.023   2.889  12.873 -0.3995 -0.0404  0.5534
   70MPD2     H 1091   2.848   2.610  12.677  0.9030  0.0004 -0.6523
   70MPD2    H1 1092   2.987   2.775  13.054  0.3340 -2.3850 -0.1720
   70MPD2    H2 1093   3.067   2.975  12.686 -0.6128  0.8208  2.4380
   70MPD2    H3 1094   3.068   2.973  12.924 -0.6187  0.1379  0.4546
   70MPD2     N 1095   2.892   2.561  12.943 -0.2107 -0.2067  0.4070
   70MPD2    H5 1096   2.943   2.555  13.030  0.8379 -3.0156 -0.4128
   70MPD2    N1 1097   2.939   2.803  12.528  0.2341  0.3277  0.4181
   70MPD2    H7 1098   2.999   2.871  12.482 -0.7827  0.2143 -1.0894
   71TMC2    C1 1099   1.509   3.860   1.464  0.1403 -0.0496 -0.1502
   71TMC2    C2 1100   1.608   3.780   1.503  0.0374  0.0306  0.6020
   71TMC2    C3 1101   1.662   3.788   1.630  0.4976 -0.2320 -1.1101
   71TMC2    C4 1102   1.455   3.955   1.547 -0.5654 -0.1220  0.0470
   71TMC2    C5 1103   1.517   3.976   1.668  0.2006 -0.2901  0.2397
   71TMC2    C6 1104   1.617   3.893   1.713  0.0780  0.3413  0.5532
   71TMC2     C 1105   1.426   3.802   1.364  0.0822  0.2232 -0.1698
   71TMC2     O 1106   1.435   3.678   1.366  0.8237  0.0290 -0.0987
   71TMC2     H 1107   1.649   3.708   1.433  2.6110  0.8893  1.2426
   71TMC2    H1 1108   1.368   4.014   1.518  0.5200  1.0364 -0.8315
   71TMC2    H2 1109   1.670   3.913   1.806  0.0964  1.0231  0.3912
   71TMC2    C7 1110   1.465   4.069   1.765  0.3191 -0.4420 -0.5760
   71TMC2    C8 1111   1.800   3.744   1.633  0.7182  0.0480  0.0211
   71TMC2    O1 1112   1.545   4.097   1.855 -0.3942  0.1732  0.7562
   71TMC2    O2 1113   1.870   3.728   1.533  0.2031  1.6249  0.1128
   71TMC2    O5 1114   1.830   3.696   1.756  0.0381 -0.1070  0.2727
   71TMC2    H5 1115   1.757   3.703   1.820  1.3099 -3.0884  2.0734
   72MPD2     C 1116   1.008   3.790   1.081 -0.0278  0.1305 -0.3963
   72MPD2    C1 1117   1.057   3.917   1.074  0.7742 -0.4839  0.0972
   72MPD2    C2 1118   1.171   3.952   1.140 -0.4484  0.4975 -0.0520
   72MPD2    C3 1119   1.239   3.854   1.215 -0.2635 -0.0297 -0.4023
   72MPD2    C4 1120   1.187   3.722   1.225  0.5700  0.7601  0.0158
   72MPD2    C5 1121   1.074   3.693   1.149  0.1599 -0.1191  0.4745
   72MPD2     H 1122   1.198   4.057   1.146 -0.0110  0.2847  1.7767
   72MPD2    H1 1123   1.240   3.637   1.266  0.3283 -0.7398 -2.8051
   72MPD2    H2 1124   0.922   3.757   1.024 -0.5543  1.0782 -0.1527
   72MPD2    H3 1125   1.032   3.594   1.141 -3.2275  1.4450 -0.8210
   72MPD2     N 1126   1.354   3.893   1.290 -0.1741 -0.5943 -0.1092
   72MPD2    H5 1127   1.384   3.990   1.287  1.2300 -1.1057 -2.2211
   72MPD2    N1 1128   0.993   4.014   1.003 -0.1405  0.0044 -0.0321
   72MPD2    H7 1129   1.051   4.096   0.992  0.8316 -0.6862  0.0018
   73TMC2    C1 1130   0.516   0.114  13.888 -0.1540 -0.4014  0.1151
   73TMC2    C2 1131   0.462   0.117  14.011  0.0565  0.4999 -0.0181
   73TMC2    C3 1132   0.538   0.082  14.124 -0.3794 -0.0183 -0.2017
   73TMC2    C4 1133   0.653   0.075  13.872 -0.4117 -0.3431 -0.3162
   73TMC2    C5 1134   0.727   0.052  13.983 -0.4925 -0.1438  0.4736
   73TMC2    C6 1135   0.669   0.049  14.107  0.5274  0.3571  0.6623
   73TMC2     C 1136   0.508   0.245  13.820 -0.6650 -0.2215  0.0061
   73TMC2     O 1137   0.606   0.282  13.758 -0.5488 -0.7502  0.3873
   73TMC2     H 1138   0.354   0.125  14.020  0.3014  0.9146  2.8172
   73TMC2    H1 1139   0.702   0.058  13.777 -0.5794  0.5383 -0.5589
   73TMC2    H2 1140   0.732   0.027  14.193 -0.9037 -2.1506  1.0663
   73TMC2    C7 1141   0.856   0.112  13.980 -0.1844  0.3486  0.3238
   73TMC2    C8 1142   0.489   0.062  14.255  0.5034  0.0053 -0.9056
   73TMC2    O1 1143   0.939   0.068  14.061  0.3856 -0.1543 -0.2577
   73TMC2    O2 1144   0.530   4.718  14.335  0.3711  0.0615  0.4624
   73TMC2    O5 1145   0.441   0.184  14.284 -0.8588  0.2613 -0.1446
   73TMC2    H5 1146   0.435   0.234  14.200 -0.2553  1.2010  0.3612
   74MPD2     C 1147   0.305   0.629  13.583 -0.1472  0.0845 -0.1739
   74MPD2    C1 1148   0.431   0.620  13.638  0.2802  0.6092  0.4615
   74MPD2    C2 1149   0.457   0.516  13.728  0.0210 -0.5089  0.0276
   74MPD2    C3 1150   0.358   0.427  13.767 -0.3798  0.3594  1.3728
   74MPD2    C4 1151   0.232   0.441  13.723 -0.1313 -0.0914  0.4323
   74MPD2    C5 1152   0.210   0.546  13.636  0.0113  0.3854 -0.2107
   74MPD2     H 1153   0.556   0.514  13.772 -0.0276 -1.6988  0.0883
   74MPD2    H1 1154   0.159   0.368  13.755 -0.0441  0.2785  1.4634
   74MPD2    H2 1155   0.279   0.700  13.505 -2.5437 -0.4896  0.1004
   74MPD2    H3 1156   0.109   0.572  13.605  1.0408  1.4672 -2.6124
   74MPD2     N 1157   0.382   0.304  13.831 -0.3838 -0.2478 -0.0574
   74MPD2    H5 1158   0.298   0.258  13.863 -1.1262 -0.5960 -2.5341
   74MPD2    N1 1159   0.527   0.716  13.608  0.2701  0.7832 -0.1841
   74MPD2    H7 1160   0.507   0.785  13.536 -0.9242  0.6257 -0.0053
   75TMC2    C1 1161   0.363   1.292  13.892  0.0562 -0.3494  0.6939
   75TMC2    C2 1162   0.259   1.322  13.974 -0.3149 -0.0480 -0.1495
   75TMC2    C3 1163   0.137   1.364  13.918  0.0603  0.1265 -0.4006
   75TMC2    C4 1164   0.350   1.306  13.755 -0.0831 -0.0689  0.1872
   75TMC2    C5 1165   0.234   1.362  13.709  0.1696 -0.4840 -0.4846
   75TMC2    C6 1166   0.117   1.377  13.785  0.5520  0.2985  0.0714
   75TMC2     C 1167   0.494   1.284  13.945  0.1472  0.2824 -0.1861
   75TMC2     O 1168   0.525   1.331  14.053  0.7523 -0.4341 -0.3779
   75TMC2     H 1169   0.281   1.319  14.080  0.1737  0.5261 -0.2317
   75TMC2    H1 1170   0.432   1.299  13.686  1.3037 -1.8351  1.9877
   75TMC2    H2 1171   0.018   1.390  13.742  0.5318  0.1385  0.0681
   75TMC2    C7 1172   0.223   1.381  13.563  0.1483  0.4600  0.2504
   75TMC2    C8 1173   0.051   1.425  14.003 -0.0326  0.3950  0.4076
   75TMC2    O1 1174   0.284   1.321  13.478  0.4485  0.0242  0.2919
   75TMC2    O2 1175   0.097   1.449  14.115  0.4746 -0.0386  0.3882
   75TMC2    O5 1176   4.677   1.355  13.989 -0.1608 -0.1344  0.3978
   75TMC2    H5 1177   4.669   1.313  13.901 -0.9391 -0.1014  0.4495
   76TMC2    C1 1178   4.393   2.033  12.130 -0.5116  0.6835  0.0544
   76TMC2    C2 1179   4.346   1.973  12.020  0.8219  0.4769 -0.3942
   76TMC2    C3 1180   4.391   1.851  11.987  0.2266 -0.0120 -0.4841
   76TMC2    C4 1181   4.478   1.976  12.225 -0.0691  0.4808 -0.8666
   76TMC2    C5 1182   4.515   1.848  12.185  0.0286 -0.0068 -0.3684
   76TMC2    C6 1183   4.480   1.788  12.073  0.3997  0.0576  0.0610
   76TMC2     C 1184   4.353   2.178  12.135  0.3450 -0.2325 -0.8139
   76TMC2     O 1185   4.318   2.240  12.035 -0.0638  0.4526  0.6121
   76TMC2     H 1186   4.273   2.024  11.959  2.4664  0.8703 -2.0391
   76TMC2    H1 1187   4.519   2.032  12.308 -0.7286  0.1397 -0.3036
   76TMC2    H2 1188   4.501   1.682  12.063  0.4209 -0.0524  1.3098
   76TMC2    C7 1189   4.635   1.783  12.238 -0.3950  0.3813  0.4287
   76TMC2    C8 1190   4.380   1.804  11.851 -0.2221  0.6448 -0.2696
   76TMC2    O1 1191   4.712   1.730  12.160  0.0492 -0.0852  0.1322
   76TMC2    O2 1192   4.415   1.691  11.826  0.3427 -0.4378 -0.1836
   76TMC2    O5 1193   4.345   1.901  11.766  0.3822  0.0916 -0.9103
   76TMC2    H5 1194   4.328   1.981  11.820 -2.5277 -0.8492 -0.4298
   77MPD2     C 1195   4.165   2.573  12.402 -0.0568  0.7860  0.1743
   77MPD2    C1 1196   4.183   2.567  12.259 -0.4727 -0.0955  0.1992
   77MPD2    C2 1197   4.262   2.457  12.215 -0.1044 -0.1910 -0.1260
   77MPD2    C3 1198   4.304   2.357  12.303 -0.0234  0.0347  0.5910
   77MPD2    C4 1199   4.274   2.366  12.437  0.4658  0.7517  0.1009
   77MPD2    C5 1200   4.222   2.479  12.489  0.0947 -0.8136 -0.1565
   77MPD2     H 1201   4.284   2.447  12.110 -0.0809 -0.3009 -0.1105
   77MPD2    H1 1202   4.313   2.303  12.516 -0.1622 -0.9177 -0.9275
   77MPD2    H2 1203   4.120   2.656  12.457 -0.4691  0.7584 -0.1246
   77MPD2    H3 1204   4.214   2.490  12.596  0.3267 -2.9980  0.0678
   77MPD2     N 1205   4.360   2.232  12.262  0.7361 -0.5126  0.1588
   77MPD2    H5 1206   4.385   2.166  12.335  0.2485 -0.0793  0.7115
   77MPD2    N1 1207   4.123   2.649  12.164 -0.7125  0.4369 -0.2555
   77MPD2    H7 1208   4.162   2.649  12.070 -0.3772  1.0822 -0.1186
   78TMC2    C1 1209   1.230   4.664   1.668  0.9960  0.0399  0.4149
   78TMC2    C2 1210   1.285   0.036   1.722 -0.0015 -0.5726 -0.0567
   78TMC2    C3 1211   1.425   0.036   1.734 -0.2143  0.8331  0.8346
   78TMC2    C4 1212   1.301   4.559   1.619 -0.5055 -0.3154  0.7227
   78TMC2    C5 1213   1.436   4.565   1.633 -0.2765 -0.8299  0.2081
   78TMC2    C6 1214   1.507   4.667   1.688  0.1798 -0.1416 -0.4250
   78TMC2     C 1215   1.082   4.670   1.636  0.0930  0.2803  0.8375
   78TMC2     O 1216   1.031   0.042   1.649 -0.2593  0.3337  0.0944
   78TMC2     H 1217   1.226   0.121   1.753 -0.2767 -0.6730 -0.3002
   78TMC2    H1 1218   1.255   4.471   1.575  2.8091 -1.3373 -0.7173
   78TMC2    H2 1219   1.615   4.678   1.682  0.0058  1.6734 -0.1769
   78TMC2    C7 1220   1.501   4.441   1.611 -0.4090 -0.6274 -0.8627
   78TMC2    C8 1221   1.495   0.131   1.812 -0.1498  0.1080  0.1886
   78TMC2    O1 1222   1.453   4.365   1.532  0.4543 -0.0748  0.0288
   78TMC2    O2 1223   1.609   0.112   1.844 -0.2296  0.5403 -0.3545
   78TMC2    O5 1224   1.446   0.258   1.795 -0.4966 -0.1240  0.6816
   78TMC2    H5 1225   1.370   0.277   1.737 -0.0626 -2.6371 -0.6854
   79MPD1     C 1226   0.606   4.469   1.620  0.1099  0.0025  0.2108
   79MPD1    C1 1227   0.644   4.598   1.598 -0.4556  0.8078 -0.0559
   79MPD1    C2 1228   0.780   4.624   1.600 -0.0195 -0.3495  0.3295
   79MPD1    C3 1229   0.881   4.522   1.609 -0.6773  0.2693 -0.4661
   79MPD1    C4 1230   0.840   4.396   1.601 -0.0343  0.2025 -0.0086
   79MPD1    C5 1231   0.705   4.370   1.615  0.2183  0.2056  0.2801
   79MPD1     H 1232   0.809   4.727   1.617  1.6280 -0.2579 -3.0378
   79MPD1    H1 1233   0.907   4.310   1.610 -1.5616 -1.0615 -0.6900
   79MPD1    H2 1234   0.502   4.441   1.638 -0.4123  0.9181 -1.4121
   79MPD1    H3 1235   0.664   4.270   1.622  0.8100 -0.1762 -1.7866
   79MPD1     N 1236   1.022   4.548   1.622 -0.3753 -0.9489  0.9885
   79MPD1    H5 1237   1.080   4.465   1.623  1.3526  0.2166 -1.3611
   79MPD1    N1 1238   0.547   4.695   1.622 -0.5720  0.3592  0.5535
   79MPD1    H6 1239   0.467   4.669   1.564  0.6184  0.6919 -1.2198
   79MPD1    H7 1240   0.582   0.053   1.618  1.2050 -0.3543 -0.9400
   80TMC2    C1 1241   3.857   2.079  11.942  0.2396 -0.2814 -0.2051
   80TMC2    C2 1242   3.971   2.116  11.876 -0.4695 -0.2721  0.2283
   80TMC2    C3 1243   3.968   2.152  11.741  0.1191  0.4422 -0.1528
   80TMC2    C4 1244   3.744   2.053  11.866 -0.1428 -0.0856  0.2044
   80TMC2    C5 1245   3.750   2.068  11.729  0.2057  1.1481  0.1671
   80TMC2    C6 1246   3.856   2.125  11.666  0.0514 -0.1585  0.3983
   80TMC2     C 1247   3.879   2.021  12.083  0.5954  0.3206 -0.9581
   80TMC2     O 1248   3.990   2.042  12.130  0.0843 -0.2189 -0.1037
   80TMC2     H 1249   4.066   2.134  11.927 -1.4111  0.5870  1.6827
   80TMC2    H1 1250   3.656   2.027  11.924 -0.0964 -1.9589 -0.5479
   80TMC2    H2 1251   3.853   2.141  11.559  0.1142  2.0686  0.7425
   80TMC2    C7 1252   3.629   2.043  11.657  0.1045 -0.3892  0.0910
   80TMC2    C8 1253   4.095   2.147  11.674 -0.0679  0.4109  0.3158
   80TMC2    O1 1254   3.622   2.094  11.550  0.4480  0.5043 -0.0531
   80TMC2    O2 1255   4.199   2.171  11.732  0.3705 -0.1464 -0.3532
   80TMC2    O5 1256   4.081   2.057  11.573 -1.0347  0.1979  0.4880
   80TMC2    H5 1257   3.996   2.009  11.567 -0.4875 -1.1402  3.2956
   81MPD2     C 1258   3.876   1.851  12.318  0.2728 -0.1945  0.6971
   81MPD2    C1 1259   3.764   1.911  12.265 -0.3275  0.2987  0.4833
   81MPD2    C2 1260   3.647   1.905  12.339 -0.1595 -0.1064 -0.1618
   81MPD2    C3 1261   3.644   1.840  12.464  0.0714  0.2263  0.6640
   81MPD2    C4 1262   3.757   1.778  12.512 -0.6414 -0.3970  0.7180
   81MPD2    C5 1263   3.867   1.775  12.436 -0.9454  0.4282  0.3044
   81MPD2     H 1264   3.560   1.956  12.300 -1.2419 -0.8484  1.2950
   81MPD2    H1 1265   3.756   1.726  12.607  1.5401  2.6835  2.3997
   81MPD2    H2 1266   3.968   1.855  12.262 -0.3913 -1.7968 -0.5195
   81MPD2    H3 1267   3.950   1.719  12.479 -0.5558 -0.9425 -2.2629
   81MPD2     N 1268   3.524   1.826  12.540 -0.2993 -0.1846 -0.5243
   81MPD2    H5 1269   3.537   1.770  12.624 -1.5177 -1.2458 -1.0458
   81MPD2    N1 1270   3.766   1.993  12.150 -0.5344 -0.4071 -0.0011
   81MPD2    H7 1271   3.682   2.026  12.105 -1.0035  0.7626  1.7280
   82TMC2    C1 1272   1.765   1.168  10.697  0.3704  0.2753  0.3371
   82TMC2    C2 1273   1.901   1.194  10.670 -0.3828  0.3961  0.1723
   82TMC2    C3 1274   1.985   1.090  10.690 -0.1893  0.8249  0.5912
   82TMC2    C4 1275   1.718   1.058  10.760  0.1407 -0.7820  0.1197
   82TMC2    C5 1276   1.808   0.953  10.766  0.3573  0.6523 -1.0822
   82TMC2    C6 1277   1.942   0.965  10.735 -0.0379 -0.1166  0.0557
   82TMC2     C 1278   1.668   1.272  10.659  0.7341  0.2937 -0.2764
   82TMC2     O 1279   1.555   1.233  10.658  0.1192  0.3183 -0.0070
   82TMC2     H 1280   1.927   1.287  10.621 -2.5182  0.8866 -0.0578
   82TMC2    H1 1281   1.611   1.051  10.777  0.3937 -2.3683  1.1115
   82TMC2    H2 1282   2.011   0.883  10.753  0.3978  0.3385  0.4652
   82TMC2    C7 1283   1.749   0.821  10.796  0.5885  0.6285  0.3911
   82TMC2    C8 1284   2.118   1.094  10.637  0.1617  0.1558  0.1826
   82TMC2    O1 1285   1.653   0.814  10.870  0.4524 -0.7504 -0.9252
   82TMC2    O2 1286   2.186   0.993  10.644 -0.3505  0.5018 -0.5534
   82TMC2    O5 1287   2.160   1.219  10.666 -0.2411 -0.2036  0.1272
   82TMC2    H5 1288   2.087   1.283  10.676 -1.1637 -1.5951  2.4696
   83MPD2     C 1289   1.551   1.716  10.456 -0.4102 -0.0647  0.5769
   83MPD2    C1 1290   1.481   1.596  10.451  0.6079 -0.3942  0.1855
   83MPD2    C2 1291   1.543   1.490  10.510 -0.2990 -0.2430 -0.2099
   83MPD2    C3 1292   1.658   1.510  10.587 -0.1686 -0.1522  0.0083
   83MPD2    C4 1293   1.719   1.629  10.591  0.4828  0.3431 -0.2402
   83MPD2    C5 1294   1.669   1.728  10.514  0.2803  0.0510  0.2939
   83MPD2     H 1295   1.499   1.392  10.491 -0.5020 -0.3512  0.8269
   83MPD2    H1 1296   1.811   1.647  10.645  0.3952  0.0118  0.0206
   83MPD2    H2 1297   1.502   1.798  10.405  1.9032  1.0661  0.1787
   83MPD2    H3 1298   1.726   1.819  10.501 -0.1388  0.0337 -1.6973
   83MPD2     N 1299   1.722   1.399  10.644  0.1370 -0.1361  0.0184
   83MPD2    H5 1300   1.811   1.419  10.689 -0.7070  1.0473  1.1819
   83MPD2    N1 1301   1.358   1.593  10.388  0.5998  0.5828 -0.2211
   83MPD2    H7 1302   1.318   1.684  10.368 -1.2231 -0.3107 -0.6047
   84TMC2    C1 1303   2.866   0.483  10.997 -0.8150  0.3701 -0.4200
   84TMC2    C2 1304   2.826   0.364  11.031  0.8695 -0.1626  0.7999
   84TMC2    C3 1305   2.887   0.258  10.972  0.3261  0.6103  0.2303
   84TMC2    C4 1306   2.942   0.504  10.885  0.0570 -0.2617  0.4613
   84TMC2    C5 1307   3.003   0.398  10.826  0.8760 -0.2900 -0.5270
   84TMC2    C6 1308   2.970   0.269  10.867 -0.5669 -0.0992 -0.3913
   84TMC2     C 1309   2.773   0.591  11.035 -0.2102  0.1622  0.4452
   84TMC2     O 1310   2.723   0.588  11.147  0.6405 -0.0774 -0.4851
   84TMC2     H 1311   2.756   0.358  11.114 -0.9714  0.1760 -0.7089
   84TMC2    H1 1312   2.954   0.605  10.846 -0.4129 -1.0080 -1.6569
   84TMC2    H2 1313   3.016   0.179  10.828  2.5095  1.2455  0.1400
   84TMC2    C7 1314   3.119   0.413  10.730  0.9069  0.8729  0.5942
   84TMC2    C8 1315   2.886   0.132  11.041  0.0838 -0.4741  0.1472
   84TMC2    O1 1316   3.177   0.310  10.698  0.3476 -0.3135 -0.3985
   84TMC2    O2 1317   2.981   0.056  11.033 -0.4763 -0.3812 -0.0969
   84TMC2    O5 1318   2.762   0.105  11.072 -0.1449  0.1794 -0.5421
   84TMC2    H5 1319   2.701   0.179  11.091  0.2131  0.8342 -1.9381
   85TMC2    C1 1320   2.864   3.661  15.817 -0.4519 -0.1455 -0.7139
   85TMC2    C2 1321   2.755   3.636  15.744  0.1250 -0.3536  1.1592
   85TMC2    C3 1322   2.722   3.705  15.632 -0.1506 -0.0026 -0.4228
   85TMC2    C4 1323   2.953   3.752  15.783 -0.0831 -0.3485 -0.4392
   85TMC2    C5 1324   2.909   3.825  15.673 -0.0406  1.0848 -0.4214
   85TMC2    C6 1325   2.801   3.806  15.595 -1.0773  0.1377  0.3217
   85TMC2     C 1326   2.917   3.556  15.901 -0.1859 -0.2638 -0.5574
   85TMC2     O 1327   3.026   3.573  15.960 -0.1027 -0.2459  0.0692
   85TMC2     H 1328   2.671   3.580  15.785 -0.2067 -0.7765 -0.1250
   85TMC2    H1 1329   3.041   3.764  15.844 -0.4857  1.1643 -0.1429
   85TMC2    H2 1330   2.773   3.862  15.506  1.8291  0.6030 -0.2990
   85TMC2    C7 1331   2.990   3.935  15.645 -0.0142  0.1649 -0.2119
   85TMC2    C8 1332   2.596   3.685  15.567  0.0289 -0.5054  0.2056
   85TMC2    O1 1333   3.111   3.922  15.678 -0.4354  0.3849  0.0329
   85TMC2    O2 1334   2.526   3.778  15.538 -0.0669  0.1875 -0.0210
   85TMC2    O5 1335   2.559   3.561  15.577 -0.5431  0.2660 -0.1343
   85TMC2    H5 1336   2.630   3.504  15.615 -0.5115  0.1115 -0.4250
   86MPD2     C 1337   2.867   3.118  16.170  0.2441  0.2032 -0.0898
   86MPD2    C1 1338   2.748   3.142  16.100 -0.0556 -1.1389  0.1796
   86MPD2    C2 1339   2.746   3.256  16.020 -0.1032  0.9633 -0.1134
   86MPD2    C3 1340   2.852   3.346  16.011  0.4389  0.3429  0.1075
   86MPD2    C4 1341   2.963   3.331  16.092 -0.3784  0.1215  0.2779
   86MPD2    C5 1342   2.973   3.209  16.160 -0.0408  0.3058 -0.7623
   86MPD2     H 1343   2.660   3.268  15.955 -0.8457 -0.9786  0.5087
   86MPD2    H1 1344   3.044   3.401  16.106 -0.4533  0.6785 -2.1349
   86MPD2    H2 1345   2.890   3.022  16.213  1.3590  0.9973  1.0909
   86MPD2    H3 1346   3.061   3.193  16.222  0.7765 -1.4363 -2.3888
   86MPD2     N 1347   2.834   3.453  15.922  0.0848  0.6138 -0.1958
   86MPD2    H5 1348   2.741   3.456  15.882 -1.0280 -1.1600  2.1916
   86MPD2    N1 1349   2.637   3.053  16.093 -0.6857 -0.5314 -0.1065
   86MPD2    H7 1350   2.575   3.062  16.014  0.1002 -0.1631 -0.6798
   87TMC2    C1 1351   0.560   2.225   1.016 -0.1692 -0.5318 -0.7203
   87TMC2    C2 1352   0.427   2.204   1.056 -0.7984  0.0300  0.2659
   87TMC2    C3 1353   0.367   2.312   1.109  0.0606  0.0064 -0.0557
   87TMC2    C4 1354   0.634   2.330   1.061  0.3152  0.2374 -0.5218
   87TMC2    C5 1355   0.575   2.420   1.147  0.7085 -0.0788 -0.4235
   87TMC2    C6 1356   0.441   2.420   1.164  0.0658  0.6763  0.6132
   87TMC2     C 1357   0.602   2.142   0.902 -0.1686  0.4223 -0.7275
   87TMC2     O 1358   0.522   2.088   0.829 -0.1217  0.0889 -0.1009
   87TMC2     H 1359   0.364   2.130   1.010  2.9321 -1.8806 -1.7620
   87TMC2    H1 1360   0.735   2.351   1.026  0.4538 -0.1510 -0.3530
   87TMC2    H2 1361   0.400   2.485   1.240  0.3822  1.3334  0.2168
   87TMC2    C7 1362   0.653   2.535   1.179  0.9810 -0.4151  0.2010
   87TMC2    C8 1363   0.230   2.294   1.146  0.4192 -0.3112  1.0526
   87TMC2    O1 1364   0.772   2.519   1.179  0.5619 -0.0888 -0.1495
   87TMC2    O2 1365   0.170   2.186   1.159 -0.4128  0.1952  0.4088
   87TMC2    O5 1366   0.175   2.411   1.104  0.0062 -0.3858  0.5534
   87TMC2    H5 1367   0.231   2.485   1.074  0.8571 -0.9564  0.7323
   88MPD2     C 1368   0.744   2.814   1.193 -0.3677 -0.2952 -0.0925
   88MPD2    C1 1369   0.618   2.778   1.159 -0.2395 -1.0041 -0.3072
   88MPD2    C2 1370   0.525   2.871   1.119  0.2999  0.5641 -0.5965
   88MPD2    C3 1371   0.568   3.001   1.105 -0.1860 -0.5327 -0.1525
   88MPD2    C4 1372   0.701   3.033   1.130  0.2310 -0.0180  0.4681
   88MPD2    C5 1373   0.791   2.938   1.167  0.1413 -0.6812  0.0031
   88MPD2     H 1374   0.421   2.843   1.106  0.1021  0.3714  1.4536
   88MPD2    H1 1375   0.734   3.131   1.101 -0.1800 -0.0827 -0.2012
   88MPD2    H2 1376   0.814   2.743   1.236  0.3256  0.2228 -0.3632
   88MPD2    H3 1377   0.895   2.966   1.171  0.1376 -1.0071  2.3499
   88MPD2     N 1378   0.490   3.108   1.068 -0.0634  0.6170 -0.1168
   88MPD2    H5 1379   0.536   3.197   1.050  0.4512  0.0139 -1.7567
   88MPD2    N1 1380   0.576   2.646   1.163 -1.0314  0.1793 -0.0853
   88MPD2    H7 1381   0.480   2.640   1.129 -0.8069 -0.0002 -0.6828
   89TMC2    C1 1382   1.631   1.166   1.848 -0.3272 -0.7156 -0.1133
   89TMC2    C2 1383   1.629   1.264   1.946 -0.4269  0.7888  0.1000
   89TMC2    C3 1384   1.566   1.378   1.918 -0.2434 -0.1012  0.2771
   89TMC2    C4 1385   1.579   1.192   1.727  0.2673 -0.3903 -0.0313
   89TMC2    C5 1386   1.498   1.302   1.712 -0.1024 -0.2314 -0.0875
   89TMC2    C6 1387   1.491   1.402   1.804  0.3829 -0.0823 -0.7533
   89TMC2     C 1388   1.737   1.061   1.863 -0.1007  0.2934  0.8582
   89TMC2     O 1389   1.801   1.055   1.964 -0.2214  0.2816 -0.5373
   89TMC2     H 1390   1.662   1.244   2.047 -1.2116  2.6350  0.7201
   89TMC2    H1 1391   1.566   1.108   1.660  0.2521 -0.0459 -0.4602
   89TMC2    H2 1392   1.429   1.490   1.796  0.6342  0.2220  0.6777
   89TMC2    C7 1393   1.422   1.316   1.590 -0.5890 -0.0768 -0.4323
   89TMC2    C8 1394   1.542   1.455   2.032 -0.0247 -0.3085 -0.6410
   89TMC2    O1 1395   1.320   1.386   1.584 -0.4827 -0.9158 -0.1606
   89TMC2    O2 1396   1.579   1.572   2.029 -0.4557  0.0067  0.1960
   89TMC2    O5 1397   1.415   1.422   2.059  0.2322  0.2349 -0.0537
   89TMC2    H5 1398   1.393   1.333   2.024  1.9095  0.2853 -1.2853
   90MPD2     C 1399   1.956   0.615   1.717 -0.5131  0.0575  0.2073
   90MPD2    C1 1400   1.832   0.620   1.666 -0.4756 -0.1096  0.1224
   90MPD2    C2 1401   1.761   0.741   1.675 -0.1251  0.0565  1.0586
   90MPD2    C3 1402   1.801   0.844   1.757  0.1963 -0.7459 -0.0649
   90MPD2    C4 1403   1.932   0.831   1.807 -0.2905 -0.1662  0.0331
   90MPD2    C5 1404   2.011   0.718   1.780 -0.7750 -0.4545  0.4994
   90MPD2     H 1405   1.683   0.751   1.600  0.7125  0.9489  0.3064
   90MPD2    H1 1406   1.974   0.913   1.864 -0.8789  0.7208 -0.7992
   90MPD2    H2 1407   2.007   0.521   1.700 -1.9880 -0.7009 -0.0120
   90MPD2    H3 1408   2.111   0.714   1.822 -0.6160  1.1964  0.2966
   90MPD2     N 1409   1.715   0.955   1.774  0.1502 -0.4446  0.6632
   90MPD2    H5 1410   1.628   0.948   1.722  0.7653 -0.4445 -0.3524
   90MPD2    N1 1411   1.788   0.504   1.592 -0.4546  0.1017  0.0884
   90MPD2    H7 1412   1.857   0.437   1.561 -2.3310 -1.6952 -0.2643
   91TMC2    C1 1413   3.244   4.227  15.898 -0.3447  0.0886 -0.7225
   91TMC2    C2 1414   3.343   4.129  15.883  0.1262  0.4088 -0.0245
   91TMC2    C3 1415   3.317   4.007  15.936 -0.5750  0.3337 -0.1693
   91TMC2    C4 1416   3.117   4.204  15.935  0.0588  0.1903 -0.6891
   91TMC2    C5 1417   3.094   4.077  15.968 -0.2217 -0.3743 -0.7846
   91TMC2    C6 1418   3.188   3.980  15.973 -0.3404  0.2062 -0.3218
   91TMC2     C 1419   3.271   4.368  15.881  0.2871 -1.0121  0.0334
   91TMC2     O 1420   3.188   4.437  15.831  0.2355  0.1083 -0.1327
   91TMC2     H 1421   3.438   4.148  15.837  1.6298  0.7705  3.2030
   91TMC2    H1 1422   3.048   4.286  15.953  0.1816 -0.2543  1.7233
   91TMC2    H2 1423   3.155   3.878  15.993  0.2324 -0.0229 -0.5667
   91TMC2    C7 1424   2.960   4.034  15.983 -0.2567 -0.3314 -0.4680
   91TMC2    C8 1425   3.418   3.905  15.926  0.6343  0.5710 -0.1672
   91TMC2    O1 1426   2.943   3.950  16.069  0.0576 -0.0732  0.9005
   91TMC2    O2 1427   3.394   3.801  15.875  0.7538 -0.0289  0.3267
   91TMC2    O5 1428   3.540   3.966  15.939  0.4052 -0.2206 -0.4771
   91TMC2    H5 1429   3.539   4.046  15.995 -1.5865 -1.0265  0.6340
   92MPD2     C 1430   3.398   4.646  15.865 -0.5943 -0.2341  0.0049
   92MPD2    C1 1431   3.453   4.533  15.926 -0.0567 -0.5385  0.1390
   92MPD2    C2 1432   3.575   4.548  15.990  0.1483  0.3949 -0.0986
   92MPD2    C3 1433   3.639   4.671  16.000  0.3184  0.5808  0.7471
   92MPD2    C4 1434   3.573   0.049  15.949 -0.0724 -0.3669  0.1518
   92MPD2    C5 1435   3.452   0.034  15.884 -0.3919 -0.1698 -0.7391
   92MPD2     H 1436   3.621   4.457  16.029  0.2995  2.3510  4.3527
   92MPD2    H1 1437   3.615   0.149  15.952 -2.4682  0.6564 -0.3857
   92MPD2    H2 1438   3.303   4.642  15.813  0.0644  0.3733 -1.2193
   92MPD2    H3 1439   3.403   0.116  15.833  1.2102  1.7218  0.7644
   92MPD2     N 1440   3.763   4.684  16.070  0.1217 -0.1147  0.0251
   92MPD2    H5 1441   3.795   4.608  16.130 -2.5054  0.7470  2.5455
   92MPD2    N1 1442   3.394   4.404  15.931 -0.1496  0.0776  0.4653
   92MPD2    H7 1443   3.437   4.333  15.988  0.2787  1.7736  2.2507
   93TMC2    C1 1444   0.410   4.210  14.121 -1.2782 -0.1078  0.1145
   93TMC2    C2 1445   0.428   4.078  14.156 -0.3315 -0.0056  0.5277
   93TMC2    C3 1446   0.555   4.029  14.186  0.8259 -0.3749 -0.1130
   93TMC2    C4 1447   0.516   4.288  14.114 -0.1404  0.1070  0.1913
   93TMC2    C5 1448   0.637   4.245  14.128  0.2465 -0.1303  0.5751
   93TMC2    C6 1449   0.662   4.116  14.173 -0.6998 -0.5779  0.1737
   93TMC2     C 1450   0.279   4.267  14.114 -0.6890  1.0181  0.0812
   93TMC2     O 1451   0.259   4.384  14.136 -0.3293 -0.8978  0.2124
   93TMC2     H 1452   0.341   4.014  14.166 -2.4447  2.7998 -0.0005
   93TMC2    H1 1453   0.518   4.391  14.079 -1.1192  0.0771  0.0533
   93TMC2    H2 1454   0.766   4.099  14.199 -0.1234  0.7390 -1.2802
   93TMC2    C7 1455   0.752   4.315  14.078  0.4770  0.4545  0.6423
   93TMC2    C8 1456   0.580   3.889  14.179 -0.8503  0.3496  0.0347
   93TMC2    O1 1457   0.859   4.297  14.130  0.2743 -0.2314 -0.0803
   93TMC2    O2 1458   0.642   3.827  14.258  0.1372 -0.3784  0.0801
   93TMC2    O5 1459   0.497   3.839  14.081  0.2273 -0.2501 -0.6502
   93TMC2    H5 1460   0.492   3.918  14.022 -1.8222  0.6516  0.6942
   94MPD2     C 1461   0.006   4.310  14.207 -0.0316  0.2576 -0.1608
   94MPD2    C1 1462   0.044   4.207  14.124 -0.5804  0.8267 -0.1088
   94MPD2    C2 1463   4.685   4.116  14.084  0.3906 -0.3045  0.0996
   94MPD2    C3 1464   4.552   4.130  14.114  0.3217 -0.2814  0.5364
   94MPD2    C4 1465   4.515   4.232  14.201 -0.0870  0.1277  0.0825
   94MPD2    C5 1466   4.608   4.323  14.237  0.2381 -0.0063  0.4634
   94MPD2     H 1467   4.709   4.032  14.019  1.0907  0.1253 -0.1935
   94MPD2    H1 1468   4.411   4.252  14.223  0.1228 -0.3004  1.4473
   94MPD2    H2 1469   0.075   4.378  14.256 -0.5370  1.7668 -1.5321
   94MPD2    H3 1470   4.576   4.409  14.294 -0.9525 -2.0915  2.9262
   94MPD2     N 1471   4.456   4.050  14.053 -0.0640  0.1507  0.1005
   94MPD2    H5 1472   4.476   4.010  13.962 -0.1710  0.2036  0.0542
   94MPD2    N1 1473   0.181   4.178  14.094 -0.3371 -0.2257  0.0317
   94MPD2    H7 1474   0.204   4.088  14.052 -0.8887  0.5555 -1.9785
   95TMC2    C1 1475   4.612   2.772  15.607 -0.0065  0.6733 -0.2061
   95TMC2    C2 1476   4.598   2.871  15.702  0.2087 -0.0164  0.0165
   95TMC2    C3 1477   4.577   2.996  15.656 -0.9054 -0.8315  0.2914
   95TMC2    C4 1478   4.624   2.797  15.473  0.3146 -0.1511 -0.4140
   95TMC2    C5 1479   4.602   2.923  15.432  0.2247 -0.0937  0.7425
   95TMC2    C6 1480   4.569   3.023  15.523 -0.4136 -0.2926 -0.0802
   95TMC2     C 1481   4.647   2.638  15.663  1.4984 -0.3495 -0.3542
   95TMC2     O 1482   4.645   2.634  15.784  0.1171 -0.0096  0.1708
   95TMC2     H 1483   4.603   2.846  15.807 -1.4842  1.5716  0.4641
   95TMC2    H1 1484   4.662   2.718  15.410 -2.5660  0.3943 -2.8598
   95TMC2    H2 1485   4.560   3.125  15.487  0.6317 -0.8521 -1.9261
   95TMC2    C7 1486   4.648   2.955  15.300  0.1860  0.4523 -0.1153
   95TMC2    C8 1487   4.505   3.088  15.752 -0.2746  0.2036  0.5665
   95TMC2    O1 1488   4.679   3.065  15.270 -0.4502 -0.4445 -0.5783
   95TMC2    O2 1489   4.499   3.058  15.870  0.1604  0.3314  0.2314
   95TMC2    O5 1490   4.407   3.146  15.680  0.5942  0.0672  0.7024
   95TMC2    H5 1491   4.436   3.177  15.592 -1.2258 -3.2977 -1.1080
   96MPD2     C 1492   0.146   2.185  15.662  0.0106  1.1007  0.1232
   96MPD2    C1 1493   0.138   2.236  15.533 -0.1853  0.2843  0.4876
   96MPD2    C2 1494   0.064   2.348  15.505  0.0465 -0.2157  0.0724
   96MPD2    C3 1495   4.735   2.414  15.609 -0.6377  0.0261 -0.2032
   96MPD2    C4 1496   0.004   2.360  15.731  0.2712  1.4177 -0.3455
   96MPD2    C5 1497   0.073   2.247  15.758  0.9052  0.6381 -0.8906
   96MPD2     H 1498   0.060   2.398  15.409 -0.3021 -0.4629 -0.0437
   96MPD2    H1 1499   4.699   2.415  15.814  0.9243  2.6630 -0.8382
   96MPD2    H2 1500   0.202   2.093  15.675 -2.0501 -0.6591 -3.4907
   96MPD2    H3 1501   0.071   2.213  15.860  0.1303  0.5358 -0.9414
   96MPD2     N 1502   4.677   2.539  15.580  0.5973  0.0939 -0.3394
   96MPD2    H5 1503   4.692   2.558  15.481  0.0789  0.9060 -0.2548
   96MPD2    N1 1504   0.218   2.175  15.432  0.0950  0.3676  0.4219
   96MPD2    H7 1505   0.285   2.103  15.456 -2.5841 -1.8612  1.0774
   97TMC2    C1 1506   2.895   0.012  17.545 -0.0261 -0.9229 -0.2720
   97TMC2    C2 1507   2.903   4.727  17.410 -1.0032 -0.4225 -0.2814
   97TMC2    C3 1508   2.884   0.106  17.334 -0.0627  0.2190  0.3304
   97TMC2    C4 1509   2.893   0.141  17.597  0.1145  0.2960 -0.3240
   97TMC2    C5 1510   2.893   0.254  17.511 -0.1742 -0.5455  0.4436
   97TMC2    C6 1511   2.881   0.233  17.381 -0.3607  0.1440  0.2555
   97TMC2     C 1512   2.870   4.640  17.638  0.0158  0.2370 -0.1827
   97TMC2     O 1513   2.835   4.670   0.003 -0.0114 -0.7115 -0.1813
   97TMC2     H 1514   2.904   4.630  17.362  0.4669 -1.4817  1.8482
   97TMC2    H1 1515   2.894   0.159  17.704  1.4449  0.2105 -0.3162
   97TMC2    H2 1516   2.870   0.311  17.307  3.2696  1.2022  0.8248
   97TMC2    C7 1517   2.837   0.378  17.566 -0.0388  0.1455  0.3352
   97TMC2    C8 1518   2.919   0.094  17.191 -0.7761  0.1722 -0.3051
   97TMC2    O1 1519   2.770   0.440  17.488  0.9545 -0.4068 -0.1066
   97TMC2    O2 1520   2.955   0.189  17.124 -0.7462  0.2935 -0.3887
   97TMC2    O5 1521   2.831   0.002  17.146 -0.0905 -0.5800 -0.2362
   97TMC2    H5 1522   2.792   4.670  17.203 -1.3959  2.1104  2.1316
   98MPD2     C 1523   2.772   4.147  17.725 -0.2673 -0.0208 -0.1524
   98MPD2    C1 1524   2.742   4.254   0.054  0.6575  1.1854  0.6396
   98MPD2    C2 1525   2.780   4.383   0.011 -0.1781  0.0090  0.5940
   98MPD2    C3 1526   2.852   4.395  17.636  0.4261 -0.1977  0.7169
   98MPD2    C4 1527   2.878   4.285  17.558 -0.2528 -0.1376 -0.2746
   98MPD2    C5 1528   2.838   4.162  17.612  0.1948 -1.1591 -0.2990
   98MPD2     H 1529   2.747   4.467   0.071 -0.1128  0.6006 -0.2101
   98MPD2    H1 1530   2.917   4.290  17.457  0.0151 -0.7158 -0.1992
   98MPD2    H2 1531   2.739   4.047   0.001 -2.0566  0.5693 -0.1982
   98MPD2    H3 1532   2.838   4.073  17.549 -1.0236 -0.3007 -1.5248
   98MPD2     N 1533   2.891   4.519  17.580  0.1979 -0.0579 -0.3557
   98MPD2    H5 1534   2.941   4.519  17.492 -2.0395 -0.2165 -1.6201
   98MPD2    N1 1535   2.654   4.228   0.167 -0.6813  0.1377 -0.2679
   98MPD2    H7 1536   2.631   4.129   0.168 -0.6670  0.1387  0.1322
   99TMC2    C1 1537   1.432   1.746   1.606 -0.0782 -0.1078  0.3204
   99TMC2    C2 1538   1.524   1.807   1.688  0.0262 -0.2486  0.1487
   99TMC2    C3 1539   1.497   1.805   1.821 -0.0397 -0.0991  0.2682
   99TMC2    C4 1540   1.311   1.693   1.654 -0.7313 -0.3817  0.1017
   99TMC2    C5 1541   1.295   1.698   1.792 -0.4250 -0.3320 -0.0162
   99TMC2    C6 1542   1.381   1.755   1.879  0.3795  0.2090 -0.8157
   99TMC2     C 1543   1.461   1.736   1.457 -0.9643  0.0227 -0.4689
   99TMC2     O 1544   1.558   1.807   1.431  0.0212  0.0924  0.1982
   99TMC2     H 1545   1.621   1.842   1.654 -0.9647  2.7338  0.4515
   99TMC2    H1 1546   1.234   1.657   1.588  0.6997  1.2262 -2.4566
   99TMC2    H2 1547   1.358   1.773   1.983 -2.0315  0.6344 -1.4251
   99TMC2    C7 1548   1.165   1.682   1.850 -0.0831  0.5240  0.0270
   99TMC2    C8 1549   1.559   1.907   1.904 -0.4899 -0.3551 -0.2033
   99TMC2    O1 1550   1.143   1.744   1.954 -0.2789  0.1558  0.3276
   99TMC2    O2 1551   1.615   2.002   1.851 -0.5211  0.6805  0.5582
   99TMC2    O5 1552   1.590   1.847   2.017  0.1429 -0.3119  0.4339
   99TMC2    H5 1553   1.554   1.755   2.007 -1.4419  0.4450 -0.8833
  100MPD2     C 1554   1.498   1.697   1.166  0.4884  0.2781 -0.5636
  100MPD2    C1 1555   1.405   1.625   1.245 -0.0960  0.2970  0.8191
  100MPD2    C2 1556   1.336   1.525   1.186  0.7280  0.4903  0.0720
  100MPD2    C3 1557   1.353   1.486   1.051  0.2110  0.5064  0.1913
  100MPD2    C4 1558   1.437   1.567   0.974  0.4187 -0.1611 -0.3882
  100MPD2    C5 1559   1.506   1.672   1.029  0.5080  0.0068  0.0312
  100MPD2     H 1560   1.263   1.472   1.246 -0.9184  0.0775 -2.3049
  100MPD2    H1 1561   1.464   1.537   0.874 -1.3732  0.9432 -1.1951
  100MPD2    H2 1562   1.574   1.764   1.205 -0.8283  0.8072  1.1003
  100MPD2    H3 1563   1.563   1.735   0.962  3.7653 -1.7428  1.1495
  100MPD2     N 1564   1.290   1.368   1.006  0.0866 -0.0910  0.4536
  100MPD2    H5 1565   1.241   1.317   1.078  0.1293  0.0887  0.6075
  100MPD2    N1 1566   1.376   1.654   1.380  0.3282  0.2353 -0.0701
  100MPD2    H7 1567   1.287   1.625   1.419  0.9448 -1.0445  0.4269
  101TMC2    C1 1568   1.819   2.259  12.717  0.0962  0.0737 -0.2000
  101TMC2    C2 1569   1.749   2.370  12.750 -0.0897  0.1628  0.2392
  101TMC2    C3 1570   1.781   2.487  12.675 -0.6217  0.0426 -0.1274
  101TMC2    C4 1571   1.885   2.244  12.600 -0.7131  0.8733 -0.7989
  101TMC2    C5 1572   1.895   2.354  12.524 -0.5191  1.0683 -0.3487
  101TMC2    C6 1573   1.851   2.479  12.562 -0.0905  0.0391 -0.2588
  101TMC2     C 1574   1.802   2.155  12.815 -0.0264  1.0071  0.3877
  101TMC2     O 1575   1.706   2.142  12.887  0.3733 -0.4513  0.4190
  101TMC2     H 1576   1.687   2.372  12.839  0.8452 -2.2424  0.9383
  101TMC2    H1 1577   1.916   2.149  12.557 -0.2508 -0.6999  3.0558
  101TMC2    H2 1578   1.887   2.566  12.508 -0.1637  2.2334  3.2522
  101TMC2    C7 1579   2.005   2.352  12.430 -0.8280  0.0819  0.0935
  101TMC2    C8 1580   1.746   2.622  12.735  0.5774  0.2557 -0.4687
  101TMC2    O1 1581   2.090   2.268  12.457 -0.6565  0.0171 -0.1794
  101TMC2    O2 1582   1.815   2.725  12.734 -0.3041  0.0576 -0.3064
  101TMC2    O5 1583   1.614   2.618  12.752 -0.4297  0.1488  0.5977
  101TMC2    H5 1584   1.575   2.528  12.756 -1.8743  0.8106  1.2553
  102MPD2     C 1585   2.012   1.861  12.803  0.1455 -1.0839  0.7973
  102MPD2    C1 1586   1.928   1.943  12.865 -0.1632 -0.4707  0.0816
  102MPD2    C2 1587   1.839   1.892  12.959  0.5734 -0.4044 -0.6450
  102MPD2    C3 1588   1.837   1.762  12.991  0.2578 -0.0285 -0.3494
  102MPD2    C4 1589   1.913   1.676  12.922  0.1627 -0.0986 -0.3751
  102MPD2    C5 1590   2.007   1.724  12.832  0.0966 -0.7521 -0.0240
  102MPD2     H 1591   1.767   1.956  13.010 -0.7017 -1.9881 -0.4514
  102MPD2    H1 1592   1.928   1.569  12.936  0.2763 -0.0216  0.1008
  102MPD2    H2 1593   2.074   1.905  12.725 -0.5466  0.1125  0.9153
  102MPD2    H3 1594   2.083   1.657  12.795 -0.0630 -1.8647  1.6236
  102MPD2     N 1595   1.732   1.711  13.077  0.0693  0.2081 -0.0582
  102MPD2    H5 1596   1.667   1.779  13.115 -0.0098  0.0907  0.0166
  102MPD2    N1 1597   1.913   2.073  12.810 -0.0794  0.1915  0.3909
  102MPD2    H7 1598   1.989   2.107  12.752  0.9202 -0.7348  1.1567
  103TMC2    C1 1599   0.241   1.957  12.946 -0.3070 -0.3341 -0.5268
  103TMC2    C2 1600   0.250   1.845  13.034 -0.4527  0.5241 -0.8755
  103TMC2    C3 1601   0.271   1.868  13.164  0.2424  0.2788 -1.0889
  103TMC2    C4 1602   0.263   2.090  12.991 -0.3067 -0.0449  0.1847
  103TMC2    C5 1603   0.293   2.098  13.123 -0.0145 -0.1532 -1.1926
  103TMC2    C6 1604   0.298   1.996  13.217  0.4363 -0.7148 -0.1658
  103TMC2     C 1605   0.187   1.936  12.814 -0.5246 -0.2664 -0.0779
  103TMC2     O 1606   0.171   2.038  12.746 -0.0925  0.2113  0.8532
  103TMC2     H 1607   0.238   1.741  13.003  0.0325  0.5135 -1.0372
  103TMC2    H1 1608   0.247   2.168  12.917 -1.4555 -1.2910 -0.8801
  103TMC2    H2 1609   0.321   2.010  13.322  1.5456 -1.5277 -0.2983
  103TMC2    C7 1610   0.252   2.220  13.191  0.2614 -0.7948  0.0750
  103TMC2    C8 1611   0.336   1.752  13.232  0.9236 -0.5943 -0.0176
  103TMC2    O1 1612   0.233   2.209  13.309 -0.0847 -0.3385  0.1019
  103TMC2    O2 1613   0.388   1.663  13.168 -0.2566  0.2873 -0.3457
  103TMC2    O5 1614   0.369   1.785  13.360  0.0425  0.4488 -0.4431
  103TMC2    H5 1615   0.312   1.852  13.403  1.6016  1.5428 -0.0607
  104MPD2     C 1616   0.243   1.649  12.601 -0.6028 -0.0861  0.2212
  104MPD2    C1 1617   0.183   1.768  12.638  0.0106 -0.1675  0.1220
  104MPD2    C2 1618   0.080   1.821  12.563  0.2147 -0.3617  0.0409
  104MPD2    C3 1619   0.042   1.772  12.440  0.1852 -0.8348  0.7508
  104MPD2    C4 1620   0.118   1.666  12.392  0.4792  0.2838  0.3214
  104MPD2    C5 1621   0.214   1.601  12.471  0.5437 -0.4534  0.5245
  104MPD2     H 1622   0.022   1.904  12.602 -2.5703 -3.5598  2.7772
  104MPD2    H1 1623   0.096   1.620  12.296  0.8281 -1.1831  0.9328
  104MPD2    H2 1624   0.323   1.602  12.658  0.7867  2.9000  0.7652
  104MPD2    H3 1625   0.258   1.509  12.434  2.2275 -0.1393  1.7317
  104MPD2     N 1626   4.662   1.819  12.366 -0.1068  0.2652  1.1673
  104MPD2    H5 1627   4.597   1.889  12.401 -1.9937 -0.1855 -1.3537
  104MPD2    N1 1628   0.217   1.813  12.772  1.2259  0.4409 -0.3962
  104MPD2    H7 1629   0.268   1.744  12.826 -0.0162 -1.0949 -1.1850
  105TMC2    C1 1630   0.789   1.456   0.182  0.4934 -0.2857  0.9215
  105TMC2    C2 1631   0.656   1.425   0.202 -0.3900 -0.1405 -0.1551
  105TMC2    C3 1632   0.590   1.497   0.292 -0.1338 -1.0421  0.2888
  105TMC2    C4 1633   0.863   1.552   0.260  0.3572 -0.0764 -0.0688
  105TMC2    C5 1634   0.785   1.619   0.349 -0.3484 -0.5821 -0.4139
  105TMC2    C6 1635   0.652   1.590   0.373  0.1508 -0.2363 -0.3054
  105TMC2     C 1636   0.847   1.366   0.082  0.1811 -0.1501 -0.4737
  105TMC2     O 1637   0.790   1.260   0.063 -0.3024  0.4675 -0.7537
  105TMC2     H 1638   0.607   1.346   0.146  1.1392 -0.9744 -0.3171
  105TMC2    H1 1639   0.971   1.562   0.259  0.4169 -0.8068 -1.3275
  105TMC2    H2 1640   0.591   1.648   0.441  0.8376  0.6210 -0.4204
  105TMC2    C7 1641   0.861   1.709   0.448  0.1723 -1.3714 -0.8642
  105TMC2    C8 1642   0.447   1.489   0.281 -0.0028 -0.4187 -0.8412
  105TMC2    O1 1643   0.982   1.725   0.424 -0.2147  0.1292 -0.0921
  105TMC2    O2 1644   0.378   1.522   0.381  0.0257  0.5834 -0.4854
  105TMC2    O5 1645   0.438   1.530   0.152 -0.0993  0.2302 -0.0737
  105TMC2    H5 1646   0.521   1.520   0.101  0.4632  0.2161  0.8478
  106MPD2     C 1647   1.128   1.262  17.431  0.7821 -0.2109 -0.3201
  106MPD2    C1 1648   1.109   1.395  17.442  0.0285 -0.4127 -0.1658
  106MPD2    C2 1649   1.047   1.452  17.556  0.3045  0.1216  0.1673
  106MPD2    C3 1650   1.002   1.364  17.652 -0.0038  0.4733 -0.1603
  106MPD2    C4 1651   0.999   1.226  17.630 -0.0681 -0.2232  0.1245
  106MPD2    C5 1652   1.053   1.182  17.513  0.2229 -0.1533  0.3885
  106MPD2     H 1653   1.035   1.559  17.562  0.3798  0.0473  1.7383
  106MPD2    H1 1654   0.960   1.154  17.702 -0.5133 -0.1297 -0.0271
  106MPD2    H2 1655   1.169   1.212  17.344 -2.0216 -1.2810 -1.0252
  106MPD2    H3 1656   1.044   1.078  17.482  0.6391 -0.2688  0.6622
  106MPD2     N 1657   0.948   1.423   0.017  0.0174  0.0894  0.8062
  106MPD2    H5 1658   0.978   1.516   0.046 -0.9366  1.0694 -1.3371
  106MPD2    N1 1659   1.168   1.481  17.346 -0.3104 -0.1178  0.0998
  106MPD2    H7 1660   1.170   1.578  17.376 -2.4666  0.3246 -1.2459
  107TMC2    C1 1661   2.258   1.178  11.463 -0.0552  0.3863  0.4203
  107TMC2    C2 1662   2.232   1.316  11.462 -0.1899 -0.0420  0.0230
  107TMC2    C3 1663   2.272   1.380  11.349 -0.3645  0.1080  0.7659
  107TMC2    C4 1664   2.297   1.113  11.349 -0.5067 -0.4429 -0.8758
  107TMC2    C5 1665   2.336   1.187  11.243 -0.4361 -0.2581 -0.3829
  107TMC2    C6 1666   2.319   1.322  11.230  0.6316 -0.0976  0.5783
  107TMC2     C 1667   2.223   1.104  11.583 -0.4960 -0.0680  0.0351
  107TMC2     O 1668   2.274   0.994  11.594  0.1374  0.4661 -0.4291
  107TMC2     H 1669   2.187   1.369  11.545  1.7156  2.0852 -0.2891
  107TMC2    H1 1670   2.322   1.008  11.348 -3.1508 -1.0804 -1.9203
  107TMC2    H2 1671   2.353   1.369  11.138 -0.9105  0.1424  0.1279
  107TMC2    C7 1672   2.374   1.121  11.112  1.1693  0.7233  0.0444
  107TMC2    C8 1673   2.230   1.516  11.325 -0.6914 -0.0683 -0.2628
  107TMC2    O1 1674   2.337   1.186  11.015  0.5511  0.2298 -0.3615
  107TMC2    O2 1675   2.292   1.582  11.243  0.5175 -0.6185  0.2326
  107TMC2    O5 1676   2.093   1.524  11.339 -0.0917 -0.0571 -0.0469
  107TMC2    H5 1677   2.057   1.448  11.390  1.7220 -0.9637 -0.0978
  108MPD2     C 1678   1.995   1.212  11.848  0.0963 -0.3419  0.6467
  108MPD2    C1 1679   2.090   1.132  11.791 -0.0216  0.1543  0.4555
  108MPD2    C2 1680   2.146   1.029  11.860  0.5578 -0.0528 -0.0081
  108MPD2    C3 1681   2.105   0.994  11.988 -0.5099  0.0810 -0.4345
  108MPD2    C4 1682   2.014   1.076  12.049 -0.4203  0.8341  0.2846
  108MPD2    C5 1683   1.961   1.182  11.976  0.7495 -0.1846 -0.5653
  108MPD2     H 1684   2.235   0.976  11.829  1.6864  1.6191  0.4053
  108MPD2    H1 1685   1.979   1.048  12.147  1.5706 -0.8310  0.5173
  108MPD2    H2 1686   1.947   1.300  11.807  1.7477 -0.1818 -0.9537
  108MPD2    H3 1687   1.883   1.242  12.022  0.9866 -1.4907  1.5323
  108MPD2     N 1688   2.139   0.866  12.052 -0.1807 -0.0430 -0.0726
  108MPD2    H5 1689   2.097   0.843  12.142 -0.2316  0.7286  0.0948
  108MPD2    N1 1690   2.128   1.167  11.660 -0.5795  0.2503 -0.3651
  108MPD2    H7 1691   2.090   1.251  11.619  0.4585  0.2686 -1.2933
  109TMC2    C1 1692   1.536   3.596   0.303 -0.4120 -0.0633  0.0265
  109TMC2    C2 1693   1.533   3.478   0.236 -0.5015  0.1745  1.1365
  109TMC2    C3 1694   1.650   3.434   0.182  0.6027 -1.0848  0.0266
  109TMC2    C4 1695   1.652   3.666   0.325  0.3838  0.6830 -0.2119
  109TMC2    C5 1696   1.766   3.611   0.267  0.2487  0.3542 -0.3820
  109TMC2    C6 1697   1.772   3.494   0.202 -0.4880 -0.1111  0.1330
  109TMC2     C 1698   1.437   3.613   0.400  0.1794 -0.0691 -0.2031
  109TMC2     O 1699   1.322   3.574   0.372 -0.4057  0.1964  0.1500
  109TMC2     H 1700   1.442   3.430   0.204 -0.6016  0.3189  1.2053
  109TMC2    H1 1701   1.651   3.770   0.357  2.4077 -0.1845  2.6019
  109TMC2    H2 1702   1.858   3.462   0.145  0.9390  2.5819  0.7388
  109TMC2    C7 1703   1.888   3.675   0.300 -0.5872 -0.7309  0.3119
  109TMC2    C8 1704   1.655   3.339   0.077  0.3956 -0.0927 -0.1477
  109TMC2    O1 1705   1.880   3.789   0.348 -0.5072  0.0146 -0.2149
  109TMC2    O2 1706   1.746   3.254   0.074 -0.1761  0.0644 -0.0196
  109TMC2    O5 1707   1.577   3.382  17.725 -0.1688  0.1265  0.0223
  109TMC2    H5 1708   1.512   3.454  17.742 -0.3270  0.0755 -0.3805
  110MPD2     C 1709   1.332   3.789   0.863  0.2371 -0.3662  0.0176
  110MPD2    C1 1710   1.462   3.757   0.864  0.2271  0.2891  0.5017
  110MPD2    C2 1711   1.518   3.717   0.740 -0.2146  0.6121 -0.0825
  110MPD2    C3 1712   1.436   3.704   0.629 -0.1624  0.6841  0.1447
  110MPD2    C4 1713   1.304   3.731   0.633 -0.1871  0.0140  0.3725
  110MPD2    C5 1714   1.254   3.780   0.748 -0.5403  0.5729 -0.2381
  110MPD2     H 1715   1.624   3.700   0.725 -0.3197 -2.0157  2.2267
  110MPD2    H1 1716   1.243   3.740   0.544  0.5049  0.9533 -0.0035
  110MPD2    H2 1717   1.280   3.815   0.955  1.3186 -0.6668  0.7045
  110MPD2    H3 1718   1.152   3.816   0.754 -0.9657 -1.0645  2.0928
  110MPD2     N 1719   1.500   3.655   0.514 -0.3558  0.4497 -0.2492
  110MPD2    H5 1720   1.601   3.641   0.523 -0.3096  0.3961 -0.8614
  110MPD2    N1 1721   1.535   3.770   0.986  0.0135 -0.3932 -0.1206
  110MPD2    H7 1722   1.495   3.822   1.064 -0.7265  1.8489 -2.0075
  111TMC2    C1 1723   2.716   2.911  11.340  0.0437 -0.3989  0.1255
  111TMC2    C2 1724   2.799   2.979  11.264  0.3258 -0.7642  0.0509
  111TMC2    C3 1725   2.929   2.999  11.297  0.0189 -0.4696 -0.4923
  111TMC2    C4 1726   2.757   2.878  11.466  0.8821 -0.0655 -0.1055
  111TMC2    C5 1727   2.881   2.904  11.503  0.7242  0.5624  0.4583
  111TMC2    C6 1728   2.975   2.948  11.413 -0.1625 -0.3670 -0.0830
  111TMC2     C 1729   2.593   2.852  11.289  0.8204 -0.3582  0.1520
  111TMC2     O 1730   2.558   2.886  11.175 -0.3850  0.4692  0.5516
  111TMC2     H 1731   2.772   3.001  11.161 -2.4228 -4.4255  0.0007
  111TMC2    H1 1732   2.689   2.829  11.535 -0.0729  0.8291 -0.4001
  111TMC2    H2 1733   3.067   2.990  11.453 -0.1709  0.2494 -0.7007
  111TMC2    C7 1734   2.927   2.852  11.634  0.8483  0.5044 -0.1447
  111TMC2    C8 1735   3.019   3.061  11.213 -0.1504 -0.2283 -0.3943
  111TMC2    O1 1736   2.842   2.832  11.720  0.1830 -0.0702  0.2044
  111TMC2    O2 1737   2.979   3.114  11.110  0.0511  0.2744 -0.3061
  111TMC2    O5 1738   3.147   3.032  11.237  0.0795  0.7015 -0.0212
  111TMC2    H5 1739   3.172   2.979  11.316 -1.2052  2.6239  1.6669
  112MPD2     C 1740   2.249   2.483  11.258 -0.4714  0.0226  0.7399
  112MPD2    C1 1741   2.309   2.558  11.160 -0.0140 -0.0829 -0.0656
  112MPD2    C2 1742   2.418   2.634  11.193  0.8958  0.0304 -0.0406
  112MPD2    C3 1743   2.456   2.647  11.320 -0.2637  0.3181 -0.2499
  112MPD2    C4 1744   2.400   2.567  11.417 -0.0600  0.1192  0.1221
  112MPD2    C5 1745   2.295   2.484  11.387  0.4641  0.2470  0.4127
  112MPD2     H 1746   2.462   2.689  11.110  0.9758 -1.9712 -1.3216
  112MPD2    H1 1747   2.443   2.563  11.517  2.2144 -3.0656 -0.9913
  112MPD2    H2 1748   2.167   2.417  11.231 -0.7000 -0.3456  2.3209
  112MPD2    H3 1749   2.252   2.425  11.468 -0.4906  2.0335  1.2246
  112MPD2     N 1750   2.548   2.744  11.363  0.5820 -0.4118 -0.4863
  112MPD2    H5 1751   2.583   2.738  11.458 -1.2354  1.2369  0.2800
  112MPD2    N1 1752   2.260   2.558  11.030  0.6433  0.5558 -0.9940
  112MPD2    H7 1753   2.312   2.621  10.969  0.6814  0.0062 -1.5340
  113TMC2    C1 1754   4.719   1.489   0.822  0.0747 -0.4216  0.4244
  113TMC2    C2 1755   4.667   1.580   0.736 -0.1918 -0.0927 -0.0441
  113TMC2    C3 1756   4.611   1.524   0.621  0.0192  0.7342 -0.1247
  113TMC2    C4 1757   4.714   1.357   0.797  0.2531  0.9747 -0.0045
  113TMC2    C5 1758   4.649   1.309   0.686  0.1430  0.4716  0.1240
  113TMC2    C6 1759   4.603   1.390   0.585  0.6014 -0.2717 -0.0441
  113TMC2     C 1760   0.082   1.534   0.916 -0.4808 -0.4399  0.2565
  113TMC2     O 1761   0.060   1.639   0.979 -0.4045 -0.1248  0.1764
  113TMC2     H 1762   4.666   1.686   0.760 -0.1368 -0.3737  1.2313
  113TMC2    H1 1763   0.026   1.288   0.864 -1.5747  0.1529  0.4960
  113TMC2    H2 1764   4.558   1.354   0.493  2.1344 -1.7014 -0.2373
  113TMC2    C7 1765   4.650   1.167   0.671  0.2783  0.1579  0.0332
  113TMC2    C8 1766   4.537   1.616   0.533 -0.3910 -0.1147  0.3495
  113TMC2    O1 1767   4.648   1.122   0.558 -0.5820 -0.0876 -0.0867
  113TMC2    O2 1768   4.482   1.718   0.572  0.1381  0.0707 -0.2751
  113TMC2    O5 1769   4.590   1.598   0.412 -0.0357 -0.5570  0.1493
  113TMC2    H5 1770   4.672   1.544   0.403  0.7006  1.1101 -3.1330
  114MPD2     C 1771   0.532   1.433   1.167 -0.6462 -0.3843  0.1002
  114MPD2    C1 1772   0.432   1.527   1.186 -0.6964  0.6248 -0.0634
  114MPD2    C2 1773   0.321   1.533   1.103 -0.0557  1.3840  0.8323
  114MPD2    C3 1774   0.303   1.444   0.999 -0.5096 -0.3819  0.0261
  114MPD2    C4 1775   0.403   1.352   0.976  0.4768  0.0287  0.2758
  114MPD2    C5 1776   0.516   1.351   1.057 -0.2584 -0.2310 -0.3222
  114MPD2     H 1777   0.244   1.607   1.121 -0.9012  0.6948  0.0509
  114MPD2    H1 1778   0.397   1.277   0.898  1.4031  1.3332 -1.0295
  114MPD2    H2 1779   0.619   1.412   1.228  0.6280  0.0893 -1.5556
  114MPD2    H3 1780   0.586   1.270   1.042  1.2864  0.6155  2.3654
  114MPD2     N 1781   0.188   1.450   0.917  0.0586 -0.0638  0.4054
  114MPD2    H5 1782   0.192   1.392   0.834 -0.2789  0.7993 -0.2128
  114MPD2    N1 1783   0.438   1.615   1.294  0.1457 -0.2044 -0.8627
  114MPD2    H7 1784   0.366   1.684   1.316  0.7393 -0.7604  2.8691
  115TMC2    C1 1785   1.512   4.197  17.539  0.1447  0.8292 -0.0463
  115TMC2    C2 1786   1.645   4.202  17.581 -0.1608 -0.0026 -0.5920
  115TMC2    C3 1787   1.689   4.310  17.645  1.0823  0.2162 -0.1200
  115TMC2    C4 1788   1.434   4.310  17.562  0.5399 -1.2608  0.1030
  115TMC2    C5 1789   1.490   4.412  17.634  0.5091  0.8896  0.3316
  115TMC2    C6 1790   1.615   4.419  17.679 -0.1200 -0.2436  0.2496
  115TMC2     C 1791   1.453   4.088  17.471  0.3589  0.0111  0.0591
  115TMC2     O 1792   1.343   4.111  17.425 -0.4309 -0.1934  0.5680
  115TMC2     H 1793   1.711   4.118  17.564 -1.4297 -1.4812  1.7009
  115TMC2    H1 1794   1.329   4.319  17.534  1.2250  2.7854 -1.1639
  115TMC2    H2 1795   1.666   4.505  17.721 -0.2864  0.4010 -0.8670
  115TMC2    C7 1796   1.419   4.534  17.635 -0.3239  0.5020 -0.2734
  115TMC2    C8 1797   1.831   4.310  17.654 -0.0597 -0.4898 -0.7258
  115TMC2    O1 1798   1.437   4.607  17.729  0.0153  0.3023  0.8224
  115TMC2    O2 1799   1.894   4.347   0.003 -0.0504  0.3536 -0.5609
  115TMC2    O5 1800   1.881   4.332  17.532 -0.2747  0.0943 -0.1242
  115TMC2    H5 1801   1.806   4.341  17.470 -0.2790 -0.5265 -0.2002
  116MPD2     C 1802   1.467   3.575  17.336 -0.0158 -1.1207  0.1838
  116MPD2    C1 1803   1.369   3.672  17.320  0.4577  0.5918 -0.4566
  116MPD2    C2 1804   1.383   3.804  17.369  0.4027 -0.5490 -0.2245
  116MPD2    C3 1805   1.503   3.846  17.419  0.5803  0.1502  0.0833
  116MPD2    C4 1806   1.609   3.755  17.416 -0.4887 -0.5700 -0.4170
  116MPD2    C5 1807   1.591   3.624  17.378 -0.1660  0.2160  0.1040
  116MPD2     H 1808   1.310   3.882  17.349 -1.2380 -1.6094  1.5705
  116MPD2    H1 1809   1.708   3.796  17.433 -1.3121  2.0186 -1.7848
  116MPD2    H2 1810   1.460   3.473  17.298 -0.9173 -1.2417  0.6881
  116MPD2    H3 1811   1.676   3.558  17.363 -0.1128  0.2903  0.0806
  116MPD2     N 1812   1.536   3.976  17.459  0.1400  0.1431 -0.3669
  116MPD2    H5 1813   1.625   3.987  17.507  1.6620 -2.1528 -2.6852
  116MPD2    N1 1814   1.250   3.623  17.261  0.1862  0.4035 -0.0549
  116MPD2    H7 1815   1.252   3.528  17.227  0.5663  0.6141 -0.6163
  117TMC2    C1 1816   4.194   0.037  14.132 -0.4389  0.3604  0.1181
  117TMC2    C2 1817   4.260   4.708  14.233 -0.1501  0.2028 -0.4385
  117TMC2    C3 1818   4.379   0.019  14.276 -0.1944 -0.2627 -0.4045
  117TMC2    C4 1819   4.246   0.154  14.079 -0.0538 -0.5495 -0.0294
  117TMC2    C5 1820   4.366   0.197  14.128 -0.8923 -0.6756  0.5568
  117TMC2    C6 1821   4.436   0.125  14.217 -1.5452  0.2286  0.0789
  117TMC2     C 1822   4.080   4.709  14.076  0.6497 -0.1466  0.4726
  117TMC2     O 1823   4.101   4.593  14.042  0.8658  0.0988  0.0264
  117TMC2     H 1824   4.219   4.614  14.268  1.7967 -0.8628 -1.0221
  117TMC2    H1 1825   4.206   0.199  13.988  1.0999 -0.2137 -0.3626
  117TMC2    H2 1826   4.535   0.159  14.246 -1.2848  1.4289 -2.2123
  117TMC2    C7 1827   4.431   0.310  14.068  0.5295  0.0211 -0.5576
  117TMC2    C8 1828   4.475   4.666  14.333 -1.3265  0.0325 -0.2250
  117TMC2    O1 1829   4.552   0.301  14.048 -0.8307  0.0352 -0.0643
  117TMC2    O2 1830   4.597   4.682  14.339 -0.3098  0.0015  0.1672
  117TMC2    O5 1831   4.407   4.563  14.372 -0.3061  0.8306 -0.2416
  117TMC2    H5 1832   4.315   4.573  14.405  0.4822  1.7450  1.6962
  118MPD2     C 1833   4.266   0.600  13.911  0.0847  0.0760  0.1166
  118MPD2    C1 1834   4.365   0.520  13.956 -0.7009  0.1909  0.6543
  118MPD2    C2 1835   4.490   0.563  13.929  0.2359  0.3601  0.1486
  118MPD2    C3 1836   4.522   0.680  13.866 -0.7532  0.0722 -0.1953
  118MPD2    C4 1837   4.416   0.762  13.831  0.4773 -0.0725  0.5571
  118MPD2    C5 1838   4.291   0.712  13.847 -0.4085 -0.5153  0.3105
  118MPD2     H 1839   4.572   0.508  13.972  0.3113  0.7081  0.4517
  118MPD2    H1 1840   4.434   0.855  13.779 -0.7023  0.0426  0.3591
  118MPD2    H2 1841   4.162   0.573  13.924 -0.0604  0.7740  0.3975
  118MPD2    H3 1842   4.212   0.768  13.797 -2.2003 -1.1680  2.4221
  118MPD2     N 1843   4.653   0.728  13.853  0.2986 -0.0176  0.3783
  118MPD2    H5 1844   4.662   0.826  13.825 -0.1769 -0.5727 -1.7104
  118MPD2    N1 1845   4.337   0.401  14.035 -0.1476  0.4628  0.2861
  118MPD2    H7 1846   4.239   0.384  14.054 -0.6625  1.2932 -1.5943
  119TMC2    C1 1847   2.799   1.011  12.741 -0.3374 -0.2196  0.2195
  119TMC2    C2 1848   2.840   0.988  12.611  0.0981 -0.3137  0.4245
  119TMC2    C3 1849   2.746   0.967  12.519 -0.5782 -0.9075 -0.8689
  119TMC2    C4 1850   2.664   1.013  12.775 -1.1000 -0.0075  0.2156
  119TMC2    C5 1851   2.573   1.009  12.672  0.0306 -0.2065  0.2844
  119TMC2    C6 1852   2.616   0.989  12.542 -0.2830 -0.2069  0.0975
  119TMC2     C 1853   2.882   1.065  12.852 -0.3682 -0.6663  0.0917
  119TMC2     O 1854   2.848   1.058  12.968  0.0779 -0.1797 -0.2568
  119TMC2     H 1855   2.945   0.998  12.585  0.2594 -1.2109  0.7516
  119TMC2    H1 1856   2.633   1.015  12.879 -0.8707 -1.9848  0.3324
  119TMC2    H2 1857   2.546   1.002  12.460  0.4388 -0.1063 -0.5037
  119TMC2    C7 1858   2.456   1.089  12.692  0.2422  0.5905 -0.2634
  119TMC2    C8 1859   2.784   0.955  12.383 -0.1656 -0.2958  0.0045
  119TMC2    O1 1860   2.397   1.133  12.592 -0.1894 -0.5178  0.5874
  119TMC2    O2 1861   2.718   0.986  12.282  0.4649 -0.1610  0.8242
  119TMC2    O5 1862   2.894   0.877  12.375 -0.2082  0.5413  0.2068
  119TMC2    H5 1863   2.936   0.849  12.459 -0.6878 -0.3757  0.1341
  120MPD2     C 1864   3.251   1.316  13.084  0.2633 -0.5904 -0.3294
  120MPD2    C1 1865   3.110   1.328  13.101  0.5301  0.2105 -0.6357
  120MPD2    C2 1866   3.031   1.258  13.013  0.7447  0.2801  0.5533
  120MPD2    C3 1867   3.088   1.188  12.906 -0.1370  0.6248  0.3402
  120MPD2    C4 1868   3.220   1.189  12.881 -0.0194 -0.4100 -0.2910
  120MPD2    C5 1869   3.295   1.263  12.966  0.7910  0.2164 -0.4440
  120MPD2     H 1870   2.924   1.251  13.028  0.6131  1.0953 -0.0290
  120MPD2    H1 1871   3.255   1.134  12.795  1.6492  1.7508 -0.9735
  120MPD2    H2 1872   3.317   1.370  13.151 -1.2946  0.4563  0.3542
  120MPD2    H3 1873   3.401   1.265  12.944  0.7005 -0.7295 -0.9402
  120MPD2     N 1874   3.007   1.113  12.811  0.1498 -0.2881  0.7026
  120MPD2    H5 1875   3.040   1.124  12.715  2.2968 -0.0923  1.4490
  120MPD2    N1 1876   3.053   1.396  13.215 -0.4898 -0.3377 -0.3650
  120MPD2    H7 1877   3.111   1.418  13.295 -0.6655 -0.0622 -0.3116
  121TMC2    C1 1878   4.030   3.521  14.184  0.3236 -0.5050 -0.2935
  121TMC2    C2 1879   3.939   3.618  14.158  0.0622 -0.1506  0.0018
  121TMC2    C3 1880   3.811   3.576  14.149  0.7750  0.4237 -0.4686
  121TMC2    C4 1881   3.993   3.392  14.199 -0.8351  0.0336 -0.4130
  121TMC2    C5 1882   3.861   3.358  14.200 -0.0084 -0.5975  0.2226
  121TMC2    C6 1883   3.763   3.450  14.176 -0.1238 -0.4720  0.6673
  121TMC2     C 1884   4.169   3.546  14.148 -0.7354  0.1073  0.1661
  121TMC2     O 1885   4.255   3.474  14.197  0.6805 -0.2137 -0.3231
  121TMC2     H 1886   3.966   3.723  14.147 -1.0612  0.1767  0.4133
  121TMC2    H1 1887   4.074   3.324  14.224 -2.0971 -1.4255 -0.3185
  121TMC2    H2 1888   3.656   3.438  14.176 -0.1043 -0.6094  2.3096
  121TMC2    C7 1889   3.834   3.217  14.181 -0.5487 -0.0516  0.5404
  121TMC2    C8 1890   3.714   3.663  14.100 -0.1432 -0.5612 -0.3204
  121TMC2    O1 1891   3.934   3.144  14.183 -0.4284  0.2135 -0.2467
  121TMC2    O2 1892   3.639   3.622  14.008  0.1767 -0.7895 -0.1219
  121TMC2    O5 1893   3.664   3.713  14.214 -0.6742 -0.9812 -0.9784
  121TMC2    H5 1894   3.728   3.720  14.288 -0.0392 -1.4487 -1.4682
  122MPD2     C 1895   4.409   3.657  14.031  0.1291 -0.2047 -0.3942
  122MPD2    C1 1896   4.287   3.667  13.971  0.2892 -0.2593  0.6850
  122MPD2    C2 1897   4.275   3.719  13.846  0.1377 -0.5157 -0.6389
  122MPD2    C3 1898   4.390   3.743  13.769  0.6955  0.4094 -0.6000
  122MPD2    C4 1899   4.507   3.747  13.835  0.2497  0.1920 -0.0919
  122MPD2    C5 1900   4.521   3.706  13.969 -0.3390  0.5097  0.5349
  122MPD2     H 1901   4.182   3.737  13.793 -0.1953 -0.7780 -0.1468
  122MPD2    H1 1902   4.597   3.756  13.776  0.9113  0.0380  0.9032
  122MPD2    H2 1903   4.417   3.616  14.131  1.0543  0.6383 -0.1211
  122MPD2    H3 1904   4.618   3.697  14.015 -1.0396  0.3204  1.9753
  122MPD2     N 1905   4.397   3.756  13.625  0.3571  0.6624  0.3342
  122MPD2    H5 1906   4.483   3.792  13.585  0.8171 -1.8127 -0.9524
  122MPD2    N1 1907   4.171   3.640  14.043  0.4854 -0.2181  0.3151
  122MPD2    H7 1908   4.082   3.663  13.999 -0.3802  0.7857  2.5448
  123TMC2    C1 1909   2.865   1.536  10.535 -0.1265 -0.5120 -0.4535
  123TMC2    C2 1910   2.859   1.575  10.668  0.0654  0.1603  0.1241
  123TMC2    C3 1911   2.911   1.698  10.688  0.0174 -0.1017 -0.2277
  123TMC2    C4 1912   2.903   1.608  10.429  0.1602 -0.0097  0.7146
  123TMC2    C5 1913   2.951   1.730  10.460  0.6945  0.3278  0.3954
  123TMC2    C6 1914   2.965   1.782  10.588 -0.2320 -0.0185 -0.0826
  123TMC2     C 1915   2.855   1.391  10.520 -0.3441 -0.2389 -0.1609
  123TMC2     O 1916   2.887   1.323  10.615  0.2623  0.5350 -0.1382
  123TMC2     H 1917   2.832   1.516  10.754 -1.1679  1.4744  0.6337
  123TMC2    H1 1918   2.892   1.578  10.325  2.5749 -0.2077  0.5305
  123TMC2    H2 1919   3.025   1.867  10.619  1.3491 -0.1178 -2.9250
  123TMC2    C7 1920   2.965   1.821  10.343 -1.1649 -0.2428  0.3945
  123TMC2    C8 1921   2.970   1.711  10.819 -0.1291 -0.1762  0.5183
  123TMC2    O1 1922   2.954   1.781  10.226  0.5859 -0.2053 -0.0230
  123TMC2    O2 1923   3.001   1.613  10.885 -0.3735 -0.0860 -0.6067
  123TMC2    O5 1924   2.929   1.833  10.860 -0.0992 -0.0822 -0.2718
  123TMC2    H5 1925   2.888   1.886  10.788 -0.4367 -0.3961 -0.3162
  124MPD2     C 1926   2.805   0.952  10.271 -0.8056  0.0839  0.0739
  124MPD2    C1 1927   2.718   1.035  10.206  0.8638  0.7158  0.1280
  124MPD2    C2 1928   2.716   1.167  10.258  0.2246 -1.0250 -0.8814
  124MPD2    C3 1929   2.793   1.204  10.366 -0.0756  0.2984 -0.5442
  124MPD2    C4 1930   2.885   1.119  10.428  0.0158  0.0544  0.2267
  124MPD2    C5 1931   2.892   0.993  10.371  0.3824  1.6624 -0.8479
  124MPD2     H 1932   2.656   1.249  10.221  0.7162 -0.8360 -1.2714
  124MPD2    H1 1933   2.953   1.148  10.507  1.6544 -0.6303 -0.9237
  124MPD2    H2 1934   2.803   0.844  10.260  0.0672  0.2011 -1.2201
  124MPD2    H3 1935   2.960   0.920  10.414 -0.8010  0.9519 -0.1653
  124MPD2     N 1936   2.792   1.343  10.405  0.0178  0.0776  0.0374
  124MPD2    H5 1937   2.747   1.414  10.348 -1.7302 -0.9624  0.1379
  124MPD2    N1 1938   2.635   0.981  10.109  0.1659 -0.4041  1.0027
  124MPD2    H7 1939   2.643   0.880  10.098  2.4768 -0.0981 -0.1033
  125TMC2    C1 1940   3.403   2.343  10.128  0.5784  0.1833 -0.1912
  125TMC2    C2 1941   3.441   2.456  10.202 -0.3548 -0.1984  0.9871
  125TMC2    C3 1942   3.465   2.582  10.147  0.7143 -0.1279  0.1181
  125TMC2    C4 1943   3.363   2.371   9.999  0.5657 -0.2693 -0.1873
  125TMC2    C5 1944   3.401   2.490   9.949 -0.9082 -0.1458  0.0890
  125TMC2    C6 1945   3.441   2.603  10.015  0.2815  0.6481  0.2760
  125TMC2     C 1946   3.405   2.208  10.180  0.1275  0.1101  0.8094
  125TMC2     O 1947   3.384   2.138  10.083 -0.0129 -0.4904 -0.4141
  125TMC2     H 1948   3.460   2.440  10.308  0.8199 -1.4078  0.5909
  125TMC2    H1 1949   3.332   2.295   9.928 -5.4287  1.0981  0.9695
  125TMC2    H2 1950   3.465   2.697   9.968  3.2207 -0.4340 -0.3788
  125TMC2    C7 1951   3.348   2.522   9.815  0.3012 -0.3162 -0.2066
  125TMC2    C8 1952   3.454   2.701  10.231 -1.4723 -0.1052 -0.4141
  125TMC2    O1 1953   3.293   2.631   9.796 -0.5099 -0.0849  0.1327
  125TMC2    O2 1954   3.363   2.782  10.215  0.2433  0.0445 -0.0572
  125TMC2    O5 1955   3.510   2.670  10.351 -0.0820 -0.4542  0.1428
  125TMC2    H5 1956   3.587   2.610  10.342  1.1590  0.9602  1.2681
  126MPD1     C 1957   3.311   1.825  10.494  0.6419  0.1882 -1.1786
  126MPD1    C1 1958   3.345   1.929  10.576 -0.7423  0.8081  0.1658
  126MPD1    C2 1959   3.352   2.052  10.504  0.4913 -0.0284 -0.1986
  126MPD1    C3 1960   3.360   2.060  10.367  0.0101 -0.1941  0.3021
  126MPD1    C4 1961   3.353   1.947  10.293 -0.9809  0.5389 -0.2027
  126MPD1    C5 1962   3.325   1.831  10.360  0.5561 -0.1991 -0.0081
  126MPD1     H 1963   3.365   2.146  10.556 -0.7604  0.0292 -0.0001
  126MPD1    H1 1964   3.365   1.946  10.185 -0.9315  0.9379 -0.2032
  126MPD1    H2 1965   3.281   1.729  10.536 -0.8262  0.4186 -1.6835
  126MPD1    H3 1966   3.296   1.749  10.295 -0.4134  1.8304 -2.1443
  126MPD1     N 1967   3.390   2.190  10.312  0.5069 -0.5205  0.2055
  126MPD1    H5 1968   3.395   2.267  10.378 -0.5061  0.2342 -0.6093
  126MPD1    N1 1969   3.335   1.915  10.713 -0.1609  0.1639  0.3356
  126MPD1    H6 1970   3.333   1.820  10.747  0.8039 -0.4570 -1.3310
  126MPD1    H7 1971   3.389   1.979  10.771 -1.3871  1.5032  0.0202
  127TMC2    C1 1972   4.365   2.208  10.066  0.5795  0.2302  0.5672
  127TMC2    C2 1973   4.466   2.125  10.105  0.0686  0.9350 -0.8145
  127TMC2    C3 1974   4.443   2.019  10.186  0.0670 -1.1489 -0.5233
  127TMC2    C4 1975   4.236   2.175  10.098 -0.5446  0.6101 -0.1579
  127TMC2    C5 1976   4.209   2.056  10.169  0.1631  0.3081 -0.8213
  127TMC2    C6 1977   4.316   1.981  10.222  0.2895 -0.0608  0.3665
  127TMC2     C 1978   4.386   2.301   9.964 -0.2850 -0.3097  0.4172
  127TMC2     O 1979   4.476   2.267   9.889 -0.1028  0.1537 -0.2185
  127TMC2     H 1980   4.568   2.136  10.070  0.1510 -1.2309 -1.2399
  127TMC2    H1 1981   4.159   2.239  10.057  0.4093  1.5511 -0.4920
  127TMC2    H2 1982   4.296   1.891  10.278  1.0822 -0.4988 -0.0504
  127TMC2    C7 1983   4.073   2.012  10.172  0.4299  0.3184  0.4047
  127TMC2    C8 1984   4.547   1.923  10.199  0.1592  0.6785  0.1401
  127TMC2    O1 1985   3.980   2.089  10.142  0.0980  0.1176 -0.1194
  127TMC2    O2 1986   4.530   1.803  10.220 -0.1787 -0.2126 -0.0347
  127TMC2    O5 1987   4.655   1.995  10.240  0.1084 -0.0150  0.3075
  127TMC2    H5 1988   4.641   2.090  10.220 -0.1278  0.1547  1.2767
  128MPD2     C 1989   4.178   2.603   9.885 -0.1691 -0.6231 -0.2388
  128MPD2    C1 1990   4.275   2.508   9.863 -0.4951 -0.1963  0.3685
  128MPD2    C2 1991   4.351   2.509   9.750  0.2567 -0.1306 -0.4296
  128MPD2    C3 1992   4.331   2.606   9.655 -0.1008  0.0604  0.0159
  128MPD2    C4 1993   4.232   2.706   9.680 -0.1813 -0.1022 -0.4478
  128MPD2    C5 1994   4.159   2.703   9.795  0.1047  0.2591 -0.3034
  128MPD2     H 1995   4.424   2.431   9.732  0.1847 -0.1320 -0.7116
  128MPD2    H1 1996   4.218   2.797   9.622 -0.9783  0.4858  0.6682
  128MPD2    H2 1997   4.126   2.602   9.980  0.1235  2.0803 -0.0517
  128MPD2    H3 1998   4.100   2.792   9.812  2.1630  1.5376  0.1505
  128MPD2     N 1999   4.406   2.605   9.537 -0.3877 -0.2522  0.4134
  128MPD2    H5 2000   4.485   2.542   9.526 -0.0464  0.1183  0.7090
  128MPD2    N1 2001   4.295   2.406   9.963 -0.2741  0.5611  0.1992
  128MPD2    H7 2002   4.229   2.413  10.040 -2.1936 -2.9084 -1.1598
  129TMC2    C1 2003   2.543   3.039   0.550 -0.1980 -0.0100 -0.0384
  129TMC2    C2 2004   2.649   3.123   0.509  0.4870  0.1132 -0.1045
  129TMC2    C3 2005   2.777   3.079   0.535  0.2958 -0.0326 -0.3768
  129TMC2    C4 2006   2.564   2.922   0.620  0.1639  0.6995 -0.0865
  129TMC2    C5 2007   2.694   2.887   0.648  0.0816 -0.3866 -0.5308
  129TMC2    C6 2008   2.799   2.968   0.606  0.3415 -0.0181  0.0580
  129TMC2     C 2009   2.408   3.085   0.575  0.2344 -0.4562  1.0663
  129TMC2     O 2010   2.316   3.005   0.584 -0.2817 -0.1676 -0.0119
  129TMC2     H 2011   2.646   3.208   0.442 -1.4384 -1.3994 -1.9117
  129TMC2    H1 2012   2.481   2.864   0.659 -0.1687  0.9944 -0.3642
  129TMC2    H2 2013   2.902   2.935   0.610  0.6654  1.1006  1.0702
  129TMC2    C7 2014   2.707   2.833   0.777 -0.2164  0.3802 -0.3466
  129TMC2    C8 2015   2.881   3.128   0.445 -0.2446 -0.0089 -0.8184
  129TMC2    O1 2016   2.608   2.773   0.819  0.7986 -0.4229  0.0917
  129TMC2    O2 2017   2.854   3.197   0.345 -0.4803 -0.1129 -0.2217
  129TMC2    O5 2018   2.990   3.168   0.524 -0.1136 -0.8024 -0.5644
  129TMC2    H5 2019   2.975   3.147   0.619 -2.5149  0.6312 -0.6328
  130MPD2     C 2020   2.166   3.267   0.580  0.9132 -0.3758  0.4916
  130MPD2    C1 2021   2.297   3.310   0.610  0.7092  0.3695  0.0363
  130MPD2    C2 2022   2.320   3.438   0.648  0.3558  0.2737  0.0561
  130MPD2    C3 2023   2.222   3.529   0.641 -0.2991 -0.5297  0.5608
  130MPD2    C4 2024   2.097   3.491   0.597  0.2418  0.5739  0.1479
  130MPD2    C5 2025   2.066   3.362   0.572 -0.0607  0.2886  0.2117
  130MPD2     H 2026   2.419   3.469   0.680  0.4616 -0.9349  0.8690
  130MPD2    H1 2027   2.021   3.568   0.586  0.7444  1.2801  1.5793
  130MPD2    H2 2028   2.147   3.160   0.575 -1.1318  0.0002  0.2296
  130MPD2    H3 2029   1.974   3.324   0.527 -0.5958  0.6110  1.0357
  130MPD2     N 2030   2.251   3.657   0.699 -0.5300 -0.5440 -0.2463
  130MPD2    H5 2031   2.351   3.670   0.716 -0.3284 -2.6396  0.1158
  130MPD2    N1 2032   2.408   3.223   0.599 -0.1393  0.4920 -0.5855
  130MPD2    H7 2033   2.498   3.270   0.604  0.1961 -0.3843  1.7789
  131TMC2    C1 2034   2.329   1.817   9.624  0.4075 -0.1575 -0.8563
  131TMC2    C2 2035   2.293   1.865   9.500 -0.4481 -0.5839  0.3005
  131TMC2    C3 2036   2.344   1.986   9.473 -0.3356 -0.0543 -0.5491
  131TMC2    C4 2037   2.394   1.892   9.713  0.2437  0.4403 -0.5458
  131TMC2    C5 2038   2.423   2.021   9.684  0.7678 -0.4470  0.4596
  131TMC2    C6 2039   2.408   2.069   9.561 -0.2138 -0.0336  0.4161
  131TMC2     C 2040   2.299   1.678   9.651  0.0346  0.4791 -0.1985
  131TMC2     O 2041   2.375   1.618   9.728 -0.2454  0.1123 -0.9057
  131TMC2     H 2042   2.240   1.805   9.427  1.4931 -0.8324 -0.9023
  131TMC2    H1 2043   2.432   1.838   9.799  0.9955 -0.1265 -1.2201
  131TMC2    H2 2044   2.454   2.162   9.529  0.4293  0.1929  2.0063
  131TMC2    C7 2045   2.494   2.099   9.781  0.2413  0.2819  0.6681
  131TMC2    C8 2046   2.294   2.039   9.346 -0.0867 -0.2281  0.0248
  131TMC2    O1 2047   2.524   2.039   9.884 -0.0535 -0.1195  0.1281
  131TMC2    O2 2048   2.234   1.976   9.261  0.2918 -0.7293  0.2255
  131TMC2    O5 2049   2.280   2.167   9.366 -0.8529  0.1621 -0.1602
  131TMC2    H5 2050   2.315   2.195   9.454  1.1619  1.7400 -1.4701
  132MPD2     C 2051   2.027   1.478   9.512 -0.2937 -0.6876  0.1204
  132MPD2    C1 2052   2.142   1.505   9.587  0.5340 -0.1903  0.1887
  132MPD2    C2 2053   2.210   1.402   9.647 -0.4569  0.9107 -0.3773
  132MPD2    C3 2054   2.172   1.275   9.614 -0.6327  0.0084 -0.1819
  132MPD2    C4 2055   2.056   1.247   9.548  0.2743 -0.0143 -0.4310
  132MPD2    C5 2056   1.981   1.354   9.500  0.4902 -0.1634 -0.6073
  132MPD2     H 2057   2.303   1.405   9.702 -0.0106  1.5970 -1.1547
  132MPD2    H1 2058   2.006   1.152   9.536 -2.1523  1.4418 -2.1128
  132MPD2    H2 2059   1.969   1.563   9.477 -1.5286 -1.6860 -0.2544
  132MPD2    H3 2060   1.885   1.341   9.450  1.2048 -0.0121 -2.0076
  132MPD2     N 2061   2.251   1.174   9.675 -0.5758  0.0267  0.1066
  132MPD2    H5 2062   2.339   1.198   9.718 -0.7591  1.5096 -0.3533
  132MPD2    N1 2063   2.185   1.639   9.586  0.1166  0.5099 -0.3684
  132MPD2    H7 2064   2.136   1.712   9.537  0.9038  0.2261 -1.5774
  133TMC2    C1 2065   1.667   1.011   9.837  0.3881 -0.2858  0.0632
  133TMC2    C2 2066   1.795   0.971   9.843 -0.0850 -0.4129 -0.4771
  133TMC2    C3 2067   1.818   0.893   9.949  0.3150  0.2507 -0.3312
  133TMC2    C4 2068   1.571   0.957   9.922  0.2361 -0.7799 -0.1324
  133TMC2    C5 2069   1.601   0.858  10.012  0.0856  0.0708  0.0111
  133TMC2    C6 2070   1.733   0.831  10.033  0.5722  0.1198 -0.8001
  133TMC2     C 2071   1.620   1.089   9.730 -0.2630  0.2001 -0.3534
  133TMC2     O 2072   1.516   1.150   9.760 -0.4445  0.8735  0.2627
  133TMC2     H 2073   1.871   1.009   9.776  1.2630  0.9757  1.8229
  133TMC2    H1 2074   1.465   0.977   9.906  0.4296 -0.9177 -1.6484
  133TMC2    H2 2075   1.761   0.781  10.125 -0.4442  0.1293 -0.4884
  133TMC2    C7 2076   1.484   0.797  10.083 -0.3252 -0.3871  0.3968
  133TMC2    C8 2077   1.951   0.919   9.984  0.5214 -0.1716  0.3554
  133TMC2    O1 2078   1.375   0.845  10.062  0.0929 -0.6139 -0.5397
  133TMC2    O2 2079   2.010   1.028   9.966 -0.3176 -0.1329  0.5451
  133TMC2    O5 2080   1.996   0.820  10.063 -0.4661 -0.0157 -0.0045
  133TMC2    H5 2081   2.089   0.835  10.090 -0.8477  0.5204  0.9937
  134MPD2     C 2082   1.687   1.087   9.378  0.1785 -0.4606  0.8896
  134MPD2    C1 2083   1.664   1.146   9.496  0.0705  0.1104  0.3740
  134MPD2    C2 2084   1.614   1.281   9.494 -0.2143 -0.7607  1.5735
  134MPD2    C3 2085   1.603   1.345   9.372  0.4672 -1.1247  0.0410
  134MPD2    C4 2086   1.634   1.285   9.253 -0.0797  0.0382  0.2475
  134MPD2    C5 2087   1.673   1.157   9.258  0.3539  1.0849 -0.0886
  134MPD2     H 2088   1.599   1.331   9.589  0.9429 -1.0869  1.9239
  134MPD2    H1 2089   1.616   1.328   9.155 -1.8494 -2.4754 -0.5387
  134MPD2    H2 2090   1.722   0.985   9.378  0.6539 -0.2897 -1.4162
  134MPD2    H3 2091   1.696   1.103   9.167  0.3503 -1.9081  1.6786
  134MPD2     N 2092   1.574   1.485   9.367  0.0426  0.4572  0.3118
  134MPD2    H5 2093   1.586   1.525   9.275  0.3458  0.1800  0.2333
  134MPD2    N1 2094   1.680   1.063   9.609  0.2199 -0.0185  1.0404
  134MPD2    H7 2095   1.732   0.976   9.600  0.4632  0.3293 -1.0187
  135TMC2    C1 2096   3.988   3.920   9.574  1.4733 -0.6099 -0.6165
  135TMC2    C2 2097   4.069   3.864   9.666  0.7279 -0.1783 -0.5827
  135TMC2    C3 2098   4.001   3.822   9.779  0.2585 -0.1208 -0.4478
  135TMC2    C4 2099   3.855   3.945   9.580  0.2229  0.3311 -0.7074
  135TMC2    C5 2100   3.795   3.908   9.699  0.5160 -0.0162 -0.0518
  135TMC2    C6 2101   3.868   3.844   9.798  0.6040  0.6997  0.3966
  135TMC2     C 2102   4.056   3.972   9.451  0.0074 -0.2604  0.2272
  135TMC2     O 2103   4.012   4.079   9.410  0.3694 -0.1272  0.1237
  135TMC2     H 2104   4.177   3.869   9.660  0.8590 -1.7066  0.3752
  135TMC2    H1 2105   3.807   3.998   9.499 -2.2791  0.6839  0.9873
  135TMC2    H2 2106   3.825   3.834   9.897  0.6109 -2.9563  0.0115
  135TMC2    C7 2107   3.664   3.941   9.732 -0.2121  0.2895 -0.3724
  135TMC2    C8 2108   4.087   3.785   9.889  0.3133 -0.5907 -0.2559
  135TMC2    O1 2109   3.630   3.918   9.848 -0.1584 -0.5468 -0.7480
  135TMC2    O2 2110   4.200   3.829   9.904 -0.8290 -0.0027  0.0515
  135TMC2    O5 2111   4.032   3.685   9.962  0.4135 -0.2580 -0.0740
  135TMC2    H5 2112   3.943   3.653   9.938 -0.4673  1.3538  1.0544
  136MPD2     C 2113   4.210   4.014   9.208  0.5212 -0.2005  0.5815
  136MPD2    C1 2114   4.256   3.941   9.314 -0.3882 -0.3059 -0.1580
  136MPD2    C2 2115   4.388   3.905   9.316 -0.5696  0.0695  0.5437
  136MPD2    C3 2116   4.477   3.942   9.213  0.2036 -0.2690 -1.3034
  136MPD2    C4 2117   4.423   3.996   9.101 -0.2930 -0.2178 -0.4163
  136MPD2    C5 2118   4.294   4.039   9.100 -0.4126 -0.0898  0.2162
  136MPD2     H 2119   4.428   3.850   9.400 -0.1793 -0.7273 -0.1660
  136MPD2    H1 2120   4.489   4.013   9.017  0.2369  0.2143  0.0887
  136MPD2    H2 2121   4.107   4.045   9.198  0.1947 -0.9319  1.6647
  136MPD2    H3 2122   4.263   4.101   9.016  0.1799  1.0733  0.8556
  136MPD2     N 2123   4.613   3.923   9.215 -0.3817  0.0253  0.1020
  136MPD2    H5 2124   4.664   3.948   9.131  0.2805  0.4482  0.6236
  136MPD2    N1 2125   4.174   3.917   9.430 -0.4525 -0.1244 -0.0497
  136MPD2    H7 2126   4.202   3.847   9.498 -0.0559  0.5076  0.4405
  137TMC2    C1 2127   3.685   2.520   9.482 -0.3084  0.4821 -0.4864
  137TMC2    C2 2128   3.799   2.454   9.452  0.3411 -0.2941 -0.5330
  137TMC2    C3 2129   3.804   2.430   9.314  0.1308 -0.8130  0.1905
  137TMC2    C4 2130   3.586   2.564   9.398  0.5202 -0.0874 -0.3902
  137TMC2    C5 2131   3.602   2.540   9.266 -0.1689  0.2039  0.8143
  137TMC2    C6 2132   3.710   2.475   9.227  0.1088 -0.1403 -0.1509
  137TMC2     C 2133   3.691   2.594   9.604  0.1034  0.2840 -0.5170
  137TMC2     O 2134   3.642   2.706   9.622  0.3974  0.0279 -0.1110
  137TMC2     H 2135   3.867   2.403   9.520 -0.4861  0.2524  0.7059
  137TMC2    H1 2136   3.501   2.619   9.436  0.0284  0.3632 -2.1226
  137TMC2    H2 2137   3.729   2.456   9.122 -0.9026  1.3091 -0.5906
  137TMC2    C7 2138   3.505   2.582   9.174 -1.0227  0.1481 -0.1296
  137TMC2    C8 2139   3.899   2.338   9.254  0.3867  0.5084 -0.7028
  137TMC2    O1 2140   3.527   2.571   9.055  0.2408  0.1706 -0.0602
  137TMC2    O2 2141   3.885   2.301   9.135 -1.0954  0.3955 -0.1829
  137TMC2    O5 2142   4.008   2.321   9.333  0.2619  0.6082 -0.0076
  137TMC2    H5 2143   4.018   2.384   9.409 -0.4623 -0.5883  1.0792
  138MPD2     C 2144   3.811   2.439   9.913 -0.2257 -0.5075 -0.4739
  138MPD2    C1 2145   3.769   2.541   9.828 -0.1128 -0.0508 -0.4788
  138MPD2    C2 2146   3.762   2.674   9.873 -0.4012 -0.5450  0.3134
  138MPD2    C3 2147   3.784   2.703  10.007  0.4110 -0.7855  0.0250
  138MPD2    C4 2148   3.823   2.601  10.091 -0.3845 -0.4725 -0.7743
  138MPD2    C5 2149   3.839   2.472  10.043  0.7018  0.5055  0.3658
  138MPD2     H 2150   3.751   2.755   9.802  1.4801  0.1248  0.7726
  138MPD2    H1 2151   3.855   2.618  10.194 -2.6713  1.3747 -0.3366
  138MPD2    H2 2152   3.794   2.336   9.885 -0.9439  0.0681 -2.2065
  138MPD2    H3 2153   3.863   2.394  10.114 -1.8291 -2.9084 -2.4992
  138MPD2     N 2154   3.774   2.835  10.048 -0.0104  0.0214  0.0531
  138MPD2    H5 2155   3.754   2.900   9.973  0.1210  0.0728  0.0638
  138MPD2    N1 2156   3.736   2.505   9.701 -0.3910  0.0394  0.6623
  138MPD2    H7 2157   3.757   2.408   9.677 -0.8592  0.4496 -1.4326
  139TMC2    C1 2158   4.327   0.680  12.899 -0.0754  0.0318  0.2982
  139TMC2    C2 2159   4.286   0.715  12.771 -0.5610  0.2615  0.1124
  139TMC2    C3 2160   4.224   0.833  12.752  0.7782 -0.5334  0.0536
  139TMC2    C4 2161   4.306   0.767  13.003  0.2224  0.2272 -0.3434
  139TMC2    C5 2162   4.241   0.883  12.982  0.3265 -0.2050 -0.4790
  139TMC2    C6 2163   4.193   0.916  12.851 -0.4302  0.1210 -0.3398
  139TMC2     C 2164   4.373   0.542  12.927 -0.4155  0.3327  0.5292
  139TMC2     O 2165   4.406   0.468  12.837  0.0393  0.1910  0.2792
  139TMC2     H 2166   4.291   0.639  12.694  1.3420  0.4447  0.0634
  139TMC2    H1 2167   4.349   0.734  13.097 -1.1431 -3.1994 -0.9472
  139TMC2    H2 2168   4.133   1.006  12.840 -1.3426 -0.3334  0.8427
  139TMC2    C7 2169   4.233   0.994  13.079  1.1296  0.2181 -0.4919
  139TMC2    C8 2170   4.182   0.884  12.615  0.6422 -0.7943  0.3091
  139TMC2    O1 2171   4.182   1.100  13.040 -0.2412  0.3130  0.0340
  139TMC2    O2 2172   4.092   0.964  12.594  0.4562 -0.4290  0.2634
  139TMC2    O5 2173   4.217   0.788  12.525  0.1848 -0.2823 -0.0474
  139TMC2    H5 2174   4.307   0.753  12.543 -0.0881 -1.0507 -0.1664
  140MPD2     C 2175   4.400   0.371  13.256 -0.8635 -0.1101  0.1328
  140MPD2    C1 2176   4.397   0.378  13.116 -0.2742  0.4816 -0.1379
  140MPD2    C2 2177   4.423   0.266  13.048 -0.0069 -0.5334  0.6142
  140MPD2    C3 2178   4.445   0.148  13.112 -0.0090 -0.6392 -0.3590
  140MPD2    C4 2179   4.444   0.150  13.255  0.0906 -0.1125  0.0226
  140MPD2    C5 2180   4.416   0.258  13.325  0.0568  0.7129 -0.2431
  140MPD2     H 2181   4.412   0.261  12.940 -1.4750  1.0082  0.6947
  140MPD2    H1 2182   4.467   0.058  13.309  1.8641 -1.5199 -3.0989
  140MPD2    H2 2183   4.379   0.460  13.314  3.4785  1.6797 -1.0277
  140MPD2    H3 2184   4.408   0.241  13.432 -1.5322 -0.2087 -0.5217
  140MPD2     N 2185   4.445   0.028  13.037  0.1797  0.4595  0.2759
  140MPD2    H5 2186   4.426   0.039  12.938 -0.6917 -0.4010  0.3489
  140MPD2    N1 2187   4.385   0.508  13.060 -0.3209  0.3948 -0.0085
  140MPD2    H7 2188   4.385   0.578  13.134 -1.1007  0.0749  0.2967
  141TMC2    C1 2189   4.284   2.682  14.580  0.7271 -1.4155  0.1827
  141TMC2    C2 2190   4.302   2.586  14.674 -0.9144 -0.5017  0.3447
  141TMC2    C3 2191   4.333   2.636  14.801  0.2846  0.6454  0.2377
  141TMC2    C4 2192   4.284   2.813  14.606  0.0957 -0.9872  0.2024
  141TMC2    C5 2193   4.309   2.865  14.728  0.4383 -0.4184  0.1061
  141TMC2    C6 2194   4.339   2.773  14.823  0.0519  0.1461 -0.3235
  141TMC2     C 2195   4.314   2.657  14.433 -0.4319  1.1430  0.1079
  141TMC2     O 2196   4.284   2.745  14.355 -0.5746 -0.3887 -0.1782
  141TMC2     H 2197   4.283   2.484  14.645 -2.0082 -0.6233  1.4757
  141TMC2    H1 2198   4.299   2.884  14.525  0.0648  0.9032  1.8357
  141TMC2    H2 2199   4.366   2.820  14.917 -0.5536 -2.3264  1.0876
  141TMC2    C7 2200   4.345   3.008  14.737  0.4962 -0.4282  0.5310
  141TMC2    C8 2201   4.351   2.544  14.912  0.2156 -0.3526  0.1744
  141TMC2    O1 2202   4.293   3.085  14.658 -0.2620  0.3513 -0.3721
  141TMC2    O2 2203   4.318   2.565  15.026  0.6249  0.0532 -0.5362
  141TMC2    O5 2204   4.395   2.430  14.862  0.1842  0.1201  0.6954
  141TMC2    H5 2205   4.453   2.441  14.784 -0.2200 -0.4167  0.3182
  142TMC2    C1 2206   2.832   2.067   9.557 -0.3594  1.1364 -0.0532
  142TMC2    C2 2207   2.791   2.189   9.521 -0.0353  0.2900 -0.2109
  142TMC2    C3 2208   2.837   2.301   9.590 -0.8603 -0.2883  0.6318
  142TMC2    C4 2209   2.914   2.043   9.667  0.1035  0.0537 -0.0776
  142TMC2    C5 2210   2.949   2.156   9.743  0.2397 -0.2455 -0.3942
  142TMC2    C6 2211   2.914   2.287   9.699 -0.0572  0.1311  0.1429
  142TMC2     C 2212   2.788   1.954   9.469  0.2474 -0.0119 -0.2923
  142TMC2     O 2213   2.681   1.973   9.404 -0.3687  0.2021  0.0154
  142TMC2     H 2214   2.728   2.191   9.432 -1.1877  1.1405  0.6199
  142TMC2    H1 2215   2.921   1.945   9.714 -1.5442  0.3128  0.6989
  142TMC2    H2 2216   2.948   2.375   9.753 -0.8419  1.1806 -1.0417
  142TMC2    C7 2217   2.987   2.127   9.878 -0.2822  0.3147 -0.0497
  142TMC2    C8 2218   2.843   2.435   9.530  0.6492  0.0742 -0.0960
  142TMC2    O1 2219   3.008   2.006   9.901  0.0282  0.9630  0.6627
  142TMC2    O2 2220   2.922   2.511   9.582  0.7177 -0.1910  0.2423
  142TMC2    O5 2221   2.807   2.421   9.404 -0.4471 -0.0250  0.1699
  142TMC2    H5 2222   2.746   2.348   9.381 -0.5951  0.6711 -1.5758
  143MPD2     C 2223   2.779   1.441   9.470 -0.1259 -0.5011  0.8744
  143MPD2    C1 2224   2.683   1.534   9.424 -0.4390 -0.3493 -0.7477
  143MPD2    C2 2225   2.707   1.670   9.428 -0.4221  0.4237 -0.7778
  143MPD2    C3 2226   2.836   1.710   9.466  0.3050  0.1203 -0.4009
  143MPD2    C4 2227   2.939   1.619   9.492 -0.5183  0.1825  0.5990
  143MPD2    C5 2228   2.908   1.487   9.490 -0.6401 -0.5147  0.0553
  143MPD2     H 2229   2.623   1.738   9.416 -0.0748  0.7300 -1.4756
  143MPD2    H1 2230   3.042   1.645   9.515  0.7942 -2.4312 -2.2239
  143MPD2    H2 2231   2.758   1.334   9.472 -1.1325 -0.3070  0.8091
  143MPD2    H3 2232   2.987   1.416   9.510  0.0641  0.7528  1.8039
  143MPD2     N 2233   2.864   1.849   9.498  0.1375  0.2305  0.3204
  143MPD2    H5 2234   2.955   1.876   9.535 -0.2692 -0.2185  1.6516
  143MPD2    N1 2235   2.559   1.468   9.392  0.4958 -0.5083 -0.6877
  143MPD2    H7 2236   2.560   1.367   9.400  0.4715 -0.4062  0.7062
  144TMC2    C1 2237   0.616   0.363   0.576  0.3452 -0.1168 -0.4965
  144TMC2    C2 2238   0.675   0.250   0.527 -0.3526 -0.4400 -0.1183
  144TMC2    C3 2239   0.809   0.238   0.540  0.0624  0.0755 -0.4494
  144TMC2    C4 2240   0.685   0.454   0.658 -0.4587  0.2248 -0.1654
  144TMC2    C5 2241   0.820   0.435   0.681  0.5512  0.1992  0.9963
  144TMC2    C6 2242   0.879   0.322   0.621  0.3145  0.4024  0.2080
  144TMC2     C 2243   0.472   0.348   0.592 -0.1625 -0.5470 -0.5425
  144TMC2     O 2244   0.429   0.235   0.587  0.0842  0.4411 -0.1120
  144TMC2     H 2245   0.615   0.185   0.465 -1.1992 -0.3554  0.6057
  144TMC2    H1 2246   0.631   0.540   0.695  0.0218  0.3212  0.3200
  144TMC2    H2 2247   0.974   0.287   0.661  0.6972  0.9100 -0.2613
  144TMC2    C7 2248   0.903   0.533   0.738 -0.4147 -0.3681  0.6022
  144TMC2    C8 2249   0.867   0.109   0.490  0.8656  0.3232 -0.2217
  144TMC2    O1 2250   1.017   0.497   0.724  0.8094  0.4002  0.0151
  144TMC2    O2 2251   0.785   0.023   0.458  0.5102 -0.0115 -0.0129
  144TMC2    O5 2252   0.989   0.091   0.542 -0.0399  0.1821 -0.0919
  144TMC2    H5 2253   1.034   0.178   0.538 -1.2215  0.7186 -1.8665
  145MPD2     C 2254   0.035   0.539   0.420  0.2487 -0.2201  0.0978
  145MPD2    C1 2255   0.067   0.402   0.441  0.3144  0.4803 -0.1470
  145MPD2    C2 2256   0.194   0.379   0.500  0.4106 -0.5329 -0.0232
  145MPD2    C3 2257   0.281   0.486   0.531  0.1487 -0.5517  0.2963
  145MPD2    C4 2258   0.241   0.613   0.511 -0.4629 -0.0246  0.6611
  145MPD2    C5 2259   0.121   0.637   0.463  0.0656  0.0837  0.1963
  145MPD2     H 2260   0.231   0.277   0.504  0.0198 -0.5858  2.3318
  145MPD2    H1 2261   0.304   0.698   0.534 -3.5416  2.4385  0.0165
  145MPD2    H2 2262   4.681   0.566   0.368 -0.0140 -0.6983  0.3201
  145MPD2    H3 2263   0.097   0.740   0.436  1.5898  0.0171 -1.4008
  145MPD2     N 2264   0.415   0.468   0.583 -0.3147  0.4277 -0.4601
  145MPD2    H5 2265   0.470   0.553   0.587 -1.0803  0.9179 -0.4782
  145MPD2    N1 2266   4.732   0.297   0.386 -0.6915  0.2043 -0.2348
  145MPD2    H7 2267   0.033   0.203   0.391 -1.2948 -0.2039 -3.2533
  146TMC2    C1 2268   1.707   3.155  12.574 -0.8077  0.6862 -0.4197
  146TMC2    C2 2269   1.593   3.154  12.501  0.1853  0.3019  0.3042
  146TMC2    C3 2270   1.579   3.073  12.391  0.1244 -0.3979  0.3486
  146TMC2    C4 2271   1.814   3.079  12.546 -0.0810  0.2021 -0.0604
  146TMC2    C5 2272   1.806   3.013  12.420 -0.0458  0.2309 -0.5304
  146TMC2    C6 2273   1.687   3.002  12.350  0.4341  0.9467 -0.3155
  146TMC2     C 2274   1.711   3.248  12.691  0.4842  1.0707 -0.3222
  146TMC2     O 2275   1.641   3.346  12.686 -0.1174 -0.2770 -0.0850
  146TMC2     H 2276   1.508   3.217  12.525 -0.0761 -0.1235  0.5022
  146TMC2    H1 2277   1.908   3.089  12.599  0.9376 -0.9454 -1.6404
  146TMC2    H2 2278   1.679   2.945  12.258  1.3833 -1.3261  1.0084
  146TMC2    C7 2279   1.921   2.947  12.368 -0.4861 -0.1740  0.0673
  146TMC2    C8 2280   1.448   3.042  12.348  0.4183 -0.1352 -0.1185
  146TMC2    O1 2281   1.904   2.900  12.256 -0.3562 -0.4106 -0.3257
  146TMC2    O2 2282   1.364   3.128  12.347  0.2137 -0.3485  0.6281
  146TMC2    O5 2283   1.429   2.934  12.422  0.4275  0.1996  0.0114
  146TMC2    H5 2284   1.505   2.874  12.436 -1.1130 -1.7541  0.0066
  147MPD2     C 2285   2.396   2.727  12.393 -0.0284  0.2098 -0.3858
  147MPD2    C1 2286   2.357   2.773  12.517  0.5933  0.3282  1.0328
  147MPD2    C2 2287   2.234   2.846  12.525 -0.8912  0.3042 -0.7911
  147MPD2    C3 2288   2.148   2.873  12.422  0.4054 -0.4343  0.3798
  147MPD2    C4 2289   2.191   2.838  12.300  0.3454  0.7323  0.2233
  147MPD2    C5 2290   2.314   2.767  12.286 -0.1439 -0.4385 -0.1736
  147MPD2     H 2291   2.207   2.886  12.623 -2.1520 -0.2626 -0.9166
  147MPD2    H1 2292   2.116   2.833  12.222  2.4561 -2.8079 -1.5695
  147MPD2    H2 2293   2.484   2.664  12.382 -1.9600 -2.0774 -2.8686
  147MPD2    H3 2294   2.340   2.748  12.182  0.4179  1.1763 -0.3312
  147MPD2     N 2295   2.022   2.932  12.461 -0.0679  0.1661 -0.0194
  147MPD2    H5 2296   2.016   2.949  12.561 -2.1989 -1.8417  0.1664
  147MPD2    N1 2297   2.436   2.732  12.629 -0.0208 -0.3606  0.1022
  147MPD2    H7 2298   2.526   2.686  12.620  0.1561 -0.1021  0.5222
  148TMC2    C1 2299   2.476   2.096  10.863 -0.0490  0.0728 -0.3735
  148TMC2    C2 2300   2.487   2.177  10.972  0.0037 -0.4537  0.7052
  148TMC2    C3 2301   2.556   2.121  11.074  0.4032 -0.7260  0.2864
  148TMC2    C4 2302   2.523   1.966  10.842 -0.4508 -0.4862  0.1299
  148TMC2    C5 2303   2.595   1.924  10.950 -0.9233  0.6156 -0.4482
  148TMC2    C6 2304   2.609   1.995  11.067 -0.3635 -0.2452 -0.0369
  148TMC2     C 2305   2.391   2.155  10.760  0.1168 -0.0295  0.2978
  148TMC2     O 2306   2.409   2.275  10.741 -0.2724 -0.5620  0.3785
  148TMC2     H 2307   2.446   2.276  10.966  0.1796 -0.4715 -0.8857
  148TMC2    H1 2308   2.511   1.910  10.750  1.7672  0.5929 -0.8511
  148TMC2    H2 2309   2.655   1.951  11.154 -0.2322  0.6560  0.3472
  148TMC2    C7 2310   2.627   1.785  10.963  0.2247  0.4899 -0.7108
  148TMC2    C8 2311   2.598   2.200  11.182  0.2627  0.2647  0.4340
  148TMC2    O1 2312   2.673   1.750  11.070  0.3018  0.2359  0.4268
  148TMC2    O2 2313   2.715   2.200  11.224 -0.7845  0.5516  0.1276
  148TMC2    O5 2314   2.491   2.226  11.262  0.2548 -0.0257 -0.0616
  148TMC2    H5 2315   2.404   2.202  11.221 -0.9191  1.2490  1.7012
  149MPD2     C 2316   2.262   2.200  10.491 -0.2646  0.2627 -0.8053
  149MPD2    C1 2317   2.264   2.085  10.565  0.0454 -0.0146 -0.0182
  149MPD2    C2 2318   2.190   1.982  10.515 -0.4345  0.1862 -0.3491
  149MPD2    C3 2319   2.134   1.979  10.389 -0.0316  0.5254  0.3801
  149MPD2    C4 2320   2.138   2.096  10.312 -0.3472 -0.1069 -0.0600
  149MPD2    C5 2321   2.192   2.210  10.374  1.1252 -0.2273  0.5152
  149MPD2     H 2322   2.174   1.899  10.583 -1.2332 -0.6954 -1.6015
  149MPD2    H1 2323   2.099   2.117  10.213  0.0690 -0.6230 -0.3369
  149MPD2    H2 2324   2.302   2.293  10.529  3.1070 -1.4414 -0.1431
  149MPD2    H3 2325   2.202   2.304  10.321  1.6004 -0.4884  0.1516
  149MPD2     N 2326   2.064   1.872  10.338 -0.3112  0.1530 -0.6972
  149MPD2    H5 2327   2.031   1.888  10.244  0.2882  1.2234 -0.7384
  149MPD2    N1 2328   2.331   2.060  10.684 -0.1010  0.5974 -0.9752
  149MPD2    H7 2329   2.310   1.971  10.728  3.7847  0.7593  1.1660
  150TMC2    C1 2330   4.376   0.831  12.182  0.0301  0.6093  0.0678
  150TMC2    C2 2331   4.379   0.965  12.146  0.7194  0.0666 -0.2947
  150TMC2    C3 2332   4.454   1.046  12.227 -0.3578 -0.2448 -0.9216
  150TMC2    C4 2333   4.455   0.777  12.274 -0.7473 -0.4615  0.0162
  150TMC2    C5 2334   4.541   0.858  12.348  0.9677  0.7105  0.2599
  150TMC2    C6 2335   4.545   0.991  12.317  0.2048 -0.6826  0.4979
  150TMC2     C 2336   4.272   0.749  12.129 -0.0966  0.5187  0.0166
  150TMC2     O 2337   4.230   0.664  12.211  0.3890  0.4031  0.7154
  150TMC2     H 2338   4.298   1.016  12.096  1.2278  1.3801  0.2088
  150TMC2    H1 2339   4.445   0.674  12.306 -0.5509 -1.1030 -1.9573
  150TMC2    H2 2340   4.602   1.060  12.379 -1.0791 -0.2250  1.1618
  150TMC2    C7 2341   4.556   0.822  12.488  0.5425  0.2157 -0.2392
  150TMC2    C8 2342   4.471   1.189  12.195  0.0105 -0.1968 -1.2095
  150TMC2    O1 2343   4.467   0.753  12.538 -0.2413 -0.2278 -0.1123
  150TMC2    O2 2344   4.374   1.255  12.164 -0.3390  0.0332 -0.3070
  150TMC2    O5 2345   4.595   1.207  12.154 -0.2030  0.0155 -0.4879
  150TMC2    H5 2346   4.645   1.123  12.163 -0.4349 -0.0770 -0.0770
  151MPD2     C 2347   3.857   0.661  11.857  0.7240 -0.3901 -0.8104
  151MPD2    C1 2348   3.931   0.753  11.789  0.1594  0.8927  0.1728
  151MPD2    C2 2349   4.053   0.789  11.839 -0.1503 -0.1336 -0.1050
  151MPD2    C3 2350   4.104   0.730  11.953  0.0668  0.4302  0.1800
  151MPD2    C4 2351   4.038   0.622  12.008 -0.3659 -0.4144  0.2237
  151MPD2    C5 2352   3.914   0.591  11.965 -0.5080  0.5491  0.0242
  151MPD2     H 2353   4.112   0.869  11.798  0.4891 -0.0314  1.0142
  151MPD2    H1 2354   4.084   0.552  12.077 -0.9031 -1.4850 -0.5134
  151MPD2    H2 2355   3.758   0.631  11.825  0.7985 -0.6338 -0.8119
  151MPD2    H3 2356   3.854   0.512  12.010 -0.2425  0.5511  0.3776
  151MPD2     N 2357   4.219   0.787  12.004 -0.7313 -0.1960 -0.3402
  151MPD2    H5 2358   4.257   0.868  11.958  1.1145 -1.3752 -0.8845
  151MPD2    N1 2359   3.871   0.826  11.683 -0.0167  0.8116 -0.2964
  151MPD2    H7 2360   3.777   0.794  11.660 -0.7334  1.5229  1.7125
  152TMC2    C1 2361   4.016   1.314  11.814  0.3408  0.4759  0.5340
  152TMC2    C2 2362   4.101   1.203  11.822 -0.1996  0.7205 -0.1320
  152TMC2    C3 2363   4.230   1.239  11.864 -0.4418  0.4398  0.2559
  152TMC2    C4 2364   4.048   1.433  11.867 -0.1454  0.8180 -0.5400
  152TMC2    C5 2365   4.176   1.463  11.907  0.5288  0.0637 -0.2170
  152TMC2    C6 2366   4.271   1.369  11.898  0.0000  0.9423  0.0387
  152TMC2     C 2367   3.877   1.283  11.807  0.5915 -0.9409 -0.0546
  152TMC2     O 2368   3.804   1.376  11.784  0.4337  0.4158  0.4918
  152TMC2     H 2369   4.084   1.102  11.788  2.5050  0.0576  0.4741
  152TMC2    H1 2370   3.986   1.522  11.867 -0.4388  0.6133 -0.1510
  152TMC2    H2 2371   4.373   1.388  11.929  1.2673 -0.4808 -3.2316
  152TMC2    C7 2372   4.176   1.546  12.029  0.1042  0.0473 -0.0175
  152TMC2    C8 2373   4.331   1.133  11.835  0.3376  0.2169 -0.1514
  152TMC2    O1 2374   4.098   1.640  12.018 -0.3137 -1.4883  0.5848
  152TMC2    O2 2375   4.296   1.015  11.848 -0.4568 -0.3137  0.1893
  152TMC2    O5 2376   4.453   1.187  11.802  0.0097 -0.5191 -0.3619
  152TMC2    H5 2377   4.448   1.284  11.791  0.2971 -0.4642 -0.0025
  153MPD2     C 2378   3.722   0.992  11.983  0.5178 -0.0215 -0.0756
  153MPD2    C1 2379   3.718   1.114  11.911  0.7872 -0.1375 -0.0533
  153MPD2    C2 2380   3.602   1.171  11.876 -0.3767  0.1519 -0.3062
  153MPD2    C3 2381   3.482   1.105  11.917 -0.2580 -0.5710  0.0352
  153MPD2    C4 2382   3.486   0.986  11.984 -0.3370 -0.2316  1.3344
  153MPD2    C5 2383   3.601   0.931  12.018  0.0049 -0.2027  0.6872
  153MPD2     H 2384   3.594   1.268  11.829 -0.7780 -0.3699 -1.3215
  153MPD2    H1 2385   3.398   0.940  12.026  0.4630 -3.6146 -0.6152
  153MPD2    H2 2386   3.814   0.944  12.015 -0.8351 -2.5010  0.0733
  153MPD2    H3 2387   3.608   0.851  12.091 -0.4004 -1.0578 -0.2150
  153MPD2     N 2388   3.358   1.174  11.906 -0.5247  0.1276  0.2952
  153MPD2    H5 2389   3.358   1.267  11.865  0.2195  0.7127  1.5883
  153MPD2    N1 2390   3.849   1.168  11.879 -0.2457 -0.6018  0.1672
  153MPD2    H7 2391   3.934   1.128  11.918 -0.2870 -0.4860  0.3762
  154TMC2    C1 2392   0.586   1.735   0.955  0.0499 -0.3798  0.3006
  154TMC2    C2 2393   0.649   1.796   1.066 -0.1933  0.1284  0.0322
  154TMC2    C3 2394   0.780   1.771   1.084  0.7381 -0.1250 -0.0979
  154TMC2    C4 2395   0.649   1.646   0.865 -0.2735  0.0496  0.3979
  154TMC2    C5 2396   0.780   1.635   0.884  0.2437  0.0538  0.1343
  154TMC2    C6 2397   0.847   1.695   0.991  0.3684  0.1401 -0.0770
  154TMC2     C 2398   0.447   1.778   0.931  0.7872 -0.4469 -0.4333
  154TMC2     O 2399   0.403   1.853   1.019 -0.2387 -0.2528  0.6513
  154TMC2     H 2400   0.605   1.877   1.122 -0.4997  1.2537 -1.8484
  154TMC2    H1 2401   0.592   1.601   0.784  1.8671 -0.8535 -0.5899
  154TMC2    H2 2402   0.941   1.647   1.013  1.1352  0.4443 -2.7146
  154TMC2    C7 2403   0.856   1.536   0.797 -0.1828 -0.0245 -0.1892
  154TMC2    C8 2404   0.848   1.824   1.206 -0.7964 -0.3538 -0.2114
  154TMC2    O1 2405   0.976   1.544   0.806  0.4468  0.5513  0.0123
  154TMC2    O2 2406   0.783   1.883   1.290  0.1695  0.0630 -0.4675
  154TMC2    O5 2407   0.976   1.785   1.207  0.5311  0.1690 -0.2163
  154TMC2    H5 2408   1.013   1.758   1.120 -0.1508  2.5613 -1.2294
  155MPD2     C 2409   0.231   1.749   0.623 -0.4297  0.2513  0.1954
  155MPD2    C1 2410   0.275   1.790   0.748 -0.4801  0.3887 -0.3622
  155MPD2    C2 2411   0.191   1.875   0.817  0.6072 -0.2055  0.2016
  155MPD2    C3 2412   0.080   1.944   0.763 -1.1350  0.3089 -0.2625
  155MPD2    C4 2413   0.043   1.894   0.638 -0.3093 -0.5843 -0.5636
  155MPD2    C5 2414   0.121   1.804   0.568  0.0684  0.4177  0.0260
  155MPD2     H 2415   0.224   1.904   0.916  0.3983  0.7978 -0.0231
  155MPD2    H1 2416   4.694   1.922   0.578  0.1748  0.0471 -0.9659
  155MPD2    H2 2417   0.286   1.673   0.569  0.1933 -0.0832  1.3068
  155MPD2    H3 2418   0.089   1.787   0.466 -1.4841  0.5822  0.4835
  155MPD2     N 2419   0.004   2.033   0.844 -0.4281  0.0658  0.2614
  155MPD2    H5 2420   0.027   2.041   0.942  0.8875 -2.1659  0.1387
  155MPD2    N1 2421   0.392   1.745   0.813 -0.2062 -0.7064 -0.0823
  155MPD2    H7 2422   0.450   1.682   0.758 -2.5876 -2.7889 -0.1778
  156TMC2    C1 2423   3.831   3.116  12.499 -0.0989 -0.3317  0.5209
  156TMC2    C2 2424   3.930   3.053  12.570  0.2583 -0.0604  0.0612
  156TMC2    C3 2425   4.046   3.029  12.496  0.2855 -0.2866  0.0048
  156TMC2    C4 2426   3.838   3.145  12.363 -0.4258 -0.1810  0.4514
  156TMC2    C5 2427   3.958   3.134  12.304 -0.3658 -0.1684 -0.0507
  156TMC2    C6 2428   4.061   3.070  12.369 -0.4960  1.2311 -0.5569
  156TMC2     C 2429   3.719   3.175  12.565  0.4701  0.1840  0.0475
  156TMC2     O 2430   3.652   3.257  12.503 -0.0802 -0.2397 -0.3705
  156TMC2     H 2431   3.921   3.029  12.675 -0.7435 -0.7806 -0.1845
  156TMC2    H1 2432   3.751   3.189  12.315 -0.6182 -0.0008  0.9571
  156TMC2    H2 2433   4.160   3.054  12.329 -0.0721  0.1477  0.9009
  156TMC2    C7 2434   3.981   3.228  12.191  0.0333  0.3554  0.4225
  156TMC2    C8 2435   4.160   2.972  12.570 -0.2295 -0.5648 -0.0746
  156TMC2    O1 2436   3.891   3.311  12.165 -0.2616  0.3043 -0.2979
  156TMC2    O2 2437   4.252   2.922  12.509  0.5608  0.1761  0.3926
  156TMC2    O5 2438   4.175   3.018  12.696  0.0251  0.1505  0.0841
  156TMC2    H5 2439   4.099   3.063  12.739 -1.3033 -0.6777 -1.3537
  157MPD2     C 2440   3.633   3.155  12.922 -0.2270 -0.0722  0.3044
  157MPD2    C1 2441   3.623   3.203  12.794 -0.1256  0.4077  0.7772
  157MPD2    C2 2442   3.550   3.321  12.764  0.0825 -0.4667 -0.0810
  157MPD2    C3 2443   3.489   3.395  12.861  0.4504  0.5571 -0.0017
  157MPD2    C4 2444   3.510   3.347  12.993 -0.4381 -0.4481  0.3704
  157MPD2    C5 2445   3.575   3.231  13.019  0.8531  1.0157  0.0000
  157MPD2     H 2446   3.529   3.355  12.663 -1.1037 -1.5218 -0.1944
  157MPD2    H1 2447   3.463   3.404  13.072 -0.8762  1.2754 -1.1240
  157MPD2    H2 2448   3.693   3.070  12.953  1.1793  1.6762  2.3542
  157MPD2    H3 2449   3.582   3.194  13.121 -0.6274 -0.2596 -0.3530
  157MPD2     N 2450   3.428   3.519  12.827 -0.2607 -0.6276 -0.4868
  157MPD2    H5 2451   3.433   3.537  12.727 -3.0757 -0.5600 -0.5915
  157MPD2    N1 2452   3.700   3.136  12.694  0.4283 -0.6242 -0.1244
  157MPD2    H7 2453   3.758   3.060  12.730  1.4379  0.6903  1.0393
  158TMC2    C1 2454   3.957   2.751  13.270  0.2796 -0.1692 -0.1140
  158TMC2    C2 2455   3.960   2.828  13.151  0.3259  0.1226 -0.0276
  158TMC2    C3 2456   3.872   2.802  13.050  0.1916  0.3259 -0.3234
  158TMC2    C4 2457   3.889   2.633  13.275 -0.0294 -0.4730 -0.5257
  158TMC2    C5 2458   3.802   2.615  13.174  0.1220 -0.8212 -0.1457
  158TMC2    C6 2459   3.790   2.691  13.060 -0.0480 -0.1033  0.7617
  158TMC2     C 2460   3.995   2.830  13.383 -0.6307 -0.0458  0.4965
  158TMC2     O 2461   3.995   2.953  13.370  0.4759 -0.0536 -0.0362
  158TMC2     H 2462   4.006   2.926  13.154  1.7226 -0.5408  0.1235
  158TMC2    H1 2463   3.867   2.585  13.369 -1.6229 -2.6329 -2.0188
  158TMC2    H2 2464   3.720   2.670  12.980 -1.4646 -1.2572  2.3194
  158TMC2    C7 2465   3.706   2.503  13.177 -0.6519  0.4373  0.2216
  158TMC2    C8 2466   3.867   2.881  12.927  0.5821  0.5650 -0.6804
  158TMC2    O1 2467   3.608   2.511  13.104  0.1821  0.3850  0.2588
  158TMC2    O2 2468   3.772   2.878  12.850 -0.1557  0.0604  0.2532
  158TMC2    O5 2469   3.992   2.922  12.902  0.0385  0.0773 -0.3468
  158TMC2    H5 2470   4.055   2.894  12.972  0.3951 -0.2000 -0.7716
  159MPD2     C 2471   3.994   2.869  13.892  0.3361 -0.0116  0.2746
  159MPD2    C1 2472   4.008   2.732  13.865  0.2489  0.0339 -0.3804
  159MPD2    C2 2473   4.016   2.697  13.729 -1.0246  0.2483  0.6723
  159MPD2    C3 2474   4.005   2.793  13.629  0.3779  0.4109 -0.1085
  159MPD2    C4 2475   4.013   2.928  13.664 -0.0703  0.1667  0.6085
  159MPD2    C5 2476   4.011   2.964  13.797  0.3259  0.4606 -0.3261
  159MPD2     H 2477   4.031   2.593  13.704 -0.9319  0.3292  0.3917
  159MPD2    H1 2478   3.998   3.005  13.590  1.3229  0.0572  0.2093
  159MPD2    H2 2479   3.978   2.907  13.993 -0.4561  1.4818 -0.4120
  159MPD2    H3 2480   4.003   3.070  13.820 -1.0085 -0.3262  2.8007
  159MPD2     N 2481   4.015   2.750  13.491 -0.2074  0.0095 -0.0003
  159MPD2    H5 2482   4.008   2.649  13.476  1.7720 -0.4617  2.2154
  159MPD2    N1 2483   4.017   2.629  13.957 -0.3515  0.1367 -0.0341
  159MPD2    H7 2484   4.023   2.530  13.935  0.9598 -0.0211  1.0504
  160TMC2    C1 2485   3.622   0.750   1.346  0.4359 -0.5631  0.1625
  160TMC2    C2 2486   3.587   0.860   1.422 -0.7474  0.1831  0.7263
  160TMC2    C3 2487   3.674   0.954   1.446  0.2316  0.5987 -0.1727
  160TMC2    C4 2488   3.747   0.744   1.290  0.3616 -0.5327 -0.3211
  160TMC2    C5 2489   3.832   0.850   1.309  0.1988 -0.3919  0.0560
  160TMC2    C6 2490   3.800   0.958   1.385 -0.2052 -0.0315  0.3714
  160TMC2     C 2491   3.526   0.658   1.296 -0.3429  1.0794  0.2685
  160TMC2     O 2492   3.575   0.543   1.276  0.3851 -0.3256  0.2074
  160TMC2     H 2493   3.484   0.883   1.443 -0.7636 -0.6607  1.5912
  160TMC2    H1 2494   3.777   0.654   1.237  1.5127 -1.2110  1.4974
  160TMC2    H2 2495   3.870   1.040   1.393  1.1788 -1.1895  0.1314
  160TMC2    C7 2496   3.954   0.846   1.228 -0.4947  0.1796  0.0607
  160TMC2    C8 2497   3.627   1.069   1.522  0.3907 -0.1941  0.1252
  160TMC2    O1 2498   3.957   0.752   1.146 -0.0114 -0.6187  0.5674
  160TMC2    O2 2499   3.512   1.097   1.544  0.0783  0.2347 -0.2362
  160TMC2    O5 2500   3.728   1.147   1.568 -0.2575 -0.1507 -0.1586
  160TMC2    H5 2501   3.810   1.092   1.572  0.4960  0.9212 -1.1374
  161MPD2     C 2502   3.302   0.524   1.166  0.3642  0.5235 -0.9565
  161MPD2    C1 2503   3.288   0.644   1.240 -0.8348 -0.2309 -0.3265
  161MPD2    C2 2504   3.175   0.718   1.237  0.5703 -0.0465 -0.5136
  161MPD2    C3 2505   3.057   0.667   1.184  0.6132 -0.4494 -0.1643
  161MPD2    C4 2506   3.071   0.547   1.116  0.0246  1.0827  0.5877
  161MPD2    C5 2507   3.190   0.480   1.094  0.6221  0.3160 -0.0257
  161MPD2     H 2508   3.168   0.815   1.283 -0.3202 -1.0394  1.4313
  161MPD2    H1 2509   2.985   0.511   1.061 -0.1415  0.5105  1.2313
  161MPD2    H2 2510   3.391   0.464   1.155  1.4161  1.5201  2.1620
  161MPD2    H3 2511   3.196   0.394   1.028 -2.5461  0.5304 -0.6151
  161MPD2     N 2512   2.939   0.737   1.179  0.1772 -0.2965  0.1760
  161MPD2    H5 2513   2.870   0.692   1.120  1.4904 -0.1313 -1.4914
  161MPD2    N1 2514   3.401   0.708   1.306  0.4293 -0.6422 -0.1804
  161MPD2    H7 2515   3.392   0.804   1.337  0.9429 -0.5411 -0.3510
  162TMC2    C1 2516   1.637   3.128   0.944 -0.5325 -0.5280  0.4687
  162TMC2    C2 2517   1.535   3.211   0.933 -0.2993  0.1964  0.2727
  162TMC2    C3 2518   1.546   3.330   0.992 -0.3459 -0.1911 -0.8320
  162TMC2    C4 2519   1.736   3.146   1.036 -0.1422 -0.2094 -0.6430
  162TMC2    C5 2520   1.739   3.260   1.103  0.4061  0.4121 -0.3759
  162TMC2    C6 2521   1.644   3.353   1.082  0.0316 -0.3319 -0.0898
  162TMC2     C 2522   1.611   2.999   0.893 -0.0194 -0.7625  0.1074
  162TMC2     O 2523   1.522   2.990   0.810 -0.9629 -0.4282  0.4389
  162TMC2     H 2524   1.457   3.199   0.859 -0.3659 -0.7845  0.4929
  162TMC2    H1 2525   1.827   3.087   1.029 -0.0801 -0.4775  2.3279
  162TMC2    H2 2526   1.644   3.447   1.136  1.3214  0.5514 -1.6438
  162TMC2    C7 2527   1.851   3.288   1.191 -0.1391 -0.0110  0.0033
  162TMC2    C8 2528   1.447   3.424   0.957 -0.0431  0.1008  0.2095
  162TMC2    O1 2529   1.878   3.406   1.212 -0.0266  0.1782 -0.4528
  162TMC2    O2 2530   1.379   3.410   0.855 -0.1981  0.1057 -0.1234
  162TMC2    O5 2531   1.402   3.472   1.071 -0.0148  0.1629  0.0919
  162TMC2    H5 2532   1.450   3.437   1.149 -0.5785  0.0159  0.3673
  163MPD2     C 2533   1.679   2.495   0.922  0.0399  0.3456  0.0076
  163MPD2    C1 2534   1.629   2.575   0.816  0.2129 -0.6131  0.5738
  163MPD2    C2 2535   1.618   2.712   0.827  0.0762 -0.0861 -0.1866
  163MPD2    C3 2536   1.659   2.774   0.943 -0.5445 -0.4376 -0.1893
  163MPD2    C4 2537   1.708   2.698   1.049  0.2079  0.5045 -0.1036
  163MPD2    C5 2538   1.728   2.564   1.033 -0.0903 -0.2933 -0.6047
  163MPD2     H 2539   1.582   2.766   0.741 -1.6593 -0.4518  0.3229
  163MPD2    H1 2540   1.730   2.745   1.144 -0.8031  0.2530  0.2445
  163MPD2    H2 2541   1.694   2.388   0.924  2.1375  0.6762  1.1157
  163MPD2    H3 2542   1.773   2.500   1.109 -3.8212 -0.9443  1.0366
  163MPD2     N 2543   1.669   2.908   0.971 -0.7898  0.3355 -0.0145
  163MPD2    H5 2544   1.700   2.928   1.066 -0.1479  1.7618 -0.5384
  163MPD2    N1 2545   1.601   2.510   0.695  0.3251  0.4353  0.6423
  163MPD2    H7 2546   1.631   2.413   0.691 -0.4939  0.2105 -0.0566
  164TMC2    C1 2547   2.635   1.710  11.400  0.4977  0.0439 -0.4588
  164TMC2    C2 2548   2.741   1.784  11.427  0.2687 -0.2107  0.5704
  164TMC2    C3 2549   2.729   1.916  11.451  0.5723 -0.0251 -0.8999
  164TMC2    C4 2550   2.513   1.770  11.415 -0.1908 -0.4025  0.0199
  164TMC2    C5 2551   2.500   1.909  11.441 -0.6421  0.3145 -0.7955
  164TMC2    C6 2552   2.614   1.980  11.454 -0.1438 -0.0245 -0.5068
  164TMC2     C 2553   2.644   1.565  11.377  0.0126  0.6122 -0.5155
  164TMC2     O 2554   2.548   1.494  11.408  0.6646 -0.4511 -0.7402
  164TMC2     H 2555   2.832   1.725  11.437  0.8075  0.6618  0.8524
  164TMC2    H1 2556   2.424   1.709  11.408  0.2059 -1.2011  1.9302
  164TMC2    H2 2557   2.615   2.085  11.482  0.5846  0.0720 -0.9005
  164TMC2    C7 2558   2.365   1.970  11.448 -0.1454 -0.9060 -0.7129
  164TMC2    C8 2559   2.844   1.999  11.449 -0.5604  0.2272 -0.4988
  164TMC2    O1 2560   2.272   1.926  11.375 -0.0909 -0.0569 -0.3752
  164TMC2    O2 2561   2.841   2.118  11.478  0.7749  0.0155  0.2114
  164TMC2    O5 2562   2.936   1.955  11.362 -0.0875 -0.3973  0.2034
  164TMC2    H5 2563   2.911   1.876  11.310 -0.7570  0.9840 -1.5579
  165TMC2    C1 2564   3.573   0.111   1.163  0.0387  0.0404 -0.1425
  165TMC2    C2 2565   3.615   4.727   1.121 -0.1650 -0.3921  0.4307
  165TMC2    C3 2566   3.742   4.685   1.163 -1.0912  0.0441 -0.2173
  165TMC2    C4 2567   3.635   0.189   1.255 -0.2194  0.0108 -0.1739
  165TMC2    C5 2568   3.764   0.144   1.278 -0.3699 -0.2155 -0.6727
  165TMC2    C6 2569   3.823   0.029   1.233  0.1877 -0.4731  0.1791
  165TMC2     C 2570   3.438   0.154   1.135  0.0639 -0.3325 -0.3251
  165TMC2     O 2571   3.381   0.227   1.220  0.8162  0.0881 -0.7397
  165TMC2     H 2572   3.547   4.662   1.068  1.8156 -2.5371  0.5501
  165TMC2    H1 2573   3.589   0.285   1.277  0.2819  0.5472 -1.4604
  165TMC2    H2 2574   3.926   0.010   1.259 -0.3306 -1.1169  1.7862
  165TMC2    C7 2575   3.842   0.224   1.370 -0.2656 -0.4733  0.0261
  165TMC2    C8 2576   3.789   4.552   1.129  0.8093  0.3625  0.3772
  165TMC2    O1 2577   3.961   0.204   1.376  0.2456 -0.0325 -0.7245
  165TMC2    O2 2578   3.748   4.490   1.032  0.5192 -0.5263  0.2750
  165TMC2    O5 2579   3.855   4.495   1.230  0.1632  0.2375  0.1510
  165TMC2    H5 2580   3.873   4.555   1.306  0.6544 -0.0984  0.3025
  166MPD2     C 2581   2.999   0.089   0.880  0.2867 -0.3553 -1.0397
  166MPD2    C1 2582   3.021   0.123   1.009  0.0656 -0.3128 -0.9792
  166MPD2    C2 2583   3.149   0.130   1.061 -0.0014  0.3341 -0.2299
  166MPD2    C3 2584   3.255   0.095   0.980  0.3785 -0.1271  0.1449
  166MPD2    C4 2585   3.223   0.037   0.862  0.0192  0.3900 -0.3442
  166MPD2    C5 2586   3.100   0.027   0.814 -0.2198  0.4074 -0.5268
  166MPD2     H 2587   3.163   0.172   1.160  0.6248 -0.0468 -0.1554
  166MPD2    H1 2588   3.302   4.731   0.801 -1.6832 -1.2320 -1.3966
  166MPD2    H2 2589   2.899   0.090   0.840  0.2370  0.6774 -0.8999
  166MPD2    H3 2590   3.091   4.720   0.715 -0.7518 -1.9204  0.5714
  166MPD2     N 2591   3.392   0.096   1.023  0.5484 -0.2043  0.1595
  166MPD2    H5 2592   3.452   0.051   0.954  0.2306  0.5246 -0.5837
  166MPD2    N1 2593   2.903   0.145   1.082 -0.5917 -0.3807  0.1384
  166MPD2    H7 2594   2.814   0.137   1.033 -1.4329 -0.5059  1.6989
  167TMC2    C1 2595   1.497   1.951  12.763 -0.3262 -0.2422  0.2028
  167TMC2    C2 2596   1.407   1.968  12.864  0.5649 -0.0307  0.3179
  167TMC2    C3 2597   1.359   1.852  12.910  0.4040 -0.1434 -0.7339
  167TMC2    C4 2598   1.565   1.835  12.742 -0.3269 -0.0697  0.2053
  167TMC2    C5 2599   1.521   1.724  12.800  0.2443  0.0904  0.8434
  167TMC2    C6 2600   1.408   1.728  12.877  0.2690  0.6673 -0.2414
  167TMC2     C 2601   1.477   2.050  12.657  0.9743  0.1820 -0.2847
  167TMC2     O 2602   1.396   2.138  12.678 -0.2822  0.6406 -0.0759
  167TMC2     H 2603   1.353   2.056  12.897 -0.1626 -0.3412 -0.0592
  167TMC2    H1 2604   1.651   1.825  12.677  1.3693  2.0716  2.0917
  167TMC2    H2 2605   1.388   1.641  12.939  0.7331  0.8702  0.1886
  167TMC2    C7 2606   1.566   1.591  12.768 -0.0505 -0.2955  0.7814
  167TMC2    C8 2607   1.248   1.864  12.999  0.4961 -0.4841  0.1368
  167TMC2    O1 2608   1.487   1.502  12.798  0.1343  0.0106  0.6708
  167TMC2    O2 2609   1.179   1.959  13.037  0.0057 -0.3095  0.1018
  167TMC2    O5 2610   1.203   1.740  13.001  0.4628  0.4572 -0.2351
  167TMC2    H5 2611   1.108   1.726  13.023  0.8376 -1.0054  0.4813
  168MPD2     C 2612   1.537   2.208  12.412  0.3391  0.0658  0.3383
  168MPD2    C1 2613   1.597   2.091  12.445  0.2390  1.2270  0.3892
  168MPD2    C2 2614   1.700   2.042  12.365  0.2851  0.1906 -0.7286
  168MPD2    C3 2615   1.752   2.121  12.265 -0.1630 -0.1582 -0.6848
  168MPD2    C4 2616   1.687   2.234  12.234  0.4599  0.1899 -0.7479
  168MPD2    C5 2617   1.583   2.285  12.307 -0.6675 -0.7491  0.6796
  168MPD2     H 2618   1.740   1.942  12.377 -2.1720 -0.4552  1.9121
  168MPD2    H1 2619   1.729   2.296  12.156 -1.8186 -0.0792 -2.1836
  168MPD2    H2 2620   1.460   2.247  12.479  0.6139  0.0018  0.6916
  168MPD2    H3 2621   1.548   2.386  12.289 -1.8587 -1.2549  0.1722
  168MPD2     N 2622   1.857   2.068  12.190 -0.1623  0.2728 -0.2068
  168MPD2    H5 2623   1.899   1.980  12.219  0.4676  0.6584  0.0435
  168MPD2    N1 2624   1.565   2.018  12.561 -0.2050 -0.0048  0.7045
  168MPD2    H7 2625   1.624   1.935  12.568 -1.1416 -0.6674  0.7209
  169MPD1     C 2626   3.143   1.933   9.317 -0.1484  0.1000 -0.1231
  169MPD1    C1 2627   3.197   1.809   9.284 -0.1932  0.6783  0.3444
  169MPD1    C2 2628   3.317   1.770   9.351  0.1240 -0.1469 -0.0397
  169MPD1    C3 2629   3.356   1.838   9.469 -0.2443 -0.2455 -0.1700
  169MPD1    C4 2630   3.285   1.956   9.505 -0.0755  0.2247  0.3759
  169MPD1    C5 2631   3.186   2.005   9.425 -0.1890  0.9539  0.8596
  169MPD1     H 2632   3.369   1.684   9.309 -0.0347  0.2800 -1.1178
  169MPD1    H1 2633   3.304   2.024   9.587 -3.7299  1.2692  0.3543
  169MPD1    H2 2634   3.060   1.978   9.264  0.4914  1.8685  0.3578
  169MPD1    H3 2635   3.143   2.100   9.454 -2.6856  0.6415 -1.8389
  169MPD1     N 2636   3.453   1.773   9.539 -0.2691  0.0608  0.7201
  169MPD1    H5 2637   3.495   1.687   9.504 -1.5034 -0.1616 -0.2051
  169MPD1    N1 2638   3.154   1.747   9.165  0.1449  0.4158 -0.6652
  169MPD1    H6 2639   3.052   1.741   9.163 -0.1258  3.8973  2.8087
  169MPD1    H7 2640   3.184   1.649   9.169  2.0259  1.0848  1.8060
  170MPD1     C 2641   1.918   3.971  12.178  0.2295 -0.5806  0.1770
  170MPD1    C1 2642   1.885   3.883  12.278  0.0931 -0.3140  0.4060
  170MPD1    C2 2643   1.936   3.912  12.402 -0.1804  0.2404  0.4343
  170MPD1    C3 2644   2.001   4.034  12.427 -0.2809  0.2559  0.2251
  170MPD1    C4 2645   2.032   4.119  12.323  0.0522  0.0924 -0.2821
  170MPD1    C5 2646   1.989   4.085  12.196 -0.4969 -0.3445 -0.2530
  170MPD1     H 2647   1.907   3.856  12.490  2.3401 -1.2682  0.3041
  170MPD1    H1 2648   2.099   4.203  12.338  1.5057 -1.6229  2.8313
  170MPD1    H2 2649   1.877   3.957  12.078  0.3640  1.8343 -0.2270
  170MPD1    H3 2650   1.993   4.153  12.111  0.1582  0.0787  0.1139
  170MPD1     N 2651   2.043   4.056  12.562 -0.2291  0.5396  0.3332
  170MPD1    H5 2652   2.033   3.983  12.632  0.8520 -1.0476 -1.1683
  170MPD1    N1 2653   1.838   3.754  12.245 -0.1902 -0.1576  0.0202
  170MPD1    H6 2654   1.762   3.771  12.179  1.4160  4.3425 -0.6740
  170MPD1    H7 2655   1.810   3.697  12.324 -0.6247  1.1439  0.8079
  171MPD1     C 2656   1.224   0.934  15.102 -0.2746  0.1263 -0.0234
  171MPD1    C1 2657   1.197   0.807  15.061  0.4372  0.2690 -0.7766
  171MPD1    C2 2658   1.141   0.714  15.155 -0.1003 -0.0440  0.0274
  171MPD1    C3 2659   1.117   0.739  15.288  0.3988 -0.4739  0.7760
  171MPD1    C4 2660   1.137   0.873  15.315  0.4695  0.5892  0.0490
  171MPD1    C5 2661   1.195   0.967  15.234 -0.3344 -0.4277  0.4009
  171MPD1     H 2662   1.116   0.617  15.113  0.9723  1.1613 -3.4259
  171MPD1    H1 2663   1.103   0.896  15.415  0.7407  1.3381 -0.0371
  171MPD1    H2 2664   1.278   1.006  15.040  0.1800 -0.3132 -0.1449
  171MPD1    H3 2665   1.217   1.062  15.281 -0.1098  0.7019 -1.9839
  171MPD1     N 2666   1.079   0.655  15.397  0.2681 -0.0430 -0.1139
  171MPD1    H5 2667   1.080   0.680  15.495 -0.3049  3.4950 -1.0139
  171MPD1    N1 2668   1.232   0.772  14.925 -0.0669  0.2570 -0.3263
  171MPD1    H6 2669   1.203   0.846  14.860 -1.7558  0.8050  1.0400
  171MPD1    H7 2670   1.187   0.686  14.896 -0.3075 -0.6214  2.6648
  172MPD1     C 2671   0.119   4.349   0.691 -0.4242  0.2935  0.0069
  172MPD1    C1 2672   0.062   4.479   0.674  0.6986 -0.0257  0.3456
  172MPD1    C2 2673   0.136   4.568   0.597  0.7092  0.4963 -0.2408
  172MPD1    C3 2674   0.239   4.531   0.522  0.7573 -0.6097  0.0662
  172MPD1    C4 2675   0.294   4.408   0.535 -0.4968  0.2561 -0.5940
  172MPD1    C5 2676   0.234   4.323   0.625  0.5204  0.4694 -0.2205
  172MPD1     H 2677   0.108   4.673   0.595  1.8684  0.7830 -1.4339
  172MPD1    H1 2678   0.375   4.370   0.472  0.5454  2.8758 -0.8597
  172MPD1    H2 2679   0.078   4.263   0.742  0.1943  0.4868  0.8517
  172MPD1    H3 2680   0.271   4.222   0.638  1.0413  0.6327 -0.4418
  172MPD1     N 2681   0.299   4.603   0.418  0.0884 -0.2556  0.5254
  172MPD1    H5 2682   0.383   4.563   0.378 -0.1967 -0.3387 -0.0037
  172MPD1    N1 2683   4.697   4.522   0.763 -0.2832  0.0786 -0.2437
  172MPD1    H6 2684   4.644   4.592   0.711  0.1131 -0.0010 -0.7524
  172MPD1    H7 2685   4.633   4.448   0.790  0.5999 -1.1655 -1.5569
  173MPD1     C 2686   1.748   4.641  13.761  0.2616  0.2460 -0.2279
  173MPD1    C1 2687   1.837   4.535  13.770  0.1074 -0.8125 -0.3884
  173MPD1    C2 2688   1.824   4.448  13.872  0.2661 -0.0980 -0.0646
  173MPD1    C3 2689   1.718   4.451  13.957  0.6605  0.4498  0.5220
  173MPD1    C4 2690   1.626   4.550  13.934  0.0462  0.2657  0.0844
  173MPD1    C5 2691   1.644   4.644  13.845 -0.0795 -0.3440  0.2810
  173MPD1     H 2692   1.903   4.374  13.876  0.3308 -0.1275 -2.0820
  173MPD1    H1 2693   1.539   4.545  13.999 -1.1306  1.6562 -1.3867
  173MPD1    H2 2694   1.753   4.708  13.676 -0.7646  0.4785 -0.1096
  173MPD1    H3 2695   1.573   4.726  13.840  0.6229  0.1977 -0.8544
  173MPD1     N 2696   1.714   4.349  14.056  0.7394  0.8008  0.5427
  173MPD1    H5 2697   1.787   4.279  14.057  0.0356  0.0615  0.2671
  173MPD1    N1 2698   1.952   4.531  13.689  0.5575 -0.6380  0.0315
  173MPD1    H6 2699   1.934   4.575  13.600 -1.0180 -0.3109  0.5096
  173MPD1    H7 2700   1.974   4.437  13.655 -0.4555 -0.2417 -1.6908
  174MPD1     C 2701   2.396   3.951  14.531  0.1322 -1.3717 -0.2946
  174MPD1    C1 2702   2.375   4.075  14.483 -0.1316  0.0761  0.2791
  174MPD1    C2 2703   2.240   4.102  14.463 -0.1293 -0.0528  0.0866
  174MPD1    C3 2704   2.142   4.029  14.522  0.1748  0.1568 -0.4361
  174MPD1    C4 2705   2.179   3.915  14.588 -0.2234  0.5116 -0.1084
  174MPD1    C5 2706   2.303   3.865  14.581 -0.2764 -0.2242 -0.2819
  174MPD1     H 2707   2.229   4.190  14.400  2.4497 -0.0701 -0.3993
  174MPD1    H1 2708   2.110   3.856  14.647 -0.8669 -1.0177 -2.3644
  174MPD1    H2 2709   2.493   3.903  14.534  1.4361  1.4147  1.8278
  174MPD1    H3 2710   2.321   3.769  14.626  2.9999  1.1844  1.4356
  174MPD1     N 2711   2.003   4.050  14.500 -0.0898  0.3061  0.0628
  174MPD1    H5 2712   1.939   3.979  14.535  2.3772 -2.3080 -0.7178
  174MPD1    N1 2713   2.483   4.145  14.428  0.0243  0.0847  0.1373
  174MPD1    H6 2714   2.475   4.246  14.423 -2.4884 -0.0811  0.7983
  174MPD1    H7 2715   2.556   4.115  14.492 -0.1565 -0.4627  0.0857
  175MPD1     C 2716   4.374   0.545  15.333 -0.0076 -0.1244 -0.8265
  175MPD1    C1 2717   4.500   0.600  15.357  0.1449  0.3002  0.6008
  175MPD1    C2 2718   4.526   0.620  15.488  0.5045  0.4138  0.6386
  175MPD1    C3 2719   4.429   0.621  15.587 -0.5994 -0.0116  0.1489
  175MPD1    C4 2720   4.305   0.581  15.559 -0.0310 -0.4242 -0.4156
  175MPD1    C5 2721   4.276   0.545  15.430  0.4850  0.6247  0.1976
  175MPD1     H 2722   4.628   0.653  15.503  0.3204  1.3844 -0.2466
  175MPD1    H1 2723   4.221   0.588  15.626  1.1795 -2.3149  1.2848
  175MPD1    H2 2724   4.340   0.517  15.233 -1.1835  1.4507 -0.8657
  175MPD1    H3 2725   4.177   0.525  15.392  0.9034 -0.2694 -0.4366
  175MPD1     N 2726   4.460   0.652  15.718 -0.1496  0.6341 -0.2904
  175MPD1    H5 2727   4.384   0.652  15.785 -0.7986  2.3840 -1.0207
  175MPD1    N1 2728   4.599   0.601  15.263  0.6083 -0.4762 -0.2339
  175MPD1    H6 2729   4.682   0.653  15.290  1.1147 -3.1970  3.3863
  175MPD1    H7 2730   4.638   0.508  15.248  1.9279 -0.1456  1.1744
  176MPD1     C 2731   2.301   3.329  17.567 -0.2565  0.4929 -0.1481
  176MPD1    C1 2732   2.273   3.385  17.447 -0.7450 -0.0128  0.2780
  176MPD1    C2 2733   2.321   3.512  17.421 -0.0993 -0.2788 -0.3552
  176MPD1    C3 2734   2.366   3.598  17.517 -0.1822  0.1263 -0.2480
  176MPD1    C4 2735   2.375   3.546  17.649 -0.0602 -0.3674  0.3019
  176MPD1    C5 2736   2.342   3.411  17.667  0.1084 -0.5532 -0.1631
  176MPD1     H 2737   2.323   3.535  17.315  1.4591 -0.3745 -0.3412
  176MPD1    H1 2738   2.393   3.600  17.742  0.3282  0.4007 -0.2122
  176MPD1    H2 2739   2.296   3.224  17.594  1.2870  0.6087  0.5931
  176MPD1    H3 2740   2.346   3.363   0.016  1.5960 -0.6961 -0.2902
  176MPD1     N 2741   2.402   3.733  17.486 -0.6907  0.3895 -0.0943
  176MPD1    H5 2742   2.414   3.749  17.386  1.2527  0.7043  0.1885
  176MPD1    N1 2743   2.235   3.305  17.340 -0.3932  0.1121 -1.1205
  176MPD1    H6 2744   2.185   3.365  17.274 -0.6143  2.0118  0.7780
  176MPD1    H7 2745   2.162   3.240  17.368  1.0957 -0.7302  0.7649
  177MPD1     C 2746   0.307   3.233   9.147 -0.4641  0.1259 -0.7409
  177MPD1    C1 2747   0.249   3.203   9.267  0.0746 -0.3496  0.8964
  177MPD1    C2 2748   0.184   3.086   9.284  0.2691 -0.8962 -0.9745
  177MPD1    C3 2749   0.128   3.020   9.179  0.0072 -0.1993 -1.1824
  177MPD1    C4 2750   0.174   3.054   9.051  0.2750  0.1367 -0.4781
  177MPD1    C5 2751   0.269   3.154   9.040 -0.0399 -0.0313 -0.0056
  177MPD1     H 2752   0.161   3.042   9.380  1.1949  0.9697  0.0947
  177MPD1    H1 2753   0.151   3.012   8.954 -1.3406  0.4669 -0.2530
  177MPD1    H2 2754   0.383   3.308   9.132  0.2646 -0.3817  0.4780
  177MPD1    H3 2755   0.310   3.184   8.944 -2.4968  0.9014 -0.7647
  177MPD1     N 2756   0.030   2.916   9.201  0.0987 -0.2445 -0.0051
  177MPD1    H5 2757   0.013   2.892   9.298  1.4572 -1.3049 -0.0182
  177MPD1    N1 2758   0.282   3.276   9.377 -0.0606  0.1501 -0.4253
  177MPD1    H6 2759   0.211   3.281   9.450 -1.2944 -2.0670 -1.4572
  177MPD1    H7 2760   0.288   3.372   9.345  0.7423  0.4265  0.5722
  178MPD1     C 2761   2.750   3.157   0.049  0.3162 -0.4392 -0.2542
  178MPD1    C1 2762   2.709   3.292   0.062  0.0614 -0.2467 -0.0889
  178MPD1    C2 2763   2.701   3.361  17.688 -0.2627  0.2104  0.2126
  178MPD1    C3 2764   2.720   3.295  17.567 -0.6260  0.0636 -0.6263
  178MPD1    C4 2765   2.757   3.160  17.560  0.1511 -0.1128  0.3064
  178MPD1    C5 2766   2.773   3.094  17.680  0.3221  0.0977  0.5077
  178MPD1     H 2767   2.653   3.457  17.677  1.3303  0.6055 -3.0167
  178MPD1    H1 2768   2.782   3.104  17.470 -1.6466 -1.3153  0.5521
  178MPD1    H2 2769   2.758   3.100   0.141  1.3850  1.0133  0.5509
  178MPD1    H3 2770   2.817   2.995  17.685  2.2585  0.8173 -2.2401
  178MPD1     N 2771   2.706   3.365  17.453  0.4173  0.1511  0.0705
  178MPD1    H5 2772   2.721   3.312  17.367  0.7318 -0.8836  0.7616
  178MPD1    N1 2773   2.660   3.343   0.179  0.1989  0.5367  0.0216
  178MPD1    H6 2774   2.720   3.310   0.254  1.1399  1.6647 -0.2339
  178MPD1    H7 2775   2.654   3.445   0.182  1.2396  0.6300 -0.8587
  179MPD1     C 2776   2.005   2.250  15.196 -0.1612  0.1407  0.6373
  179MPD1    C1 2777   2.095   2.179  15.275 -0.1504  0.8959 -0.1040
  179MPD1    C2 2778   2.066   2.048  15.301 -0.8698 -0.0626  0.2828
  179MPD1    C3 2779   1.971   1.971  15.235 -0.4486  0.0220  0.3650
  179MPD1    C4 2780   1.888   2.045  15.155 -0.3823  0.7671 -0.2400
  179MPD1    C5 2781   1.907   2.177  15.141 -0.6231 -0.4782  0.9127
  179MPD1     H 2782   2.127   2.006  15.381  0.6315 -0.9110 -1.3054
  179MPD1    H1 2783   1.815   1.995  15.092 -1.0812  0.1294  1.0744
  179MPD1    H2 2784   2.014   2.358  15.193  0.4181  0.1985  4.5920
  179MPD1    H3 2785   1.840   2.220  15.067  2.3242 -1.0304 -2.0971
  179MPD1     N 2786   1.953   1.830  15.258  0.4460  0.2088  0.0126
  179MPD1    H5 2787   1.872   1.791  15.210  0.3534  0.6203 -0.1611
  179MPD1    N1 2788   2.190   2.257  15.350 -0.0366 -0.0861  0.0020
  179MPD1    H6 2789   2.276   2.214  15.382 -2.2006 -2.9306  2.0354
  179MPD1    H7 2790   2.224   2.337  15.297 -2.6714  0.5548 -0.7493
  180MPD1     C 2791   1.158   3.094  14.983 -0.8495 -0.1589 -0.7988
  180MPD1    C1 2792   1.255   3.162  14.918  0.4779  0.4870 -0.1220
  180MPD1    C2 2793   1.301   3.119  14.797  0.4593 -0.0862 -0.0296
  180MPD1    C3 2794   1.260   2.993  14.748  0.9732  0.4316  0.6506
  180MPD1    C4 2795   1.162   2.922  14.813 -0.0590 -0.4347  0.4714
  180MPD1    C5 2796   1.110   2.980  14.928  0.0640  0.1280 -0.9111
  180MPD1     H 2797   1.372   3.184  14.746  2.3348 -1.1977  1.1765
  180MPD1    H1 2798   1.120   2.830  14.774 -2.6675  0.7806  0.4123
  180MPD1    H2 2799   1.110   3.134  15.072 -0.7035 -0.8142 -0.4214
  180MPD1    H3 2800   1.030   2.940  14.990 -1.5534  1.6621 -2.0289
  180MPD1     N 2801   1.323   2.953  14.623  0.1184 -0.4744 -0.7505
  180MPD1    H5 2802   1.406   3.001  14.588 -1.0221  1.5968 -0.6006
  180MPD1    N1 2803   1.298   3.287  14.960  0.2621 -0.2186 -0.4412
  180MPD1    H6 2804   1.387   3.318  14.921 -0.2201 -0.2006 -1.5470
  180MPD1    H7 2805   1.295   3.301  15.060 -1.7389  1.5106 -0.7468
  181MPD1     C 2806   4.157   4.677  11.066 -0.0672  0.7714  0.2911
  181MPD1    C1 2807   4.205   0.064  11.036  0.0669 -0.2725 -0.1954
  181MPD1    C2 2808   4.246   0.093  10.906  0.2583  0.2774  0.6268
  181MPD1    C3 2809   4.257   4.730  10.815  0.0952 -0.0994  0.1780
  181MPD1    C4 2810   4.225   4.608  10.853 -0.1444  0.3300  0.3083
  181MPD1    C5 2811   4.173   4.580  10.973 -0.0827 -0.2324  0.1598
  181MPD1     H 2812   4.260   0.198  10.881 -0.4713  0.4577  0.9955
  181MPD1    H1 2813   4.217   4.534  10.773  0.5830  0.2898  0.2704
  181MPD1    H2 2814   4.124   4.652  11.166 -2.1754 -2.1669 -1.1555
  181MPD1    H3 2815   4.134   4.479  10.983  0.9443 -0.5857  0.6516
  181MPD1     N 2816   4.314   0.001  10.688  0.2941  0.0650 -0.4521
  181MPD1    H5 2817   4.320   4.656  10.630  4.2602  2.4131 -3.4432
  181MPD1    N1 2818   4.186   0.170  11.128  0.0808 -0.2632  0.1653
  181MPD1    H6 2819   4.252   0.242  11.098 -0.0730  0.8296  2.4876
  181MPD1    H7 2820   4.204   0.146  11.225  2.1492 -0.7596 -0.3446
  182MPD1     C 2821   1.062   4.080   1.443 -0.0648 -0.0032  0.1629
  182MPD1    C1 2822   1.059   4.204   1.394  0.0436  0.3231 -0.2271
  182MPD1    C2 2823   0.942   4.249   1.332 -0.7939  0.6839  0.3953
  182MPD1    C3 2824   0.835   4.162   1.316 -0.3855  0.5008  0.9721
  182MPD1    C4 2825   0.838   4.032   1.366  0.3252  0.8640 -0.3776
  182MPD1    C5 2826   0.959   3.993   1.425  0.0958  0.2462 -0.5589
  182MPD1     H 2827   0.944   4.352   1.302 -1.2950  0.2571 -1.0844
  182MPD1    H1 2828   0.762   3.955   1.358  0.1410  0.9357  0.6601
  182MPD1    H2 2829   1.153   4.035   1.483 -0.3471 -1.3472 -0.6870
  182MPD1    H3 2830   0.973   3.895   1.468  1.3954  0.2439 -0.9935
  182MPD1     N 2831   0.706   4.196   1.265 -0.1585  0.9027 -0.6059
  182MPD1    H5 2832   0.639   4.123   1.285  2.1018 -1.4564 -1.6925
  182MPD1    N1 2833   1.161   4.298   1.433  0.1429  0.4242 -0.3293
  182MPD1    H6 2834   1.162   4.377   1.369 -2.3010 -0.4031 -1.3940
  182MPD1    H7 2835   1.255   4.259   1.431 -0.3917 -0.9527  0.8579
  183MPD1     C 2836   1.219   4.588   9.396  0.3573  0.2413  0.6093
  183MPD1    C1 2837   1.203   4.513   9.506  0.1925  0.4067 -0.2985
  183MPD1    C2 2838   1.071   4.495   9.558 -0.7762 -0.4432 -0.1164
  183MPD1    C3 2839   0.962   4.547   9.493  0.2618  0.0334 -0.6619
  183MPD1    C4 2840   0.986   4.619   9.380 -1.1120  0.6677  0.1721
  183MPD1    C5 2841   1.113   4.652   9.343  1.6689  0.0555 -0.5615
  183MPD1     H 2842   1.060   4.434   9.647  0.4490 -0.1662  0.2316
  183MPD1    H1 2843   0.912   4.666   9.316  0.9939  1.0369 -1.9951
  183MPD1    H2 2844   1.318   4.612   9.357  0.7394  1.7037  2.4786
  183MPD1    H3 2845   1.130   4.715   9.256  0.3861  1.1486 -0.0233
  183MPD1     N 2846   0.833   4.534   9.553  0.0371 -0.1376  0.9439
  183MPD1    H5 2847   0.834   4.503   9.649 -1.4983  0.7589  1.2510
  183MPD1    N1 2848   1.312   4.446   9.561 -0.3481  0.1895  0.4749
  183MPD1    H6 2849   1.393   4.506   9.550  0.3134 -1.0758 -1.5010
  183MPD1    H7 2850   1.299   4.427   9.660  1.5186 -0.4155  0.5998
  184MPD1     C 2851   4.102   2.649  10.583 -0.6095  0.4435 -0.1691
  184MPD1    C1 2852   4.023   2.696  10.477 -0.4813  0.0570  0.7216
  184MPD1    C2 2853   4.089   2.750  10.362  0.7679  0.9490 -0.1725
  184MPD1    C3 2854   4.221   2.732  10.345  0.9046 -0.0308 -0.4491
  184MPD1    C4 2855   4.293   2.677  10.451 -0.2122 -0.1597 -0.2779
  184MPD1    C5 2856   4.235   2.652  10.571  0.0813 -0.4167 -0.0471
  184MPD1     H 2857   4.033   2.795  10.280  2.5223 -1.0325 -2.4862
  184MPD1    H1 2858   4.399   2.659  10.440 -0.1996 -0.3048  0.0992
  184MPD1    H2 2859   4.062   2.620  10.679 -2.0453  0.6240 -0.7242
  184MPD1    H3 2860   4.298   2.613  10.650  0.7189 -0.6813 -0.6868
  184MPD1     N 2861   4.290   2.769  10.228  0.6557  0.2363 -0.2552
  184MPD1    H5 2862   4.382   2.730  10.210 -0.2728 -2.7092  1.5259
  184MPD1    N1 2863   3.882   2.713  10.499 -0.0872  0.5652  0.1154
  184MPD1    H6 2864   3.848   2.629  10.545 -1.4798  0.0935 -1.7791
  184MPD1    H7 2865   3.836   2.728  10.409 -1.9737  1.8653  1.3081
  185MPD1     C 2866   4.405   3.275   9.248  0.3685  0.2304 -0.5439
  185MPD1    C1 2867   4.318   3.312   9.345 -0.1063 -0.0361  0.5040
  185MPD1    C2 2868   4.327   3.258   9.474 -0.1531 -0.1170  0.2427
  185MPD1    C3 2869   4.432   3.169   9.501  0.0763 -0.5217 -0.2656
  185MPD1    C4 2870   4.521   3.145   9.403  0.8576 -0.3406 -0.7071
  185MPD1    C5 2871   4.507   3.199   9.277 -0.4476  0.0303 -0.1671
  185MPD1     H 2872   4.249   3.280   9.545  0.3754 -0.7630  1.0200
  185MPD1    H1 2873   4.607   3.080   9.413  0.5887 -0.6414 -0.3666
  185MPD1    H2 2874   4.388   3.309   9.146 -2.5323  3.3548  0.9710
  185MPD1    H3 2875   4.581   3.174   9.202 -0.1477 -1.8187  0.7474
  185MPD1     N 2876   4.446   3.097   9.620 -0.2429  0.0618  0.0148
  185MPD1    H5 2877   4.533   3.047   9.637 -0.4662  0.9392  3.6939
  185MPD1    N1 2878   4.208   3.384   9.301  0.2691  0.6289  0.4068
  185MPD1    H6 2879   4.165   3.434   9.379  0.7475  0.4055  0.8160
  185MPD1    H7 2880   4.227   3.458   9.233  1.8164  1.1391  1.3912
  186MPD1     C 2881   2.306   1.277  16.254  0.4467 -0.7613 -0.2092
  186MPD1    C1 2882   2.297   1.400  16.194  0.0824 -0.1135  0.6983
  186MPD1    C2 2883   2.377   1.502  16.240 -0.4083 -0.2513  1.0276
  186MPD1    C3 2884   2.474   1.479  16.337 -0.3892  0.7233 -0.1303
  186MPD1    C4 2885   2.492   1.350  16.389  0.0467  0.1175 -0.7092
  186MPD1    C5 2886   2.406   1.247  16.344  0.1471  0.0363  0.3482
  186MPD1     H 2887   2.357   1.604  16.209  0.6289 -0.9453 -2.0223
  186MPD1    H1 2888   2.575   1.325  16.454 -0.9884 -0.5740  0.3244
  186MPD1    H2 2889   2.241   1.193  16.233 -0.6618  0.0846 -0.1446
  186MPD1    H3 2890   2.390   1.153  16.396 -1.7578 -0.3888 -0.9914
  186MPD1     N 2891   2.552   1.583  16.395  0.7335  0.5527 -0.2491
  186MPD1    H5 2892   2.611   1.563  16.475  0.6816 -1.0775 -0.6303
  186MPD1    N1 2893   2.195   1.427  16.107  1.0739  0.5750  0.8200
  186MPD1    H6 2894   2.151   1.344  16.069  0.1853  0.2580  2.5596
  186MPD1    H7 2895   2.216   1.493  16.032  0.4058 -0.4940 -0.3108
  187MPD1     C 2896   2.529   0.176  17.553  0.0063  0.0826 -0.9662
  187MPD1    C1 2897   2.523   0.041  17.546  0.2249  0.0846 -0.0367
  187MPD1    C2 2898   2.506   4.717  17.423 -0.2623 -0.9456 -0.4082
  187MPD1    C3 2899   2.509   0.057  17.301 -0.2391  0.4976  0.2123
  187MPD1    C4 2900   2.519   0.192  17.317 -0.0611 -0.6006  0.1307
  187MPD1    C5 2901   2.520   0.246  17.440 -0.0620 -0.0649  0.4265
  187MPD1     H 2902   2.496   4.610  17.412 -1.9781 -0.7931 -0.2832
  187MPD1    H1 2903   2.509   0.260  17.233 -2.6665  0.7448  1.5207
  187MPD1    H2 2904   2.539   0.233  17.645  0.3532  0.4915 -1.2586
  187MPD1    H3 2905   2.521   0.353  17.456 -0.0430  0.2259 -1.5754
  187MPD1     N 2906   2.489   0.009  17.167 -0.2891  0.2502 -0.2359
  187MPD1    H5 2907   2.492   0.085  17.099  0.4522 -1.4718 -2.1440
  187MPD1    N1 2908   2.517   4.701  17.667  0.5880 -0.3697  0.2035
  187MPD1    H6 2909   2.566   4.737  17.748  0.8081  1.9779 -0.9865
  187MPD1    H7 2910   2.544   4.605  17.647 -1.4001 -1.3861  2.4196
  188MPD1     C 2911   1.989   3.647  10.486 -0.7965 -0.2513 -0.0535
  188MPD1    C1 2912   1.902   3.626  10.378 -1.1375 -0.2729 -0.0243
  188MPD1    C2 2913   1.869   3.501  10.333  0.0687  0.0490 -0.4414
  188MPD1    C3 2914   1.929   3.390  10.384  0.1260  0.0727 -0.3598
  188MPD1    C4 2915   2.002   3.406  10.501  0.5759  0.2152 -0.2452
  188MPD1    C5 2916   2.039   3.534  10.539 -0.6107 -0.5157 -0.1631
  188MPD1     H 2917   1.798   3.494  10.252  2.4390 -0.8350 -2.4401
  188MPD1    H1 2918   2.038   3.318  10.553  0.5348 -0.3385 -1.1552
  188MPD1    H2 2919   2.031   3.743  10.510 -0.9504 -0.3340  0.5439
  188MPD1    H3 2920   2.105   3.554  10.623 -1.7761  1.1612  0.3594
  188MPD1     N 2921   1.912   3.263  10.331 -0.0509  0.2039 -0.4805
  188MPD1    H5 2922   1.936   3.180  10.385 -1.8152  0.6011  0.9255
  188MPD1    N1 2923   1.837   3.744  10.334  0.1790  0.2950  0.1090
  188MPD1    H6 2924   1.822   3.742  10.234 -1.0679 -1.5106  0.3260
  188MPD1    H7 2925   1.901   3.820  10.354 -0.0804  1.3266 -2.9807
  189MPD1     C 2926   3.917   0.239   0.537  0.1262 -0.4450 -0.2662
  189MPD1    C1 2927   3.840   0.248   0.419 -0.1569 -0.3189 -0.1165
  189MPD1    C2 2928   3.736   0.334   0.423  0.3803 -0.0284 -0.2834
  189MPD1    C3 2929   3.723   0.433   0.515  0.0388  0.1698  0.4482
  189MPD1    C4 2930   3.814   0.442   0.614 -0.4864 -0.1853  0.2962
  189MPD1    C5 2931   3.900   0.335   0.636 -0.0543  0.2995  0.4886
  189MPD1     H 2932   3.652   0.320   0.356  0.5034  0.0796 -0.4597
  189MPD1    H1 2933   3.810   0.517   0.692  1.8199 -3.2399  3.3366
  189MPD1    H2 2934   3.995   0.164   0.539 -1.2310 -1.8389  0.1868
  189MPD1    H3 2935   3.959   0.319   0.726 -1.1196  0.7896  1.2709
  189MPD1     N 2936   3.621   0.522   0.489 -0.0370 -0.5070  0.2086
  189MPD1    H5 2937   3.551   0.506   0.416  0.8357  1.8810 -1.1530
  189MPD1    N1 2938   3.827   0.135   0.330 -0.2724  0.2592 -0.2799
  189MPD1    H6 2939   3.764   0.154   0.253 -0.0834  0.8847 -0.2837
  189MPD1    H7 2940   3.918   0.106   0.297  0.8971  3.3491  0.1773
  190MPD1     C 2941   1.779   2.421  15.521  0.0449  0.0507 -0.1128
  190MPD1    C1 2942   1.756   2.517  15.616  0.2589  0.3539  0.3069
  190MPD1    C2 2943   1.853   2.612  15.633  0.0363 -0.0087  0.7727
  190MPD1    C3 2944   1.960   2.622  15.552  0.7578 -0.2251  0.2045
  190MPD1    C4 2945   1.983   2.525  15.452 -0.1648 -0.2999 -0.2452
  190MPD1    C5 2946   1.889   2.427  15.437  0.2094  0.3746  0.9178
  190MPD1     H 2947   1.837   2.695  15.701  0.0589  1.2556 -0.7479
  190MPD1    H1 2948   2.070   2.520  15.387  0.3138 -0.1964  0.3898
  190MPD1    H2 2949   1.714   2.336  15.502 -0.8399  0.6667  0.1515
  190MPD1    H3 2950   1.892   2.354  15.356 -1.1183 -0.4040  1.5746
  190MPD1     N 2951   2.040   2.734  15.559  0.0284  0.2205  0.3128
  190MPD1    H5 2952   2.026   2.791  15.642 -0.3284  0.6643 -0.0569
  190MPD1    N1 2953   1.656   2.487  15.711  0.3341 -0.0163  0.3596
  190MPD1    H6 2954   1.627   2.566  15.768 -0.1646 -0.1521  0.2927
  190MPD1    H7 2955   1.574   2.441  15.671 -1.5325  0.0261  4.1315
  191MPD1     C 2956   2.170   4.282  11.894 -0.0919  0.1971  0.0892
  191MPD1    C1 2957   2.219   4.401  11.951 -0.1992  0.1063  0.3123
  191MPD1    C2 2958   2.253   4.505  11.871  0.3339  0.7124 -0.0021
  191MPD1    C3 2959   2.265   4.479  11.734 -0.2760  0.7480  0.3332
  191MPD1    C4 2960   2.237   4.354  11.676 -0.4776 -0.5740 -0.7100
  191MPD1    C5 2961   2.181   4.267  11.758 -0.0623 -0.0633  0.1942
  191MPD1     H 2962   2.289   4.598  11.914 -0.1852  0.9060  0.0154
  191MPD1    H1 2963   2.239   4.332  11.570 -2.2567  1.4403 -1.1697
  191MPD1    H2 2964   2.128   4.195  11.943  1.1822  0.4252  1.5823
  191MPD1    H3 2965   2.134   4.176  11.722 -1.9592  1.8087 -2.1130
  191MPD1     N 2966   2.314   4.586  11.661 -0.3794 -0.3188  1.1308
  191MPD1    H5 2967   2.351   4.670  11.705 -0.9376  0.0406  0.9072
  191MPD1    N1 2968   2.209   4.416  12.091  0.0022  0.1411 -0.3246
  191MPD1    H6 2969   2.280   4.478  12.130 -0.6336  1.6727 -1.5993
  191MPD1    H7 2970   2.226   4.327  12.138 -0.2343  0.0726 -0.3682
  192MPD1     C 2971   2.172   0.390  10.819  0.2460  0.3208 -0.1152
  192MPD1    C1 2972   2.309   0.386  10.836  0.4713  0.3215  0.0533
  192MPD1    C2 2973   2.359   0.347  10.959 -0.0143  0.4962  0.4003
  192MPD1    C3 2974   2.282   0.269  11.045 -0.4400 -0.0000  1.0269
  192MPD1    C4 2975   2.147   0.256  11.014  0.5243  0.5436 -0.1347
  192MPD1    C5 2976   2.096   0.323  10.910 -0.0180 -0.2758 -0.3219
  192MPD1     H 2977   2.466   0.358  10.972  0.1260  1.2228 -1.2988
  192MPD1    H1 2978   2.086   0.198  11.083  1.1604  0.2833  0.2092
  192MPD1    H2 2979   2.128   0.425  10.727 -1.3781  1.7578  1.2113
  192MPD1    H3 2980   1.990   0.321  10.892  0.2324 -1.0975 -1.6929
  192MPD1     N 2981   2.330   0.203  11.160 -0.2581 -0.5484  0.1403
  192MPD1    H5 2982   2.262   0.145  11.207 -0.2849  0.7155  1.6488
  192MPD1    N1 2983   2.389   0.454  10.744 -0.2599 -0.2415  0.0693
  192MPD1    H6 2984   2.347   0.441  10.652  0.0462 -0.5379 -0.0290
  192MPD1    H7 2985   2.486   0.424  10.738 -0.6706 -1.2519 -1.5462
  193MPD1     C 2986   0.653   0.582  15.860  0.0889 -0.5074 -0.1603
  193MPD1    C1 2987   0.635   0.527  15.979 -0.8661  0.2295 -0.1790
  193MPD1    C2 2988   0.702   0.589  16.079  0.1881 -0.0237  0.2731
  193MPD1    C3 2989   0.766   0.708  16.060 -0.1150  0.2455  0.2641
  193MPD1    C4 2990   0.759   0.772  15.936  0.0647 -0.2098 -0.1973
  193MPD1    C5 2991   0.699   0.706  15.839 -0.7356 -0.1088 -0.9894
  193MPD1     H 2992   0.694   0.554  16.181 -1.9620 -0.5584 -0.0701
  193MPD1    H1 2993   0.812   0.866  15.922 -0.4906  0.2063  0.4630
  193MPD1    H2 2994   0.621   0.524  15.774 -2.2833 -0.2223  0.5392
  193MPD1    H3 2995   0.702   0.735  15.734 -0.7091 -0.5177 -1.1022
  193MPD1     N 2996   0.844   0.766  16.157 -0.7285 -0.1906 -0.4100
  193MPD1    H5 2997   0.876   0.861  16.141 -1.4860  0.1977  0.4083
  193MPD1    N1 2998   0.583   0.398  15.985 -0.1873  0.1132  0.6096
  193MPD1    H6 2999   0.511   0.392  15.914 -2.6953  2.2101  2.9436
  193MPD1    H7 3000   0.536   0.402  16.076  1.6214  0.6488  1.5124
  194MPD1     C 3001   4.009   2.988  16.852 -0.3614  0.4320  0.1335
  194MPD1    C1 3002   3.920   2.976  16.750 -0.0279  0.0389  0.3262
  194MPD1    C2 3003   3.819   2.886  16.763  0.0269 -0.0630 -0.1613
  194MPD1    C3 3004   3.799   2.813  16.878  0.0037 -0.6106 -0.3620
  194MPD1    C4 3005   3.874   2.840  16.989 -0.5735  0.9859  0.1919
  194MPD1    C5 3006   3.976   2.932  16.974 -0.7761  0.1043 -0.4111
  194MPD1     H 3007   3.750   2.869  16.681  0.7269  0.7521 -0.9266
  194MPD1    H1 3008   3.872   2.793  17.086 -0.0024  0.8447  0.1352
  194MPD1    H2 3009   4.090   3.059  16.845 -0.5419  0.6110 -0.1259
  194MPD1    H3 3010   4.051   2.953  17.050 -0.2789 -1.0936 -0.5764
  194MPD1     N 3011   3.712   2.706  16.885 -0.2860 -0.4224  0.0026
  194MPD1    H5 3012   3.708   2.651  16.971  0.3965  0.2602  0.4677
  194MPD1    N1 3013   3.934   3.026  16.620  0.1325 -0.2977 -0.0084
  194MPD1    H6 3014   3.993   3.108  16.611  0.7654 -0.5858  1.4106
  194MPD1    H7 3015   3.850   3.042  16.566  0.8107  1.5117 -0.5165
  195MPD1     C 3016   1.112   0.248   0.268 -0.2565  0.1466  0.4040
  195MPD1    C1 3017   1.197   0.250   0.376 -0.6297 -0.4582  0.4428
  195MPD1    C2 3018   1.299   0.152   0.385 -0.4026  0.0525  0.4249
  195MPD1    C3 3019   1.313   0.047   0.285  0.3663  0.3809  0.8873
  195MPD1    C4 3020   1.217   0.043   0.191 -0.4292  0.6586 -0.5621
  195MPD1    C5 3021   1.124   0.144   0.179 -0.0768 -0.5009 -0.4403
  195MPD1     H 3022   1.368   0.155   0.468 -0.6810  3.2596  0.5412
  195MPD1    H1 3023   1.230   4.701   0.119 -0.1275  0.8157 -0.6820
  195MPD1    H2 3024   1.026   0.313   0.265 -0.0855  0.1706 -3.0103
  195MPD1    H3 3025   1.046   0.140   0.104 -0.5244  1.8683 -0.0976
  195MPD1     N 3026   1.424   4.699   0.278 -0.1379  0.4559  0.2254
  195MPD1    H5 3027   1.427   4.641   0.194 -1.0661 -1.5763  1.6114
  195MPD1    N1 3028   1.151   0.323   0.484 -0.1115 -0.0665 -0.0547
  195MPD1    H6 3029   1.226   0.360   0.541  1.6393 -0.9933 -1.7321
  195MPD1    H7 3030   1.104   0.410   0.459 -2.3286 -0.9807  0.9749
  196MPD1     C 3031   0.726   3.909   0.047  0.4286 -0.3686 -0.0850
  196MPD1    C1 3032   0.830   4.002   0.073 -0.3250  0.0445  0.1885
  196MPD1    C2 3033   0.846   4.042   0.204  0.3277  0.5573 -0.5593
  196MPD1    C3 3034   0.771   3.991   0.306 -0.2631  0.5414 -0.3313
  196MPD1    C4 3035   0.684   3.887   0.282 -0.1686  0.6838 -0.6317
  196MPD1    C5 3036   0.663   3.849   0.151  0.2828 -0.0613  0.5165
  196MPD1     H 3037   0.914   4.125   0.221  1.9209 -1.1857  1.4933
  196MPD1    H1 3038   0.628   3.832   0.357 -1.3118  0.6426 -1.5186
  196MPD1    H2 3039   0.699   3.869  17.699  2.7407 -0.0899 -0.8397
  196MPD1    H3 3040   0.583   3.780   0.126  1.2367 -1.1059  0.3837
  196MPD1     N 3041   0.790   4.033   0.444  0.5220  0.0860 -0.0269
  196MPD1    H5 3042   0.734   3.991   0.517 -1.6511  1.7877 -0.7227
  196MPD1    N1 3043   0.896   4.074  17.719  0.1422 -0.0813 -0.3644
  196MPD1    H6 3044   0.912   4.007  17.644 -0.8355  0.0055 -0.6516
  196MPD1    H7 3045   0.986   4.110   0.002 -0.3248  2.3604 -1.7941
  197MPD1     C 3046   0.275   1.396  17.608 -0.8357 -0.5060 -0.3467
  197MPD1    C1 3047   0.311   1.293  17.526 -0.0557  0.2317  0.4033
  197MPD1    C2 3048   0.357   1.314  17.398  0.1164 -0.5610 -0.4798
  197MPD1    C3 3049   0.352   1.439  17.344  0.1359 -0.3141  0.5548
  197MPD1    C4 3050   0.307   1.544  17.429  0.0318 -0.1789 -0.8309
  197MPD1    C5 3051   0.273   1.518  17.556  0.6739 -0.7252  0.2339
  197MPD1     H 3052   0.378   1.226  17.340  1.9097 -1.3453  1.3603
  197MPD1    H1 3053   0.301   1.646  17.393 -2.1612 -0.0490 -0.0596
  197MPD1    H2 3054   0.230   1.382  17.705  1.5569  1.3284  1.0227
  197MPD1    H3 3055   0.236   1.595  17.623  1.4539 -0.3427  0.2241
  197MPD1     N 3056   0.380   1.467  17.208  0.1539 -0.7146 -0.8993
  197MPD1    H5 3057   0.369   1.564  17.179 -0.6870 -0.2781  0.9397
  197MPD1    N1 3058   0.305   1.162  17.574  0.3342 -0.4079  0.4250
  197MPD1    H6 3059   0.294   1.095  17.498  2.4794  0.8040 -0.9629
  197MPD1    H7 3060   0.222   1.156  17.633 -0.7999 -0.8491 -1.1784
  198MPD1     C 3061   1.494   4.285  15.726 -0.0799 -0.6623  0.6682
  198MPD1    C1 3062   1.588   4.193  15.770 -0.0191 -0.7233 -0.0540
  198MPD1    C2 3063   1.719   4.205  15.731  0.6779  0.0488 -0.0015
  198MPD1    C3 3064   1.748   4.303  15.638 -0.0779 -0.5019  0.1010
  198MPD1    C4 3065   1.651   4.388  15.591 -0.2222 -0.3771 -0.3716
  198MPD1    C5 3066   1.525   4.384  15.642  0.1960  0.2217 -0.6552
  198MPD1     H 3067   1.792   4.139  15.777  2.7880  1.7937 -0.8443
  198MPD1    H1 3068   1.679   4.457  15.513  0.8054 -1.2235 -0.7569
  198MPD1    H2 3069   1.390   4.280  15.755  0.6681 -3.9450  2.7555
  198MPD1    H3 3070   1.449   4.455  15.613  1.1363  1.6984  0.5155
  198MPD1     N 3071   1.875   4.310  15.589 -0.3897 -0.7091 -0.1910
  198MPD1    H5 3072   1.942   4.240  15.619 -2.0148 -2.3548 -0.4240
  198MPD1    N1 3073   1.546   4.089  15.858 -0.0751  0.9750  1.1054
  198MPD1    H6 3074   1.457   4.107  15.905 -0.3863 -0.9645  1.2735
  198MPD1    H7 3075   1.621   4.061  15.920 -0.5321 -0.7966  0.8556
  199MPD1     C 3076   0.216   1.477   9.616 -0.4569 -0.2367  0.3198
  199MPD1    C1 3077   0.259   1.349   9.596  0.6881 -0.5716  0.4032
  199MPD1    C2 3078   0.161   1.251   9.607 -0.6204 -0.4384 -0.3374
  199MPD1    C3 3079   0.029   1.275   9.643 -0.1125 -0.8376  0.6441
  199MPD1    C4 3080   4.737   1.409   9.665 -0.0770  0.0094  0.3432
  199MPD1    C5 3081   0.095   1.509   9.656 -0.2485  0.2742  0.3564
  199MPD1     H 3082   0.197   1.152   9.580  1.5090  0.1966  0.1943
  199MPD1    H1 3083   4.635   1.442   9.680  0.2475  0.7341  1.0133
  199MPD1    H2 3084   0.285   1.560   9.612  0.5883 -1.1243 -0.0771
  199MPD1    H3 3085   0.066   1.611   9.678  0.5396  0.6380 -0.2736
  199MPD1     N 3086   4.670   1.172   9.647 -0.0716  0.0843  0.1285
  199MPD1    H5 3087   4.575   1.197   9.673 -0.0120  1.8477 -1.3670
  199MPD1    N1 3088   0.390   1.323   9.550  0.0076 -0.2344 -0.4325
  199MPD1    H6 3089   0.456   1.399   9.568  1.8157 -2.3968  2.0280
  199MPD1    H7 3090   0.425   1.230   9.574 -0.1620 -0.6647 -1.8163
  200MPD1     C 3091   3.546   0.762  16.200  0.1953 -0.7629  0.1083
  200MPD1    C1 3092   3.630   0.856  16.150 -0.0397  0.3961 -0.1960
  200MPD1    C2 3093   3.620   0.889  16.016  0.2251 -0.0664  0.5930
  200MPD1    C3 3094   3.542   0.815  15.923  1.0339 -0.0017 -0.0217
  200MPD1    C4 3095   3.466   0.712  15.971  0.3603 -0.3508 -0.2260
  200MPD1    C5 3096   3.475   0.680  16.104  0.4148 -0.1121  0.2609
  200MPD1     H 3097   3.677   0.974  15.980  0.5428  1.4073  4.5824
  200MPD1    H1 3098   3.392   0.654  15.918  0.6109 -0.7089 -0.1824
  200MPD1    H2 3099   3.526   0.747  16.306  1.5864  0.0359  0.4765
  200MPD1    H3 3100   3.408   0.603  16.137  1.5548 -0.3134  2.0932
  200MPD1     N 3101   3.545   0.853  15.782  0.0477 -0.0673 -0.0700
  200MPD1    H5 3102   3.590   0.942  15.762 -1.8370  1.3502  2.1610
  200MPD1    N1 3103   3.695   0.941  16.242 -0.0985  0.2209  0.3427
  200MPD1    H6 3104   3.784   0.983  16.217  0.8947 -1.8707  0.3909
  200MPD1    H7 3105   3.726   0.882  16.320 -1.2281  1.8023  1.9702
  201MPD1     C 3106   0.265   3.914  13.612  0.4424 -0.0877 -1.0021
  201MPD1    C1 3107   0.254   3.794  13.669 -0.0641  0.2103 -0.1404
  201MPD1    C2 3108   0.361   3.715  13.687  0.5127 -0.0223  0.1344
  201MPD1    C3 3109   0.486   3.751  13.638  0.6642 -0.7714 -0.1694
  201MPD1    C4 3110   0.503   3.872  13.574 -0.7701  0.3893  0.2966
  201MPD1    C5 3111   0.387   3.952  13.565 -0.2643 -1.0204  0.3547
  201MPD1     H 3112   0.343   3.618  13.732  0.4713 -0.0958 -0.0409
  201MPD1    H1 3113   0.602   3.907  13.550 -0.2192 -1.9302 -0.7265
  201MPD1    H2 3114   0.182   3.981  13.593 -1.0759 -1.5350  0.6028
  201MPD1    H3 3115   0.394   4.043  13.506  0.4896 -2.4546 -1.7811
  201MPD1     N 3116   0.590   3.656  13.646 -0.1644  0.4477  0.3222
  201MPD1    H5 3117   0.562   3.567  13.685 -1.4579  0.5118 -0.4687
  201MPD1    N1 3118   0.132   3.758  13.726 -0.2470  0.4204 -0.1376
  201MPD1    H6 3119   0.125   3.658  13.741 -0.2638  0.0572 -2.5317
  201MPD1    H7 3120   0.047   3.792  13.681 -1.3624 -0.8119  1.0554
  202MPD1     C 3121   0.922   3.663   9.013  0.2591 -0.4510 -0.1164
  202MPD1    C1 3122   0.990   3.554   9.063 -0.6509 -0.7910  0.2933
  202MPD1    C2 3123   1.008   3.544   9.197 -0.1165  0.5513 -0.2803
  202MPD1    C3 3124   0.934   3.626   9.280 -0.3897  0.0601  0.8429
  202MPD1    C4 3125   0.846   3.707   9.223 -0.5827 -0.5100 -0.7501
  202MPD1    C5 3126   0.844   3.730   9.095 -0.5250  0.4075  0.0151
  202MPD1     H 3127   1.088   3.486   9.242  1.1512  0.7192 -2.3042
  202MPD1    H1 3128   0.776   3.767   9.279  0.9469  0.4457  0.1423
  202MPD1    H2 3129   0.930   3.687   8.908 -3.7611 -0.6977 -0.4643
  202MPD1    H3 3130   0.770   3.802   9.063 -2.0808 -1.6125 -0.9943
  202MPD1     N 3131   0.950   3.621   9.419  0.1007  0.0356  0.0223
  202MPD1    H5 3132   0.898   3.693   9.468 -0.1565  0.7641 -1.3132
  202MPD1    N1 3133   1.093   3.516   8.973  1.0236  0.6652 -0.0115
  202MPD1    H6 3134   1.129   3.423   8.996 -2.5854 -1.0086 -1.1352
  202MPD1    H7 3135   1.055   3.516   8.879 -2.5324 -0.0514  1.4092
  203MPD1     C 3136   4.644   0.132  12.192 -0.4103 -0.1516 -0.2325
  203MPD1    C1 3137   4.701   0.076  12.304 -1.1818  0.4316  0.2657
  203MPD1    C2 3138   4.694   4.673  12.316  0.1921 -0.2046  0.0949
  203MPD1    C3 3139   4.627   4.590  12.234 -0.3471  0.3386  0.0900
  203MPD1    C4 3140   4.558   4.654  12.129  0.0863  0.2143 -0.1684
  203MPD1    C5 3141   4.561   0.056  12.116  0.1413 -0.3369  0.3238
  203MPD1     H 3142   4.736   4.623  12.403  1.5328  0.9553  0.1081
  203MPD1    H1 3143   4.495   4.596  12.063 -0.2189 -0.3948  0.6609
  203MPD1    H2 3144   4.658   0.237  12.173 -0.0733 -0.4915 -1.8622
  203MPD1    H3 3145   4.513   0.093  12.026  0.1601 -2.4516 -0.5436
  203MPD1     N 3146   4.628   4.454  12.254 -0.3509  0.8173  0.5245
  203MPD1    H5 3147   4.669   4.415  12.339  1.0981  0.1807 -0.4649
  203MPD1    N1 3148   0.056   0.147  12.383 -0.4360  0.0342 -0.0716
  203MPD1    H6 3149   0.041   0.248  12.385  1.2235  0.2395  2.0485
  203MPD1    H7 3150   0.059   0.111  12.478  0.4943  0.3164  0.0077
  204MPD1     C 3151   4.329   1.875  17.676 -0.6085  0.2356 -0.1938
  204MPD1    C1 3152   4.234   1.826  17.582 -0.6297 -0.3646 -0.1690
  204MPD1    C2 3153   4.224   1.689  17.557  0.2010  0.3144  0.2364
  204MPD1    C3 3154   4.281   1.592  17.645  0.0833 -0.3463  0.1237
  204MPD1    C4 3155   4.355   1.644   0.003 -0.7918  0.5226 -0.2557
  204MPD1    C5 3156   4.379   1.784   0.018 -0.7371  0.5109 -0.6291
  204MPD1     H 3157   4.159   1.662  17.475  0.7394  0.9093 -0.3858
  204MPD1    H1 3158   4.399   1.581   0.079  0.4613  1.2228 -0.3841
  204MPD1    H2 3159   4.333   1.982  17.689  1.0426  0.4107 -2.1682
  204MPD1    H3 3160   4.453   1.822   0.088 -0.7779  1.9619 -1.3758
  204MPD1     N 3161   4.267   1.451  17.622  0.4058 -0.0854  0.5213
  204MPD1    H5 3162   4.200   1.427  17.550  0.8668  2.6494 -0.8453
  204MPD1    N1 3163   4.181   1.922  17.492  0.3987 -0.3109  0.0724
  204MPD1    H6 3164   4.167   2.016  17.530 -0.6033 -0.4068 -0.0590
  204MPD1    H7 3165   4.097   1.898  17.441  1.6036 -0.4914 -1.8064
  205MPD1     C 3166   4.097   0.063  16.825 -0.4782  0.1699  0.0378
  205MPD1    C1 3167   4.137   4.693  16.900  0.0912  0.2687  0.3306
  205MPD1    C2 3168   4.112   4.700  17.034  0.5094  0.3326 -0.0385
  205MPD1    C3 3169   4.068   0.073  17.103 -0.6997 -0.1699  0.5892
  205MPD1    C4 3170   4.031   0.186  17.026 -0.0221  0.3907 -0.7597
  205MPD1    C5 3171   4.050   0.185  16.885  0.6825  0.0060  1.0531
  205MPD1     H 3172   4.126   4.610  17.093 -0.6860 -1.0611 -1.8695
  205MPD1    H1 3173   3.991   0.276  17.072  0.5946  0.2476  0.0536
  205MPD1    H2 3174   4.091   0.061  16.717  0.0445  0.4278  0.0055
  205MPD1    H3 3175   4.005   0.264  16.826  2.6337 -0.0360 -0.4709
  205MPD1     N 3176   4.039   0.069  17.243  0.0447  0.3316 -0.3904
  205MPD1    H5 3177   4.000   0.155  17.280 -1.0513  0.2885 -1.4510
  205MPD1    N1 3178   4.172   4.574  16.833 -0.0462 -0.1787 -0.4025
  205MPD1    H6 3179   4.222   4.513  16.897 -1.8486  0.3098  1.4446
  205MPD1    H7 3180   4.230   4.593  16.751 -2.0840  2.4940 -1.2424
  206MPD1     C 3181   4.001   2.329  16.900 -0.6096 -0.0429  0.1316
  206MPD1    C1 3182   3.995   2.212  16.821  0.2029 -0.3020  0.7956
  206MPD1    C2 3183   3.971   2.240  16.685  0.2209 -0.3169 -0.0724
  206MPD1    C3 3184   3.942   2.373  16.630 -0.7302  0.3568  0.9883
  206MPD1    C4 3185   3.935   2.478  16.720 -0.1582  0.3639 -0.9730
  206MPD1    C5 3186   3.975   2.457  16.852 -0.5879  0.7899 -0.6392
  206MPD1     H 3187   3.954   2.158  16.617 -1.2123  0.4781 -0.6994
  206MPD1    H1 3188   3.919   2.580  16.686  2.8022  0.6979 -1.4028
  206MPD1    H2 3189   4.022   2.320  17.006  1.8949  3.8318 -0.0292
  206MPD1    H3 3190   3.997   2.539  16.919 -1.8506 -0.8645  1.8049
  206MPD1     N 3191   3.905   2.399  16.498  0.1736 -0.0057  0.5929
  206MPD1    H5 3192   3.873   2.494  16.483 -0.6662 -0.0591  2.0299
  206MPD1    N1 3193   4.039   2.088  16.866  0.2105 -0.5009 -0.3888
  206MPD1    H6 3194   4.005   2.075  16.961  1.5063  1.2796  0.2957
  206MPD1    H7 3195   4.019   2.016  16.797  0.8609 -1.0456 -0.0068
  207MPD1     C 3196   1.563   1.468   8.893  0.0512 -0.1323 -0.4632
  207MPD1    C1 3197   1.629   1.584   8.937  0.1804 -0.7074  0.9963
  207MPD1    C2 3198   1.751   1.564   8.997 -0.5944  0.0278  0.2506
  207MPD1    C3 3199   1.808   1.436   9.009 -0.6233  0.6232  1.1493
  207MPD1    C4 3200   1.744   1.330   8.948  0.3162  0.2303 -0.5283
  207MPD1    C5 3201   1.622   1.344   8.893 -0.2217 -0.5751  0.0699
  207MPD1     H 3202   1.798   1.654   9.037 -0.6133  0.9711 -1.8401
  207MPD1    H1 3203   1.795   1.237   8.927  1.4364  0.0853  2.8288
  207MPD1    H2 3204   1.465   1.471   8.847 -1.2133 -0.8133  2.1455
  207MPD1    H3 3205   1.572   1.256   8.855 -0.5825  0.2182 -1.2984
  207MPD1     N 3206   1.929   1.406   9.075 -0.6725  0.3155 -0.0104
  207MPD1    H5 3207   1.962   1.310   9.071 -0.0518  0.5645 -0.8073
  207MPD1    N1 3208   1.567   1.711   8.942 -0.3691 -0.0493 -0.3204
  207MPD1    H6 3209   1.637   1.784   8.955  0.1465 -0.6613  0.3163
  207MPD1    H7 3210   1.498   1.731   8.870 -0.1666  0.5827 -0.3370
  208MPD1     C 3211   0.426   4.451   0.072  0.2163 -0.2357 -0.2371
  208MPD1    C1 3212   0.464   4.347   0.152 -0.8391  0.5547 -0.2526
  208MPD1    C2 3213   0.368   4.255   0.190 -0.1505 -0.2743  0.9883
  208MPD1    C3 3214   0.236   4.269   0.156 -0.1961 -0.1009  0.1528
  208MPD1    C4 3215   0.195   4.374   0.076  0.0207  0.0576 -0.5083
  208MPD1    C5 3216   0.292   4.465   0.030 -0.1256  0.7186 -0.2316
  208MPD1     H 3217   0.412   4.176   0.249  1.1551 -0.7822 -0.6623
  208MPD1    H1 3218   0.102   4.373   0.022 -1.1057  1.2941  1.3813
  208MPD1    H2 3219   0.502   4.513   0.025  1.1361 -1.5001 -0.4119
  208MPD1    H3 3220   0.268   4.546  17.711 -0.7818  0.5833 -0.1605
  208MPD1     N 3221   0.145   4.172   0.204 -0.0237 -0.2018 -0.9778
  208MPD1    H5 3222   0.193   4.100   0.257  2.5836  1.9390 -0.4376
  208MPD1    N1 3223   0.602   4.325   0.158 -0.5451 -0.0105  0.3211
  208MPD1    H6 3224   0.653   4.413   0.166 -1.3946  0.3793  1.5415
  208MPD1    H7 3225   0.624   4.273   0.242 -0.9650 -3.0609 -1.4633
  209MPD1     C 3226   2.184   4.430   9.401 -0.2189  0.0814 -0.0008
  209MPD1    C1 3227   2.169   4.537   9.318  0.0930  0.4507 -0.0747
  209MPD1    C2 3228   2.191   4.663   9.371  0.6724  0.0625  0.2834
  209MPD1    C3 3229   2.237   4.685   9.498 -0.2380  0.3652 -0.0301
  209MPD1    C4 3230   2.241   4.580   9.582 -0.0304 -0.2416  0.3831
  209MPD1    C5 3231   2.217   4.459   9.531  0.2734  0.3093  0.4093
  209MPD1     H 3232   2.191   0.012   9.306 -1.0089 -0.8570 -0.9418
  209MPD1    H1 3233   2.282   4.585   9.682 -0.4741  0.1627  0.5440
  209MPD1    H2 3234   2.158   4.330   9.370 -1.2227 -0.1747  1.6733
  209MPD1    H3 3235   2.223   4.379   9.604 -2.7433  0.1480  0.4818
  209MPD1     N 3236   2.255   0.086   9.533  0.0530  0.5443  0.1303
  209MPD1    H5 3237   2.267   0.155   9.459 -1.8607 -0.2146 -0.8930
  209MPD1    N1 3238   2.163   4.525   9.175 -0.0371  0.0608 -0.3297
  209MPD1    H6 3239   2.104   4.450   9.138 -1.3927  0.2288  1.4510
  209MPD1    H7 3240   2.157   4.608   9.117  2.2857  1.2079  1.0797
  210MPD1     C 3241   3.107   0.287   9.974  0.0041 -0.6346  0.1807
  210MPD1    C1 3242   3.045   0.405   9.968  0.1987  0.5255  0.4313
  210MPD1    C2 3243   2.928   0.410   9.891 -0.5664  0.2501 -0.5387
  210MPD1    C3 3244   2.874   0.301   9.823  0.2995  0.7826 -0.7281
  210MPD1    C4 3245   2.946   0.183   9.823 -0.2837 -0.1092  0.5606
  210MPD1    C5 3246   3.058   0.178   9.905 -0.1219 -0.6162 -0.0972
  210MPD1     H 3247   2.879   0.506   9.900 -2.0462 -0.5543 -0.0700
  210MPD1    H1 3248   2.912   0.089   9.782  0.5273 -1.0940  2.1113
  210MPD1    H2 3249   3.186   0.281  10.047 -0.0498 -0.4675  0.2531
  210MPD1    H3 3250   3.100   0.080   9.925  1.7697 -0.1679 -1.8410
  210MPD1     N 3251   2.749   0.307   9.754 -0.1540 -0.0087 -0.0273
  210MPD1    H5 3252   2.722   0.231   9.691 -1.5843 -1.2806  2.1188
  210MPD1    N1 3253   3.071   0.512  10.053 -0.3470  0.2344  0.1846
  210MPD1    H6 3254   3.044   0.605  10.020 -3.5684 -0.0876  1.8915
  210MPD1    H7 3255   3.169   0.508  10.078 -1.4335 -1.3282  4.1336
  211MPD1     C 3256   4.087   4.103  16.746  0.5435  0.3260 -0.2481
  211MPD1    C1 3257   4.203   4.174  16.723  0.7754 -0.0967 -0.1571
  211MPD1    C2 3258   4.205   4.288  16.647 -0.2802  0.9826 -0.3172
  211MPD1    C3 3259   4.098   4.315  16.568  0.3556  0.2006  0.3261
  211MPD1    C4 3260   3.984   4.235  16.579 -0.3932 -0.1804 -0.4673
  211MPD1    C5 3261   3.982   4.134  16.666 -0.7027 -0.3063 -0.3787
  211MPD1     H 3262   4.289   4.357  16.650  0.2061  0.3586  0.1976
  211MPD1    H1 3263   3.890   4.261  16.531 -0.2406  0.2695 -0.5193
  211MPD1    H2 3264   4.077   4.028  16.823  1.4895 -0.1050 -0.5419
  211MPD1    H3 3265   3.885   4.093  16.689 -0.1481 -1.1114  0.5040
  211MPD1     N 3266   4.096   4.434  16.495  0.1147 -0.2270  0.1812
  211MPD1    H5 3267   4.172   4.500  16.511  1.1571 -1.5944  0.8804
  211MPD1    N1 3268   4.314   4.135  16.794  0.2616 -0.4205  0.2989
  211MPD1    H6 3269   4.396   4.173  16.748  0.1285  0.6257  0.9339
  211MPD1    H7 3270   4.321   4.033  16.797  0.5861 -0.4228 -0.5264
  212MPD1     C 3271   3.439   2.909  16.578 -0.3808  0.4889 -0.4242
  212MPD1    C1 3272   3.413   2.981  16.696  0.3886 -0.5049  1.1145
  212MPD1    C2 3273   3.331   2.928  16.795 -0.0305 -0.3588  0.4086
  212MPD1    C3 3274   3.285   2.799  16.779  0.7977 -0.2359  0.1098
  212MPD1    C4 3275   3.318   2.729  16.670 -0.4519  1.1456  0.0936
  212MPD1    C5 3276   3.392   2.782  16.568  0.5810 -0.1743 -0.4884
  212MPD1     H 3277   3.307   2.995  16.877  1.8889  1.1507 -0.2573
  212MPD1    H1 3278   3.283   2.628  16.649  0.7542  0.1027  3.1923
  212MPD1    H2 3279   3.509   2.952  16.508  0.3929 -0.4384 -0.2117
  212MPD1    H3 3280   3.416   2.727  16.478  0.4332  1.1324 -1.3346
  212MPD1     N 3281   3.209   2.733  16.877  0.5943  0.0344  0.1565
  212MPD1    H5 3282   3.185   2.641  16.841 -0.6797  0.6851 -0.6408
  212MPD1    N1 3283   3.491   3.092  16.728  0.1201  0.1866 -0.0684
  212MPD1    H6 3284   3.526   3.146  16.650 -0.3169 -0.6932 -0.8698
  212MPD1    H7 3285   3.448   3.165  16.785 -0.8880  0.2333 -0.8811
  213MPD1     C 3286   1.154   2.882  15.954 -0.0027  0.3869 -0.0341
  213MPD1    C1 3287   1.110   3.010  15.986  0.0740 -0.0054 -0.2532
  213MPD1    C2 3288   1.183   3.117  15.925  0.2654 -0.5577  1.0015
  213MPD1    C3 3289   1.250   3.092  15.807 -0.0513  0.2361  0.4496
  213MPD1    C4 3290   1.268   2.966  15.759  0.0763 -0.4561  0.0140
  213MPD1    C5 3291   1.227   2.861  15.841 -0.7563  0.2573 -0.7491
  213MPD1     H 3292   1.156   3.217  15.959 -0.1302 -0.5879  0.7742
  213MPD1    H1 3293   1.311   2.948  15.661  0.5167 -2.3076  0.5301
  213MPD1    H2 3294   1.116   2.797  16.010 -2.0293  1.3345  0.0125
  213MPD1    H3 3295   1.223   2.757  15.809  2.8085  0.0045 -0.3081
  213MPD1     N 3296   1.284   3.205  15.730  0.1809  0.3362  0.5397
  213MPD1    H5 3297   1.255   3.288  15.782  2.4613 -0.2048  2.6928
  213MPD1    N1 3298   1.069   3.032  16.118 -0.0250  0.3368  0.0812
  213MPD1    H6 3299   1.018   3.119  16.134 -0.9663 -0.0499 -0.7842
  213MPD1    H7 3300   1.017   2.953  16.156  2.7383 -0.7963  1.4690
  214MPD1     C 3301   0.604   3.679  15.649  0.3431 -0.5473  0.3508
  214MPD1    C1 3302   0.698   3.766  15.600  0.4248 -0.3602  0.0794
  214MPD1    C2 3303   0.828   3.725  15.580  0.2000 -0.2098 -0.0694
  214MPD1    C3 3304   0.865   3.593  15.605 -0.3425  1.4301  0.2576
  214MPD1    C4 3305   0.767   3.508  15.643 -0.1226 -0.0317 -0.4948
  214MPD1    C5 3306   0.641   3.547  15.664  0.6079  0.1950 -0.6871
  214MPD1     H 3307   0.896   3.797  15.536 -0.2175 -0.9961 -1.9868
  214MPD1    H1 3308   0.784   3.401  15.652 -1.3605 -0.3038 -1.4381
  214MPD1    H2 3309   0.501   3.703  15.676  0.7553  2.1579 -0.4370
  214MPD1    H3 3310   0.571   3.479  15.709  0.1176  0.4886 -1.0093
  214MPD1     N 3311   1.000   3.539  15.597 -0.1868 -0.0118  0.5169
  214MPD1    H5 3312   0.999   3.441  15.625 -0.4719 -0.9198 -2.7186
  214MPD1    N1 3313   0.678   3.907  15.581  0.1344  0.3581 -0.3018
  214MPD1    H6 3314   0.708   3.944  15.491  0.4847 -0.0663 -0.3609
  214MPD1    H7 3315   0.582   3.939  15.588 -0.1854  0.2343 -4.3178
  215MPD1     C 3316   2.431   3.379  10.690  0.0985 -0.5518  0.0718
  215MPD1    C1 3317   2.491   3.400  10.809 -0.6435  0.4129  0.2428
  215MPD1    C2 3318   2.494   3.533  10.859  0.0075 -0.1229  0.8376
  215MPD1    C3 3319   2.447   3.636  10.782 -0.1120  0.4761 -0.3871
  215MPD1    C4 3320   2.388   3.613  10.658  0.0252 -0.1635 -0.0859
  215MPD1    C5 3321   2.378   3.489  10.613 -0.0098  0.1413  0.0619
  215MPD1     H 3322   2.526   3.551  10.961  2.5545 -0.7151  0.1553
  215MPD1    H1 3323   2.345   3.694  10.600  1.4780 -0.0315 -0.9905
  215MPD1    H2 3324   2.412   3.279  10.652  0.5335 -0.7987  0.5180
  215MPD1    H3 3325   2.330   3.471  10.517  0.4971  0.5310 -0.2646
  215MPD1     N 3326   2.480   3.762  10.830  0.3490 -0.1790 -0.1370
  215MPD1    H5 3327   2.502   3.771  10.928  0.5351  0.5221 -0.2385
  215MPD1    N1 3328   2.522   3.294  10.900 -0.3819  0.3575  0.1998
  215MPD1    H6 3329   2.608   3.313  10.951  0.4763  0.2697 -1.2122
  215MPD1    H7 3330   2.535   3.215  10.837  1.9332 -1.2453  2.6825
  216MPD1     C 3331   3.156   1.606  16.990  0.1166 -0.0175  0.3099
  216MPD1    C1 3332   3.079   1.492  17.040 -0.6166  1.0076  0.4275
  216MPD1    C2 3333   3.155   1.392  17.102  0.2558  0.0224  0.2778
  216MPD1    C3 3334   3.289   1.396  17.128  0.1395 -0.2645  0.1394
  216MPD1    C4 3335   3.360   1.501  17.076  0.1952 -0.1609 -0.4613
  216MPD1    C5 3336   3.292   1.605  17.016 -0.1992  0.1333 -0.1216
  216MPD1     H 3337   3.108   1.298  17.128 -2.9452  0.7357 -2.9266
  216MPD1    H1 3338   3.463   1.517  17.105 -0.2863  0.5437  0.9026
  216MPD1    H2 3339   3.110   1.694  16.948  0.4684 -0.9083 -1.9095
  216MPD1    H3 3340   3.346   1.691  16.978  0.5651  0.4171  1.6144
  216MPD1     N 3341   3.346   1.292  17.206  0.0970 -0.2561 -0.3958
  216MPD1    H5 3342   3.276   1.235  17.252  1.0737 -1.1200  0.0056
  216MPD1    N1 3343   2.955   1.455  16.994 -0.4386 -1.0015  0.2789
  216MPD1    H6 3344   2.896   1.409  17.063 -0.0322 -1.0374  0.5978
  216MPD1    H7 3345   2.907   1.543  16.982 -0.4321 -1.1602 -0.9198
  217MPD1     C 3346   0.348   4.417   8.760 -0.3970  0.6308  0.3377
  217MPD1    C1 3347   0.434   4.388   8.864 -0.6866  0.2457  0.0292
  217MPD1    C2 3348   0.409   4.275   8.934 -0.5736  0.0678 -0.1769
  217MPD1    C3 3349   0.286   4.213   8.922 -0.0608  0.2859  0.5588
  217MPD1    C4 3350   0.199   4.246   8.820  0.0992 -0.7800  0.0025
  217MPD1    C5 3351   0.228   4.353   8.743  0.0878  0.5803  0.0741
  217MPD1     H 3352   0.476   4.246   9.014 -1.2841 -0.0426  0.3743
  217MPD1    H1 3353   0.106   4.195   8.799 -0.1072 -0.7728  0.8977
  217MPD1    H2 3354   0.347   4.496   8.686 -1.9230 -0.1233 -0.4422
  217MPD1    H3 3355   0.149   4.384   8.676 -0.9913  1.0524  1.5934
  217MPD1     N 3356   0.246   4.103   8.999  0.2511  0.6164  0.4358
  217MPD1    H5 3357   0.146   4.087   8.991  0.3188 -0.0389  0.9337
  217MPD1    N1 3358   0.567   4.434   8.865 -0.0190 -0.0583 -0.8809
  217MPD1    H6 3359   0.580   4.532   8.842  0.9121  0.0779  0.2165
  217MPD1    H7 3360   0.604   4.422   8.959  0.4930  0.9512 -0.9593
  218MPD1     C 3361   0.657   3.450  12.128  0.7156 -0.1175  0.7996
  218MPD1    C1 3362   0.665   3.548  12.227 -0.4285 -0.3952  0.3097
  218MPD1    C2 3363   0.791   3.573  12.285  0.0606 -0.3112  0.9180
  218MPD1    C3 3364   0.903   3.518  12.223  0.1660 -0.1230  0.1343
  218MPD1    C4 3365   0.893   3.424  12.117  0.6488 -0.2262 -0.0064
  218MPD1    C5 3366   0.767   3.389  12.073 -0.1216  0.3689  0.4625
  218MPD1     H 3367   0.798   3.639  12.371  1.0627 -1.3782  1.6703
  218MPD1    H1 3368   0.970   3.376  12.058  1.2118  0.7265 -0.0452
  218MPD1    H2 3369   0.558   3.428  12.088  0.8611  0.3830  0.1736
  218MPD1    H3 3370   0.760   3.321  11.989  1.4033  0.7702 -0.0092
  218MPD1     N 3371   1.036   3.552  12.279 -0.7923 -0.0568  0.0037
  218MPD1    H5 3372   1.037   3.616  12.358  2.6070  1.9631 -1.6247
  218MPD1    N1 3373   0.540   3.587  12.290  0.5328 -0.3681  0.4588
  218MPD1    H6 3374   0.471   3.595  12.215  1.2605  0.1511 -0.1638
  218MPD1    H7 3375   0.542   3.677  12.336  3.8166  0.2499 -0.8568
  219MPD1     C 3376   1.687   4.349  12.264  0.2112  0.6056 -0.0392
  219MPD1    C1 3377   1.570   4.311  12.200 -0.0702  0.2558  0.0076
  219MPD1    C2 3378   1.503   4.195  12.234 -0.5795  0.8148  0.1715
  219MPD1    C3 3379   1.554   4.112  12.334 -0.0137 -0.6794  0.3849
  219MPD1    C4 3380   1.668   4.152  12.397  0.0149 -0.4044 -0.0354
  219MPD1    C5 3381   1.739   4.265  12.366  0.3500  0.0055  0.7336
  219MPD1     H 3382   1.422   4.161  12.170 -0.1336 -0.2885  0.1939
  219MPD1    H1 3383   1.717   4.085  12.466 -0.0011  1.6838  1.9818
  219MPD1    H2 3384   1.735   4.444  12.239  0.5967  0.3113 -0.4217
  219MPD1    H3 3385   1.833   4.293  12.412 -1.1886  1.6310  2.8903
  219MPD1     N 3386   1.505   3.987  12.358 -0.1937  0.8455  0.8202
  219MPD1    H5 3387   1.543   3.934  12.437 -0.4412 -1.8562 -0.8737
  219MPD1    N1 3388   1.516   4.390  12.097 -0.2438  0.1623 -0.5186
  219MPD1    H6 3389   1.592   4.422  12.038  2.7969  1.2712  3.9563
  219MPD1    H7 3390   1.459   4.330  12.038  0.5877 -1.0928 -0.0432
  220MPD1     C 3391   1.842   0.420   9.635 -0.0881  0.8957 -0.2066
  220MPD1    C1 3392   1.903   0.419   9.758 -0.2268 -0.2045 -0.0949
  220MPD1    C2 3393   1.938   0.299   9.814 -0.5507  1.4275  0.5044
  220MPD1    C3 3394   1.924   0.182   9.741  0.4680 -1.1175  0.0198
  220MPD1    C4 3395   1.881   0.188   9.610 -0.6224  0.6687  0.2551
  220MPD1    C5 3396   1.828   0.306   9.559 -0.0054 -0.0312 -0.4075
  220MPD1     H 3397   1.980   0.295   9.914 -0.1213 -0.5878  0.2344
  220MPD1    H1 3398   1.869   0.099   9.550 -2.3096  0.6081  0.6735
  220MPD1    H2 3399   1.802   0.512   9.592 -1.4896  0.6010  0.4476
  220MPD1    H3 3400   1.778   0.306   9.462 -0.1110  0.9132 -0.3570
  220MPD1     N 3401   1.957   0.058   9.801  0.0803  0.0419 -0.1138
  220MPD1    H5 3402   1.998   0.053   9.894 -0.2173  0.7383  0.0517
  220MPD1    N1 3403   1.919   0.534   9.835  0.1994 -0.5367  0.1062
  220MPD1    H6 3404   2.004   0.525   9.889  0.1856 -1.2551  0.0118
  220MPD1    H7 3405   1.939   0.614   9.777  1.7986 -1.3320 -0.4420
  221MPD1     C 3406   3.313   3.692  16.240 -0.6952 -0.4199 -0.7269
  221MPD1    C1 3407   3.339   3.798  16.320 -0.2731 -0.0685  0.4757
  221MPD1    C2 3408   3.472   3.830  16.340 -0.5689 -0.2331  0.6474
  221MPD1    C3 3409   3.573   3.771  16.263 -0.4570 -0.4885  0.5421
  221MPD1    C4 3410   3.543   3.677  16.168  0.4364  0.5444  0.0752
  221MPD1    C5 3411   3.417   3.642  16.165  0.3241 -0.3681  0.8523
  221MPD1     H 3412   3.493   3.912  16.408 -2.6507  0.5262  0.3670
  221MPD1    H1 3413   3.617   3.629  16.104 -1.5068 -1.5566 -0.5776
  221MPD1    H2 3414   3.216   3.650  16.217 -1.7543  2.3151 -1.1581
  221MPD1    H3 3415   3.386   3.567  16.093  0.8441  0.5756 -0.3530
  221MPD1     N 3416   3.708   3.819  16.270 -0.5632 -0.2241  0.0949
  221MPD1    H5 3417   3.774   3.775  16.206  0.2368  1.6877 -0.4135
  221MPD1    N1 3418   3.233   3.846  16.410  0.2365  0.0803 -0.5442
  221MPD1    H6 3419   3.252   3.939  16.448 -1.8072 -0.5830  2.1002
  221MPD1    H7 3420   3.138   3.841  16.375  1.0049  2.1131 -2.9735
  222MPD1     C 3421   3.833   3.499  16.888  0.3444 -0.2296 -0.3869
  222MPD1    C1 3422   3.771   3.376  16.875  0.1474 -0.5215 -0.4123
  222MPD1    C2 3423   3.652   3.359  16.935 -0.2599 -0.0359  0.9727
  222MPD1    C3 3424   3.590   3.457  17.024 -0.2641  0.0861 -0.7608
  222MPD1    C4 3425   3.667   3.569  17.039  0.2235 -0.1533 -0.0695
  222MPD1    C5 3426   3.782   3.592  16.972 -0.3265  0.0001  0.9621
  222MPD1     H 3427   3.596   3.270  16.910 -0.9222  0.8288 -0.6462
  222MPD1    H1 3428   3.637   3.657  17.096  2.2791  1.1178 -0.9560
  222MPD1    H2 3429   3.918   3.521  16.825  2.9000 -1.4831  2.6600
  222MPD1    H3 3430   3.837   3.685  16.983 -0.1053  0.0819 -0.8213
  222MPD1     N 3431   3.467   3.434  17.104 -0.2525  0.4004  0.7036
  222MPD1    H5 3432   3.435   3.511  17.162 -2.8369 -1.4858  1.7635
  222MPD1    N1 3433   3.808   3.283  16.783 -0.1737 -0.0709  0.2023
  222MPD1    H6 3434   3.777   3.186  16.790 -1.5322  0.2168 -2.0313
  222MPD1    H7 3435   3.908   3.275  16.764 -0.1957  1.0255 -0.3405
  223MPD1     C 3436   2.680   2.945  16.789  0.0228 -0.3647  0.2054
  223MPD1    C1 3437   2.816   2.941  16.769 -0.3917  1.2517 -0.0369
  223MPD1    C2 3438   2.899   2.988  16.867 -0.4280 -0.4233 -0.0094
  223MPD1    C3 3439   2.847   3.062  16.972  0.3026 -0.0850 -0.4598
  223MPD1    C4 3440   2.708   3.069  16.991  1.0950 -0.3154 -0.1077
  223MPD1    C5 3441   2.627   3.014  16.895 -0.3843 -0.6974  0.1737
  223MPD1     H 3442   3.007   2.984  16.857 -0.1174  3.1430  1.5871
  223MPD1    H1 3443   2.664   3.125  17.073  2.4214  1.5501 -0.6532
  223MPD1    H2 3444   2.613   2.909  16.711  0.9293 -0.9731 -0.3008
  223MPD1    H3 3445   2.520   3.023  16.901 -0.0984  1.3949  1.9387
  223MPD1     N 3446   2.940   3.132  17.056 -0.3235  0.7338  0.3473
  223MPD1    H5 3447   3.037   3.127  17.027  1.1719  3.0971  4.8725
  223MPD1    N1 3448   2.860   2.869  16.657 -0.0138  0.6348  0.0758
  223MPD1    H6 3449   2.790   2.868  16.583 -0.7868 -1.6169  0.8589
  223MPD1    H7 3450   2.954   2.890  16.624  1.0845  0.0543  2.8825
  224MPD1     C 3451   0.205   4.375   9.233  0.4679  0.1363 -0.3794
  224MPD1    C1 3452   0.306   4.307   9.293 -0.0485  0.0520  0.1365
  224MPD1    C2 3453   0.278   4.225   9.399 -0.0217  0.3577  0.0314
  224MPD1    C3 3454   0.152   4.204   9.447  0.1701  0.5626 -0.5092
  224MPD1    C4 3455   0.055   4.287   9.388  0.2790 -0.0519 -0.0071
  224MPD1    C5 3456   0.081   4.367   9.282  0.1570 -0.6523  0.6028
  224MPD1     H 3457   0.362   4.172   9.442 -0.0828 -0.7445 -1.2301
  224MPD1    H1 3458   4.686   4.279   9.410  0.0223  0.7698 -0.9919
  224MPD1    H2 3459   0.219   4.421   9.136  5.7084  1.5966  1.1107
  224MPD1    H3 3460   0.001   4.432   9.247  0.6756 -0.8285 -0.9380
  224MPD1     N 3461   0.120   4.121   9.556 -0.4720 -0.8355 -0.9798
  224MPD1    H5 3462   0.022   4.111   9.582  0.4928 -1.9456  2.2327
  224MPD1    N1 3463   0.438   4.325   9.252  0.4067 -0.3510  0.2189
  224MPD1    H6 3464   0.448   4.420   9.220 -0.6283 -0.5042 -0.5470
  224MPD1    H7 3465   0.507   4.297   9.322  0.1840  2.7951  1.6839
  225MPD1     C 3466   1.924   0.770  11.422 -0.5072 -0.2102  0.7459
  225MPD1    C1 3467   1.877   0.658  11.369 -0.0495 -1.4246  0.3093
  225MPD1    C2 3468   1.767   0.596  11.428 -0.4663 -0.1790  0.1579
  225MPD1    C3 3469   1.696   0.664  11.528  0.1017 -0.2386 -0.1397
  225MPD1    C4 3470   1.740   0.784  11.570 -0.6682  0.5611  0.2506
  225MPD1    C5 3471   1.859   0.837  11.523  0.3508  0.0181 -0.3636
  225MPD1     H 3472   1.734   0.497  11.395  1.0510  0.0926 -2.1958
  225MPD1    H1 3473   1.692   0.829  11.657 -0.8714  1.4879 -0.3470
  225MPD1    H2 3474   2.019   0.814  11.391  0.5272 -0.0700  4.0613
  225MPD1    H3 3475   1.898   0.924  11.574  0.9044  0.1218 -0.9596
  225MPD1     N 3476   1.572   0.625  11.587 -0.1632  0.1297 -0.6157
  225MPD1    H5 3477   1.535   0.688  11.657  3.1151  0.5417  0.7477
  225MPD1    N1 3478   1.958   0.589  11.281 -0.1002 -0.7582  0.1792
  225MPD1    H6 3479   2.000   0.652  11.213  1.4955  2.0473  3.7869
  225MPD1    H7 3480   1.911   0.514  11.230 -0.6334 -0.2271 -0.1016
  226MPD1     C 3481   4.483   1.359   9.340 -0.8294 -0.6258  0.1725
  226MPD1    C1 3482   4.622   1.338   9.325 -0.3692 -0.5497 -0.2603
  226MPD1    C2 3483   4.665   1.206   9.305  0.2173  0.5145 -0.0064
  226MPD1    C3 3484   4.564   1.109   9.289 -0.4494 -0.5875 -0.0343
  226MPD1    C4 3485   4.429   1.136   9.298 -0.3119 -0.4251 -0.0664
  226MPD1    C5 3486   4.387   1.263   9.322  0.1455 -0.0558  0.3127
  226MPD1     H 3487   0.032   1.179   9.302  0.2140  0.6089 -1.0884
  226MPD1    H1 3488   4.354   1.058   9.290  0.3667 -0.8296 -2.7000
  226MPD1    H2 3489   4.454   1.463   9.345 -0.0547 -0.5026  2.0739
  226MPD1    H3 3490   4.283   1.281   9.346 -0.3905  0.3910 -2.3337
  226MPD1     N 3491   4.611   0.969   9.265  0.5747 -0.1710 -0.7235
  226MPD1    H5 3492   4.712   0.963   9.253  0.5756 -0.4936 -0.5436
  226MPD1    N1 3493   4.710   1.448   9.342  0.6853  0.0201 -0.1634
  226MPD1    H6 3494   0.067   1.411   9.342 -0.6488 -3.4152 -2.2191
  226MPD1    H7 3495   4.708   1.483   9.437  1.7936  0.6791 -0.3773
  227MPD1     C 3496   0.452   0.888   8.715 -0.2459 -1.2341 -0.2617
  227MPD1    C1 3497   0.432   0.965   8.823  0.7846 -0.5985  0.7851
  227MPD1    C2 3498   0.347   0.917   8.917  0.1682  0.8878 -0.5206
  227MPD1    C3 3499   0.294   0.784   8.913 -0.2936 -0.2815  0.1282
  227MPD1    C4 3500   0.322   0.704   8.804  0.2119  0.2223  0.7010
  227MPD1    C5 3501   0.403   0.760   8.704 -0.6705 -0.1374  0.5457
  227MPD1     H 3502   0.312   0.975   9.002  0.4724 -0.4199  0.5091
  227MPD1    H1 3503   0.286   0.602   8.789  0.9527  0.1606 -0.6644
  227MPD1    H2 3504   0.508   0.924   8.630  0.4643  0.0700  0.7735
  227MPD1    H3 3505   0.422   0.698   8.616 -3.0198 -2.9526  2.0189
  227MPD1     N 3506   0.208   0.747   9.027  0.4917  0.5596  0.5448
  227MPD1    H5 3507   0.180   0.826   9.083  1.6967 -0.7718  3.0326
  227MPD1    N1 3508   0.468   1.100   8.833  0.3201  0.2809  0.1636
  227MPD1    H6 3509   0.555   1.110   8.782 -0.0432 -0.7666 -0.6658
  227MPD1    H7 3510   0.477   1.133   8.929  2.7236  0.7843 -0.2477
  228MPD1     C 3511   2.737   3.420  13.143 -0.7895 -0.2945 -0.3331
  228MPD1    C1 3512   2.694   3.404  13.011  0.3568 -0.2129  0.2331
  228MPD1    C2 3513   2.694   3.269  12.966 -0.0211 -0.0189  0.3787
  228MPD1    C3 3514   2.708   3.163  13.052  0.1015  0.1956 -0.2171
  228MPD1    C4 3515   2.740   3.183  13.183  0.4271 -0.4628 -0.6824
  228MPD1    C5 3516   2.770   3.311  13.222  0.1216 -0.2389  0.5328
  228MPD1     H 3517   2.665   3.253  12.862  0.6582  0.9465  0.0356
  228MPD1    H1 3518   2.748   3.112  13.265 -2.1653  1.5542  1.3395
  228MPD1    H2 3519   2.773   3.516  13.178  1.8473 -2.2664  2.3533
  228MPD1    H3 3520   2.814   3.339  13.317 -0.3825 -1.0541  1.0068
  228MPD1     N 3521   2.672   3.033  13.008 -0.1621 -0.0776  0.4222
  228MPD1    H5 3522   2.632   3.019  12.916  0.2758 -1.0752  0.3894
  228MPD1    N1 3523   2.693   3.513  12.920 -0.0652  0.4144  0.2172
  228MPD1    H6 3524   2.653   3.595  12.965 -1.0853  0.7680 -1.3536
  228MPD1    H7 3525   2.626   3.494  12.847 -0.9436 -1.0692  1.3935
  229MPD1     C 3526   2.077   2.001  14.771 -0.3505  0.3256 -0.2361
  229MPD1    C1 3527   2.005   1.887  14.811  0.5096  0.0558  0.0779
  229MPD1    C2 3528   2.067   1.804  14.901 -0.7206  0.1246 -0.0837
  229MPD1    C3 3529   2.194   1.832  14.956  0.5133 -0.1901 -0.2684
  229MPD1    C4 3530   2.252   1.960  14.925  0.3049 -0.4652 -0.5470
  229MPD1    C5 3531   2.195   2.039  14.831  0.4139 -0.1653 -0.2723
  229MPD1     H 3532   2.017   1.718  14.943 -0.0830 -0.2039  0.0125
  229MPD1    H1 3533   2.345   1.997  14.966 -0.6130  1.2171  0.0337
  229MPD1    H2 3534   2.036   2.074  14.702 -1.4523 -0.0574  0.0165
  229MPD1    H3 3535   2.245   2.131  14.802 -0.7782 -0.1037 -2.1335
  229MPD1     N 3536   2.263   1.745  15.042 -0.0476 -0.1237 -1.0320
  229MPD1    H5 3537   2.359   1.768  15.066 -0.4581 -1.6893  2.1235
  229MPD1    N1 3538   1.880   1.858  14.750 -0.5664 -0.3406  1.3256
  229MPD1    H6 3539   1.819   1.802  14.808 -0.1245  0.7493  2.8434
  229MPD1    H7 3540   1.826   1.943  14.734  2.3338  0.9595 -1.6226
  230MPD1     C 3541   2.827   1.920  15.774  0.3104  0.4085  0.0315
  230MPD1    C1 3542   2.870   1.791  15.758 -0.4323 -0.2234 -0.6954
  230MPD1    C2 3543   2.792   1.700  15.688  0.6415 -0.0870  0.1869
  230MPD1    C3 3544   2.691   1.755  15.609 -0.2485 -0.9005 -0.2025
  230MPD1    C4 3545   2.665   1.891  15.605 -0.4700 -0.4301 -0.6132
  230MPD1    C5 3546   2.729   1.971  15.696  0.6792  0.2681 -0.1338
  230MPD1     H 3547   2.806   1.593  15.680  2.0977 -0.0367  2.0741
  230MPD1    H1 3548   2.608   1.938  15.526  1.6783 -0.7922 -2.3683
  230MPD1    H2 3549   2.871   1.991  15.844  0.9155  0.1211 -0.0529
  230MPD1    H3 3550   2.704   2.077  15.701 -0.4132 -0.1270  3.1468
  230MPD1     N 3551   2.622   1.669  15.520 -0.0984  0.3467 -0.6008
  230MPD1    H5 3552   2.658   1.576  15.501  2.0796  1.3501 -1.3112
  230MPD1    N1 3553   2.978   1.753  15.833 -0.0425 -0.5486  0.5444
  230MPD1    H6 3554   3.041   1.827  15.864 -0.7354 -0.6892  2.2658
  230MPD1    H7 3555   3.041   1.698  15.775 -2.3512 -0.3639 -2.1366
  231MPD1     C 3556   0.757   4.351  15.925 -0.2831 -0.3385 -0.4006
  231MPD1    C1 3557   0.791   4.224  15.900 -0.5088 -0.4867 -0.5704
  231MPD1    C2 3558   0.824   4.195  15.772  0.3020 -0.3437  0.3071
  231MPD1    C3 3559   0.824   4.292  15.673 -0.4518  0.1466  0.5302
  231MPD1    C4 3560   0.783   4.418  15.695 -0.1806 -0.0371 -0.0650
  231MPD1    C5 3561   0.748   4.444  15.821  0.5576 -0.4909 -0.2650
  231MPD1     H 3562   0.874   4.101  15.755  1.9765  0.4149  0.9437
  231MPD1    H1 3563   0.782   4.497  15.621  3.0488  0.5745  0.5071
  231MPD1    H2 3564   0.743   4.374  16.030  1.2969 -0.5365 -0.1427
  231MPD1    H3 3565   0.721   4.547  15.844  1.1729  0.3951 -3.5659
  231MPD1     N 3566   0.881   4.244  15.551  0.3632 -0.1281 -0.2507
  231MPD1    H5 3567   0.930   4.155  15.550 -2.2076 -1.5259 -2.8179
  231MPD1    N1 3568   0.799   4.125  16.001  0.1253 -0.5557  0.4111
  231MPD1    H6 3569   0.758   4.042  15.958  0.7923 -0.1373 -1.0399
  231MPD1    H7 3570   0.743   4.151  16.082  1.0777 -0.3682  0.9970
  232MPD1     C 3571   1.947   2.062   0.516 -1.0161 -0.1943 -0.1498
  232MPD1    C1 3572   1.930   2.126   0.393  0.7407  0.0184  0.0998
  232MPD1    C2 3573   1.935   2.043   0.283 -0.1692  0.2219 -0.2460
  232MPD1    C3 3574   1.930   1.906   0.297  0.1926 -0.4280 -0.4486
  232MPD1    C4 3575   1.940   1.849   0.422 -0.2502 -1.0166 -0.5579
  232MPD1    C5 3576   1.952   1.933   0.529 -0.3740 -0.4693  0.0694
  232MPD1     H 3577   1.943   2.085   0.183  1.1630  0.6630  0.0482
  232MPD1    H1 3578   1.940   1.743   0.445 -2.3069 -1.2265 -1.5085
  232MPD1    H2 3579   1.946   2.117   0.610  1.2657 -0.0903 -0.1910
  232MPD1    H3 3580   1.942   1.894   0.630  0.9564 -2.8914 -0.7397
  232MPD1     N 3581   1.928   1.826   0.173 -0.2935  0.1129 -0.1365
  232MPD1    H5 3582   1.909   1.875   0.086 -1.1142  4.1355  2.3361
  232MPD1    N1 3583   1.939   2.264   0.391 -0.5653 -0.5752 -0.1027
  232MPD1    H6 3584   1.899   2.306   0.475 -2.7894 -3.5824  0.3482
  232MPD1    H7 3585   1.901   2.300   0.303 -0.0872 -1.4875 -0.6789
  233MPD1     C 3586   4.133   0.642   2.001 -0.3729 -0.1701 -0.2161
  233MPD1    C1 3587   4.250   0.683   2.070  0.3016 -0.3597 -0.0258
  233MPD1    C2 3588   4.356   0.595   2.068 -0.5578 -0.1431  0.9752
  233MPD1    C3 3589   4.353   0.470   1.996  0.4449 -0.1333 -0.5305
  233MPD1    C4 3590   4.233   0.434   1.927 -0.0894  0.6307  0.3396
  233MPD1    C5 3591   4.125   0.520   1.936  0.2465  0.4453  0.2316
  233MPD1     H 3592   4.453   0.627   2.104  0.0323 -1.3495  0.4429
  233MPD1    H1 3593   4.221   0.345   1.866  0.6741  0.0035  1.1165
  233MPD1    H2 3594   4.056   0.712   1.972 -0.5555 -0.4256 -0.3440
  233MPD1    H3 3595   4.037   0.510   1.874  0.2284 -0.0573  0.3469
  233MPD1     N 3596   4.470   0.381   1.983  0.1276 -0.1603 -0.1346
  233MPD1    H5 3597   4.463   0.303   1.919  2.7019 -0.3918 -0.1479
  233MPD1    N1 3598   4.261   0.815   2.107  0.2186 -1.0482  0.2887
  233MPD1    H6 3599   4.318   0.824   2.191  1.5379  0.4750 -0.7424
  233MPD1    H7 3600   4.170   0.853   2.133  0.3103  0.0762 -1.0230
  234MPD1     C 3601   0.678   2.465   9.680 -0.2660  0.7873  1.1799
  234MPD1    C1 3602   0.713   2.548   9.573 -0.5127  0.9518  0.1350
  234MPD1    C2 3603   0.731   2.680   9.600 -1.0177  0.1304  0.4417
  234MPD1    C3 3604   0.732   2.729   9.729 -0.3970  0.2937 -0.0813
  234MPD1    C4 3605   0.696   2.646   9.827  0.1638 -0.4027 -0.0668
  234MPD1    C5 3606   0.662   2.513   9.805 -0.4445  0.1009  0.0335
  234MPD1     H 3607   0.756   2.754   9.525  0.7081  0.4522  1.3155
  234MPD1    H1 3608   0.700   2.672   9.932 -0.1566  3.6842 -1.0386
  234MPD1    H2 3609   0.673   2.359   9.658  0.0874  1.3335 -1.5299
  234MPD1    H3 3610   0.645   2.440   9.882  0.4818 -1.3944 -1.1760
  234MPD1     N 3611   0.776   2.862   9.740 -0.2414  0.5547 -0.1563
  234MPD1    H5 3612   0.776   2.922   9.658  0.5935  0.0546 -0.5188
  234MPD1    N1 3613   0.706   2.497   9.440 -0.0094  0.0438 -0.1574
  234MPD1    H6 3614   0.739   2.402   9.426  2.0898  0.5054  1.7749
  234MPD1    H7 3615   0.744   2.562   9.371  0.6041 -0.2411 -0.0837
  235MPD1     C 3616   2.348   0.168  10.069 -0.0999  0.2014  0.3150
  235MPD1    C1 3617   2.469   0.228  10.071 -0.2339 -0.4903 -0.4958
  235MPD1    C2 3618   2.467   0.368  10.068 -0.2825 -0.9705 -0.4419
  235MPD1    C3 3619   2.354   0.443  10.044 -0.5693  0.7767 -0.1728
  235MPD1    C4 3620   2.243   0.372  10.016  0.1223  0.3953  0.1374
  235MPD1    C5 3621   2.233   0.238  10.038 -0.8671 -0.1944  1.0505
  235MPD1     H 3622   2.554   0.429  10.089 -0.1260 -0.6080 -2.0895
  235MPD1    H1 3623   2.154   0.430   9.993  0.8156  1.7480  0.8558
  235MPD1    H2 3624   2.342   0.060  10.080  0.0048  0.2465  0.8116
  235MPD1    H3 3625   2.147   0.185   9.999  0.4199  0.0288 -2.0374
  235MPD1     N 3626   2.369   0.581  10.022 -0.1347 -0.2868  0.3586
  235MPD1    H5 3627   2.465   0.609  10.038  0.3008 -0.0414 -2.7984
  235MPD1    N1 3628   2.582   0.154  10.117 -0.0495  0.2066 -1.0014
  235MPD1    H6 3629   2.676   0.188  10.099  0.5916  0.1626  2.2215
  235MPD1    H7 3630   2.589   0.057  10.088  0.7306  0.4408 -1.6117
  236MPD1     C 3631   1.183   1.626   9.905  0.4599  0.1774 -0.0068
  236MPD1    C1 3632   1.246   1.739   9.960  0.0785  0.5294  0.2280
  236MPD1    C2 3633   1.373   1.724  10.022 -0.0853  0.5076 -0.5528
  236MPD1    C3 3634   1.441   1.602  10.017 -0.0516  0.3612 -0.1891
  236MPD1    C4 3635   1.370   1.494   9.971  0.0200 -0.0351  0.0109
  236MPD1    C5 3636   1.254   1.513   9.901 -0.2746 -0.0827 -0.0945
  236MPD1     H 3637   1.418   1.803  10.080 -1.6041 -0.0705  1.4206
  236MPD1    H1 3638   1.415   1.396   9.968 -1.6510 -0.8370  0.6502
  236MPD1    H2 3639   1.087   1.621   9.855  2.3814 -0.7022 -3.6032
  236MPD1    H3 3640   1.215   1.425   9.850  0.0049 -1.2731  1.7405
  236MPD1     N 3641   1.569   1.568  10.075  0.4819 -0.5114  0.2160
  236MPD1    H5 3642   1.579   1.468  10.089 -0.9091 -0.8628 -1.2911
  236MPD1    N1 3643   1.175   1.859   9.972 -0.0352 -0.4646 -0.0444
  236MPD1    H6 3644   1.222   1.948   9.980  0.6480 -1.0958  3.0484
  236MPD1    H7 3645   1.105   1.863   9.899 -2.3252  0.0490  2.1764
  237MPD1     C 3646   0.780   0.925  15.224 -0.5074  0.0231  0.0857
  237MPD1    C1 3647   0.783   0.878  15.353 -0.8044 -0.4005  0.2540
  237MPD1    C2 3648   0.730   0.747  15.380  0.0041 -0.0014 -0.0700
  237MPD1    C3 3649   0.708   0.655  15.277 -0.0430 -0.6981  0.1596
  237MPD1    C4 3650   0.737   0.701  15.149 -0.6415  0.5232 -0.5366
  237MPD1    C5 3651   0.766   0.832  15.124  0.4385  0.1017  0.2398
  237MPD1     H 3652   0.732   0.711  15.482 -1.2244  0.8369  0.2517
  237MPD1    H1 3653   0.725   0.639  15.061 -1.8398  0.9690 -0.7007
  237MPD1    H2 3654   0.793   1.030  15.199 -1.8450 -0.1078 -1.1060
  237MPD1    H3 3655   0.780   0.873  15.025  0.4406  3.6001  1.6749
  237MPD1     N 3656   0.642   0.527  15.289  0.6900  0.4878 -0.4451
  237MPD1    H5 3657   0.619   0.480  15.202 -2.3612 -1.2867  1.3544
  237MPD1    N1 3658   0.784   0.975  15.454  0.1510 -0.2845  0.7552
  237MPD1    H6 3659   0.827   1.064  15.429 -0.2243 -0.4294 -0.3945
  237MPD1    H7 3660   0.823   0.947  15.544  1.9493 -0.9139 -0.2219
  238MPD1     C 3661   2.969   3.692  15.249  0.1775 -0.2074  0.5991
  238MPD1    C1 3662   2.907   3.587  15.308  0.5790 -1.1311 -0.5245
  238MPD1    C2 3663   2.789   3.546  15.248 -0.2458 -0.0402 -0.4028
  238MPD1    C3 3664   2.759   3.572  15.114 -0.5239  0.0581  0.3451
  238MPD1    C4 3665   2.842   3.661  15.046 -0.1858 -0.6586  0.5991
  238MPD1    C5 3666   2.942   3.725  15.118  0.3309  0.1580 -0.5425
  238MPD1     H 3667   2.722   3.478  15.300  1.3051  0.5767  2.4307
  238MPD1    H1 3668   2.824   3.694  14.945  0.4854 -2.9561 -0.2562
  238MPD1    H2 3669   3.043   3.756  15.296  1.9998  0.6059 -3.4228
  238MPD1    H3 3670   3.003   3.798  15.066 -0.2260  1.1574  0.2206
  238MPD1     N 3671   2.656   3.513  15.040 -0.3335  0.4974  0.6504
  238MPD1    H5 3672   2.658   3.530  14.940 -0.0291 -2.0352  0.2188
  238MPD1    N1 3673   2.937   3.567  15.439  0.1568 -0.6269 -0.3882
  238MPD1    H6 3674   3.039   3.562  15.440  0.2038  0.4365 -0.2357
  238MPD1    H7 3675   2.903   3.471  15.444  2.0690 -1.3963 -2.0864
  239MPD1     C 3676   2.399   0.134  14.719 -0.0412  0.4106 -0.6316
  239MPD1    C1 3677   2.438   0.001  14.729  0.1487  0.4802 -0.2224
  239MPD1    C2 3678   2.433   4.667  14.614  0.4109  0.9032  0.0149
  239MPD1    C3 3679   2.376   4.715  14.498  0.5051 -0.2968  0.5176
  239MPD1    C4 3680   2.319   0.098  14.503  0.6153  0.2017 -0.0748
  239MPD1    C5 3681   2.339   0.178  14.611 -0.8573  0.2959 -0.3589
  239MPD1     H 3682   2.487   4.573  14.612  0.5284  0.9835 -0.8325
  239MPD1    H1 3683   2.266   0.132  14.415 -0.5464 -1.1647  0.0996
  239MPD1    H2 3684   2.416   0.202  14.802 -0.3802  1.5384 -1.5022
  239MPD1    H3 3685   2.290   0.275  14.610 -1.7896 -0.1543  0.6708
  239MPD1     N 3686   2.351   4.629  14.386  0.1833 -0.0010 -0.2185
  239MPD1    H5 3687   2.292   4.669  14.314  2.4305  2.5105 -0.6843
  239MPD1    N1 3688   2.497   4.692  14.851 -0.8804  0.2505 -0.5334
  239MPD1    H6 3689   2.477   0.008  14.935 -0.8866 -2.3098  1.0606
  239MPD1    H7 3690   2.476   4.595  14.872  2.9770 -0.8854 -1.9438
  240MPD1     C 3691   2.303   3.975  13.959  0.1853 -0.0725 -0.1206
  240MPD1    C1 3692   2.309   3.992  14.093 -0.1258  0.0181 -0.0357
  240MPD1    C2 3693   2.272   3.893  14.178 -0.3300  0.8347  0.1673
  240MPD1    C3 3694   2.228   3.767  14.132 -0.2579  0.5770 -0.0483
  240MPD1    C4 3695   2.242   3.741  13.995 -0.2838 -0.0306  0.1385
  240MPD1    C5 3696   2.282   3.844  13.916  0.0858 -0.7598  0.1317
  240MPD1     H 3697   2.259   3.913  14.284  0.1407  2.8821 -0.1638
  240MPD1    H1 3698   2.210   3.649  13.948  1.8271 -0.8911  0.3652
  240MPD1    H2 3699   2.327   4.052  13.887 -0.0210  0.1155  0.0138
  240MPD1    H3 3700   2.281   3.824  13.810 -0.8983 -2.3963  0.4541
  240MPD1     N 3701   2.180   3.674  14.222 -0.0691 -0.0627 -0.0143
  240MPD1    H5 3702   2.157   3.707  14.315 -0.2404 -0.3312  0.0384
  240MPD1    N1 3703   2.319   4.126  14.141  0.5607 -0.2068 -0.4908
  240MPD1    H6 3704   2.359   4.125  14.234  0.1887 -0.7319 -0.3379
  240MPD1    H7 3705   2.375   4.179  14.073  1.4881  0.8493  1.0998
  241MPD1     C 3706   1.800   3.821  15.062  0.1197  0.3955 -0.4405
  241MPD1    C1 3707   1.927   3.824  15.013 -0.0584  0.5857 -0.0141
  241MPD1    C2 3708   1.965   3.758  14.895  0.2452  0.3471 -0.2659
  241MPD1    C3 3709   1.875   3.686  14.824  0.6424  0.2939 -0.0158
  241MPD1    C4 3710   1.749   3.678  14.886  0.4448 -0.1759 -0.3433
  241MPD1    C5 3711   1.710   3.745  14.997 -0.6342  0.1253  0.0969
  241MPD1     H 3712   2.069   3.774  14.869  0.2722 -0.0450 -0.3837
  241MPD1    H1 3713   1.670   3.623  14.837  2.6127 -1.6592 -2.1444
  241MPD1    H2 3714   1.767   3.860  15.158  0.1538  0.5046 -0.4735
  241MPD1    H3 3715   1.607   3.756  15.028 -0.5982 -0.0901  0.2952
  241MPD1     N 3716   1.905   3.612  14.703  0.3586 -0.2494 -0.0802
  241MPD1    H5 3717   1.819   3.579  14.662 -0.4603 -0.1220  1.5251
  241MPD1    N1 3718   2.034   3.870  15.091  0.3411 -0.3258 -0.0006
  241MPD1    H6 3719   2.003   3.938  15.160  0.4076 -1.6755  1.3551
  241MPD1    H7 3720   2.097   3.923  15.031 -1.1001  0.1593 -1.1134
  242MPD1     C 3721   1.738   3.035  15.456  0.1115 -0.3654 -0.3944
  242MPD1    C1 3722   1.665   2.918  15.425  0.0234  0.0420  0.0961
  242MPD1    C2 3723   1.718   2.823  15.336 -0.1644 -0.2901  0.1149
  242MPD1    C3 3724   1.825   2.854  15.261 -0.0699  0.6207 -0.5072
  242MPD1    C4 3725   1.895   2.970  15.289  0.0350 -0.1942 -0.6017
  242MPD1    C5 3726   1.856   3.059  15.386  0.3947 -1.0456 -0.0060
  242MPD1     H 3727   1.684   2.720  15.336  0.9932 -0.6698 -0.0016
  242MPD1    H1 3728   1.982   2.982  15.224 -0.5874 -1.7546 -1.7338
  242MPD1    H2 3729   1.716   3.091  15.546  0.0316 -2.4352  0.8712
  242MPD1    H3 3730   1.909   3.152  15.404  0.2649 -0.9494 -0.1226
  242MPD1     N 3731   1.871   2.763  15.164 -0.5605  0.0570  0.7572
  242MPD1    H5 3732   1.956   2.794  15.118 -1.2066  1.8993  0.7886
  242MPD1    N1 3733   1.565   2.873  15.514 -0.2048 -0.7898 -0.1513
  242MPD1    H6 3734   1.517   2.958  15.545  0.8939  0.2651 -1.3771
  242MPD1    H7 3735   1.494   2.808  15.480 -0.5206 -1.1616  1.2162
  243MPD1     C 3736   3.532   0.151   0.165 -0.3819 -0.9113  0.8624
  243MPD1    C1 3737   3.493   0.272   0.115  0.2562 -0.4136  0.6384
  243MPD1    C2 3738   3.530   0.307  17.738  0.2850  0.4181  0.3229
  243MPD1    C3 3739   3.585   0.214  17.649 -0.0185 -0.6085 -0.2117
  243MPD1    C4 3740   3.615   0.089  17.697 -0.8689 -0.0281  0.5251
  243MPD1    C5 3741   3.590   0.060   0.078 -0.5595 -0.3527  0.6107
  243MPD1     H 3742   3.515   0.408  17.703 -0.5678 -0.1158 -0.8571
  243MPD1    H1 3743   3.657   0.011  17.634 -0.5824 -0.5749  1.4007
  243MPD1    H2 3744   3.507   0.126   0.268 -0.3990 -0.4953  0.9591
  243MPD1    H3 3745   3.609   4.695   0.108  1.7909 -0.1162 -0.0796
  243MPD1     N 3746   3.622   0.257  17.523 -0.5786  0.2927  0.0982
  243MPD1    H5 3747   3.603   0.354  17.500  0.2554  0.1773 -1.0548
  243MPD1    N1 3748   3.434   0.358   0.209 -0.4719  0.0859 -0.2051
  243MPD1    H6 3749   3.369   0.299   0.261  1.3343 -0.4114  1.5163
  243MPD1    H7 3750   3.365   0.415   0.161 -1.0370  0.3778  0.9611
  244MPD1     C 3751   3.719   4.715  16.470 -0.1643  0.3131 -0.5932
  244MPD1    C1 3752   3.696   0.112  16.483 -0.2553 -0.0312  0.3742
  244MPD1    C2 3753   3.705   0.169  16.608 -0.1247 -0.7095  0.7721
  244MPD1    C3 3754   3.695   0.088  16.719 -0.2867  0.2078 -0.3057
  244MPD1    C4 3755   3.733   4.697  16.705  0.2796  0.7402  1.1603
  244MPD1    C5 3756   3.758   4.646  16.582 -0.3710 -0.1470 -0.2857
  244MPD1     H 3757   3.687   0.276  16.612  0.1926 -0.6920  1.8326
  244MPD1    H1 3758   3.745   4.636  16.794  1.1710  2.4796  2.2214
  244MPD1    H2 3759   3.717   4.665  16.374 -2.3357 -3.1961  1.2644
  244MPD1    H3 3760   3.782   4.543  16.561  3.5900  0.4724  1.1597
  244MPD1     N 3761   3.673   0.153  16.839  0.1377 -0.3102  0.6489
  244MPD1    H5 3762   3.655   0.253  16.832  1.8074  0.1479  2.8629
  244MPD1    N1 3763   3.695   0.197  16.365 -0.0504 -0.1889  0.4877
  244MPD1    H6 3764   3.640   0.281  16.379  1.7802  0.8248  1.6661
  244MPD1    H7 3765   3.697   0.154  16.273  1.5350  3.2853 -1.0618
  245MPD1     C 3766   0.670   1.273  12.938  0.1760 -0.7584 -0.1507
  245MPD1    C1 3767   0.581   1.328  13.027  0.0016  0.6314  0.2781
  245MPD1    C2 3768   0.620   1.445  13.092 -0.3004 -0.0758  0.2101
  245MPD1    C3 3769   0.746   1.495  13.084 -0.2929  0.2961 -0.0351
  245MPD1    C4 3770   0.841   1.431  13.003  0.0363 -0.5421  0.5391
  245MPD1    C5 3771   0.799   1.323  12.932 -0.5333 -0.3513  0.3026
  245MPD1     H 3772   0.548   1.497  13.154 -0.3675  1.0683 -0.8388
  245MPD1    H1 3773   0.941   1.470  12.990 -0.0573 -0.8937 -1.2492
  245MPD1    H2 3774   0.637   1.192  12.874  1.3191 -1.7329  0.5289
  245MPD1    H3 3775   0.856   1.263  12.861  1.6715  2.4282 -0.2728
  245MPD1     N 3776   0.763   1.615  13.158  0.0480  0.3702  0.0988
  245MPD1    H5 3777   0.689   1.647  13.220  0.7314 -0.2870  1.2555
  245MPD1    N1 3778   0.441   1.296  13.012 -0.1934 -0.0813  0.0245
  245MPD1    H6 3779   0.389   1.334  13.091 -1.0710 -1.1393 -0.0466
  245MPD1    H7 3780   0.420   1.197  13.006  1.0790 -0.3518 -0.0981
  246MPD1     C 3781   1.225   0.426  10.311  0.1389  0.2903  0.7453
  246MPD1    C1 3782   1.340   0.369  10.260 -0.2692 -0.2970  0.2357
  246MPD1    C2 3783   1.434   0.455  10.210  0.8426  0.0504 -0.4879
  246MPD1    C3 3784   1.417   0.592  10.202  0.1051  0.0991 -0.3673
  246MPD1    C4 3785   1.300   0.645  10.254 -0.7380 -0.0487 -0.5091
  246MPD1    C5 3786   1.201   0.560  10.295  0.6670  0.1458 -0.8023
  246MPD1     H 3787   1.514   0.404  10.157  1.5048 -0.4670  1.0213
  246MPD1    H1 3788   1.271   0.749  10.250 -2.5769 -0.4272  3.1977
  246MPD1    H2 3789   1.142   0.377  10.361 -0.7921  1.6748  0.5537
  246MPD1    H3 3790   1.115   0.604  10.344  0.9247  0.4749 -0.6500
  246MPD1     N 3791   1.511   0.671  10.133 -0.1618  0.2025  0.3705
  246MPD1    H5 3792   1.598   0.627  10.106 -0.9209  0.3702 -2.4239
  246MPD1    N1 3793   1.368   0.238  10.287  0.3872  0.1908 -0.5566
  246MPD1    H6 3794   1.416   0.189  10.212 -0.9685 -2.2364  0.1441
  246MPD1    H7 3795   1.292   0.173  10.308  0.5664  1.3083  3.4435
  247MPD1     C 3796   0.054   2.809  14.818  0.0680 -0.1660 -0.8199
  247MPD1    C1 3797   0.095   2.919  14.886  0.8138  0.7772 -0.8308
  247MPD1    C2 3798   0.041   2.937  15.016  0.0330  0.4575  0.2012
  247MPD1    C3 3799   4.685   2.852  15.080 -0.1740  0.0076  0.1685
  247MPD1    C4 3800   4.648   2.745  15.000 -0.0001  0.1516  0.2500
  247MPD1    C5 3801   4.700   2.717  14.878  0.2319  0.4042  0.1288
  247MPD1     H 3802   0.088   3.012  15.079  0.7483 -0.5525  0.8665
  247MPD1    H1 3803   4.575   2.675  15.039 -1.0197  1.5244  0.8069
  247MPD1    H2 3804   0.092   2.784  14.720 -0.1908  0.4130 -1.0698
  247MPD1    H3 3805   4.661   2.634  14.820  2.9234 -1.6643  1.2885
  247MPD1     N 3806   4.634   2.852  15.210 -0.2879 -0.0733 -0.1621
  247MPD1    H5 3807   4.586   2.768  15.241 -0.1868 -0.1306 -0.1577
  247MPD1    N1 3808   0.205   2.986  14.843  0.0295 -0.1829 -0.2660
  247MPD1    H6 3809   0.232   3.074  14.887  0.0334 -0.5580  0.4832
  247MPD1    H7 3810   0.192   3.002  14.743  0.0902  0.1656 -0.2182
  248MPD1     C 3811   0.912   1.198   0.416  0.1023 -0.2462 -0.2264
  248MPD1    C1 3812   0.780   1.202   0.449  0.6319 -0.7109 -0.7017
  248MPD1    C2 3813   0.737   1.290   0.546 -0.1078  0.0173  0.1177
  248MPD1    C3 3814   0.827   1.377   0.607  0.6625  0.5033 -0.1061
  248MPD1    C4 3815   0.957   1.372   0.573 -0.6889 -0.0356  0.1275
  248MPD1    C5 3816   1.003   1.283   0.474  0.3974  0.2884 -0.4248
  248MPD1     H 3817   0.630   1.282   0.558 -0.1972  0.6609 -0.2365
  248MPD1    H1 3818   1.022   1.445   0.620 -1.1342 -0.4993  1.4674
  248MPD1    H2 3819   0.952   1.133   0.339 -1.1416  1.7232 -2.5483
  248MPD1    H3 3820   1.110   1.278   0.456  0.6909 -1.8450  2.0460
  248MPD1     N 3821   0.770   1.465   0.710  0.5464 -0.4436 -0.1927
  248MPD1    H5 3822   0.670   1.462   0.725  0.6947 -3.7770  0.1723
  248MPD1    N1 3823   0.692   1.099   0.403 -0.6622 -0.5648 -0.0332
  248MPD1    H6 3824   0.730   1.046   0.325 -0.2774  2.6114 -1.9985
  248MPD1    H7 3825   0.593   1.119   0.389 -0.8154 -0.8616  0.5994
  249MPD1     C 3826   3.553   4.337  10.456 -0.0177 -0.8842  0.8173
  249MPD1    C1 3827   3.562   4.445  10.547 -0.2391  0.6785  0.3923
  249MPD1    C2 3828   3.612   4.563  10.488  0.2258 -0.3614  0.5560
  249MPD1    C3 3829   3.625   4.580  10.355 -0.1018 -0.1404 -0.4421
  249MPD1    C4 3830   3.613   4.472  10.272 -0.2167  0.3480  0.4731
  249MPD1    C5 3831   3.580   4.348  10.324  0.0970 -0.6254  0.1543
  249MPD1     H 3832   3.627   4.652  10.548 -1.1298  0.8751 -0.9613
  249MPD1    H1 3833   3.630   4.481  10.165  0.4610  0.2013  0.5641
  249MPD1    H2 3834   3.519   4.239  10.489 -1.2752  0.0057  2.1444
  249MPD1    H3 3835   3.561   4.264  10.258 -0.2871 -0.1215 -0.3727
  249MPD1     N 3836   3.657   4.712  10.317  0.0659  0.6981 -0.0507
  249MPD1    H5 3837   3.657   0.045  10.390  0.1090 -0.2617  0.8867
  249MPD1    N1 3838   3.533   4.438  10.682  0.4216  0.5544  0.0868
  249MPD1    H6 3839   3.484   4.350  10.697  0.6715  0.1947 -1.1774
  249MPD1    H7 3840   3.468   4.514  10.699 -1.9297 -1.4388 -0.0328
  250MPD2     C 3841   3.508   0.057  13.400 -0.3590 -0.6847 -0.3805
  250MPD2    C1 3842   3.560   0.095  13.283 -0.9742 -0.2724  0.0140
  250MPD2    C2 3843   3.469   0.123  13.183  0.4385  0.0176 -0.0538
  250MPD2    C3 3844   3.338   0.130  13.207 -0.2708 -0.7659  0.1778
  250MPD2    C4 3845   3.295   0.110  13.335 -0.1645 -0.2690 -0.2948
  250MPD2    C5 3846   3.375   0.069  13.430  0.4782 -0.3636 -0.3313
  250MPD2     H 3847   3.496   0.144  13.080  1.4834  1.0593  0.4212
  250MPD2    H1 3848   3.192   0.127  13.364 -0.1542 -0.3988 -0.1846
  250MPD2    H2 3849   3.576   0.031  13.480 -0.9868  0.5093  0.5354
  250MPD2    H3 3850   3.339   0.038  13.528  0.7700 -2.4573 -0.8878
  250MPD2     N 3851   3.242   0.146  13.102  0.3698  0.0690 -0.0213
  250MPD2    H5 3852   3.148   0.130  13.138  0.2703 -3.2324 -1.7769
  250MPD2    N1 3853   3.701   0.085  13.250 -0.1972 -0.1820  0.5048
  250MPD2    H7 3854   3.719   0.079  13.150  0.2007 -0.4425  0.5911
  251TMC3    C1 3855   3.925   0.125  13.286 -0.3110  0.0253 -0.2962
  251TMC3    C2 3856   3.990   0.233  13.328  0.2087 -0.5657 -0.0542
  251TMC3    C3 3857   4.050   0.303  13.229 -0.3077  0.3685  0.1640
  251TMC3    C4 3858   3.953   0.072  13.159  0.2083 -0.1368 -0.8402
  251TMC3    C5 3859   4.041   0.134  13.073  0.5086 -0.2584 -0.4673
  251TMC3    C6 3860   4.089   0.255  13.112  0.6502  0.2842  0.3251
  251TMC3     C 3861   3.800   0.089  13.345 -0.2625 -0.4215 -0.8003
  251TMC3     O 3862   3.802   0.095  13.469  0.4493 -0.1524  0.2694
  251TMC3     H 3863   3.956   0.290  13.413  2.5872 -0.1919  0.6271
  251TMC3    H1 3864   3.895   4.725  13.123  0.8506 -0.6101 -0.7866
  251TMC3    H2 3865   4.158   0.316  13.054 -0.0036  0.9375  0.2317
  251TMC3    C7 3866   4.085   0.064  12.954  0.8595  0.4520 -0.3528
  251TMC3    C8 3867   4.036   0.443  13.239 -0.3906  0.3892 -0.3889
  251TMC3    O1 3868   4.076   4.682  12.944  0.5040 -0.2245 -0.1599
  251TMC3    O2 3869   4.054   0.494  13.350 -0.3773 -0.3929  0.2285
  252TMC3    C1 3870   3.611   1.742   9.727 -0.5518 -0.5814  0.4041
  252TMC3    C2 3871   3.712   1.796   9.800 -0.2932 -0.4312 -0.3177
  252TMC3    C3 3872   3.823   1.720   9.830  0.0291 -0.7137 -0.0313
  252TMC3    C4 3873   3.612   1.608   9.697  0.1459  0.4046  0.3831
  252TMC3    C5 3874   3.710   1.527   9.755  0.0881 -0.4588 -0.0082
  252TMC3    C6 3875   3.816   1.584   9.813 -0.2943  0.0392 -0.6892
  252TMC3     C 3876   3.520   1.829   9.648 -0.8997 -0.2561  0.7279
  252TMC3     O 3877   3.510   1.943   9.693 -0.3435  0.8275  0.1482
  252TMC3     H 3878   3.726   1.904   9.800 -0.5210 -0.4015 -1.7016
  252TMC3    H1 3879   3.538   1.555   9.638  3.1269 -3.1022 -0.2022
  252TMC3    H2 3880   3.901   1.523   9.839  0.9452  2.0596  0.0124
  252TMC3    C7 3881   3.697   1.381   9.759 -0.4548  0.7258  0.0822
  252TMC3    C8 3882   3.956   1.785   9.827  0.1376 -0.1768  0.3484
  252TMC3    O1 3883   3.584   1.342   9.739 -0.4347  0.7445 -0.6129
  252TMC3    O2 3884   3.952   1.904   9.796 -0.3274  0.4015 -0.1501
  253MPD2     C 3885   0.142   0.442  15.470 -0.1334  0.5577 -0.5941
  253MPD2    C1 3886   0.056   0.359  15.396 -0.5309 -0.2738 -0.1189
  253MPD2    C2 3887   4.693   0.291  15.461 -0.7813 -0.6275  0.2684
  253MPD2    C3 3888   4.676   0.298  15.597  0.0869 -0.0311  0.9148
  253MPD2    C4 3889   0.025   0.372  15.670 -0.0059 -0.1758 -0.1852
  253MPD2    C5 3890   0.128   0.437  15.611  0.6043  0.1448 -0.7430
  253MPD2     H 3891   4.618   0.247  15.396  0.5016 -2.3106 -0.0785
  253MPD2    H1 3892   0.019   0.388  15.777 -1.8873 -0.0058 -0.3163
  253MPD2    H2 3893   0.228   0.493  15.428  0.5004 -0.0400 -0.0240
  253MPD2    H3 3894   0.195   0.495  15.674  0.3080 -0.0586 -0.2402
  253MPD2     N 3895   4.556   0.259  15.668 -0.0570 -0.1152 -0.1113
  253MPD2    H5 3896   4.551   0.281  15.767 -1.3136 -1.5025  0.1349
  253MPD2    N1 3897   0.063   0.339  15.253  0.7081 -0.5537  0.2807
  253MPD2    H7 3898   4.725   0.281  15.220 -0.3175  1.8101 -1.5353
  254TMC3    C1 3899   4.336   0.192  15.678  0.2907 -0.0904 -0.3410
  254TMC3    C2 3900   4.327   0.299  15.763 -0.4243  0.5871 -0.3032
  254TMC3    C3 3901   4.252   0.274  15.880 -0.9699  0.2255  0.0493
  254TMC3    C4 3902   4.286   0.070  15.706 -0.1353 -0.0089  0.3798
  254TMC3    C5 3903   4.224   0.045  15.833  0.0707 -0.5245  0.0266
  254TMC3    C6 3904   4.200   0.151  15.922  0.1446  0.2800  0.0805
  254TMC3     C 3905   4.457   0.183  15.604 -0.2139  0.8279 -0.5067
  254TMC3     O 3906   4.462   0.113  15.505 -0.3645  0.0840 -0.3202
  254TMC3     H 3907   4.361   0.399  15.737  0.9528  0.0016 -0.7894
  254TMC3    H1 3908   4.305   4.721  15.644 -1.5615  1.6255 -2.3327
  254TMC3    H2 3909   4.149   0.143  16.017  0.4415  0.0872  0.2205
  254TMC3    C7 3910   4.211   4.646  15.888 -0.3900 -0.3090  0.4569
  254TMC3    C8 3911   4.226   0.391  15.963  0.0235  0.3626 -0.0803
  254TMC3    O1 3912   4.135   4.567  15.836  0.0772 -0.4675 -0.2460
  254TMC3    O2 3913   4.306   0.484  15.954  0.2523 -0.5090 -1.0301
  255MPD2     C 3914   3.257   3.661  10.445  0.3517  0.4482 -0.6804
  255MPD2    C1 3915   3.205   3.616  10.326  0.0800  0.2564  0.0397
  255MPD2    C2 3916   3.253   3.501  10.260  0.1357 -0.4344 -0.3558
  255MPD2    C3 3917   3.328   3.417  10.343 -0.1848 -0.2135 -0.0265
  255MPD2    C4 3918   3.359   3.454  10.469 -0.2697  0.1220  0.2369
  255MPD2    C5 3919   3.329   3.574  10.520  0.0750  0.4166 -0.3671
  255MPD2     H 3920   3.217   3.468  10.164  3.3609 -3.0727 -0.6766
  255MPD2    H1 3921   3.424   3.392  10.529  0.0303  0.3848  0.1835
  255MPD2    H2 3922   3.224   3.754  10.490 -1.1805 -1.7707  2.7642
  255MPD2    H3 3923   3.365   3.606  10.617  1.4856  1.8239 -1.3472
  255MPD2     N 3924   3.371   3.298  10.277  0.7547 -0.9924  0.8208
  255MPD2    H5 3925   3.332   3.278  10.185 -1.5317  1.8244  1.1696
  255MPD2    N1 3926   3.118   3.685  10.242 -0.5427  0.0427  0.3149
  255MPD2    H7 3927   3.083   3.641  10.157 -0.7005 -0.2016  0.5070
  256TMC3    C1 3928   3.012   3.857  10.140  0.2820 -0.0200 -0.1106
  256TMC3    C2 3929   3.044   3.953  10.050 -0.0271 -0.3021  0.1056
  256TMC3    C3 3930   2.952   3.972   9.949  0.5507  0.6496  0.0394
  256TMC3    C4 3931   2.897   3.778  10.126 -0.2644 -0.4310 -0.5536
  256TMC3    C5 3932   2.816   3.795  10.014 -0.2110 -0.1517 -0.0243
  256TMC3    C6 3933   2.838   3.901   9.936  0.2485 -0.3275  0.4952
  256TMC3     C 3934   3.094   3.819  10.252 -0.2334 -0.1224  0.1351
  256TMC3     O 3935   3.157   3.907  10.318 -0.5105  0.2515  0.3389
  256TMC3     H 3936   3.117   4.030  10.069  1.0409 -1.1059 -0.7704
  256TMC3    H1 3937   2.875   3.707  10.205 -3.9276 -0.5300 -1.6483
  256TMC3    H2 3938   2.787   3.905   9.841 -0.1314 -0.9423  0.6705
  256TMC3    C7 3939   2.758   3.667   9.984  0.0238 -0.3358 -0.5442
  256TMC3    C8 3940   2.997   4.019   9.824  0.7032 -0.2781  0.3951
  256TMC3    O1 3941   2.824   3.568  10.012  0.0477  0.7872  0.7840
  256TMC3    O2 3942   2.921   4.073   9.745 -0.4570  0.7832 -0.2417
  257MPD2     C 3943   2.228   0.188  13.007  0.5783 -0.2979  0.0066
  257MPD2    C1 3944   2.262   0.146  12.885  0.0496  0.2902 -0.3500
  257MPD2    C2 3945   2.255   0.009  12.855  0.0702 -0.1434 -0.0490
  257MPD2    C3 3946   2.221   4.655  12.949 -0.1031  0.2188 -0.3499
  257MPD2    C4 3947   2.184   4.704  13.077 -0.5674  0.1259  0.4309
  257MPD2    C5 3948   2.201   0.098  13.105 -0.0592  0.3923  0.0042
  257MPD2     H 3949   2.299   4.697  12.769  0.1428 -0.6389  0.2801
  257MPD2    H1 3950   2.148   4.647  13.161  1.0998 -0.0981  0.9775
  257MPD2    H2 3951   2.237   0.293  13.031  1.2543 -0.0214 -1.4151
  257MPD2    H3 3952   2.172   0.131  13.204  0.0065  2.9081 -0.8078
  257MPD2     N 3953   2.231   4.517  12.922  0.4745 -0.3254  0.3459
  257MPD2    H5 3954   2.241   4.485  12.826  1.7418  0.7858  0.1174
  257MPD2    N1 3955   2.308   0.240  12.789  0.2235  0.0591 -0.7606
  257MPD2    H7 3956   2.325   0.336  12.818  0.9369 -0.6260  1.0816
  258TMC3    C1 3957   2.188   4.292  12.958 -0.1799  1.3268 -0.1043
  258TMC3    C2 3958   2.124   4.275  12.837  0.2012 -0.5525 -0.1302
  258TMC3    C3 3959   2.130   4.161  12.757  0.7969  0.2654  0.4040
  258TMC3    C4 3960   2.266   4.184  12.997 -0.3508 -0.1354  0.3548
  258TMC3    C5 3961   2.268   4.074  12.918 -0.1085  0.1318  0.2193
  258TMC3    C6 3962   2.208   4.059  12.799 -0.3339  0.3209 -0.5529
  258TMC3     C 3963   2.210   4.418  13.015 -0.4489  1.1120 -0.6434
  258TMC3     O 3964   2.214   4.435  13.136  0.1051 -0.1955 -0.2438
  258TMC3     H 3965   2.070   4.361  12.798  0.1107  0.0361  1.2874
  258TMC3    H1 3966   2.313   4.186  13.094  0.1472  0.4066  0.1000
  258TMC3    H2 3967   2.228   3.969  12.743 -0.4571 -0.2077  0.2511
  258TMC3    C7 3968   2.344   3.966  12.958  0.6619 -0.2766  0.1095
  258TMC3    C8 3969   2.093   4.172  12.615  0.1474 -0.8958 -0.3017
  258TMC3    O1 3970   2.309   3.852  12.926 -0.1359  0.2799  0.1636
  258TMC3    O2 3971   2.094   4.286  12.566 -0.0500 -0.1927  0.9889
  259MPD2     C 3972   1.224   2.430   0.709  0.4041 -0.2385  0.3520
  259MPD2    C1 3973   1.251   2.295   0.723 -0.6326 -0.5615  0.1439
  259MPD2    C2 3974   1.237   2.216   0.607  0.0576 -0.2778 -0.0821
  259MPD2    C3 3975   1.178   2.272   0.497  0.5298 -0.1269  0.0399
  259MPD2    C4 3976   1.135   2.402   0.493  0.0908  0.3060  0.0491
  259MPD2    C5 3977   1.166   2.485   0.601 -0.4108 -0.3803  0.5754
  259MPD2     H 3978   1.269   2.112   0.606 -0.6689 -0.5183  1.5265
  259MPD2    H1 3979   1.083   2.440   0.405 -0.1144 -1.0445 -0.4251
  259MPD2    H2 3980   1.234   2.506   0.786 -0.7644  2.0670 -1.8024
  259MPD2    H3 3981   1.131   2.587   0.611  0.8352 -0.1980  2.9959
  259MPD2     N 3982   1.163   2.184   0.382  0.0945 -0.6617  0.0366
  259MPD2    H5 3983   1.208   2.097   0.409 -0.2926 -0.3775  1.6093
  259MPD2    N1 3984   1.299   2.246   0.846 -0.1251  0.0113  0.1780
  259MPD2    H7 3985   1.280   2.303   0.928  0.2614 -0.5190  0.6392
  260TMC3    C1 3986   1.138   2.124   0.155  0.0793  0.2915  0.6633
  260TMC3    C2 3987   1.131   2.160   0.025 -0.6739  0.4727  0.8607
  260TMC3    C3 3988   1.119   2.070  17.677 -0.3330  0.2225  0.5526
  260TMC3    C4 3989   1.135   1.992   0.189  0.5086 -0.0496 -0.1102
  260TMC3    C5 3990   1.127   1.897   0.088  0.4528 -0.3040 -0.0613
  260TMC3    C6 3991   1.115   1.937  17.707 -0.7399  0.0567  0.3570
  260TMC3     C 3992   1.144   2.230   0.252  0.4622  0.4318  0.2917
  260TMC3     O 3993   1.105   2.341   0.212  0.4283 -0.3316  0.3136
  260TMC3     H 3994   1.148   2.263  17.744  2.4801 -0.1192  0.6143
  260TMC3    H1 3995   1.140   1.960   0.293 -1.3499 -0.0428 -0.0118
  260TMC3    H2 3996   1.094   1.867  17.627 -1.2141  2.1676 -1.3627
  260TMC3    C7 3997   1.145   1.754   0.108 -0.2959 -0.0503  0.0601
  260TMC3    C8 3998   1.200   2.102  17.566  0.5051 -0.4435  0.4978
  260TMC3    O1 3999   1.124   1.678   0.014  0.1907  0.1262  0.1608
  260TMC3    O2 4000   1.201   2.220  17.528 -0.3015  0.3080 -0.0326
  261MPD2     C 4001   3.289   4.581  12.408 -0.3047 -0.2456  0.1331
  261MPD2    C1 4002   3.245   4.711  12.408  0.3253 -0.0842 -0.1800
  261MPD2    C2 4003   3.262   0.051  12.295 -0.0784 -0.4566 -0.8024
  261MPD2    C3 4004   3.310   4.723  12.182  0.3931 -0.1522 -0.5397
  261MPD2    C4 4005   3.349   4.589  12.187 -0.1186  0.4296 -0.5896
  261MPD2    C5 4006   3.344   4.522  12.299 -0.2357  0.5025 -0.1056
  261MPD2     H 4007   3.228   0.154  12.300  0.3390 -0.3940  0.8944
  261MPD2    H1 4008   3.396   4.542  12.101 -0.4444 -0.6408 -0.1785
  261MPD2    H2 4009   3.287   4.522  12.499 -0.0026  0.0472  0.3263
  261MPD2    H3 4010   3.379   4.420  12.304  0.4502  0.8198  1.4046
  261MPD2     N 4011   3.325   0.037  12.049 -0.6973 -1.1360  0.0219
  261MPD2    H5 4012   3.351   4.707  11.978 -2.2310  0.6943 -2.2931
  261MPD2    N1 4013   3.195   0.028  12.530 -0.1899 -0.2946 -0.5777
  261MPD2    H7 4014   3.185   0.129  12.542  0.0275 -0.3032 -0.3307
  262TMC3    C1 4015   3.339   0.198  11.881 -0.6387  0.9896  0.7736
  262TMC3    C2 4016   3.268   0.299  11.825  0.6405  0.2325  0.2123
  262TMC3    C3 4017   3.237   0.294  11.693  0.1831 -0.0626  0.0808
  262TMC3    C4 4018   3.397   0.106  11.811 -0.2262 -0.7198 -0.0767
  262TMC3    C5 4019   3.362   0.096  11.681 -0.4871 -0.2239  0.9778
  262TMC3    C6 4020   3.278   0.187  11.624 -0.0289  0.8576 -0.2043
  262TMC3     C 4021   3.312   0.168  12.016 -0.0530 -0.2081 -0.5036
  262TMC3     O 4022   3.274   0.258  12.087 -0.6613 -0.1012 -0.6886
  262TMC3     H 4023   3.225   0.380  11.882 -0.4560 -0.4010  0.2854
  262TMC3    H1 4024   3.471   0.034  11.845  2.9505  2.3009 -0.6675
  262TMC3    H2 4025   3.280   0.185  11.515 -0.9483 -0.3723 -0.2073
  262TMC3    C7 4026   3.466   0.057  11.596 -0.4891 -0.6920  0.4728
  262TMC3    C8 4027   3.259   0.423  11.623  0.2952  0.3269  0.1725
  262TMC3    O1 4028   3.439   4.730  11.496  0.6325  0.0261  0.0049
  262TMC3    O2 4029   3.336   0.421  11.529 -0.1273  0.5356  0.7122
  263MPD2     C 4030   4.500   3.880  11.131 -0.0269 -0.4298  0.2002
  263MPD2    C1 4031   4.631   3.860  11.123  0.0326  0.3376  0.2263
  263MPD2    C2 4032   4.702   3.912  11.017 -0.6117  0.6714 -0.2775
  263MPD2    C3 4033   4.638   3.997  10.931 -0.5935  0.1021 -0.2034
  263MPD2    C4 4034   4.503   4.007  10.938  0.4633 -0.0945  0.0587
  263MPD2    C5 4035   4.433   3.945  11.035 -0.5244  0.0276 -0.2233
  263MPD2     H 4036   0.071   3.898  11.013 -0.7183 -0.4086  0.5770
  263MPD2    H1 4037   4.441   4.066  10.872  0.7939 -1.2378 -1.2690
  263MPD2    H2 4038   4.442   3.824  11.204  1.2615 -2.1645 -0.1063
  263MPD2    H3 4039   4.325   3.955  11.040 -0.5246 -0.2095  0.2876
  263MPD2     N 4040   4.700   4.069  10.822 -0.0380  0.6078 -0.3666
  263MPD2    H5 4041   4.646   4.149  10.791 -0.7180  0.0797 -0.5402
  263MPD2    N1 4042   4.689   3.775  11.221 -0.0596  0.9104 -0.4195
  263MPD2    H7 4043   4.636   3.744  11.302 -0.7246  3.3418  0.0506
  264TMC3    C1 4044   0.139   4.139  10.683  0.4225  0.4442  0.5105
  264TMC3    C2 4045   0.080   4.266  10.685 -0.2971  0.0475 -0.2662
  264TMC3    C3 4046   0.126   4.356  10.587  0.1382  0.1759  0.1059
  264TMC3    C4 4047   0.235   4.103  10.587 -0.4326  0.0777  0.0918
  264TMC3    C5 4048   0.270   4.200  10.492  0.3441 -0.4265  0.5295
  264TMC3    C6 4049   0.206   4.320  10.482  0.2839 -0.1015  0.2544
  264TMC3     C 4050   0.088   4.037  10.767 -0.3220 -0.0626 -0.1285
  264TMC3     O 4051   0.140   3.926  10.769 -0.1078 -0.2023 -0.4902
  264TMC3     H 4052   0.036   4.310  10.773  0.0720 -2.5865  1.2487
  264TMC3    H1 4053   0.291   4.010  10.588  1.5786  1.2973  0.9570
  264TMC3    H2 4054   0.253   4.405  10.434  2.6133 -2.2438 -1.2254
  264TMC3    C7 4055   0.400   4.189  10.432  0.1315 -0.4209 -0.1069
  264TMC3    C8 4056   0.119   4.497  10.630  0.3293 -0.5925  0.4387
  264TMC3    O1 4057   0.479   4.103  10.471 -0.2662 -0.8089 -0.3881
  264TMC3    O2 4058   0.203   4.566  10.580 -0.1442  0.9156 -0.1714
  265MPD2     C 4059   1.109   4.550  15.541  0.0476 -0.0889  0.1286
  265MPD2    C1 4060   1.152   4.649  15.459 -0.2522 -0.9317 -0.0614
  265MPD2    C2 4061   1.231   4.619  15.355  0.4498 -0.6215  0.1358
  265MPD2    C3 4062   1.280   4.488  15.342 -0.3584 -0.4106  0.1489
  265MPD2    C4 4063   1.229   4.385  15.424  0.4454 -0.0813  0.8343
  265MPD2    C5 4064   1.153   4.419  15.530 -0.3031  0.5073  0.1937
  265MPD2     H 4065   1.267   4.698  15.290  1.7171 -0.3967  1.1083
  265MPD2    H1 4066   1.263   4.285  15.402 -0.6422 -0.8911  2.9660
  265MPD2    H2 4067   1.057   4.572  15.633 -0.7104 -0.9220 -0.1021
  265MPD2    H3 4068   1.117   4.342  15.597 -0.0927 -0.2324 -0.5389
  265MPD2     N 4069   1.365   4.447  15.238 -0.5352 -0.2889 -0.1650
  265MPD2    H5 4070   1.385   4.349  15.250  1.2879 -0.1373 -1.9583
  265MPD2    N1 4071   1.110   0.051  15.476  0.3988  0.3681 -0.1285
  265MPD2    H7 4072   1.163   0.115  15.418  0.9080  0.3341  0.3073
  266TMC3    C1 4073   0.996   0.232  15.575 -0.3050  0.7472 -0.5543
  266TMC3    C2 4074   0.960   0.283  15.698 -0.4240  0.1748 -0.3887
  266TMC3    C3 4075   0.965   0.418  15.723 -0.4763 -0.8042 -0.5951
  266TMC3    C4 4076   1.023   0.311  15.470  0.1953  0.1094  0.3385
  266TMC3    C5 4077   1.012   0.446  15.487 -0.4067 -0.0846  0.8571
  266TMC3    C6 4078   1.000   0.500  15.618  0.4892  0.1228 -0.1508
  266TMC3     C 4079   1.012   0.091  15.565  0.1700 -0.0700  0.2616
  266TMC3     O 4080   0.936   0.022  15.630 -0.2414 -0.3034  0.4880
  266TMC3     H 4081   0.936   0.204  15.768  0.0724  0.6684  0.3430
  266TMC3    H1 4082   1.054   0.264  15.377 -1.6072  0.1045 -0.2574
  266TMC3    H2 4083   0.987   0.607  15.630 -2.0104 -0.2104  0.1020
  266TMC3    C7 4084   1.037   0.525  15.366 -0.3750  0.1754  0.6238
  266TMC3    C8 4085   1.003   0.453  15.862  1.2454  0.4412 -0.5409
  266TMC3    O1 4086   1.030   0.465  15.259 -0.7836  0.2348  0.1783
  266TMC3    O2 4087   1.018   0.358  15.942  0.1303  0.7421 -0.3920
  267MPD2     C 4088   4.002   1.392   0.201 -0.7916 -0.3507  0.3269
  267MPD2    C1 4089   3.951   1.457   0.090 -0.4224 -1.0326 -0.2608
  267MPD2    C2 4090   3.886   1.380   0.001 -0.9588  0.0723  0.4410
  267MPD2    C3 4091   3.888   1.241   0.012  0.2888  0.2739  0.1759
  267MPD2    C4 4092   3.942   1.174   0.117  0.1475 -0.6547  0.1988
  267MPD2    C5 4093   4.004   1.256   0.210 -0.5131  0.7342 -0.5144
  267MPD2     H 4094   3.836   1.436  17.671  1.4860 -0.8413 -1.7814
  267MPD2    H1 4095   3.931   1.070   0.144 -0.0869 -1.7679 -4.1164
  267MPD2    H2 4096   4.047   1.442   0.286  2.8232 -0.9803 -1.2090
  267MPD2    H3 4097   4.054   1.211   0.295  0.0663  0.4199 -1.0238
  267MPD2     N 4098   3.831   1.157  17.661  0.0812 -0.1169  0.5358
  267MPD2    H5 4099   3.826   1.057  17.672  1.8608 -0.3506 -0.9318
  267MPD2    N1 4100   3.958   1.597   0.086  0.3353  0.1438 -0.1175
  267MPD2    H7 4101   3.988   1.646   0.171 -2.6548  1.5654  0.1227
  268TMC3    C1 4102   3.935   1.815   0.025  0.0445 -0.2053 -0.6705
  268TMC3    C2 4103   3.845   1.911  17.733  0.1443 -0.2429 -0.0103
  268TMC3    C3 4104   3.856   2.028   0.051 -0.3193 -0.4472  0.7973
  268TMC3    C4 4105   4.046   1.833   0.104  0.0123  0.0101 -0.7304
  268TMC3    C5 4106   4.049   1.959   0.171 -0.0177  0.0452 -0.0295
  268TMC3    C6 4107   3.960   2.054   0.143 -0.3094 -0.1253 -0.0808
  268TMC3     C 4108   3.903   1.678  17.736 -0.0290  0.3761 -1.0980
  268TMC3     O 4109   3.818   1.653  17.654 -0.0644  0.5696 -0.5224
  268TMC3     H 4110   3.766   1.886  17.664  1.2889  0.3488 -1.5276
  268TMC3    H1 4111   4.127   1.766   0.129 -0.0417  1.2837  3.0462
  268TMC3    H2 4112   3.953   2.146   0.200 -3.1723 -0.2741 -0.1730
  268TMC3    C7 4113   4.137   1.964   0.286  0.8653 -0.2989 -0.5906
  268TMC3    C8 4114   3.779   2.137   0.003 -0.1678 -0.1423 -0.2927
  268TMC3    O1 4115   4.224   1.878   0.297  0.1572 -0.5616 -0.8265
  268TMC3    O2 4116   3.778   2.231   0.088  0.2972  0.3429  0.3978
  269MPD2     C 4117   3.942   0.693  15.188 -0.3137 -1.2694 -0.2134
  269MPD2    C1 4118   3.895   0.706  15.317 -0.0701  0.5862 -0.3946
  269MPD2    C2 4119   3.903   0.830  15.383  0.4533  0.3529  0.2028
  269MPD2    C3 4120   3.966   0.936  15.322  0.6780  0.0578 -1.1890
  269MPD2    C4 4121   4.009   0.916  15.189 -1.0842 -0.0513 -0.0879
  269MPD2    C5 4122   3.998   0.799  15.122 -0.2228 -0.9091  0.5382
  269MPD2     H 4123   3.886   0.842  15.490  0.3156  2.8859 -0.1104
  269MPD2    H1 4124   4.051   0.997  15.132 -3.9714  1.7914  0.4143
  269MPD2    H2 4125   3.939   0.598  15.137  1.2952 -0.7722 -1.2477
  269MPD2    H3 4126   4.024   0.789  15.017  1.1747  1.8383  0.6233
  269MPD2     N 4127   3.980   1.062  15.382  0.8659  0.2245 -0.2064
  269MPD2    H5 4128   3.950   1.061  15.480 -4.0842  3.4617 -1.6628
  269MPD2    N1 4129   3.840   0.591  15.392  0.0093 -0.5247  0.4631
  269MPD2    H7 4130   3.823   0.506  15.339  3.3659 -0.1148 -1.2805
  270TMC3    C1 4131   3.736   0.452  15.559  0.9848 -0.7098 -0.5059
  270TMC3    C2 4132   3.627   0.404  15.491  0.4625  0.0854  0.5942
  270TMC3    C3 4133   3.583   0.286  15.537  0.6019 -0.4651 -0.9927
  270TMC3    C4 4134   3.818   0.375  15.640 -0.1941 -0.5947 -0.1425
  270TMC3    C5 4135   3.774   0.252  15.671 -0.6666  0.3873 -0.1556
  270TMC3    C6 4136   3.651   0.207  15.626  0.0538 -0.2948 -0.3115
  270TMC3     C 4137   3.797   0.580  15.531  0.5134  0.2003 -0.1063
  270TMC3     O 4138   3.804   0.663  15.623 -0.0254  0.2609  0.4457
  270TMC3     H 4139   3.580   0.468  15.417 -0.7246 -1.3233  0.1432
  270TMC3    H1 4140   3.911   0.415  15.680 -0.0379  0.2108 -1.2921
  270TMC3    H2 4141   3.603   0.112  15.645 -0.8220  0.1550 -0.2765
  270TMC3    C7 4142   3.877   0.154  15.639 -0.3774  0.0790 -0.6811
  270TMC3    C8 4143   3.491   0.220  15.445  0.1667  0.6775 -0.5296
  270TMC3    O1 4144   3.986   0.188  15.680 -0.5516 -0.4697 -0.1405
  270TMC3    O2 4145   3.396   0.160  15.489  0.1493  0.2696 -0.7444
  271MPD2     C 4146   3.139   4.580  13.632  0.1207  0.3893  0.5594
  271MPD2    C1 4147   3.123   4.638  13.754 -0.1059 -0.4828 -0.5233
  271MPD2    C2 4148   3.024   4.731  13.768 -0.7521 -0.2174  0.3817
  271MPD2    C3 4149   2.939   0.032  13.666 -0.5527 -0.4800  0.2295
  271MPD2    C4 4150   2.954   4.701  13.550 -0.5776  0.3171 -0.3479
  271MPD2    C5 4151   3.054   4.611  13.528  0.5408 -0.6952  0.3230
  271MPD2     H 4152   3.014   0.040  13.866 -1.7930 -1.2116  0.7499
  271MPD2    H1 4153   2.878   4.726  13.477  0.1331  1.2887 -0.7531
  271MPD2    H2 4154   3.204   4.496  13.610 -0.6803  0.5504 -2.3766
  271MPD2    H3 4155   3.068   4.563  13.432 -1.8301 -1.3643  0.3241
  271MPD2     N 4156   2.834   0.125  13.676 -0.6562 -0.1582 -0.1655
  271MPD2    H5 4157   2.761   0.132  13.605 -0.0517  0.8636 -0.6932
  271MPD2    N1 4158   3.192   4.605  13.870  0.2296  0.0655 -0.2389
  271MPD2    H7 4159   3.175   4.657  13.955 -0.1602 -0.1873 -0.1624
  272TMC3    C1 4160   3.323   4.463  14.016  0.0227  0.1887  0.3034
  272TMC3    C2 4161   3.444   4.400  14.027  0.6157  0.2831 -0.1573
  272TMC3    C3 4162   3.505   4.394  14.153 -0.7819  0.1959  0.0484
  272TMC3    C4 4163   3.260   4.510  14.132 -0.8907  0.1423 -0.0381
  272TMC3    C5 4164   3.320   4.492  14.248  0.1739 -0.4303  0.4063
  272TMC3    C6 4165   3.444   4.447  14.264  0.0848 -0.1248  0.4073
  272TMC3     C 4166   3.289   4.508  13.877  0.5890  0.7239 -0.8104
  272TMC3     O 4167   3.348   4.452  13.784  0.0107  0.1559 -0.0594
  272TMC3     H 4168   3.505   4.366  13.943  0.0923 -0.2386 -0.3286
  272TMC3    H1 4169   3.162   4.553  14.118 -0.7508  0.5676  0.2814
  272TMC3    H2 4170   3.494   4.438  14.360  0.1812 -0.4628  0.3252
  272TMC3    C7 4171   3.250   4.560  14.357 -0.0986 -0.7994  0.0442
  272TMC3    C8 4172   3.650   4.389  14.143  0.9195  0.1129  0.2209
  272TMC3    O1 4173   3.130   4.570  14.345 -0.6184 -0.3352 -0.4814
  272TMC3    O2 4174   3.703   4.387  14.034  0.4423  0.1677 -0.4791
  273MPD2     C 4175   4.726   2.409  11.319 -0.3477 -0.6284  0.1659
  273MPD2    C1 4176   0.088   2.494  11.364  0.0620 -0.1000 -0.4099
  273MPD2    C2 4177   0.169   2.550  11.271  0.6778 -0.1741 -0.0063
  273MPD2    C3 4178   0.156   2.515  11.143 -0.5243 -0.5380 -0.0945
  273MPD2    C4 4179   0.052   2.437  11.096 -1.0262 -0.3253  0.4829
  273MPD2    C5 4180   4.707   2.388  11.182  0.2838  0.2380 -0.1189
  273MPD2     H 4181   0.234   2.630  11.304 -2.3728  2.1636  0.3031
  273MPD2    H1 4182   0.039   2.421  10.990 -3.1287  1.5226  0.4737
  273MPD2    H2 4183   4.650   2.362  11.380  0.6532  0.4106  2.2150
  273MPD2    H3 4184   4.619   2.333  11.152 -0.5062 -0.8926  4.2042
  273MPD2     N 4185   0.246   2.562  11.044 -0.5871  0.3376 -0.3577
  273MPD2    H5 4186   0.217   2.543  10.949  0.5776 -0.2964 -0.5887
  273MPD2    N1 4187   0.093   2.514  11.500  0.0378 -0.1457 -0.3967
  273MPD2    H7 4188   0.021   2.466  11.553 -0.1393  0.2786 -0.2507
  274TMC3    C1 4189   0.438   2.670  10.961  0.0659  0.0728 -0.1352
  274TMC3    C2 4190   0.374   2.670  10.841  0.5826  0.6534 -0.1119
  274TMC3    C3 4191   0.384   2.780  10.763 -0.0617  0.1430 -0.1121
  274TMC3    C4 4192   0.522   2.774  10.994 -0.2631 -0.8595 -0.4300
  274TMC3    C5 4193   0.536   2.877  10.905  0.0401 -0.2143  0.2423
  274TMC3    C6 4194   0.467   2.883  10.788 -0.1295 -0.5481  0.4131
  274TMC3     C 4195   0.372   2.610  11.079  0.3025  0.5199 -0.1887
  274TMC3     O 4196   0.428   2.631  11.187  0.1976  0.4641 -0.0243
  274TMC3     H 4197   0.324   2.581  10.806 -1.1961  0.8844  1.8692
  274TMC3    H1 4198   0.562   2.779  11.095  0.9723 -1.7327 -0.8783
  274TMC3    H2 4199   0.493   2.956  10.712 -0.0826 -1.0454 -0.0409
  274TMC3    C7 4200   0.621   2.988  10.941  0.3706  0.3510  0.1870
  274TMC3    C8 4201   0.284   2.796  10.660 -0.1730 -0.0955 -0.6574
  274TMC3    O1 4202   0.699   3.037  10.856 -0.1310 -0.0038  0.2265
  274TMC3    O2 4203   0.204   2.710  10.661  0.1750 -0.3214  0.5171
  275MPD2     C 4204   4.403   1.219  14.163  0.9379 -0.1936  0.0366
  275MPD2    C1 4205   4.341   1.219  14.288  0.3140  0.1865  0.0226
  275MPD2    C2 4206   4.229   1.139  14.307 -0.5297  0.0722  0.3035
  275MPD2    C3 4207   4.177   1.065  14.204  0.2177  0.5084 -0.1047
  275MPD2    C4 4208   4.241   1.059  14.084 -0.5463  0.6396 -0.6771
  275MPD2    C5 4209   4.358   1.128  14.069  0.1299 -0.1338  0.0422
  275MPD2     H 4210   4.173   1.143  14.400 -0.5665 -1.9689  0.3622
  275MPD2    H1 4211   4.217   0.997  13.998 -0.1346 -1.4764  0.7379
  275MPD2    H2 4212   4.498   1.266  14.138  0.2301  0.8012 -0.7539
  275MPD2    H3 4213   4.408   1.111  13.974  1.4176 -2.7430  1.1634
  275MPD2     N 4214   4.055   0.996  14.208 -0.7123 -0.1540 -0.2854
  275MPD2    H5 4215   4.023   0.959  14.119 -0.8052  1.5664 -0.9549
  275MPD2    N1 4216   4.398   1.284  14.400  0.2443 -0.1746  0.1665
  275MPD2    H7 4217   4.357   1.275  14.492  0.7811 -0.5879  0.3665
  276TMC3    C1 4218   4.513   1.454  14.521 -0.3798 -0.4862  0.6631
  276TMC3    C2 4219   4.490   1.373  14.635  0.1777  0.1612  1.2743
  276TMC3    C3 4220   4.546   1.406  14.749  0.2717  0.3404  0.1690
  276TMC3    C4 4221   4.586   1.564  14.536  0.3512 -0.1748 -0.3471
  276TMC3    C5 4222   4.635   1.597  14.660  0.1839  0.0773 -0.3715
  276TMC3    C6 4223   4.622   1.514  14.772  0.7414  0.0443 -0.5867
  276TMC3     C 4224   4.483   1.389  14.390  0.3282  0.7767  0.7189
  276TMC3     O 4225   4.540   1.443  14.295  0.2114 -0.0475 -0.6875
  276TMC3     H 4226   4.441   1.276  14.638  0.9619 -0.3261 -1.4485
  276TMC3    H1 4227   4.592   1.632  14.451  1.8082 -1.0690 -0.9510
  276TMC3    H2 4228   4.659   1.531  14.872  0.1322  2.1925 -0.7285
  276TMC3    C7 4229   4.727   1.706  14.682  0.3946  0.1787 -0.0230
  276TMC3    C8 4230   4.502   1.324  14.869  0.3819  0.4739 -0.2784
  276TMC3    O1 4231   0.029   1.718  14.798  0.0174 -0.0372  0.6390
  276TMC3    O2 4232   4.502   1.376  14.983  0.0635 -0.0965  0.1089
  277MPD2     C 4233   1.865   4.500  13.066 -0.3690  0.3274  0.2885
  277MPD2    C1 4234   1.814   4.600  13.139  0.3554  0.3099  0.3955
  277MPD2    C2 4235   1.757   4.573  13.264  0.0171  0.5957  0.0481
  277MPD2    C3 4236   1.762   4.452  13.321  1.0208 -0.2473 -0.4790
  277MPD2    C4 4237   1.827   4.346  13.258  0.4552  0.6768 -0.2236
  277MPD2    C5 4238   1.861   4.374  13.123  1.2004  0.1252  0.0508
  277MPD2     H 4239   1.707   4.650  13.322  1.6119  1.1567  0.6788
  277MPD2    H1 4240   1.840   4.249  13.305 -2.8929 -0.3751 -1.4090
  277MPD2    H2 4241   1.893   4.517  12.962  0.4257 -1.0496  0.2800
  277MPD2    H3 4242   1.888   4.288  13.063  1.3968 -0.2318  0.6461
  277MPD2     N 4243   1.689   4.443  13.443 -0.5410  0.3755  0.1499
  277MPD2    H5 4244   1.636   4.524  13.472 -1.1333  0.4730 -1.2143
  277MPD2    N1 4245   1.800   4.729  13.077 -0.5134  0.5974 -0.1806
  277MPD2    H7 4246   1.851   0.020  12.994 -0.5453 -4.1372 -1.8520
  278TMC3    C1 4247   1.597   4.341  13.633 -0.7663  0.0991  0.0670
  278TMC3    C2 4248   1.614   4.256  13.740 -0.8947 -0.3147  0.0158
  278TMC3    C3 4249   1.500   4.230  13.817  1.0974 -0.1722 -0.0591
  278TMC3    C4 4250   1.476   4.420  13.616  0.5303  0.5456 -0.6613
  278TMC3    C5 4251   1.384   4.418  13.718  0.0539  0.0269  0.0237
  278TMC3    C6 4252   1.389   4.318  13.821  0.6342 -0.1407  0.0050
  278TMC3     C 4253   1.687   4.326  13.519 -0.1358 -0.6992  0.2871
  278TMC3     O 4254   1.751   4.223  13.513 -0.2013  0.3534  0.4538
  278TMC3     H 4255   1.698   4.188  13.740 -1.1526 -0.6366 -0.4229
  278TMC3    H1 4256   1.465   4.490  13.533 -3.7275  1.1071  0.3662
  278TMC3    H2 4257   1.323   4.307  13.906  1.3598  1.4961  0.7982
  278TMC3    C7 4258   1.259   4.486  13.687 -0.1560 -0.0124  0.0875
  278TMC3    C8 4259   1.512   4.108  13.892  0.4150 -1.3441 -0.2994
  278TMC3    O1 4260   1.250   4.540  13.582  0.0446  0.2181  0.0999
  278TMC3    O2 4261   1.611   4.088  13.959  0.0389  0.3402 -0.4832
  279MPD2     C 4262   0.880   4.579  17.720 -0.3761 -0.3356 -0.4379
  279MPD2    C1 4263   0.814   4.689  17.680  0.0626 -0.3002  0.6478
  279MPD2    C2 4264   0.830   4.732  17.548 -0.0898  0.4995 -0.5005
  279MPD2    C3 4265   0.915   4.666  17.457  0.1002  0.5804 -0.3166
  279MPD2    C4 4266   0.981   4.553  17.499 -0.0511  0.1602 -0.6166
  279MPD2    C5 4267   0.959   4.512  17.629 -0.7046  0.1976  0.1950
  279MPD2     H 4268   0.773   0.085  17.534 -0.5070  0.4525  0.9284
  279MPD2    H1 4269   1.063   4.504  17.448  0.3776  0.3937 -0.1491
  279MPD2    H2 4270   0.876   4.538   0.071 -0.0083 -1.7208 -0.9942
  279MPD2    H3 4271   1.017   4.426  17.659 -0.8830 -0.1348 -0.4072
  279MPD2     N 4272   0.940   4.708  17.326  1.1447  0.7660 -0.1279
  279MPD2    H5 4273   0.988   4.641  17.267 -2.4727 -0.8548 -1.2616
  279MPD2    N1 4274   0.732   0.019   0.023 -0.3489 -0.0349  0.2123
  279MPD2    H7 4275   0.679   0.101  17.742  0.1190  0.4273  0.6606
  280TMC3    C1 4276   0.581   0.061   0.206 -0.1277 -1.2664  0.1617
  280TMC3    C2 4277   0.491   4.733   0.285 -0.1945 -1.0298 -0.3992
  280TMC3    C3 4278   0.368   0.056   0.293  0.7675  0.8515  0.4654
  280TMC3    C4 4279   0.572   0.192   0.164  0.7447  0.2765 -0.2536
  280TMC3    C5 4280   0.446   0.242   0.181 -0.2880  0.1045 -0.0134
  280TMC3    C6 4281   0.339   0.172   0.228 -0.8257 -0.2460  0.2416
  280TMC3     C 4282   0.671   4.707   0.139  0.5319  0.2883  0.0255
  280TMC3     O 4283   0.686   4.602   0.200 -0.3569 -0.0530 -0.0165
  280TMC3     H 4284   0.513   4.634   0.323  0.0369 -0.6898  0.3443
  280TMC3    H1 4285   0.652   0.255   0.129  0.8236  0.3945  0.1363
  280TMC3    H2 4286   0.243   0.222   0.233 -0.9462 -0.4712  0.1818
  280TMC3    C7 4287   0.440   0.386   0.190 -0.2582 -0.5014  0.4309
  280TMC3    C8 4288   0.268   4.732   0.385 -0.7046  0.3152  0.0361
  280TMC3    O1 4289   0.539   0.443   0.236  0.2132  0.4197  0.1693
  280TMC3    O2 4290   0.178   0.069   0.419 -0.6959 -0.2155  0.4747
  281TMC3    C1 4291   4.438   4.524  12.993 -0.2755 -0.4274  0.5794
  281TMC3    C2 4292   4.452   4.550  12.861 -0.3241 -0.2611  0.1199
  281TMC3    C3 4293   4.393   4.457  12.772 -0.2051  0.0406  0.3267
  281TMC3    C4 4294   4.357   4.425  13.035  0.0818 -0.6440  0.2432
  281TMC3    C5 4295   4.307   4.335  12.956 -0.1717  0.2408  0.0239
  281TMC3    C6 4296   4.327   4.348  12.820  0.5367 -0.2730 -0.7623
  281TMC3     C 4297   4.453   4.641  13.089  0.1072  0.2000  0.0326
  281TMC3     O 4298   4.465   4.608  13.208 -0.2367 -0.2287 -0.1058
  281TMC3     H 4299   4.526   4.624  12.833  1.0135 -1.4120  0.6075
  281TMC3    H1 4300   4.347   4.419  13.143 -0.2478  2.0152  0.3568
  281TMC3    H2 4301   4.261   4.286  12.761 -1.6119  0.6815  0.6278
  281TMC3    C7 4302   4.212   4.233  13.006 -0.2022  0.1380  0.8720
  281TMC3    C8 4303   4.375   4.482  12.628 -0.1559 -0.6221  0.0360
  281TMC3    O1 4304   4.176   4.141  12.933 -0.5770  0.7529  0.3652
  281TMC3    O2 4305   4.349   4.388  12.556 -0.2854 -0.1074  0.0255
  282MPD2     C 4306   1.690   1.595  14.859  0.4437  0.1820  0.1757
  282MPD2    C1 4307   1.560   1.612  14.896  0.6177  0.1048 -0.7579
  282MPD2    C2 4308   1.465   1.572  14.802  0.1968 -0.7208  0.3352
  282MPD2    C3 4309   1.496   1.540  14.675  0.5096  0.1866  0.3610
  282MPD2    C4 4310   1.634   1.541  14.635  0.8253 -0.7345 -0.3126
  282MPD2    C5 4311   1.725   1.557  14.732 -0.2053 -0.2590 -0.2105
  282MPD2     H 4312   1.363   1.586  14.836 -0.0034  0.7201 -0.8656
  282MPD2    H1 4313   1.665   1.499  14.540 -1.6555 -0.7571 -1.1194
  282MPD2    H2 4314   1.775   1.615  14.923  0.5395 -0.1627  0.1575
  282MPD2    H3 4315   1.826   1.528  14.710 -0.0314  1.7942 -2.1622
  282MPD2     N 4316   1.389   1.509  14.595  0.4901  0.4173  0.5216
  282MPD2    H5 4317   1.303   1.488  14.646  0.1237  1.6366  0.3817
  282MPD2    N1 4318   1.518   1.650  15.020 -0.2907  0.0503 -0.0405
  282MPD2    H7 4319   1.421   1.664  15.045 -0.1638 -1.0419  1.1011
  283TMC3    C1 4320   1.526   1.748  15.234 -0.4435  0.3121 -0.3262
  283TMC3    C2 4321   1.565   1.872  15.273 -0.6842 -0.7212 -0.1348
  283TMC3    C3 4322   1.490   1.937  15.367 -0.4504 -0.1164 -0.4614
  283TMC3    C4 4323   1.405   1.695  15.264  0.2630 -0.0187  0.7497
  283TMC3    C5 4324   1.318   1.770  15.341  0.1655  0.0092 -0.4182
  283TMC3    C6 4325   1.363   1.886  15.397  0.0701 -0.0661 -0.7868
  283TMC3     C 4326   1.600   1.704  15.115 -0.0404  0.2775  0.0929
  283TMC3     O 4327   1.719   1.730  15.111 -0.0131 -0.0399 -0.0103
  283TMC3     H 4328   1.665   1.903  15.245 -0.7286  0.8081  1.3871
  283TMC3    H1 4329   1.359   1.606  15.222 -2.8627  1.9544 -0.0722
  283TMC3    H2 4330   1.298   1.947  15.459 -0.5491 -2.3883  0.8662
  283TMC3    C7 4331   1.178   1.740  15.370  0.2103  0.4438 -0.0016
  283TMC3    C8 4332   1.514   2.080  15.375  0.2584  0.7456  0.3556
  283TMC3    O1 4333   1.128   1.793  15.470 -0.2844 -0.6846  0.2559
  283TMC3    O2 4334   1.544   2.134  15.269 -0.1152  0.2578  0.5265
  284MPD2     C 4335   0.496   0.555  12.183  0.0283 -0.2126  0.4801
  284MPD2    C1 4336   0.466   0.539  12.048 -0.0394 -0.2086  0.2711
  284MPD2    C2 4337   0.387   0.433  12.000  0.0160 -0.3898  0.3738
  284MPD2    C3 4338   0.333   0.346  12.092 -0.1096 -0.1855  0.2842
  284MPD2    C4 4339   0.343   0.374  12.226  0.0964  0.1671  0.1847
  284MPD2    C5 4340   0.429   0.466  12.271 -0.3814  0.1300 -0.4555
  284MPD2     H 4341   0.364   0.416  11.895 -1.2797  0.5626  0.5191
  284MPD2    H1 4342   0.287   0.318  12.300 -0.1313 -1.1047 -0.9400
  284MPD2    H2 4343   0.560   0.629  12.229 -0.2260 -0.7709  1.7125
  284MPD2    H3 4344   0.447   0.479  12.377 -1.7640 -0.4069 -0.1554
  284MPD2     N 4345   0.251   0.230  12.056  0.3449 -0.2421 -0.4800
  284MPD2    H5 4346   0.218   0.175  12.135  0.6477 -0.1771 -0.3084
  284MPD2    N1 4347   0.518   0.633  11.957 -0.1202  0.1236  0.0381
  284MPD2    H7 4348   0.493   0.617  11.860 -1.8083 -0.8386  0.6413
  285TMC3    C1 4349   0.643   0.819  11.886 -0.1685  0.4413  0.3329
  285TMC3    C2 4350   0.646   0.757  11.766  0.1677 -0.2479  0.0355
  285TMC3    C3 4351   0.656   0.837  11.650 -0.3439 -0.1622  0.3192
  285TMC3    C4 4352   0.635   0.953  11.898 -0.4158 -0.6055  0.5721
  285TMC3    C5 4353   0.668   1.024  11.785 -0.2867  0.3928  0.0862
  285TMC3    C6 4354   0.675   0.972  11.667 -0.3134 -0.3846 -0.0011
  285TMC3     C 4355   0.580   0.745  11.990  0.5101 -0.1628  0.3834
  285TMC3     O 4356   0.570   0.799  12.097  0.3199  0.0157  0.2649
  285TMC3     H 4357   0.646   0.649  11.754 -4.0016 -0.3606  1.1446
  285TMC3    H1 4358   0.627   1.001  11.995 -0.7528  0.7100 -0.1097
  285TMC3    H2 4359   0.706   1.036  11.585  1.7234 -0.1917  0.9106
  285TMC3    C7 4360   0.639   1.162  11.779 -0.0006 -0.2783  0.2750
  285TMC3    C8 4361   0.677   0.778  11.514 -0.5150  0.0654 -0.4423
  285TMC3    O1 4362   0.712   1.226  11.704 -0.0799 -0.1134 -0.3194
  285TMC3    O2 4363   0.636   0.664  11.490 -0.0739  0.0659 -0.7199
  286MPD2     C 4364   0.166   0.495   1.663 -0.9754 -0.7548  0.5666
  286MPD2    C1 4365   0.116   0.447   1.541  0.2505  0.4971  0.6882
  286MPD2    C2 4366   0.197   0.365   1.461 -0.0369 -0.5307  0.2262
  286MPD2    C3 4367   0.323   0.327   1.503  0.0408 -0.0430  0.0843
  286MPD2    C4 4368   0.369   0.362   1.626 -0.0192 -0.6502 -0.6415
  286MPD2    C5 4369   0.291   0.443   1.702  0.8355 -0.1109  0.3539
  286MPD2     H 4370   0.153   0.325   1.370  0.0250 -0.6009  0.2267
  286MPD2    H1 4371   0.460   0.319   1.668 -0.4396  0.3208  1.2680
  286MPD2    H2 4372   0.115   0.571   1.721  0.9580 -0.1007  1.4093
  286MPD2    H3 4373   0.324   0.482   1.797  1.3342 -0.4117  0.3016
  286MPD2     N 4374   0.403   0.233   1.433  0.3542 -0.3836  0.0798
  286MPD2    H5 4375   0.491   0.211   1.477  0.6683 -1.5616 -1.1335
  286MPD2    N1 4376   4.719   0.485   1.502 -0.4074 -0.1413  0.7442
  286MPD2    H7 4377   4.704   0.465   1.404 -0.2840 -2.8332  1.2620
  287TMC3    C1 4378   0.489   0.119   1.247  0.1366  0.0787  0.3805
  287TMC3    C2 4379   0.446   0.040   1.145  0.3081 -0.3234  0.5145
  287TMC3    C3 4380   0.542   4.716   1.070  0.8002  0.3341  0.6975
  287TMC3    C4 4381   0.614   0.112   1.302  0.7996  0.9491  0.0294
  287TMC3    C5 4382   0.703   0.038   1.230  0.2711 -0.5520 -0.0475
  287TMC3    C6 4383   0.670   4.704   1.116 -0.1973  0.3970  0.5408
  287TMC3     C 4384   0.376   0.188   1.302  0.1231  0.1217  0.2439
  287TMC3     O 4385   0.284   0.200   1.227 -0.1063 -0.1112 -0.2498
  287TMC3     H 4386   0.344   0.013   1.119 -0.1970  0.7363  1.3782
  287TMC3    H1 4387   0.655   0.177   1.378  2.7159  0.6557 -0.7500
  287TMC3    H2 4388   0.737   4.642   1.058 -0.2847 -0.7761  1.6841
  287TMC3    C7 4389   0.839   0.039   1.278 -0.6226 -0.8330 -0.8826
  287TMC3    C8 4390   0.486   4.603   0.988 -0.2562 -0.4597 -0.2962
  287TMC3    O1 4391   0.873   0.142   1.334 -0.2601  0.2513  0.2473
  287TMC3    O2 4392   0.369   4.566   1.003  0.6798 -0.3610 -0.5797
  288TMC3    C1 4393   1.822   4.132  14.372 -1.1159  1.0680  0.4380
  288TMC3    C2 4394   1.729   4.074  14.453 -0.0171  0.9230  0.1503
  288TMC3    C3 4395   1.597   4.108  14.432  0.5699 -0.4836 -0.0768
  288TMC3    C4 4396   1.789   4.214  14.268  0.1113 -0.0072  0.4493
  288TMC3    C5 4397   1.657   4.229  14.242  0.3158 -0.2056  0.3611
  288TMC3    C6 4398   1.565   4.177  14.321  0.6143  0.3016  0.3692
  288TMC3     C 4399   1.956   4.154  14.420  0.3206  0.6906  0.4390
  288TMC3     O 4400   2.017   4.252  14.382  0.3814  0.7692  0.0501
  288TMC3     H 4401   1.759   4.020  14.543 -0.2901 -0.4655 -0.5873
  288TMC3    H1 4402   1.871   4.248  14.206  0.1173 -0.3941  0.2400
  288TMC3    H2 4403   1.462   4.179  14.291  0.3629  2.3007  1.3494
  288TMC3    C7 4404   1.618   4.326  14.152 -0.3351  0.1782 -0.0200
  288TMC3    C8 4405   1.525   4.142  14.552  0.1647 -0.0845  0.7159
  288TMC3    O1 4406   1.512   4.382  14.179  0.0088  0.1808  0.1451
  288TMC3    O2 4407   1.536   4.065  14.645 -0.8778 -0.7853  0.1149
  289MPD2     C 4408   1.715   3.050  14.089  0.0603 -0.3864  0.0898
  289MPD2    C1 4409   1.676   3.154  14.177  0.2063 -0.5426  0.3596
  289MPD2    C2 4410   1.545   3.200  14.180  0.0848 -0.2843  0.6686
  289MPD2    C3 4411   1.457   3.137  14.098  0.0511 -0.4562 -0.2118
  289MPD2    C4 4412   1.495   3.024  14.025  0.1418  0.5921  0.2540
  289MPD2    C5 4413   1.623   2.995  14.012  0.2778  0.1029  0.7097
  289MPD2     H 4414   1.515   3.282  14.244 -0.1577 -1.7352  2.4232
  289MPD2    H1 4415   1.427   2.958  13.973 -0.0917 -0.0332  1.3665
  289MPD2    H2 4416   1.817   3.013  14.096  0.8469  1.6063 -0.9491
  289MPD2    H3 4417   1.656   2.920  13.940  1.2128  1.2077 -0.0046
  289MPD2     N 4418   1.314   3.168  14.085  0.1224 -0.9311 -0.0777
  289MPD2    H5 4419   1.248   3.104  14.041 -0.6203  0.2518 -0.7050
  289MPD2    N1 4420   1.776   3.217  14.248 -0.2247  0.1718 -0.7370
  289MPD2    H7 4421   1.871   3.184  14.230  0.1915  0.4444  0.9770
  290TMC3    C1 4422   1.110   3.275  14.124 -0.3572  0.0194 -0.6352
  290TMC3    C2 4423   1.051   3.400  14.117  0.0139 -0.8239 -0.2292
  290TMC3    C3 4424   0.924   3.404  14.077 -0.3573  0.5766  0.7081
  290TMC3    C4 4425   1.036   3.163  14.110 -0.3096 -0.6727 -0.3871
  290TMC3    C5 4426   0.905   3.181  14.070 -0.3110 -0.0262  0.8299
  290TMC3    C6 4427   0.851   3.295  14.037  0.0152  0.5046  0.2329
  290TMC3     C 4428   1.259   3.278  14.143  0.7590 -0.0043  0.1254
  290TMC3     O 4429   1.315   3.369  14.203  0.1885 -0.0745  0.7941
  290TMC3     H 4430   1.116   3.486  14.127  0.1031 -0.9424  0.2207
  290TMC3    H1 4431   1.082   3.065  14.116 -0.5693 -0.7980 -0.4154
  290TMC3    H2 4432   0.747   3.319  14.022  0.2815  1.7886  0.4910
  290TMC3    C7 4433   0.819   3.063  14.064  0.8595  0.1472  0.0896
  290TMC3    C8 4434   0.864   3.538  14.050  0.5061 -0.8559 -0.2216
  290TMC3    O1 4435   0.708   3.077  14.015  0.1935 -0.6011 -0.3213
  290TMC3    O2 4436   0.776   3.534  13.964 -0.4326 -0.0592 -0.3628
  291MPD2     C 4437   1.575   3.768  17.740 -0.1270  0.4812 -0.8965
  291MPD2    C1 4438   1.475   3.834   0.056  0.1235  0.7560 -0.3363
  291MPD2    C2 4439   1.503   3.957   0.120  0.2416  0.1134 -0.1294
  291MPD2    C3 4440   1.634   4.006   0.118 -0.7223  0.1056 -0.2488
  291MPD2    C4 4441   1.738   3.942   0.060 -0.4834 -0.3334  0.3290
  291MPD2    C5 4442   1.704   3.828  17.747 -0.0781  0.4244 -0.4351
  291MPD2     H 4443   1.424   3.999   0.181  0.2319 -2.6998  1.7794
  291MPD2    H1 4444   1.839   3.974   0.041 -0.9688  0.2746 -1.1744
  291MPD2    H2 4445   1.575   3.671  17.692 -2.3782 -0.1888  0.4306
  291MPD2    H3 4446   1.782   3.768  17.702 -0.6460  0.8733 -2.0092
  291MPD2     N 4447   1.663   4.137   0.177 -0.4860  0.0400 -0.4093
  291MPD2    H5 4448   1.762   4.147   0.195 -1.0483  0.0458  2.5800
  291MPD2    N1 4449   1.345   3.775   0.067 -0.1440  0.0127 -0.1637
  291MPD2    H7 4450   1.276   3.832   0.114 -1.6842 -1.2914 -0.8334
  292TMC3    C1 4451   1.147   3.628   0.032 -0.2212 -0.0957 -0.1296
  292TMC3    C2 4452   1.088   3.678   0.149 -0.1243  0.1634  0.0366
  292TMC3    C3 4453   1.004   3.602   0.226  0.1746 -0.4461  0.0835
  292TMC3    C4 4454   1.116   3.493   0.002 -0.2928 -0.1574 -0.0307
  292TMC3    C5 4455   1.033   3.420   0.087  0.4476  0.0557 -0.3529
  292TMC3    C6 4456   0.975   3.470   0.195  0.0555  0.1546  0.2487
  292TMC3     C 4457   1.296   3.655   0.013  0.5485 -0.3031 -0.0775
  292TMC3     O 4458   1.367   3.565  17.726 -0.1422  0.2409  0.2481
  292TMC3     H 4459   1.112   3.782   0.172 -1.6591  0.2952  1.0402
  292TMC3    H1 4460   1.154   3.429  17.673  1.0196  0.2839  0.2531
  292TMC3    H2 4461   0.914   3.404   0.256  0.1123 -1.1630 -1.1023
  292TMC3    C7 4462   1.022   3.274   0.060  0.1051 -0.0139 -0.4937
  292TMC3    C8 4463   0.952   3.670   0.350  0.3498 -0.5359 -0.6845
  292TMC3    O1 4464   1.036   3.243  17.690 -0.0117 -0.6336 -0.2680
  292TMC3    O2 4465   1.010   3.772   0.373  0.4609  0.4661 -0.6628
  293MPD2     C 4466   2.844   0.139  12.453 -0.9712  0.0539 -0.6377
  293MPD2    C1 4467   2.734   0.057  12.464  0.1866  0.2657  0.4676
  293MPD2    C2 4468   2.656   0.063  12.581 -0.3773  0.4763 -0.4197
  293MPD2    C3 4469   2.688   0.146  12.681 -0.4680  0.6899  0.0194
  293MPD2    C4 4470   2.795   0.229  12.670 -0.1704 -0.4843 -0.4542
  293MPD2    C5 4471   2.871   0.229  12.554 -0.9180  0.3665  0.3653
  293MPD2     H 4472   2.569   4.737  12.591 -1.1800  1.6649  0.1614
  293MPD2    H1 4473   2.830   0.299  12.746  1.0550 -0.5458 -0.9497
  293MPD2    H2 4474   2.903   0.129  12.363 -1.1072  0.3794 -0.7627
  293MPD2    H3 4475   2.956   0.294  12.537 -0.0764 -0.3820  1.6543
  293MPD2     N 4476   2.626   0.130  12.804 -0.2756  0.8251 -0.5806
  293MPD2    H5 4477   2.559   0.054  12.811 -0.1538  0.7734  0.0473
  293MPD2    N1 4478   2.719   4.692  12.364  0.5972  0.3947 -0.3317
  293MPD2    H7 4479   2.780   4.695  12.283 -0.5141 -0.4777 -1.1973
  294TMC3    C1 4480   2.612   4.518  12.243 -0.6151  0.6306 -0.1163
  294TMC3    C2 4481   2.536   4.405  12.242 -0.5664  0.2518  0.1942
  294TMC3    C3 4482   2.535   4.324  12.130 -0.1902 -0.7019 -0.1836
  294TMC3    C4 4483   2.680   4.565  12.132 -0.6195 -0.8191 -0.0961
  294TMC3    C5 4484   2.663   4.487  12.019  0.1660  0.3536 -0.3937
  294TMC3    C6 4485   2.600   4.366  12.015 -0.0850  0.0387  0.0042
  294TMC3     C 4486   2.630   4.591  12.368 -0.0752  0.3724  0.5886
  294TMC3     O 4487   2.547   4.569  12.453  0.0167  0.0379 -0.2150
  294TMC3     H 4488   2.498   4.367  12.336 -0.1308 -1.3983 -0.2955
  294TMC3    H1 4489   2.727   4.662  12.124 -1.9578 -0.0041  1.9859
  294TMC3    H2 4490   2.573   4.323  11.919 -1.7487 -0.6545  0.7919
  294TMC3    C7 4491   2.704   4.533  11.889  0.0390 -0.0014  0.7637
  294TMC3    C8 4492   2.446   4.204  12.136  0.4057 -0.4633  0.0216
  294TMC3    O1 4493   2.623   4.515  11.799  1.0101  0.4065 -0.3114
  294TMC3    O2 4494   2.358   4.217  12.220 -0.2606 -0.3161  0.6520
  295MPD2     C 4495   2.951   4.358   0.645 -0.0493  0.4249  0.3071
  295MPD2    C1 4496   2.894   4.275   0.549 -0.0614 -0.7147 -0.6277
  295MPD2    C2 4497   2.784   4.203   0.597 -0.4311  0.5316 -0.4354
  295MPD2    C3 4498   2.718   4.244   0.715 -0.0374  0.8245  0.0301
  295MPD2    C4 4499   2.764   4.341   0.794  0.5438  0.5055  1.0154
  295MPD2    C5 4500   2.876   4.402   0.753  1.2198 -0.4172 -0.2206
  295MPD2     H 4501   2.739   4.121   0.541  0.0945 -0.9945  1.3859
  295MPD2    H1 4502   2.713   4.388   0.877 -2.4556  2.0134 -1.6754
  295MPD2    H2 4503   3.046   4.405   0.622 -0.2677  0.2010 -1.0379
  295MPD2    H3 4504   2.918   4.473   0.823  1.9430  2.6249 -3.6809
  295MPD2     N 4505   2.595   4.182   0.766 -0.0746  0.1859 -0.5018
  295MPD2    H5 4506   2.548   4.244   0.830 -0.2594  0.9012 -1.3381
  295MPD2    N1 4507   2.956   4.238   0.426 -0.7019  0.4875  0.7420
  295MPD2    H7 4508   2.916   4.163   0.370  2.1701  0.4565 -1.2710
  296TMC3    C1 4509   2.410   4.021   0.780  0.0367 -0.3911  0.0991
  296TMC3    C2 4510   2.338   4.104   0.860  0.3831  0.0137 -0.1302
  296TMC3    C3 4511   2.215   4.069   0.903 -0.1981  0.6909  0.3210
  296TMC3    C4 4512   2.357   3.901   0.738 -0.3497  0.3664 -0.8729
  296TMC3    C5 4513   2.233   3.868   0.788 -0.2437 -0.1725  0.8645
  296TMC3    C6 4514   2.159   3.950   0.869  0.6217  0.4081 -0.5941
  296TMC3     C 4515   2.544   4.057   0.726  0.1177  0.3224  0.9877
  296TMC3     O 4516   2.590   3.980   0.642  0.2183  0.7118  1.0459
  296TMC3     H 4517   2.370   4.206   0.875  0.4258 -0.1585  0.9782
  296TMC3    H1 4518   2.407   3.840   0.664  0.2676  0.5598 -0.6143
  296TMC3    H2 4519   2.070   3.910   0.916  2.2173 -1.3697  0.9543
  296TMC3    C7 4520   2.164   3.750   0.753  0.0547  0.2992  0.0494
  296TMC3    C8 4521   2.149   4.141   1.015 -0.4045  0.3260  0.1768
  296TMC3    O1 4522   2.040   3.746   0.766 -0.3550  0.0537 -0.8551
  296TMC3    O2 4523   2.031   4.123   1.040  0.4135  0.4385 -0.3706
  297MPD2     C 4524   0.372   0.748  16.252 -0.1866 -0.0461  0.5458
  297MPD2    C1 4525   0.300   0.821  16.153 -0.2900  0.1744 -0.4936
  297MPD2    C2 4526   0.371   0.922  16.091 -0.2795  0.1065  0.4876
  297MPD2    C3 4527   0.490   0.979  16.128 -0.3205  0.6642  0.0952
  297MPD2    C4 4528   0.548   0.908  16.236  0.0221 -0.6304 -0.3379
  297MPD2    C5 4529   0.495   0.798  16.288  0.5121 -0.2195 -0.8677
  297MPD2     H 4530   0.339   0.970  15.999  1.3088  0.0285 -0.1134
  297MPD2    H1 4531   0.643   0.935  16.281 -0.2778  3.0003 -1.9056
  297MPD2    H2 4532   0.328   0.658  16.293  0.2515  0.4614  2.1232
  297MPD2    H3 4533   0.561   0.751  16.361 -0.4601 -0.8604 -0.4081
  297MPD2     N 4534   0.554   1.074  16.050  0.4449  0.1375  0.2343
  297MPD2    H5 4535   0.529   1.081  15.952  0.9617 -2.3087 -0.0513
  297MPD2    N1 4536   0.173   0.785  16.101  0.4476  0.4703 -0.0977
  297MPD2    H7 4537   0.132   0.843  16.028  0.8642 -0.0288 -0.7230
  298TMC3    C1 4538   4.683   0.699  16.117  0.2781  0.2773 -0.3325
  298TMC3    C2 4539   4.681   0.684  15.983 -0.2238  0.7334  0.0887
  298TMC3    C3 4540   4.573   0.720  15.908  0.9160 -0.4146  0.7454
  298TMC3    C4 4541   4.594   0.781  16.175 -0.1679  0.1162  0.3994
  298TMC3    C5 4542   4.491   0.835  16.088  0.1047 -0.0513  0.1762
  298TMC3    C6 4543   4.478   0.797  15.954 -0.1426  0.0505 -0.3599
  298TMC3     C 4544   0.081   0.704  16.172  0.3292 -0.7449 -0.3981
  298TMC3     O 4545   0.098   0.664  16.283  0.2084 -0.5073 -0.5858
  298TMC3     H 4546   0.025   0.624  15.945 -0.9156  0.3063 -0.7022
  298TMC3    H1 4547   4.615   0.815  16.276 -3.2949  1.9936  0.4264
  298TMC3    H2 4548   4.400   0.841  15.894 -0.9522 -0.5361  0.2659
  298TMC3    C7 4549   4.397   0.927  16.154 -0.1072 -0.2674  0.1457
  298TMC3    C8 4550   4.575   0.712  15.760  0.0824 -0.3863  0.5130
  298TMC3    O1 4551   4.426   0.991  16.257 -0.3735  0.0624  0.1575
  298TMC3    O2 4552   4.689   0.721  15.713 -0.1083  0.4216  0.8182
  299MPD2     C 4553   1.715   4.545  10.116 -0.7681 -0.2149  0.5730
  299MPD2    C1 4554   1.708   4.684  10.104 -0.6515  0.3843 -0.3090
  299MPD2    C2 4555   1.596   0.005  10.047 -0.6239  0.1943  0.2323
  299MPD2    C3 4556   1.488   4.664  10.005  0.2617 -0.2538  0.9832
  299MPD2    C4 4557   1.504   4.528  10.018 -0.0143 -0.1353  0.6265
  299MPD2    C5 4558   1.613   4.466  10.068  0.0172  1.2004 -0.8209
  299MPD2     H 4559   1.607   0.112  10.036 -2.0171  0.3418  0.2313
  299MPD2    H1 4560   1.423   4.465   9.983 -0.3917  0.7193 -0.0373
  299MPD2    H2 4561   1.786   4.485  10.171  0.0759  0.2259 -0.0381
  299MPD2    H3 4562   1.619   4.358  10.074  0.2755  1.2951  0.6470
  299MPD2     N 4563   1.366   4.708   9.960  0.0231 -0.2452  0.1296
  299MPD2    H5 4564   1.298   4.635   9.943  0.0386  0.1005 -1.4909
  299MPD2    N1 4565   1.820   0.019  10.162 -0.0798 -0.1838 -0.0994
  299MPD2    H7 4566   1.893   4.702  10.206  0.4764  1.1021  0.5925
  300TMC3    C1 4567   1.191   0.114   9.944 -0.1787  0.3074  0.4113
  300TMC3    C2 4568   1.157   0.226   9.890  0.2481  0.2811  0.7291
  300TMC3    C3 4569   1.036   0.287   9.913  0.1094 -0.9511 -0.7050
  300TMC3    C4 4570   1.105   0.046  10.018  0.9537  0.2819 -0.1812
  300TMC3    C5 4571   0.985   0.100  10.045  0.8975 -1.3730 -0.1410
  300TMC3    C6 4572   0.945   0.222   9.993  0.0979 -0.4181 -0.2766
  300TMC3     C 4573   1.329   0.099   9.950  0.8303 -0.0388  1.0723
  300TMC3     O 4574   1.409   0.190   9.945  0.2657 -0.2899  0.2604
  300TMC3     H 4575   1.233   0.288   9.842  0.4102 -0.1956  0.3639
  300TMC3    H1 4576   1.131   4.686  10.058  0.2694  0.1511 -0.0656
  300TMC3    H2 4577   0.853   0.275  10.016  0.7783  0.2785  0.8918
  300TMC3    C7 4578   0.898   0.021  10.138  0.2566 -0.0307 -1.0642
  300TMC3    C8 4579   1.020   0.426   9.881 -0.2602  0.3767  0.0516
  300TMC3    O1 4580   0.901   4.638  10.131  0.1200 -0.4484  0.2560
  300TMC3    O2 4581   1.096   0.473   9.792  0.4840 -0.3969 -0.3056
  301MPD2     C 4582   2.577   1.581   1.597  0.0566  0.1210 -0.0478
  301MPD2    C1 4583   2.494   1.557   1.485  0.2844 -0.2128  0.2863
  301MPD2    C2 4584   2.507   1.439   1.418  0.4142 -0.8133  0.0066
  301MPD2    C3 4585   2.581   1.336   1.472 -0.3815 -0.6804 -0.0350
  301MPD2    C4 4586   2.655   1.354   1.582 -0.1080  0.0235 -0.2525
  301MPD2    C5 4587   2.657   1.481   1.645  0.3038  0.1645  0.1735
  301MPD2     H 4588   2.456   1.405   1.329  1.1878  0.7449 -1.0220
  301MPD2    H1 4589   2.706   1.266   1.619  1.3878  1.8879  2.0466
  301MPD2    H2 4590   2.583   1.676   1.650  0.6064 -0.6875  1.3181
  301MPD2    H3 4591   2.716   1.500   1.734 -0.1558 -2.9497  1.1460
  301MPD2     N 4592   2.599   1.203   1.419  0.3467  0.3134  0.0600
  301MPD2    H5 4593   2.679   1.155   1.459  1.5431  1.4977 -0.8746
  301MPD2    N1 4594   2.401   1.648   1.429 -0.0586  0.3389 -0.4798
  301MPD2    H7 4595   2.347   1.607   1.354  1.8411 -1.2611 -0.9873
  302TMC3    C1 4596   2.588   1.033   1.269  0.3648 -0.2909 -0.1767
  302TMC3    C2 4597   2.707   0.984   1.307  0.1485  0.2393  0.4225
  302TMC3    C3 4598   2.773   0.901   1.220 -0.2864  0.3230 -0.3065
  302TMC3    C4 4599   2.532   1.002   1.148  0.2915 -0.0465 -1.2319
  302TMC3    C5 4600   2.608   0.932   1.053  0.6631 -0.0561  0.0653
  302TMC3    C6 4601   2.727   0.877   1.093 -0.2933 -0.2602  0.0775
  302TMC3     C 4602   2.523   1.145   1.323  0.0325  0.0906  0.3260
  302TMC3     O 4603   2.414   1.182   1.280 -0.0435 -0.0188 -0.8213
  302TMC3     H 4604   2.761   1.006   1.399  0.5427  0.8762  0.0423
  302TMC3    H1 4605   2.438   1.045   1.114 -0.0166  1.0650  1.0208
  302TMC3    H2 4606   2.780   0.813   1.023  0.3021  2.5208 -1.9984
  302TMC3    C7 4607   2.577   0.939   0.911  0.3973 -0.1529  0.4073
  302TMC3    C8 4608   2.904   0.851   1.249  0.1870  0.0003  0.6384
  302TMC3    O1 4609   2.676   0.902   0.847  0.1686 -0.1738 -0.4247
  302TMC3    O2 4610   2.966   0.907   1.339 -0.1358 -0.4668 -0.5195
  303MPD2     C 4611   3.924   0.384  10.738 -0.6578  0.3363 -0.0140
  303MPD2    C1 4612   3.849   0.281  10.692 -0.2265 -0.2403 -0.5597
  303MPD2    C2 4613   3.894   0.206  10.584  0.8797 -0.0736  0.1118
  303MPD2    C3 4614   4.007   0.235  10.515  0.2862  1.5058 -0.3021
  303MPD2    C4 4615   4.082   0.345  10.560  0.2422 -0.4667 -0.2967
  303MPD2    C5 4616   4.041   0.411  10.669 -0.5050 -0.8135  0.5221
  303MPD2     H 4617   3.831   0.121  10.559  0.9827 -0.0210 -0.3280
  303MPD2    H1 4618   4.169   0.384  10.510  0.5341 -1.4353 -0.5587
  303MPD2    H2 4619   3.904   0.448  10.823  1.9174 -0.0149  0.8609
  303MPD2    H3 4620   4.105   0.485  10.714  0.2948  0.4273 -2.6567
  303MPD2     N 4621   4.051   0.161  10.396 -0.0991 -0.4054  0.3604
  303MPD2    H5 4622   4.128   0.201  10.344 -2.6565  2.2234 -1.4001
  303MPD2    N1 4623   3.733   0.243  10.763  0.0785  0.3273  0.8768
  303MPD2    H7 4624   3.720   0.279  10.857  2.3559  0.6657  1.0765
  304TMC3    C1 4625   3.523   0.126  10.805 -0.6587  0.8567 -0.1241
  304TMC3    C2 4626   3.403   0.090  10.749 -0.1776  0.2099 -0.2233
  304TMC3    C3 4627   3.301   0.051  10.835  0.2166 -0.2088 -0.4033
  304TMC3    C4 4628   3.556   0.099  10.933 -0.9009 -0.6117 -0.4109
  304TMC3    C5 4629   3.457   0.053  11.017  0.6755  0.1730 -0.1776
  304TMC3    C6 4630   3.334   0.040  10.969 -0.0351  0.5298 -0.3254
  304TMC3     C 4631   3.625   0.164  10.709 -0.0009  0.2945 -0.4944
  304TMC3     O 4632   3.600   0.152  10.588 -0.0193 -0.5336 -0.6014
  304TMC3     H 4633   3.382   0.093  10.643 -0.1499  1.3963 -0.2004
  304TMC3    H1 4634   3.660   0.100  10.964 -0.9404  0.4930 -0.3047
  304TMC3    H2 4635   3.265   4.733  11.040 -2.0050  1.6529 -1.5086
  304TMC3    C7 4636   3.493   4.666  11.085 -0.1190 -0.2662  0.2166
  304TMC3    C8 4637   3.255   4.668  10.788 -0.3975 -0.2482  0.5969
  304TMC3    O1 4638   3.409   4.592  11.125 -0.2085  0.5718 -0.0400
  304TMC3    O2 4639   3.319   4.603  10.708  0.1726  0.0107  0.1810
  305MPD2     C 4640   1.257   1.861  13.841  0.4841 -0.0344 -1.1311
  305MPD2    C1 4641   1.349   1.752  13.845 -0.4649  0.2176 -0.3264
  305MPD2    C2 4642   1.370   1.679  13.733 -0.5518  0.2865  0.5945
  305MPD2    C3 4643   1.302   1.707  13.618 -0.2928  0.5096 -0.4485
  305MPD2    C4 4644   1.212   1.806  13.622  0.1145 -0.7856 -0.2488
  305MPD2    C5 4645   1.186   1.884  13.730  0.1427 -0.6177 -0.2076
  305MPD2     H 4646   1.452   1.609  13.746 -0.9564 -0.1367  0.8854
  305MPD2    H1 4647   1.146   1.820  13.537  1.1321 -1.6976 -1.1892
  305MPD2    H2 4648   1.247   1.916  13.933  0.0804  0.6563 -1.5863
  305MPD2    H3 4649   1.109   1.959  13.732  1.0854  0.3197  0.9468
  305MPD2     N 4650   1.332   1.637  13.502  0.3765  0.2702 -0.4335
  305MPD2    H5 4651   1.387   1.553  13.515  0.3373  0.0982 -1.4320
  305MPD2    N1 4652   1.423   1.747  13.965 -0.5756 -0.6236 -0.5763
  305MPD2    H7 4653   1.428   1.837  14.013 -0.0882 -1.8013  1.6084
  306TMC3    C1 4654   1.580   1.677  14.125  0.5145  0.0103 -0.4387
  306TMC3    C2 4655   1.708   1.642  14.114 -0.2482  0.3759 -0.0841
  306TMC3    C3 4656   1.798   1.665  14.221 -0.7226  0.6261  0.5661
  306TMC3    C4 4657   1.538   1.755  14.225 -0.5164 -0.7481 -0.5347
  306TMC3    C5 4658   1.622   1.768  14.335 -0.7891  0.2978 -0.5859
  306TMC3    C6 4659   1.756   1.729  14.337 -0.4225  0.1399  0.1925
  306TMC3     C 4660   1.502   1.644  14.006  0.2639  0.0809 -0.5962
  306TMC3     O 4661   1.500   1.530  13.962  0.4886  0.3586  0.2176
  306TMC3     H 4662   1.743   1.579  14.033 -0.3453  2.1510 -1.5052
  306TMC3    H1 4663   1.431   1.771  14.231 -0.3249 -0.2285  1.3144
  306TMC3    H2 4664   1.824   1.749  14.420  0.2131 -1.8263  0.1660
  306TMC3    C7 4665   1.549   1.822  14.445 -0.2486  0.4844 -0.0409
  306TMC3    C8 4666   1.930   1.620  14.205 -0.6729 -0.1398 -0.0093
  306TMC3    O1 4667   1.434   1.790  14.472 -0.1172 -0.0469  0.1743
  306TMC3    O2 4668   1.961   1.583  14.089 -0.3910 -0.4058  0.3452
  307MPD2     C 4669   4.303   0.446   0.811 -0.0972 -0.5734 -1.3810
  307MPD2    C1 4670   4.223   0.554   0.759  0.3770 -0.7002 -0.0995
  307MPD2    C2 4671   4.097   0.575   0.805 -0.2971  0.2733 -0.0837
  307MPD2    C3 4672   4.043   0.495   0.901  0.7203 -1.0952  0.7712
  307MPD2    C4 4673   4.122   0.392   0.957 -0.5992 -0.8877  1.1320
  307MPD2    C5 4674   4.251   0.373   0.914  0.6439 -0.9451 -0.9140
  307MPD2     H 4675   4.036   0.646   0.750  0.2499  0.0115 -1.0360
  307MPD2    H1 4676   4.082   0.331   1.037 -1.2860  0.3982  1.7910
  307MPD2    H2 4677   4.406   0.436   0.780  0.4131 -1.5866  0.6229
  307MPD2    H3 4678   4.314   0.300   0.961  1.1098 -0.3091 -0.5466
  307MPD2     N 4679   3.903   0.506   0.932 -0.1803  0.2486  0.7724
  307MPD2    H5 4680   3.857   0.590   0.897 -1.9043 -1.4220 -0.9565
  307MPD2    N1 4681   4.263   0.633   0.655 -0.1212 -0.1346 -0.2142
  307MPD2    H7 4682   4.208   0.711   0.619  1.0334  1.8155  2.2040
  308TMC3    C1 4683   3.491   0.387   0.839 -0.0417 -0.4358 -0.2679
  308TMC3    C2 4684   3.445   0.516   0.847 -0.4804  0.3838  0.4466
  308TMC3    C3 4685   3.529   0.606   0.911 -0.0509  0.5484  0.1799
  308TMC3    C4 4686   3.608   0.349   0.905 -0.0079 -0.7106  0.7208
  308TMC3    C5 4687   3.684   0.438   0.971 -0.4823  0.2711 -0.2071
  308TMC3    C6 4688   3.649   0.568   0.978 -0.3014 -0.3317 -0.3393
  308TMC3     C 4689   3.453   0.306   0.724 -0.1718 -0.4764  0.2611
  308TMC3     O 4690   3.530   0.217   0.686  0.3990  0.0725  0.2876
  308TMC3     H 4691   3.351   0.551   0.807  0.6148  1.8350 -0.8798
  308TMC3    H1 4692   3.638   0.246   0.897  3.8294  0.5293 -0.8027
  308TMC3    H2 4693   3.716   0.629   1.038 -0.6543 -0.8232  0.5534
  308TMC3    C7 4694   3.825   0.407   0.985 -0.3819  0.1365  0.5212
  308TMC3    C8 4695   3.476   0.736   0.933 -0.4351 -0.0157  0.5189
  308TMC3    O1 4696   3.855   0.292   1.024  0.8200  0.6437  0.6587
  308TMC3    O2 4697   3.351   0.747   0.916  0.4036  0.1415  0.2552
  309MPD2     C 4698   3.136   0.581  17.130 -0.1872 -0.2067 -1.0077
  309MPD2    C1 4699   3.102   0.631  17.009 -0.4742  0.2340  0.9957
  309MPD2    C2 4700   2.963   0.658  16.987  0.3165 -0.3119  0.3478
  309MPD2    C3 4701   2.872   0.655  17.093  0.6723 -0.2551  0.5271
  309MPD2    C4 4702   2.916   0.605  17.216  0.5356 -0.8814 -0.3437
  309MPD2    C5 4703   3.045   0.568  17.234 -0.5473  0.4206  0.4839
  309MPD2     H 4704   2.931   0.697  16.891  1.2104 -1.6002 -0.4791
  309MPD2    H1 4705   2.849   0.598  17.302  0.4753  0.6051 -0.2703
  309MPD2    H2 4706   3.240   0.578  17.160 -0.4818  0.1266  0.0813
  309MPD2    H3 4707   3.088   0.537  17.328  0.9815 -1.7728 -0.9369
  309MPD2     N 4708   2.740   0.694  17.087  0.4906  0.0403 -0.3865
  309MPD2    H5 4709   2.680   0.681  17.168 -0.1357 -0.2095 -0.8893
  309MPD2    N1 4710   3.197   0.656  16.907 -0.2534 -0.5207  0.1443
  309MPD2    H7 4711   3.154   0.677  16.817  0.1579  0.3340  0.1411
  310TMC3    C1 4712   3.394   0.712  16.797 -0.1610  0.2438 -0.2523
  310TMC3    C2 4713   3.327   0.808  16.727 -0.3148  0.2028  0.6239
  310TMC3    C3 4714   3.396   0.855  16.611 -0.3999 -0.0051  0.0088
  310TMC3    C4 4715   3.528   0.692  16.778 -0.1889  0.1126  0.0209
  310TMC3    C5 4716   3.598   0.750  16.675  0.2284 -0.4794  0.1080
  310TMC3    C6 4717   3.530   0.827  16.582  0.7208  0.3746  0.0117
  310TMC3     C 4718   3.332   0.651  16.918  0.5264  0.2198 -0.4483
  310TMC3     O 4719   3.406   0.600  17.003  0.7229 -0.7270  0.4217
  310TMC3     H 4720   3.228   0.844  16.754 -1.6127 -2.3614 -0.6467
  310TMC3    H1 4721   3.577   0.613  16.834 -0.0979 -1.2833 -2.0227
  310TMC3    H2 4722   3.581   0.860  16.492  1.7575 -2.7310 -0.5451
  310TMC3    C7 4723   3.696   0.654  16.626 -0.6989  0.2606 -0.0361
  310TMC3    C8 4724   3.326   0.970  16.549 -0.4631 -0.2417 -0.2078
  310TMC3    O1 4725   3.675   0.599  16.518  0.2426 -0.2004 -0.6879
  310TMC3    O2 4726   3.214   0.993  16.593 -0.0582 -0.1246  0.8626
  311MPD2     C 4727   0.769   1.140  12.523 -0.0550 -0.5991  0.5716
  311MPD2    C1 4728   0.745   1.254  12.603 -0.1293 -0.5632  0.5370
  311MPD2    C2 4729   0.619   1.285  12.645 -0.0203  0.0098  0.3498
  311MPD2    C3 4730   0.517   1.194  12.636  0.3392 -0.1587 -0.1219
  311MPD2    C4 4731   0.540   1.075  12.570  0.1541 -0.1983  0.3618
  311MPD2    C5 4732   0.664   1.052  12.518 -1.0152  0.2132 -0.0100
  311MPD2     H 4733   0.601   1.375  12.704  0.9061 -0.8681  1.9840
  311MPD2    H1 4734   0.459   1.005  12.558  1.7313 -1.8371 -0.8352
  311MPD2    H2 4735   0.866   1.109  12.487 -0.7639  0.1028 -1.9476
  311MPD2    H3 4736   0.668   0.961  12.460 -1.0819  1.9549 -2.7045
  311MPD2     N 4737   0.389   1.238  12.681 -0.2499  0.9412 -0.1147
  311MPD2    H5 4738   0.386   1.314  12.749 -2.0233  0.2542  0.5750
  311MPD2    N1 4739   0.849   1.354  12.622  0.0546 -0.1382  0.1417
  311MPD2    H7 4740   0.821   1.450  12.642 -1.1232  0.1600 -2.9369
  312TMC3    C1 4741   0.160   1.285  12.682 -0.4920 -0.2212  0.1128
  312TMC3    C2 4742   0.064   1.318  12.591  0.0792  0.1675 -0.0254
  312TMC3    C3 4743   4.704   1.404  12.625 -0.1198  0.3133  0.0629
  312TMC3    C4 4744   0.139   1.328  12.806  0.3891  0.1863  0.1041
  312TMC3    C5 4745   0.025   1.403  12.843  0.2763 -0.3061 -0.3580
  312TMC3    C6 4746   4.670   1.438  12.749 -0.1299  0.3742 -0.0446
  312TMC3     C 4747   0.267   1.194  12.630 -0.4880 -0.3045  0.5145
  312TMC3     O 4748   0.244   1.116  12.545 -0.2046 -0.1860 -0.6335
  312TMC3     H 4749   0.096   1.298  12.489  0.9045  1.6116 -0.0376
  312TMC3    H1 4750   0.209   1.310  12.886  0.8305 -0.8338 -0.5051
  312TMC3    H2 4751   4.575   1.480  12.780 -0.9221  0.4584 -2.6014
  312TMC3    C7 4752   0.027   1.506  12.950 -0.5976 -0.0325  0.2902
  312TMC3    C8 4753   4.621   1.451  12.515 -0.9589 -0.0015 -0.1481
  312TMC3    O1 4754   4.712   1.614  12.939 -0.1184  0.7107 -0.0192
  312TMC3    O2 4755   4.645   1.395  12.409  0.1307  0.0014 -0.1687
  313MPD2     C 4756   0.518   1.037  10.406 -0.3438  0.1029  0.6239
  313MPD2    C1 4757   0.496   0.901  10.433 -0.4060 -0.0017  0.1300
  313MPD2    C2 4758   0.539   0.810  10.341 -0.4359 -0.0501 -0.0587
  313MPD2    C3 4759   0.579   0.862  10.215  0.4169  0.4025 -0.5184
  313MPD2    C4 4760   0.592   0.996  10.189  0.1798  0.3910  0.5841
  313MPD2    C5 4761   0.564   1.082  10.287 -0.4990  0.8330  0.4909
  313MPD2     H 4762   0.522   0.705  10.360 -2.7239  0.0793 -1.4079
  313MPD2    H1 4763   0.636   1.029  10.096 -0.5887 -0.2633 -0.0180
  313MPD2    H2 4764   0.501   1.108  10.487  1.2956 -0.1669  1.2073
  313MPD2    H3 4765   0.575   1.187  10.263 -0.7708  0.4797 -1.2053
  313MPD2     N 4766   0.593   0.760  10.124  0.4736  0.7319 -0.5206
  313MPD2    H5 4767   0.589   0.663  10.156  1.4627  0.1456 -2.1878
  313MPD2    N1 4768   0.424   0.870  10.550 -0.4926 -0.4185  0.0069
  313MPD2    H7 4769   0.394   0.943  10.614 -0.3960 -0.3100 -0.0725
  314TMC3    C1 4770   0.322   0.734  10.707 -0.5233  0.1377  0.0577
  314TMC3    C2 4771   0.396   0.789  10.806 -0.1802  0.5123  0.1683
  314TMC3    C3 4772   0.330   0.829  10.924 -0.5048 -0.3151 -0.2171
  314TMC3    C4 4773   0.189   0.721  10.722  0.6015  0.2354  0.1381
  314TMC3    C5 4774   0.131   0.758  10.841 -0.1401  0.4345 -0.3281
  314TMC3    C6 4775   0.200   0.810  10.948 -0.2410  0.5234  0.1340
  314TMC3     C 4776   0.374   0.741  10.577 -0.0872 -1.1276  0.1560
  314TMC3     O 4777   0.360   0.640  10.511 -0.3449  0.2397  0.4502
  314TMC3     H 4778   0.504   0.794  10.795 -0.1537  0.5644  0.4647
  314TMC3    H1 4779   0.125   0.690  10.640  0.7919  0.7286 -0.1915
  314TMC3    H2 4780   0.148   0.869  11.023  0.5317  2.0423 -0.5276
  314TMC3    C7 4781   0.009   0.822  10.816 -0.3686 -0.2346  0.1826
  314TMC3    C8 4782   0.405   0.923  11.000 -0.2985 -0.2336 -0.6207
  314TMC3    O1 4783   4.657   0.817  10.902 -0.0688  0.8098 -0.3929
  314TMC3    O2 4784   0.488   0.984  10.932  0.0729 -0.1333  0.2598
  315MPD2     C 4785   4.291   0.285  17.485 -0.1561  0.7915 -0.5345
  315MPD2    C1 4786   4.335   0.338  17.610  0.5014 -0.0694  0.7710
  315MPD2    C2 4787   4.349   0.473  17.610  0.2495 -0.2256 -0.0305
  315MPD2    C3 4788   4.346   0.553  17.497 -0.2580 -0.5582 -0.0020
  315MPD2    C4 4789   4.324   0.493  17.373  0.1936  0.2919 -0.0129
  315MPD2    C5 4790   4.289   0.359  17.370 -0.1323  0.4151 -0.1830
  315MPD2     H 4791   4.363   0.519  17.707 -0.8618 -2.2559  1.0833
  315MPD2    H1 4792   4.331   0.533  17.273 -1.0016 -1.1639 -0.6660
  315MPD2    H2 4793   4.244   0.187  17.477  2.0966 -0.3628  0.2254
  315MPD2    H3 4794   4.260   0.315  17.276  2.8774 -0.0008 -0.8931
  315MPD2     N 4795   4.386   0.689  17.506  0.5906 -0.0296 -0.3859
  315MPD2    H5 4796   4.411   0.725  17.598  1.8249 -0.0150 -0.7299
  315MPD2    N1 4797   4.347   0.261  17.732 -0.4078  0.0362  0.3704
  315MPD2    H7 4798   4.371   0.315   0.066 -0.1838  1.2402 -0.4763
  316TMC3    C1 4799   4.488   0.885  17.452  0.0105  0.0445 -0.4215
  316TMC3    C2 4800   4.598   0.863  17.532  0.3978 -0.1023 -0.1358
  316TMC3    C3 4801   4.698   0.954  17.541 -0.1840  0.1098 -0.3664
  316TMC3    C4 4802   4.482   1.004  17.386  0.4292 -0.1910  0.1838
  316TMC3    C5 4803   4.585   1.095  17.390  0.4376  0.0553 -0.1460
  316TMC3    C6 4804   4.691   1.077  17.477  0.7083 -0.7680  0.1418
  316TMC3     C 4805   4.417   0.766  17.399 -0.1102  0.3110 -0.7294
  316TMC3     O 4806   4.395   0.757  17.279  0.0520 -0.1771  0.3226
  316TMC3     H 4807   4.601   0.779  17.601 -2.9420  0.1991  0.4121
  316TMC3    H1 4808   4.394   1.012  17.323 -0.0415 -0.5823  0.7941
  316TMC3    H2 4809   0.034   1.150  17.482  0.8470 -0.9559  0.6844
  316TMC3    C7 4810   4.557   1.228  17.369  0.1074  0.1104 -0.3018
  316TMC3    C8 4811   0.044   0.943  17.660 -1.1344 -0.7347 -0.8535
  316TMC3    O1 4812   4.602   1.307  17.456  0.2159  0.6529  1.0829
  316TMC3    O2 4813   0.066   1.050  17.718 -0.5418  0.4100 -0.0203
  317MPD2     C 4814   1.796   3.367  12.953  0.4538 -0.4853 -0.7493
  317MPD2    C1 4815   1.826   3.237  12.914 -0.3840  0.0428  0.6037
  317MPD2    C2 4816   1.893   3.157  12.999  0.5162  0.0540 -0.5171
  317MPD2    C3 4817   1.928   3.202  13.122  0.6610 -0.0441  0.3476
  317MPD2    C4 4818   1.900   3.327  13.166 -0.1002 -0.3700  0.2430
  317MPD2    C5 4819   1.833   3.411  13.072 -0.1047 -0.2406  0.1265
  317MPD2     H 4820   1.903   3.055  12.966 -0.7082  0.0571 -0.9053
  317MPD2    H1 4821   1.920   3.356  13.269  0.9417 -0.5200  0.0896
  317MPD2    H2 4822   1.758   3.433  12.876  2.7488  1.2352 -0.4069
  317MPD2    H3 4823   1.816   3.512  13.108  1.3237 -0.0737  0.3558
  317MPD2     N 4824   1.972   3.096  13.211  0.0055 -0.5509  0.1564
  317MPD2    H5 4825   1.976   3.005  13.167 -1.1844 -0.2402 -0.6057
  317MPD2    N1 4826   1.790   3.190  12.788 -0.1098  0.4330  0.4803
  317MPD2    H7 4827   1.815   3.094  12.765 -4.4561 -0.3752 -0.9346
  318TMC3    C1 4828   2.039   2.987  13.401  0.6641 -0.0819 -0.5656
  318TMC3    C2 4829   1.971   2.878  13.352 -0.1209 -0.1974 -0.6017
  318TMC3    C3 4830   2.024   2.755  13.388 -0.2296 -0.2474 -0.2386
  318TMC3    C4 4831   2.151   2.975  13.489  0.4231 -0.0242 -0.0418
  318TMC3    C5 4832   2.201   2.850  13.519  0.3407  0.5214  0.1723
  318TMC3    C6 4833   2.140   2.740  13.467 -1.0067  0.3336  0.1130
  318TMC3     C 4834   2.011   3.115  13.338 -0.2599 -0.4301 -0.0177
  318TMC3     O 4835   2.042   3.210  13.409  0.3965 -0.2478 -0.4390
  318TMC3     H 4836   1.877   2.893  13.300 -0.6347 -1.6623 -0.0877
  318TMC3    H1 4837   2.219   3.057  13.506  0.8076 -0.6928  1.6082
  318TMC3    H2 4838   2.170   2.644  13.508  0.2680 -0.1689 -1.9978
  318TMC3    C7 4839   2.304   2.823  13.617 -0.4630 -0.4412 -0.5562
  318TMC3    C8 4840   1.979   2.634  13.335 -0.0720 -0.0894 -0.2845
  318TMC3    O1 4841   2.301   2.715  13.679 -0.2373  0.5455 -0.4567
  318TMC3    O2 4842   2.050   2.536  13.348  0.6131  0.2584  0.5628
  319MPD2     C 4843   2.562   0.185  16.069 -0.5097 -0.0272 -0.2275
  319MPD2    C1 4844   2.583   0.049  16.062 -0.5804 -0.3481  0.0702
  319MPD2    C2 4845   2.476   4.707  16.064  0.1362 -0.4798 -0.1175
  319MPD2    C3 4846   2.349   0.025  16.077 -0.2234 -0.0038  0.2841
  319MPD2    C4 4847   2.324   0.155  16.085 -0.8635 -0.8228  0.4272
  319MPD2    C5 4848   2.438   0.234  16.089 -0.1196  0.1855  0.6848
  319MPD2     H 4849   2.494   4.600  16.057  1.8634 -0.0618 -2.1370
  319MPD2    H1 4850   2.228   0.202  16.067 -1.1206 -1.5418 -0.0898
  319MPD2    H2 4851   2.650   0.248  16.061 -0.0777 -0.6735 -0.6228
  319MPD2    H3 4852   2.440   0.342  16.096  1.3566  0.2669 -0.9814
  319MPD2     N 4853   2.235   4.681  16.058  0.4631  0.4455 -1.1862
  319MPD2    H5 4854   2.150   4.737  16.054 -2.1668 -3.4362 -0.2837
  319MPD2    N1 4855   2.708   4.730  16.041  0.5761  0.9249 -0.8011
  319MPD2    H7 4856   2.709   4.635  16.006 -3.0702  0.5943 -0.0011
  320TMC3    C1 4857   2.091   4.497  16.020 -0.2682 -0.7859  0.0966
  320TMC3    C2 4858   1.989   4.583  15.993  0.0028  0.6393 -0.8588
  320TMC3    C3 4859   1.858   4.536  15.982  0.4545  0.1088 -0.6059
  320TMC3    C4 4860   2.056   4.365  16.059 -0.0273 -0.3262 -0.2838
  320TMC3    C5 4861   1.919   4.325  16.051  0.0175 -1.1598 -0.5855
  320TMC3    C6 4862   1.818   4.406  16.005  0.4009 -0.0100  0.4268
  320TMC3     C 4863   2.226   4.544  16.062 -0.2449  0.2363 -0.4795
  320TMC3     O 4864   2.310   4.467  16.100  0.3534  0.2540 -0.4025
  320TMC3     H 4865   2.008   4.689  15.984  1.1631  0.5177  0.2216
  320TMC3    H1 4866   2.134   4.298  16.094  0.7014  0.6698 -0.0087
  320TMC3    H2 4867   1.720   4.363  15.991  0.6227 -0.7642  1.1556
  320TMC3    C7 4868   1.888   4.183  16.058  1.2372 -0.5437  0.5006
  320TMC3    C8 4869   1.766   4.638  15.963 -0.3796 -1.0860  0.0016
  320TMC3    O1 4870   1.775   4.144  16.031  0.0763  0.7211 -0.4192
  320TMC3    O2 4871   1.806   0.016  15.949  0.0101  0.3269 -0.0078
  321TMC3    C1 4872   2.938   4.689  16.066  0.0940  0.5167 -1.1398
  321TMC3    C2 4873   2.927   4.559  16.100  0.6281  1.0087  0.2614
  321TMC3    C3 4874   3.040   4.493  16.137  0.6556  0.0191 -0.3512
  321TMC3    C4 4875   3.062   0.012  16.071 -0.1641 -0.2185 -0.1701
  321TMC3    C5 4876   3.168   4.684  16.115  0.0111 -0.6212  0.0692
  321TMC3    C6 4877   3.167   4.551  16.138  0.0204 -0.1552 -0.0284
  321TMC3     C 4878   2.828   0.039  16.079  0.3719  0.4265  0.8273
  321TMC3     O 4879   2.855   0.153  16.121 -0.2905 -0.4433  0.4736
  321TMC3     H 4880   2.830   4.517  16.124  0.6793 -1.2720 -3.6038
  321TMC3    H1 4881   3.064   0.119  16.060 -0.1526 -0.2547 -0.5187
  321TMC3    H2 4882   3.253   4.497  16.177 -0.6251  1.3619  3.4792
  321TMC3    C7 4883   3.241   0.017  16.218 -0.6635  0.1067  0.3912
  321TMC3    C8 4884   3.015   4.406  16.244  1.0284  0.2014 -0.1511
  321TMC3    O1 4885   3.260   4.688  16.322  0.1571 -0.0101 -0.4524
  321TMC3    O2 4886   2.919   4.328  16.236 -0.4054  0.3856 -0.4384
  322MPD2     C 4887   1.408   1.151  13.399  0.1677  0.1035  0.4155
  322MPD2    C1 4888   1.497   1.113  13.502  0.1904  0.2618  0.4548
  322MPD2    C2 4889   1.514   0.974  13.531  0.2143 -0.3139  0.3448
  322MPD2    C3 4890   1.439   0.880  13.468  0.3297  0.5425  0.8958
  322MPD2    C4 4891   1.348   0.923  13.370  0.5996 -0.1467 -0.3257
  322MPD2    C5 4892   1.341   1.054  13.331 -0.4715 -0.0103 -0.0721
  322MPD2     H 4893   1.581   0.942  13.610 -0.2454 -1.6054  0.2144
  322MPD2    H1 4894   1.291   0.842  13.326  0.9585 -1.2865  1.3249
  322MPD2    H2 4895   1.379   1.253  13.374 -2.5873 -1.1444 -1.4284
  322MPD2    H3 4896   1.273   1.086  13.253 -0.6414  0.0285  0.0910
  322MPD2     N 4897   1.441   0.749  13.525  0.0494  0.6947 -0.4753
  322MPD2    H5 4898   1.504   0.738  13.604 -0.2473  1.8270 -0.0824
  322MPD2    N1 4899   1.574   1.204  13.572 -0.5005 -1.0253  0.3053
  322MPD2    H7 4900   1.619   1.162  13.652 -0.9400  0.4915  1.3569
  323TMC3    C1 4901   1.669   1.407  13.656 -0.1687 -0.0313  0.0174
  323TMC3    C2 4902   1.775   1.478  13.606  0.5812  0.1982 -0.2787
  323TMC3    C3 4903   1.888   1.478  13.689 -0.0876 -0.0322 -0.2988
  323TMC3    C4 4904   1.666   1.349  13.783  0.6233  0.1416  0.5560
  323TMC3    C5 4905   1.777   1.374  13.861 -0.4438  0.2700 -0.7233
  323TMC3    C6 4906   1.887   1.436  13.821 -0.1904  0.0228  0.2891
  323TMC3     C 4907   1.588   1.339  13.554 -0.4224  0.4951 -0.2037
  323TMC3     O 4908   1.531   1.412  13.471 -0.2641  1.0201 -0.2421
  323TMC3     H 4909   1.789   1.498  13.500  1.0012  1.5625  0.0355
  323TMC3    H1 4910   1.572   1.308  13.817  0.4663  0.1876  0.1744
  323TMC3    H2 4911   1.974   1.448  13.884  0.6035 -1.5980 -0.5077
  323TMC3    C7 4912   1.793   1.261  13.951  0.2786  0.1182  0.9037
  323TMC3    C8 4913   2.014   1.526  13.638  0.6090 -0.2645  0.5569
  323TMC3    O1 4914   1.720   1.161  13.938 -0.3378  0.3759 -0.5729
  323TMC3    O2 4915   2.111   1.507  13.705  0.0051 -0.9838  0.3769
  324MPD2     C 4916   3.059   2.203  14.320 -0.1596  0.2214 -0.5184
  324MPD2    C1 4917   3.046   2.311  14.402  0.3046  0.1235 -0.0275
  324MPD2    C2 4918   2.915   2.350  14.437 -0.0337 -0.1837 -0.0319
  324MPD2    C3 4919   2.801   2.280  14.397 -0.2058  0.2785 -0.6916
  324MPD2    C4 4920   2.821   2.180  14.303  0.3727 -1.3209 -0.5095
  324MPD2    C5 4921   2.949   2.147  14.262 -0.2448  0.0586 -0.3123
  324MPD2     H 4922   2.908   2.438  14.499 -1.7985  0.5609 -1.2939
  324MPD2    H1 4923   2.743   2.120  14.259  1.3346 -0.0166 -3.9909
  324MPD2    H2 4924   3.155   2.178  14.276  0.2383  2.7109 -1.0389
  324MPD2    H3 4925   2.965   2.066  14.191  0.5212  1.3313 -1.5995
  324MPD2     N 4926   2.670   2.304  14.438 -0.8181 -0.7350  0.3372
  324MPD2    H5 4927   2.601   2.252  14.385  0.3265 -1.5596 -0.3548
  324MPD2    N1 4928   3.154   2.381  14.445 -0.3005 -0.1012 -0.5097
  324MPD2    H7 4929   3.126   2.451  14.512 -2.2803 -0.0276 -1.4141
  325TMC3    C1 4930   2.488   2.357  14.579  0.4755  0.3492 -0.5658
  325TMC3    C2 4931   2.416   2.260  14.526 -0.3494  0.8535  0.1574
  325TMC3    C3 4932   2.277   2.271  14.511 -0.1307  0.0393  0.1574
  325TMC3    C4 4933   2.429   2.470  14.625 -0.7545 -0.1295  0.3937
  325TMC3    C5 4934   2.293   2.484  14.604 -0.3853  0.2263  0.1719
  325TMC3    C6 4935   2.214   2.385  14.547 -0.5846 -0.0910 -0.1152
  325TMC3     C 4936   2.632   2.374  14.547 -0.6651  0.5396  0.4322
  325TMC3     O 4937   2.703   2.455  14.609  0.1864  0.5202  0.3363
  325TMC3     H 4938   2.465   2.166  14.501  0.4522  1.3898 -0.2898
  325TMC3    H1 4939   2.491   2.545  14.672 -1.1356  0.7428 -0.4828
  325TMC3    H2 4940   2.106   2.395  14.552 -0.5999 -0.3880  0.1501
  325TMC3    C7 4941   2.250   2.622  14.600  0.4314 -0.9187 -0.1133
  325TMC3    C8 4942   2.209   2.162  14.438 -0.1023 -0.2377  0.6283
  325TMC3    O1 4943   2.305   2.689  14.690  0.4972 -0.4570 -0.3712
  325TMC3    O2 4944   2.276   2.074  14.379 -0.7088  0.0507  0.0121
  326MPD2     C 4945   4.588   3.142  11.187 -0.3846 -0.2516  0.4918
  326MPD2    C1 4946   4.609   3.133  11.056 -0.8496  0.2671 -0.0084
  326MPD2    C2 4947   4.733   3.179  11.006  0.2358 -0.8152 -0.1404
  326MPD2    C3 4948   0.090   3.224  11.098 -0.1624 -0.2358  0.1314
  326MPD2    C4 4949   0.064   3.232  11.234  0.6088  0.4631 -0.1616
  326MPD2    C5 4950   4.681   3.189  11.277  0.0182 -0.1971 -0.3327
  326MPD2     H 4951   0.018   3.177  10.900 -3.8208 -0.1168 -1.0229
  326MPD2    H1 4952   0.133   3.275  11.305  3.3598 -0.3742 -2.3147
  326MPD2    H2 4953   4.491   3.116  11.227 -1.2955  0.3137 -1.3465
  326MPD2    H3 4954   4.657   3.208  11.381  1.4003 -1.9442  0.3036
  326MPD2     N 4955   0.223   3.268  11.048 -0.0362  0.1892  0.7610
  326MPD2    H5 4956   0.267   3.333  11.113  1.4883 -0.6757  0.5715
  326MPD2    N1 4957   4.514   3.081  10.963 -0.0518 -0.6642  0.3244
  326MPD2    H7 4958   4.535   3.077  10.864  1.6795  0.9321  0.6313
  327TMC3    C1 4959   4.315   3.025  10.851 -0.5626 -1.2520 -0.5227
  327TMC3    C2 4960   4.213   3.101  10.832 -0.5530  0.9426  0.2583
  327TMC3    C3 4961   4.158   3.112  10.708 -0.2006 -0.0813 -0.6422
  327TMC3    C4 4962   4.382   2.969  10.744 -0.2217 -0.0533  0.5093
  327TMC3    C5 4963   4.334   2.991  10.617  0.3727  0.0604 -0.4247
  327TMC3    C6 4964   4.218   3.060  10.597  0.1560 -0.3372 -0.5494
  327TMC3     C 4965   4.382   3.045  10.981 -0.3395  0.2502  0.5381
  327TMC3     O 4966   4.316   3.029  11.084  0.0694  0.4933 -0.1165
  327TMC3     H 4967   4.180   3.167  10.911  0.9571  1.8997  0.0946
  327TMC3    H1 4968   4.472   2.910  10.760 -0.4769  0.8810  5.1545
  327TMC3    H2 4969   4.195   3.074  10.492 -0.9095  1.9904  0.0172
  327TMC3    C7 4970   4.432   3.022  10.517 -0.4953 -0.0778  0.3502
  327TMC3    C8 4971   4.101   3.243  10.667  0.0650 -0.3455  0.2473
  327TMC3    O1 4972   4.402   3.103  10.430  0.7468 -0.2737  0.5071
  327TMC3    O2 4973   4.106   3.328  10.751 -0.4649  0.0367 -0.0382
  328MPD2     C 4974   2.612   4.237  16.903 -0.6316 -0.8607 -0.1886
  328MPD2    C1 4975   2.499   4.201  16.975  0.2665  0.0849  0.2570
  328MPD2    C2 4976   2.376   4.176  16.910  0.1274 -0.2638  0.0390
  328MPD2    C3 4977   2.370   4.200  16.770  0.7760 -0.0577 -0.5237
  328MPD2    C4 4978   2.483   4.245  16.707  0.0793  0.6510 -0.1144
  328MPD2    C5 4979   2.606   4.262  16.763  0.2147  0.1519 -0.0995
  328MPD2     H 4980   2.291   4.146  16.970 -0.5311 -1.2309 -1.3732
  328MPD2    H1 4981   2.477   4.269  16.602 -1.9859  1.6933  0.2241
  328MPD2    H2 4982   2.710   4.238  16.949 -0.1538  0.7512 -1.2286
  328MPD2    H3 4983   2.686   4.298  16.700 -1.0340  1.6520 -0.8152
  328MPD2     N 4984   2.258   4.182  16.693  0.3054  0.0890 -0.6215
  328MPD2    H5 4985   2.262   4.222  16.600  0.8235 -0.3586 -0.7885
  328MPD2    N1 4986   2.518   4.186  17.117  0.3395 -0.4743  0.0868
  328MPD2    H7 4987   2.613   4.208  17.145 -0.0641  0.4035  0.7938
  329TMC3    C1 4988   2.500   4.095  17.333 -0.6455 -1.0554 -0.1882
  329TMC3    C2 4989   2.490   4.204  17.414  0.2316 -0.7402  0.3064
  329TMC3    C3 4990   2.459   4.184  17.545  0.1483 -0.5019  0.2859
  329TMC3    C4 4991   2.496   3.967  17.385 -0.2986  0.3668 -0.8145
  329TMC3    C5 4992   2.464   3.955  17.518  0.3039  0.4219 -0.0131
  329TMC3    C6 4993   2.443   4.063  17.604  0.0950 -0.7349  0.2436
  329TMC3     C 4994   2.443   4.114  17.200  0.1841 -0.7067 -0.5225
  329TMC3     O 4995   2.350   4.047  17.176 -0.1007  0.2366 -0.3571
  329TMC3     H 4996   2.475   4.303  17.373 -0.9487 -0.7297  0.7805
  329TMC3    H1 4997   2.506   3.877  17.325  1.9830 -0.5889  1.0022
  329TMC3    H2 4998   2.441   4.051  17.712  0.7817 -0.8493  0.2448
  329TMC3    C7 4999   2.417   3.833  17.573 -0.5953  0.5676  0.8679
  329TMC3    C8 5000   2.440   4.297  17.634  0.4815  0.5287 -0.2081
  329TMC3    O1 5001   2.385   3.833  17.693 -0.1458 -0.2338  0.3635
  329TMC3    O2 5002   2.497   4.404  17.603 -0.2917  0.2428  0.4432
  330TMC3    C1 5003   4.513   2.521   9.142  0.5244 -0.4123  0.1227
  330TMC3    C2 5004   4.466   2.536   9.273 -0.1725 -0.1377 -0.2548
  330TMC3    C3 5005   4.495   2.653   9.340  0.0100  0.8601 -0.2447
  330TMC3    C4 5006   4.596   2.621   9.083 -0.1078 -0.2875  0.4914
  330TMC3    C5 5007   4.609   2.742   9.154 -1.1757 -0.2665 -0.0912
  330TMC3    C6 5008   4.557   2.755   9.280 -0.4374  0.4430  0.6873
  330TMC3     C 5009   4.493   2.388   9.079 -0.0757  0.4968  0.8021
  330TMC3     O 5010   4.582   2.354   9.004 -0.3905  0.8663 -0.2597
  330TMC3     H 5011   4.411   2.460   9.328  0.5109  0.0702  0.7196
  330TMC3    H1 5012   4.637   2.607   8.983 -1.0718  0.6799 -0.0404
  330TMC3    H2 5013   4.562   2.852   9.330  2.3863  1.1804 -0.9869
  330TMC3    C7 5014   4.722   2.827   9.109  1.2441 -0.3296 -0.0765
  330TMC3    C8 5015   4.405   2.693   9.440 -0.0468 -0.3676 -0.1144
  330TMC3    O1 5016   0.030   2.797   8.999 -0.4282  0.5085  0.7480
  330TMC3    O2 5017   4.343   2.796   9.417 -0.3919 -0.2095 -0.3148
  331MPD2     C 5018   2.817   1.391  12.645  0.0887 -0.1840 -0.5517
  331MPD2    C1 5019   2.946   1.423  12.609  0.1401 -0.1273 -0.0417
  331MPD2    C2 5020   2.986   1.405  12.479  0.0626  0.8471 -1.0160
  331MPD2    C3 5021   2.895   1.355  12.388 -0.3199  0.4786  0.0610
  331MPD2    C4 5022   2.761   1.322  12.421 -1.1132  0.1627  0.6668
  331MPD2    C5 5023   2.726   1.341  12.551  0.5554  0.1131 -0.2674
  331MPD2     H 5024   3.086   1.428  12.443 -0.4241  1.6539 -1.8351
  331MPD2    H1 5025   2.701   1.278  12.342  0.8053  0.1099 -0.7532
  331MPD2    H2 5026   2.778   1.404  12.745  1.8940  0.9819  0.0048
  331MPD2    H3 5027   2.626   1.309  12.578 -0.7615  1.3589 -3.6431
  331MPD2     N 5028   2.931   1.346  12.251 -0.1923 -0.5705  0.0383
  331MPD2    H5 5029   2.879   1.284  12.190 -0.1384  0.5239 -1.1274
  331MPD2    N1 5030   3.022   1.497  12.702 -0.4151 -0.5521  0.3454
  331MPD2    H7 5031   2.973   1.548  12.774  1.9150  1.6042  0.4153
  332TMC3    C1 5032   3.055   1.399  12.068  0.6136  0.2032 -0.3563
  332TMC3    C2 5033   3.079   1.497  11.975 -0.4051  0.0371 -0.1940
  332TMC3    C3 5034   3.136   1.461  11.855 -0.3015  0.4994  0.1716
  332TMC3    C4 5035   3.079   1.273  12.045  0.5670  0.0553 -0.3674
  332TMC3    C5 5036   3.139   1.238  11.928  0.2045 -0.5414  0.0726
  332TMC3    C6 5037   3.173   1.331  11.836 -0.2907  0.4599 -0.6448
  332TMC3     C 5038   3.021   1.437  12.200 -0.3745  0.1133 -0.3611
  332TMC3     O 5039   3.040   1.550  12.234  0.4311  0.0318  0.4159
  332TMC3     H 5040   3.058   1.601  11.996 -0.7433  0.3281 -1.9754
  332TMC3    H1 5041   3.077   1.196  12.122 -1.8559 -0.2664 -0.7627
  332TMC3    H2 5042   3.200   1.310  11.733  0.5266 -0.3032 -0.2660
  332TMC3    C7 5043   3.237   1.128  11.947  0.3054 -0.9335 -0.2139
  332TMC3    C8 5044   3.233   1.555  11.792 -0.0849 -0.4838 -0.2611
  332TMC3    O1 5045   3.194   1.030  12.002 -0.5473 -0.4230  0.3287
  332TMC3    O2 5046   3.352   1.519  11.799  0.0905  0.6514  0.6294
  333MPD2     C 5047   3.176   1.524  11.368 -0.3671 -0.4200 -1.0752
  333MPD2    C1 5048   3.235   1.417  11.302  0.2973  0.3160  0.1788
  333MPD2    C2 5049   3.184   1.287  11.319 -0.3081  0.5703  0.4865
  333MPD2    C3 5050   3.085   1.255  11.406 -0.3755 -0.0767 -0.1238
  333MPD2    C4 5051   3.019   1.359  11.476  0.3483 -0.4954  0.0341
  333MPD2    C5 5052   3.071   1.489  11.458 -0.4975  0.2460  0.0910
  333MPD2     H 5053   3.218   1.204  11.258 -0.2629  1.3781 -0.5893
  333MPD2    H1 5054   2.926   1.344  11.531 -1.0584  1.1445 -1.9156
  333MPD2    H2 5055   3.211   1.626  11.359  1.5762 -0.8068  2.2405
  333MPD2    H3 5056   3.022   1.573  11.505  0.8144  1.2431 -0.3247
  333MPD2     N 5057   3.039   1.118  11.414 -0.6406 -0.2039 -0.1468
  333MPD2    H5 5058   3.082   1.051  11.351  1.4787 -1.4617  2.6248
  333MPD2    N1 5059   3.338   1.454  11.216  0.4358 -0.1645  0.6927
  333MPD2    H7 5060   3.356   1.552  11.194 -1.3184  0.2160  0.9523
  334TMC3    C1 5061   3.494   1.431  11.046 -0.2877 -0.2500  0.3704
  334TMC3    C2 5062   3.572   1.346  10.974 -0.1806 -0.1111 -0.4891
  334TMC3    C3 5063   3.687   1.381  10.903  0.1380 -0.2744 -0.5499
  334TMC3    C4 5064   3.521   1.567  11.036  0.2388  0.1029 -0.0851
  334TMC3    C5 5065   3.626   1.609  10.959  0.1876 -0.2532  0.5432
  334TMC3    C6 5066   3.712   1.518  10.895 -0.8056  0.7610 -0.1226
  334TMC3     C 5067   3.414   1.365  11.151 -0.2279 -0.0485  0.1692
  334TMC3     O 5068   3.427   1.250  11.183  1.0558 -0.0235 -0.1621
  334TMC3     H 5069   3.567   1.238  10.987 -1.2363 -0.1194 -0.9891
  334TMC3    H1 5070   3.459   1.638  11.089  1.2233 -0.1860  1.4543
  334TMC3    H2 5071   3.802   1.566  10.858 -0.7718  1.0537  0.3310
  334TMC3    C7 5072   3.617   1.743  10.908  0.6243  0.4747 -0.6352
  334TMC3    C8 5073   3.797   1.292  10.925 -0.2879 -0.9026  0.3820
  334TMC3    O1 5074   3.561   1.831  10.976 -0.1470 -0.0935  0.0559
  334TMC3    O2 5075   3.787   1.197  11.000 -0.1494  0.1526 -0.4301
  335TMC3    C1 5076   2.691   3.550  17.309  0.0437 -0.2306  0.0392
  335TMC3    C2 5077   2.597   3.480  17.236  0.2472 -0.3534 -0.2915
  335TMC3    C3 5078   2.614   3.464  17.102  0.3117 -0.0223 -0.2957
  335TMC3    C4 5079   2.809   3.601  17.258 -0.4049 -0.0129  0.3224
  335TMC3    C5 5080   2.827   3.578  17.122  0.4778 -0.0662  0.2948
  335TMC3    C6 5081   2.730   3.514  17.040 -0.7904  0.5451  0.1512
  335TMC3     C 5082   2.707   3.504  17.446 -0.5978 -0.0101 -0.1378
  335TMC3     O 5083   2.735   3.595  17.522  0.3129  0.2002 -0.1024
  335TMC3     H 5084   2.526   3.421  17.295 -0.0028 -0.7565 -0.9931
  335TMC3    H1 5085   2.887   3.640  17.321 -0.2423 -0.6647  0.5192
  335TMC3    H2 5086   2.741   3.519  16.932  0.4097  2.4249  0.3601
  335TMC3    C7 5087   2.962   3.586  17.065  0.1675 -0.2580  0.6065
  335TMC3    C8 5088   2.511   3.404  17.011  0.5238 -0.1187 -0.3368
  335TMC3    O1 5089   2.979   3.525  16.962  0.3153 -0.7962  0.2851
  335TMC3    O2 5090   2.522   3.443  16.895  0.1638 -0.0447  0.6973
  336MPD2     C 5091   1.881   1.352  15.969 -0.2039  0.3265  0.1056
  336MPD2    C1 5092   1.905   1.275  15.860  0.3593 -0.1591 -0.0846
  336MPD2    C2 5093   1.930   1.143  15.884 -0.0207 -0.3883 -0.2797
  336MPD2    C3 5094   1.929   1.083  16.013 -0.8048  0.1017  0.1325
  336MPD2    C4 5095   1.903   1.168  16.118  0.0159 -0.9634  0.2545
  336MPD2    C5 5096   1.878   1.298  16.094  0.1361  0.0850  1.0276
  336MPD2     H 5097   1.941   1.071  15.803 -2.9263  0.1535 -1.1542
  336MPD2    H1 5098   1.900   1.137  16.222  0.0241 -0.8796  0.2799
  336MPD2    H2 5099   1.873   1.461  15.967 -1.4381  0.3126  2.9544
  336MPD2    H3 5100   1.862   1.371  16.173  0.6421  1.5846 -0.2458
  336MPD2     N 5101   1.959   0.945  16.037  0.6121  0.4987 -0.3462
  336MPD2    H5 5102   1.948   0.917  16.134  1.5262 -0.4480 -0.5244
  336MPD2    N1 5103   1.916   1.322  15.729 -0.0171  0.3867 -0.1016
  336MPD2    H7 5104   1.926   1.256  15.653 -1.6396  1.5491 -1.3208
  337TMC3    C1 5105   1.937   1.464  15.553 -0.0472  0.0266 -0.1668
  337TMC3    C2 5106   1.842   1.402  15.477  0.1635  0.5637  0.1616
  337TMC3    C3 5107   1.832   1.438  15.350  0.1076  0.1759  0.3857
  337TMC3    C4 5108   1.992   1.586  15.512  0.0749  0.5785  0.6096
  337TMC3    C5 5109   1.970   1.620  15.380  0.0185 -0.3769 -0.6583
  337TMC3    C6 5110   1.893   1.546  15.294 -0.1754  0.0913  0.2800
  337TMC3     C 5111   1.921   1.453  15.695 -0.2378  0.0614 -0.0919
  337TMC3     O 5112   1.924   1.550  15.770  0.1769 -0.9861  0.4181
  337TMC3     H 5113   1.794   1.309  15.505  0.1251  0.5067 -0.0948
  337TMC3    H1 5114   2.058   1.639  15.579  0.3221  0.2924  0.5909
  337TMC3    H2 5115   1.873   1.561  15.188 -0.9406  0.0597  0.4239
  337TMC3    C7 5116   2.031   1.745  15.340  0.2918  0.5324 -0.3423
  337TMC3    C8 5117   1.697   1.401  15.300  0.0890  0.5076  0.3656
  337TMC3    O1 5118   2.132   1.770  15.398  0.6823  0.3003  0.5399
  337TMC3    O2 5119   1.600   1.420  15.377  0.7943  0.0799  0.4816
  338MPD2     C 5120   2.382   0.574   0.806  0.2554  0.0820  0.9025
  338MPD2    C1 5121   2.342   0.619   0.683 -0.0444 -0.0100 -0.1097
  338MPD2    C2 5122   2.218   0.687   0.685 -0.1680  0.0250  0.2685
  338MPD2    C3 5123   2.142   0.712   0.804 -0.4110 -0.4357  0.0169
  338MPD2    C4 5124   2.191   0.674   0.930  0.1679 -0.2976  0.5481
  338MPD2    C5 5125   2.308   0.597   0.924  0.1391 -0.5674 -0.0694
  338MPD2     H 5126   2.185   0.708   0.584  0.9460  1.4366  0.2068
  338MPD2    H1 5127   2.132   0.676   1.020  2.0226  1.3683  1.7188
  338MPD2    H2 5128   2.483   0.541   0.829 -0.5113 -2.6114  0.4012
  338MPD2    H3 5129   2.349   0.555   1.015  0.1335  0.0937  0.2333
  338MPD2     N 5130   2.021   0.776   0.788 -0.2184 -0.1427  0.3805
  338MPD2    H5 5131   1.989   0.791   0.693 -0.3131  0.8341  0.5626
  338MPD2    N1 5132   2.412   0.598   0.566 -0.1465  0.6002 -0.6354
  338MPD2    H7 5133   2.373   0.630   0.478  2.8335  2.0313 -1.4343
  339TMC3    C1 5134   1.807   0.863   0.843  0.2007  0.1067  0.0236
  339TMC3    C2 5135   1.699   0.865   0.924 -0.0467  0.4759  0.2753
  339TMC3    C3 5136   1.584   0.922   0.870  0.4528  0.5332  0.5342
  339TMC3    C4 5137   1.804   0.904   0.709 -0.1388 -0.2479 -0.0658
  339TMC3    C5 5138   1.687   0.953   0.667 -0.6188 -0.1156 -0.2485
  339TMC3    C6 5139   1.577   0.978   0.743 -0.2121 -0.1093 -0.0313
  339TMC3     C 5140   1.931   0.807   0.889 -0.3124 -0.1276 -0.2742
  339TMC3     O 5141   1.945   0.798   1.011  0.5017 -0.1565 -0.4120
  339TMC3     H 5142   1.694   0.823   1.024  3.0579  0.3356  0.3725
  339TMC3    H1 5143   1.890   0.900   0.644 -0.5168 -0.4319 -0.5587
  339TMC3    H2 5144   1.488   1.011   0.692  0.3898  1.7874  0.1705
  339TMC3    C7 5145   1.680   1.002   0.529  0.2338 -0.0706 -0.5217
  339TMC3    C8 5146   1.467   0.948   0.961 -0.3044 -0.5265  0.8796
  339TMC3    O1 5147   1.587   1.071   0.494 -0.3539  0.0105 -0.3456
  339TMC3    O2 5148   1.356   0.945   0.905  0.1473  0.1619 -0.5227
  340MPD2     C 5149   2.437   3.327   9.772  0.4967  0.4536  0.8721
  340MPD2    C1 5150   2.571   3.317   9.802 -0.2383 -0.1709 -0.3544
  340MPD2    C2 5151   2.637   3.430   9.854 -0.0243  0.2595 -0.5207
  340MPD2    C3 5152   2.572   3.552   9.874  0.2227  0.3094  0.5036
  340MPD2    C4 5153   2.441   3.558   9.846  0.7180  0.3027 -0.0383
  340MPD2    C5 5154   2.383   3.453   9.786 -0.0912  0.0668  0.2612
  340MPD2     H 5155   2.744   3.425   9.871 -0.4097  0.1739  1.9087
  340MPD2    H1 5156   2.396   3.656   9.850  2.9073  1.2148  2.3290
  340MPD2    H2 5157   2.367   3.252   9.738  2.4356 -0.1088 -1.8911
  340MPD2    H3 5158   2.282   3.485   9.764  0.0674 -0.8973 -1.8236
  340MPD2     N 5159   2.635   3.669   9.924 -0.8194 -0.6022  0.6729
  340MPD2    H5 5160   2.590   3.760   9.914  0.6358 -0.0415 -0.7672
  340MPD2    N1 5161   2.635   3.196   9.759  0.2170 -0.1583 -1.1565
  340MPD2    H7 5162   2.580   3.131   9.703  1.5267 -2.2550 -0.0271
  341TMC3    C1 5163   2.810   3.048   9.680 -0.1204 -0.4203 -0.1479
  341TMC3    C2 5164   2.721   2.939   9.702  0.6953  0.5493  0.2311
  341TMC3    C3 5165   2.713   2.850   9.602 -0.0507 -0.8668  0.0244
  341TMC3    C4 5166   2.895   3.060   9.575  0.8999  0.5130  0.6195
  341TMC3    C5 5167   2.878   2.964   9.471  0.4236  0.3018  0.4982
  341TMC3    C6 5168   2.792   2.858   9.488 -0.3991 -0.1316  0.2065
  341TMC3     C 5169   2.772   3.172   9.755 -0.0807  0.0123 -0.0156
  341TMC3     O 5170   2.866   3.245   9.787 -0.4344  0.4387  0.2948
  341TMC3     H 5171   2.657   2.935   9.789 -0.6418  2.1052 -0.6753
  341TMC3    H1 5172   2.968   3.139   9.564  0.2444  0.9165 -0.7743
  341TMC3    H2 5173   2.782   2.773   9.421 -3.2658 -1.8167  2.7424
  341TMC3    C7 5174   2.997   2.926   9.401  0.3166  0.7693  0.3902
  341TMC3    C8 5175   2.657   2.712   9.636  0.2989 -0.1127  0.3521
  341TMC3    O1 5176   3.108   2.964   9.436  0.0270 -0.3497  0.1004
  341TMC3    O2 5177   2.621   2.644   9.542  0.0158 -0.2660 -0.0586
  342MPD2     C 5178   0.702   1.799   0.057 -0.1580 -0.0067 -0.1267
  342MPD2    C1 5179   0.711   1.819  17.670  0.7290  0.1961 -0.3580
  342MPD2    C2 5180   0.737   1.943  17.618  0.1666  0.0185  0.3805
  342MPD2    C3 5181   0.738   2.054  17.701  0.0289 -0.3298 -0.2975
  342MPD2    C4 5182   0.711   2.034   0.085 -1.0742  0.1312  0.4000
  342MPD2    C5 5183   0.692   1.914   0.135 -0.2255  0.1602 -0.1238
  342MPD2     H 5184   0.741   1.949  17.510  0.5738  0.3765  0.4177
  342MPD2    H1 5185   0.702   2.114   0.158 -1.2484 -1.2196  1.8680
  342MPD2    H2 5186   0.697   1.701   0.104  2.1874 -0.2962 -0.4410
  342MPD2    H3 5187   0.662   1.908   0.239 -1.2312  4.0552 -0.1777
  342MPD2     N 5188   0.770   2.183  17.653 -0.6973  0.0963  0.0559
  342MPD2    H5 5189   0.780   2.254  17.724  0.0480 -0.6621  0.7237
  342MPD2    N1 5190   0.698   1.715  17.574 -0.6199 -0.4860 -0.0539
  342MPD2    H7 5191   0.715   1.743  17.478  1.7106 -0.6400  0.3198
  343TMC3    C1 5192   0.670   1.493  17.488  0.1586  0.1958 -0.0800
  343TMC3    C2 5193   0.732   1.527  17.370 -0.1480 -0.0062 -0.0679
  343TMC3    C3 5194   0.773   1.426  17.287 -0.4070 -0.2059  0.2934
  343TMC3    C4 5195   0.654   1.361  17.522 -0.5418 -0.2180 -0.1340
  343TMC3    C5 5196   0.709   1.260  17.447 -0.5117 -0.6788 -0.1465
  343TMC3    C6 5197   0.770   1.293  17.323  0.4204  0.1809 -0.3460
  343TMC3     C 5198   0.650   1.588  17.594 -0.0166  0.1697 -0.3468
  343TMC3     O 5199   0.612   1.539  17.699  0.1754 -0.6019  0.1198
  343TMC3     H 5200   0.747   1.630  17.341  0.9178  0.1362  1.0196
  343TMC3    H1 5201   0.604   1.332  17.614  0.1937 -0.0915  0.3147
  343TMC3    H2 5202   0.807   1.210  17.265 -1.2624 -2.0978  1.8161
  343TMC3    C7 5203   0.654   1.127  17.467 -0.0632  0.2440  0.4187
  343TMC3    C8 5204   0.811   1.457  17.151  0.5162 -0.0126 -0.1829
  343TMC3    O1 5205   0.628   1.064  17.364 -0.1147  0.4397  0.0425
  343TMC3    O2 5206   0.785   1.574  17.115  0.2480  0.3127  1.0356
  344MPD2     C 5207   2.460   0.543  10.400  0.2405  0.1737  0.2112
  344MPD2    C1 5208   2.335   0.575  10.362 -0.1520 -0.7579  0.1683
  344MPD2    C2 5209   2.314   0.716  10.327 -0.0761  0.8182 -0.4427
  344MPD2    C3 5210   2.414   0.811  10.347  0.0162 -0.0682  0.0136
  344MPD2    C4 5211   2.532   0.776  10.397  0.4787  0.1391  1.0747
  344MPD2    C5 5212   2.548   0.645  10.419 -0.2975  0.0817  0.2431
  344MPD2     H 5213   2.219   0.742  10.281 -1.5385 -1.4537  1.2751
  344MPD2    H1 5214   2.614   0.847  10.400 -0.5672  1.3764  0.3335
  344MPD2    H2 5215   2.494   0.443  10.426  1.2064  0.9428  1.9317
  344MPD2    H3 5216   2.651   0.616  10.438  0.2777  1.0757 -1.3103
  344MPD2     N 5217   2.392   0.950  10.325  0.3174  0.1649  0.2285
  344MPD2    H5 5218   2.455   1.021  10.361 -0.7252  1.0340  0.3412
  344MPD2    N1 5219   2.224   0.485  10.356 -0.1776 -0.3292  0.1285
  344MPD2    H7 5220   2.144   0.519  10.304  0.6597 -0.9199 -1.5650
  345TMC3    C1 5221   2.268   1.140  10.274  0.2099 -0.1915  0.1711
  345TMC3    C2 5222   2.331   1.206  10.374  0.1977  0.1430  0.1119
  345TMC3    C3 5223   2.344   1.337  10.365  0.0501 -0.0590 -0.0160
  345TMC3    C4 5224   2.235   1.207  10.165 -0.1474  0.0773 -0.4110
  345TMC3    C5 5225   2.245   1.344  10.165  0.5695 -0.2506 -0.3636
  345TMC3    C6 5226   2.302   1.416  10.265 -0.4776 -0.0189  0.1403
  345TMC3     C 5227   2.284   0.999  10.252  0.2654 -0.0444 -0.8162
  345TMC3     O 5228   2.207   0.937  10.182  0.0556 -0.5105 -0.2938
  345TMC3     H 5229   2.348   1.157  10.469  0.4464  1.8494  0.9446
  345TMC3    H1 5230   2.193   1.153  10.081  0.8641  0.1344 -0.9624
  345TMC3    H2 5231   2.312   1.524  10.264  1.2717 -0.2046 -2.7273
  345TMC3    C7 5232   2.169   1.423  10.071 -0.2351 -0.8229 -0.2544
  345TMC3    C8 5233   2.392   1.418  10.472 -0.5243 -0.2194  0.4036
  345TMC3    O1 5234   2.195   1.543  10.062 -0.4270 -0.1968  0.0755
  345TMC3    O2 5235   2.376   1.543  10.461 -0.6075 -0.6897 -0.0434
  346MPD2     C 5236   1.312   2.194  13.855  0.6047 -0.1689  0.5115
  346MPD2    C1 5237   1.438   2.232  13.888 -0.1527  0.9088  0.0690
  346MPD2    C2 5238   1.477   2.337  13.974  0.1221 -0.2588  0.4266
  346MPD2    C3 5239   1.374   2.416  14.016  0.4321 -0.3794  0.2420
  346MPD2    C4 5240   1.244   2.375  13.993 -0.2070 -0.0112  0.1179
  346MPD2    C5 5241   1.214   2.262  13.920  0.0978 -0.0317 -0.1525
  346MPD2     H 5242   1.581   2.367  13.984  0.4883 -1.1102 -0.8605
  346MPD2    H1 5243   1.158   2.430  14.029 -1.0018 -0.1802 -1.5121
  346MPD2    H2 5244   1.292   2.121  13.778  0.6844  0.5873 -0.2152
  346MPD2    H3 5245   1.112   2.240  13.891 -0.7741  1.6439  1.6404
  346MPD2     N 5246   1.400   2.531  14.095 -0.2892  0.4471  0.1763
  346MPD2    H5 5247   1.499   2.554  14.090  0.0944 -0.8947  1.4175
  346MPD2    N1 5248   1.538   2.167  13.809 -0.4118 -0.3346  0.4200
  346MPD2    H7 5249   1.516   2.115  13.725  0.5392  0.0140 -0.0472
  347TMC3    C1 5250   1.367   2.730  14.207 -0.0989 -0.9351  0.3701
  347TMC3    C2 5251   1.503   2.732  14.216  0.8162 -1.0550  0.1057
  347TMC3    C3 5252   1.559   2.812  14.315 -0.0020 -0.1320  0.2635
  347TMC3    C4 5253   1.290   2.791  14.302  0.0052 -0.5738  0.5761
  347TMC3    C5 5254   1.348   2.841  14.415 -0.0185 -0.0619 -0.6829
  347TMC3    C6 5255   1.484   2.856  14.421  0.3519 -0.2172  0.5327
  347TMC3     C 5256   1.309   2.614  14.153 -0.1163 -0.4618 -0.0988
  347TMC3     O 5257   1.190   2.611  14.162 -0.1454 -0.0294 -0.1935
  347TMC3     H 5258   1.572   2.693  14.142  1.5842 -0.4897  0.5242
  347TMC3    H1 5259   1.182   2.803  14.294  0.1514  1.8097  2.1702
  347TMC3    H2 5260   1.529   2.890  14.513  0.6708 -0.3609  0.4301
  347TMC3    C7 5261   1.268   2.857  14.533  0.2743 -0.6340  0.4742
  347TMC3    C8 5262   1.697   2.804  14.319 -1.1246 -0.1033 -0.1539
  347TMC3    O1 5263   1.153   2.813  14.529  0.0279 -0.6122  0.4824
  347TMC3    O2 5264   1.754   2.719  14.253  0.8359  0.2765  0.1474
  348MPD2     C 5265   0.437   1.940  12.153  0.4289  0.2482 -0.0376
  348MPD2    C1 5266   0.557   1.993  12.108 -0.4389  0.0153  0.2888
  348MPD2    C2 5267   0.567   2.075  11.993  0.5298 -0.0614 -0.9058
  348MPD2    C3 5268   0.452   2.104  11.933 -0.5232 -0.1413 -0.3024
  348MPD2    C4 5269   0.329   2.051  11.975 -0.1458 -0.2257  0.7701
  348MPD2    C5 5270   0.325   1.970  12.084 -0.2224 -0.1629  0.5851
  348MPD2     H 5271   0.653   2.138  11.969  0.3605  0.7880  0.7601
  348MPD2    H1 5272   0.241   2.086  11.923  1.4870  1.3510 -0.9313
  348MPD2    H2 5273   0.425   1.873  12.238 -0.0871  2.1103  1.3606
  348MPD2    H3 5274   0.228   1.937  12.119 -0.2759  1.2436  1.7426
  348MPD2     N 5275   0.451   2.182  11.811 -0.3517  0.3950 -0.0689
  348MPD2    H5 5276   0.533   2.235  11.781 -0.3950  0.7024  0.3490
  348MPD2    N1 5277   0.680   1.951  12.166 -0.0410 -0.1647  0.2056
  348MPD2    H7 5278   0.763   1.972  12.110  2.2224 -0.1686  3.5894
  349TMC3    C1 5279   0.840   1.829  12.293 -0.0110  0.0016 -0.3932
  349TMC3    C2 5280   0.865   1.694  12.295  0.0158 -0.7161 -0.1733
  349TMC3    C3 5281   0.992   1.652  12.264 -0.2599 -0.0104 -0.8123
  349TMC3    C4 5282   0.931   1.924  12.250  0.1052  0.1274 -0.0245
  349TMC3    C5 5283   1.051   1.877  12.195 -0.5728  0.5040  0.4182
  349TMC3    C6 5284   1.078   1.741  12.206 -0.2091  0.0194 -0.5649
  349TMC3     C 5285   0.696   1.858  12.269 -0.3665  0.4670 -0.5589
  349TMC3     O 5286   0.615   1.809  12.357 -0.2855 -0.0913  0.1257
  349TMC3     H 5287   0.787   1.618  12.300 -2.1091  1.5078  0.3247
  349TMC3    H1 5288   0.901   2.025  12.274 -2.1649 -0.0722 -2.0813
  349TMC3    H2 5289   1.171   1.703  12.164 -0.7742 -0.7771 -1.0896
  349TMC3    C7 5290   1.053   1.909  12.059 -0.2381 -0.2646  0.5310
  349TMC3    C8 5291   1.014   1.510  12.267 -0.2344  0.8787  0.1918
  349TMC3    O1 5292   1.043   1.819  11.979  0.2166  0.4815  0.1072
  349TMC3    O2 5293   0.925   1.445  12.323 -0.1146  0.0083 -0.1268
  350MPD2     C 5294   4.624   0.521  10.045  0.6641 -0.6138 -0.1471
  350MPD2    C1 5295   4.705   0.415  10.069 -0.0444 -0.2277  0.0494
  350MPD2    C2 5296   0.092   0.405  10.006  0.1377  0.4940  0.1169
  350MPD2    C3 5297   0.139   0.501   9.921  0.0531  0.1973  0.8748
  350MPD2    C4 5298   0.064   0.612   9.903  0.6129  1.1131 -0.1039
  350MPD2    C5 5299   4.678   0.619   9.957  0.5115  1.0340  0.5033
  350MPD2     H 5300   0.149   0.314  10.019  1.7285  1.4459 -0.2009
  350MPD2    H1 5301   0.086   0.693   9.834  0.6033  0.3141 -1.0496
  350MPD2    H2 5302   4.521   0.534  10.075  1.0241 -2.3839  1.7913
  350MPD2    H3 5303   4.615   0.701   9.926 -1.2146 -0.9493 -1.2079
  350MPD2     N 5304   0.265   0.467   9.852  0.3121  0.2521 -0.1148
  350MPD2    H5 5305   0.310   0.381   9.881 -0.0575  1.1177  3.0123
  350MPD2    N1 5306   4.668   0.304  10.152  0.4796 -0.5716 -0.4491
  350MPD2    H7 5307   4.732   0.225  10.156  1.0164 -0.0614  0.9535
  351TMC3    C1 5308   4.548   0.180  10.321  0.0437 -0.3397  0.1098
  351TMC3    C2 5309   4.618   0.063  10.308  0.8096  0.2170 -0.5422
  351TMC3    C3 5310   4.586   4.691  10.389 -0.2515  0.1834  0.7898
  351TMC3    C4 5311   4.462   0.192  10.429 -0.4252 -0.0113  0.0875
  351TMC3    C5 5312   4.428   0.085  10.506 -0.0801  0.8320  0.1458
  351TMC3    C6 5313   4.493   4.703  10.488  0.2355 -0.5599  0.1565
  351TMC3     C 5314   4.564   0.304  10.244  0.3076 -0.5607  0.1459
  351TMC3     O 5315   4.479   0.388  10.266  0.2024  0.0051  0.3650
  351TMC3     H 5316   4.703   0.058  10.241  0.8991  0.3526 -0.4368
  351TMC3    H1 5317   4.421   0.290  10.452 -0.9260 -0.7150  2.1209
  351TMC3    H2 5318   4.479   4.630  10.567  0.6617 -0.4028  0.3785
  351TMC3    C7 5319   4.372   0.114  10.633 -0.2477  0.3561  0.6419
  351TMC3    C8 5320   4.635   4.568  10.347 -0.3892  0.0842 -0.0272
  351TMC3    O1 5321   4.371   0.231  10.670  0.0059 -0.2679 -0.3735
  351TMC3    O2 5322   4.720   4.565  10.261 -0.1314 -0.4652  0.2124
  352MPD2     C 5323   2.626   2.505   0.976  0.5062  0.4924  0.3701
  352MPD2    C1 5324   2.481   2.501   0.986 -0.9004  0.3738  0.7037
  352MPD2    C2 5325   2.425   2.391   1.059  0.3000 -0.0949  0.9046
  352MPD2    C3 5326   2.504   2.282   1.096  0.6833 -0.1722 -0.6485
  352MPD2    C4 5327   2.641   2.284   1.073  0.8970  1.2863 -1.2364
  352MPD2    C5 5328   2.698   2.395   1.021  0.0212 -0.5605 -0.1048
  352MPD2     H 5329   2.318   2.385   1.077 -0.1815  1.3925 -1.3684
  352MPD2    H1 5330   2.701   2.196   1.092  1.8139  1.9040 -1.2731
  352MPD2    H2 5331   2.672   2.585   0.920 -2.1812  1.8813  0.1330
  352MPD2    H3 5332   2.804   2.396   1.001  0.3943 -2.2225  1.7374
  352MPD2     N 5333   2.447   2.167   1.170  0.5086  0.8123  0.4525
  352MPD2    H5 5334   2.511   2.108   1.222  0.8408  0.2164 -0.6294
  352MPD2    N1 5335   2.417   2.615   0.938 -0.1255  0.0977  0.0577
  352MPD2    H7 5336   2.475   2.691   0.904  0.3113 -0.2868 -0.0505
  353TMC3    C1 5337   2.277   2.018   1.242 -0.0551 -0.4940 -0.0738
  353TMC3    C2 5338   2.348   1.965   1.343 -0.1599  0.3566  0.1714
  353TMC3    C3 5339   2.303   1.843   1.392 -0.1907 -0.1306 -0.3472
  353TMC3    C4 5340   2.164   1.960   1.192 -0.8277 -0.3823 -0.5061
  353TMC3    C5 5341   2.128   1.845   1.258 -0.7907 -0.1288 -0.8364
  353TMC3    C6 5342   2.189   1.780   1.360  0.5127 -0.1377  0.2660
  353TMC3     C 5343   2.313   2.134   1.170 -0.3008  0.3644  0.7904
  353TMC3     O 5344   2.222   2.185   1.102  0.1775  0.7012 -0.0320
  353TMC3     H 5345   2.433   2.016   1.387  1.0510  0.3998 -2.2430
  353TMC3    H1 5346   2.097   2.007   1.120  0.3064  1.1254 -0.5727
  353TMC3    H2 5347   2.141   1.694   1.404 -0.4944 -1.0135 -2.5029
  353TMC3    C7 5348   2.034   1.772   1.174 -0.6292 -0.0985 -0.7269
  353TMC3    C8 5349   2.397   1.781   1.472  0.1324  0.0577  0.0288
  353TMC3    O1 5350   2.006   1.810   1.060  0.3641  0.1959 -0.2020
  353TMC3    O2 5351   2.473   1.846   1.546 -0.2995 -0.1974  0.0272
  354TMC3    C1 5352   4.323   3.744  13.405  0.6191  0.3641 -0.7242
  354TMC3    C2 5353   4.380   3.861  13.365  0.1310 -0.1229 -0.9745
  354TMC3    C3 5354   4.374   3.901  13.239  0.2916 -0.7947 -0.3852
  354TMC3    C4 5355   4.262   3.661  13.315  0.3124  0.3976  0.1832
  354TMC3    C5 5356   4.232   3.712  13.194  0.1854  0.4429  0.2402
  354TMC3    C6 5357   4.291   3.830  13.149 -0.4953 -0.7720 -0.0136
  354TMC3     C 5358   4.290   3.731  13.543  0.7358 -0.0297 -0.4090
  354TMC3     O 5359   4.186   3.672  13.572  0.2283  0.1625  0.1046
  354TMC3     H 5360   4.410   3.935  13.438 -2.4168  0.3449 -0.4160
  354TMC3    H1 5361   4.215   3.573  13.356 -0.2279  0.8535  0.5395
  354TMC3    H2 5362   4.270   3.870  13.051  1.0499 -0.6247 -0.2851
  354TMC3    C7 5363   4.240   3.602  13.098  0.8088  0.0862  0.3079
  354TMC3    C8 5364   4.455   4.016  13.200 -0.0885  0.4964  0.4045
  354TMC3    O1 5365   4.173   3.598  12.995 -0.1036 -0.7820 -0.1918
  354TMC3    O2 5366   4.506   4.088  13.286 -0.2992  0.3079 -0.2156
  355MPD2     C 5367   0.223   3.868  11.810 -0.9325 -0.0851  0.8079
  355MPD2    C1 5368   0.209   3.941  11.693 -0.1535 -0.0590  0.3980
  355MPD2    C2 5369   0.320   3.984  11.627  0.2390 -0.3877 -0.0652
  355MPD2    C3 5370   0.445   3.974  11.687  0.2283 -0.1725 -0.1242
  355MPD2    C4 5371   0.454   3.913  11.808  0.1882  0.6752  0.2571
  355MPD2    C5 5372   0.348   3.856  11.867 -0.0974  0.1072  0.2286
  355MPD2     H 5373   0.309   4.027  11.528 -0.2862  0.2869  0.2854
  355MPD2    H1 5374   0.544   3.900  11.867  0.4012  0.9496 -0.0081
  355MPD2    H2 5375   0.133   3.833  11.858 -0.7162  1.9490  2.6953
  355MPD2    H3 5376   0.369   3.796  11.954  2.3574 -1.5378 -1.4937
  355MPD2     N 5377   0.556   4.038  11.630  0.6335  0.1743 -0.4493
  355MPD2    H5 5378   0.637   4.047  11.691  1.2683  1.1196 -1.4239
  355MPD2    N1 5379   0.080   3.954  11.643  0.1996 -0.0572 -0.4371
  355MPD2    H7 5380   0.014   3.889  11.687  1.5395 -0.4669  0.9708
  356TMC3    C1 5381   0.694   4.178  11.512 -0.0186 -0.3442 -0.6143
  356TMC3    C2 5382   0.717   4.232  11.385 -0.5667 -0.5774  0.1969
  356TMC3    C3 5383   0.808   4.335  11.380  0.3386  0.4579  0.0829
  356TMC3    C4 5384   0.770   4.209  11.619  0.4519  0.7076 -0.3561
  356TMC3    C5 5385   0.862   4.309  11.606  0.6105 -0.2348 -0.1923
  356TMC3    C6 5386   0.875   4.380  11.491  0.2351 -0.6136  0.7482
  356TMC3     C 5387   0.563   4.108  11.520  0.5654 -0.2739 -0.5462
  356TMC3     O 5388   0.493   4.123  11.420  0.0636 -0.1617 -0.0565
  356TMC3     H 5389   0.665   4.190  11.300  0.2193  1.2870 -1.1950
  356TMC3    H1 5390   0.733   4.180  11.716 -0.0707  0.1952 -0.7104
  356TMC3    H2 5391   0.936   4.470  11.486 -1.3602  0.4707  0.7226
  356TMC3    C7 5392   0.911   4.372  11.732  0.3357  0.0559 -0.0733
  356TMC3    C8 5393   0.817   4.409  11.253  0.0534 -0.4285  0.2251
  356TMC3    O1 5394   0.894   4.303  11.832  0.2342  0.2240  0.5151
  356TMC3    O2 5395   0.741   4.366  11.169 -0.6513 -0.2219 -0.2436
  357MPD2     C 5396   4.678   4.717   1.302  0.0550 -0.1919 -0.2912
  357MPD2    C1 5397   0.061   4.697   1.362 -0.4494  0.1227 -0.1367
  357MPD2    C2 5398   0.079   0.022   1.480 -0.0813 -0.0869 -0.2623
  357MPD2    C3 5399   4.719   0.088   1.549  0.1791 -0.0465 -0.1804
  357MPD2    C4 5400   4.591   0.098   1.495 -0.2539  0.7551 -0.5789
  357MPD2    C5 5401   4.572   0.038   1.370 -0.2720  0.0174 -0.1395
  357MPD2     H 5402   0.182   0.013   1.512  0.8913  0.0112 -3.4060
  357MPD2    H1 5403   4.504   0.154   1.529 -1.0791 -0.7193 -0.2549
  357MPD2    H2 5404   4.656   4.678   1.204  1.5662  1.7240 -1.3985
  357MPD2    H3 5405   4.476   0.035   1.321 -0.2529 -0.8531 -0.1237
  357MPD2     N 5406   4.735   0.152   1.672 -0.1111  0.7748  0.0611
  357MPD2    H5 5407   4.657   0.212   1.695 -0.9851  0.0973 -1.1418
  357MPD2    N1 5408   0.145   4.600   1.300  0.5068  0.0835  0.1597
  357MPD2    H7 5409   0.112   4.559   1.214  0.8263  2.0596 -0.8895
  358TMC3    C1 5410   0.327   4.454   1.290  0.5029 -0.1746  0.4763
  358TMC3    C2 5411   0.255   4.357   1.223  0.0546 -0.6917  0.7259
  358TMC3    C3 5412   0.327   4.252   1.165 -0.0985 -0.2889 -0.2557
  358TMC3    C4 5413   0.464   4.442   1.286  0.0037 -0.6951  0.0215
  358TMC3    C5 5414   0.525   4.332   1.221 -0.5508 -0.3538 -1.3599
  358TMC3    C6 5415   0.461   4.228   1.168 -0.8238 -0.4943 -0.3987
  358TMC3     C 5416   0.267   4.566   1.357  0.7174 -0.3546 -0.0366
  358TMC3     O 5417   0.339   4.624   1.439 -0.2673  0.5149  0.1155
  358TMC3     H 5418   0.149   4.360   1.200  0.2674  0.3826 -0.1371
  358TMC3    H1 5419   0.535   4.514   1.324 -1.7511  0.1360  1.7585
  358TMC3    H2 5420   0.513   4.167   1.095 -0.7150 -2.4372  1.2800
  358TMC3    C7 5421   0.669   4.324   1.229 -0.0790  0.1765 -0.0312
  358TMC3    C8 5422   0.249   4.180   1.070 -0.1356 -1.3702 -0.1916
  358TMC3    O1 5423   0.732   4.428   1.209 -0.0415 -0.4113 -0.1934
  358TMC3    O2 5424   0.291   4.154   0.959 -0.2130 -0.5795  0.3269
  359MPD2     C 5425   0.080   2.207  12.212  0.1739  0.2817  0.3617
  359MPD2    C1 5426   0.038   2.338  12.226  0.2037 -0.0691  0.5996
  359MPD2    C2 5427   4.731   2.393  12.350 -0.6067 -0.0738 -0.1373
  359MPD2    C3 5428   4.729   2.301  12.451 -0.1700 -0.2471 -0.4036
  359MPD2    C4 5429   0.019   2.164  12.436  0.4875 -1.3475 -0.0468
  359MPD2    C5 5430   0.074   2.117  12.318 -0.3859 -0.0880 -0.0579
  359MPD2     H 5431   4.712   2.498  12.366 -1.5317 -0.4501  1.2200
  359MPD2    H1 5432   4.736   2.093  12.515  0.6663 -1.1415  0.1821
  359MPD2    H2 5433   0.128   2.165  12.125  0.4013  1.2259  0.0383
  359MPD2    H3 5434   0.115   2.018  12.302 -1.6600 -0.4144 -1.3610
  359MPD2     N 5435   4.688   2.333  12.585 -0.2448  0.4140  0.7627
  359MPD2    H5 5436   4.676   2.250  12.642 -0.3583 -1.5330 -2.1626
  359MPD2    N1 5437   0.048   2.431  12.119  0.3620 -0.1708 -0.6303
  359MPD2    H7 5438   0.016   2.526  12.135 -2.2512 -0.8518 -1.8423
  360TMC3    C1 5439   0.116   2.527  11.918  0.2150  0.0509  0.0312
  360TMC3    C2 5440   0.212   2.604  11.980 -0.4038 -0.1089 -0.3971
  360TMC3    C3 5441   0.301   2.660  11.896 -0.0852 -0.1257  0.4767
  360TMC3    C4 5442   0.101   2.519  11.783  0.3351 -0.1395 -0.7037
  360TMC3    C5 5443   0.187   2.591  11.704 -0.1151  0.0883 -0.2701
  360TMC3    C6 5444   0.291   2.660  11.757  0.1074 -0.4233  0.2380
  360TMC3     C 5445   0.079   2.404  11.988 -0.3475 -0.7416 -0.0172
  360TMC3     O 5446   0.078   2.294  11.931 -0.0142  0.9647 -0.1522
  360TMC3     H 5447   0.221   2.593  12.087  1.7619 -0.6169 -0.6474
  360TMC3    H1 5448   0.005   2.487  11.743  0.8338 -1.0749 -1.1597
  360TMC3    H2 5449   0.359   2.725  11.702  0.0274  0.0025  0.6399
  360TMC3    C7 5450   0.178   2.599  11.559  0.2130 -0.7315 -0.3605
  360TMC3    C8 5451   0.400   2.753  11.955 -0.1578  0.5985  0.4648
  360TMC3    O1 5452   0.263   2.675  11.514 -0.0202  0.4325  0.4622
  360TMC3    O2 5453   0.381   2.800  12.069  0.1358  0.2031 -1.3266
  361MPD2     C 5454   1.282   2.122  16.598 -0.2660 -0.0611  0.2552
  361MPD2    C1 5455   1.348   2.162  16.711  0.3152  0.3913  0.4643
  361MPD2    C2 5456   1.453   2.080  16.758  0.3731 -0.3572 -0.5169
  361MPD2    C3 5457   1.470   1.950  16.705  0.0111 -0.2765 -0.8723
  361MPD2    C4 5458   1.404   1.922  16.590 -0.0566  0.4985 -0.6636
  361MPD2    C5 5459   1.303   1.997  16.548  0.5092 -0.3822 -0.3459
  361MPD2     H 5460   1.495   2.118  16.851  0.7852  0.4094 -1.0122
  361MPD2    H1 5461   1.416   1.831  16.532 -1.1521  0.6045 -1.0705
  361MPD2    H2 5462   1.214   2.188  16.545 -0.5339 -1.4841 -1.1762
  361MPD2    H3 5463   1.241   1.963  16.466 -0.6513 -1.0081  0.7808
  361MPD2     N 5464   1.570   1.863  16.755 -0.5984 -0.1300 -0.3857
  361MPD2    H5 5465   1.594   1.783  16.698 -2.5123  0.2489 -1.7239
  361MPD2    N1 5466   1.321   2.284  16.784  0.0479 -0.9331  0.1191
  361MPD2    H7 5467   1.387   2.306  16.858 -0.2594 -2.1832  0.7642
  362TMC3    C1 5468   1.177   2.459  16.868  0.4634 -0.3227  0.5943
  362TMC3    C2 5469   1.056   2.478  16.929 -0.4698  0.1193  0.4977
  362TMC3    C3 5470   1.048   2.590  17.012 -0.6676  0.1256 -0.5416
  362TMC3    C4 5471   1.275   2.563  16.864 -0.1995 -0.1644  0.0892
  362TMC3    C5 5472   1.257   2.669  16.947 -0.3791  0.3018  0.1574
  362TMC3    C6 5473   1.150   2.677  17.026  0.4052 -0.6831 -0.8976
  362TMC3     C 5474   1.200   2.351  16.774  0.1769 -0.0759 -0.3544
  362TMC3     O 5475   1.098   2.309  16.726 -0.6297  0.0416 -0.3536
  362TMC3     H 5476   0.974   2.407  16.921  0.8623 -1.1321 -1.7784
  362TMC3    H1 5477   1.367   2.545  16.810  0.5319  2.4087  0.4801
  362TMC3    H2 5478   1.142   2.754  17.102  3.7667 -1.4891  0.2837
  362TMC3    C7 5479   1.233   2.785  16.865 -0.3682  0.1287  0.4918
  362TMC3    C8 5480   0.923   2.641  17.024  0.0436 -0.3552  0.3293
  362TMC3    O1 5481   1.194   2.883  16.926  0.1156 -0.0930 -0.4507
  362TMC3    O2 5482   0.836   2.570  17.063  0.2450 -0.6453 -0.3265
  363TMC3    C1 5483   0.609   4.589   9.591  0.6164  0.2373  0.5067
  363TMC3    C2 5484   0.595   4.491   9.681  0.1681 -0.0845 -0.0703
  363TMC3    C3 5485   0.466   4.444   9.711  0.6118 -1.1679 -0.4045
  363TMC3    C4 5486   0.507   4.664   9.541 -0.3055 -0.0211  0.5675
  363TMC3    C5 5487   0.384   4.606   9.555  0.4426  0.3386  0.1629
  363TMC3    C6 5488   0.361   4.506   9.651  0.3095  0.5985 -0.8348
  363TMC3     C 5489   0.718   4.586   9.497  0.0005  0.5043 -0.0151
  363TMC3     O 5490   0.696   4.618   9.382 -0.5352  0.2074  0.9159
  363TMC3     H 5491   0.676   4.424   9.705 -0.0101 -0.3194 -0.1278
  363TMC3    H1 5492   0.521   4.737   9.462 -2.0264 -0.7060 -0.3737
  363TMC3    H2 5493   0.271   4.446   9.643  1.0341 -0.4836 -0.9292
  363TMC3    C7 5494   0.269   4.659   9.476 -0.6540  0.6732  0.0570
  363TMC3    C8 5495   0.440   4.321   9.772  0.1306 -0.2614 -0.0666
  363TMC3    O1 5496   0.295   4.732   9.381 -0.0237  0.6899 -0.2979
  363TMC3    O2 5497   0.336   4.305   9.832  0.0567 -0.2771 -0.2885
  364MPD2     C 5498   3.960   3.565  10.300  0.6538  0.0005  0.0488
  364MPD2    C1 5499   4.021   3.588  10.417 -0.5728  0.1754 -0.1811
  364MPD2    C2 5500   4.045   3.479  10.501 -0.0638 -0.3827 -0.1346
  364MPD2    C3 5501   4.009   3.353  10.463  0.3708 -0.5601  0.1019
  364MPD2    C4 5502   3.945   3.333  10.348  0.4678 -0.7914 -0.1825
  364MPD2    C5 5503   3.922   3.438  10.260 -0.5412 -0.0947  0.3859
  364MPD2     H 5504   4.098   3.492  10.594 -0.6401 -0.0220  0.1398
  364MPD2    H1 5505   3.907   3.239  10.310 -1.0933 -0.3170  0.1955
  364MPD2    H2 5506   3.940   3.650  10.235 -0.0101 -0.6712 -0.6181
  364MPD2    H3 5507   3.869   3.430  10.165  0.3619  0.1236 -0.1343
  364MPD2     N 5508   4.036   3.240  10.547 -0.0378  0.1479 -0.7610
  364MPD2    H5 5509   4.016   3.146  10.513 -0.3783 -0.2239  0.4702
  364MPD2    N1 5510   4.053   3.726  10.447  0.4593 -0.2058  0.3145
  364MPD2    H7 5511   4.032   3.796  10.377 -3.0370 -1.6471 -0.0430
  365TMC3    C1 5512   4.131   3.911  10.553 -0.1729 -0.0471 -0.4796
  365TMC3    C2 5513   4.166   3.980  10.438  1.0230  0.5237 -0.6727
  365TMC3    C3 5514   4.185   4.109  10.442 -1.0408  0.1524  0.1319
  365TMC3    C4 5515   4.152   3.969  10.675  0.1187  0.6688 -0.3290
  365TMC3    C5 5516   4.163   4.105  10.668 -0.2257  0.1482 -0.1523
  365TMC3    C6 5517   4.186   4.178  10.555 -0.4028  0.2639 -0.3290
  365TMC3     C 5518   4.113   3.769  10.560  1.0045  0.1579  0.0488
  365TMC3     O 5519   4.145   3.711  10.661 -0.2585  0.2932  0.3265
  365TMC3     H 5520   4.157   3.936  10.339  0.9783 -3.2779  1.0357
  365TMC3    H1 5521   4.157   3.916  10.769 -0.2728  0.4321 -0.4412
  365TMC3    H2 5522   4.204   4.285  10.554  1.0564  0.0036 -1.2559
  365TMC3    C7 5523   4.192   4.185  10.782  0.4159  0.7663 -0.1102
  365TMC3    C8 5524   4.237   4.176  10.323 -0.0617  0.5175 -0.5127
  365TMC3    O1 5525   4.268   4.279  10.762 -0.5119  0.4314 -0.0799
  365TMC3    O2 5526   4.236   4.298  10.323  0.2633 -0.5092  0.4842
  366MPD2     C 5527   1.598   0.680  15.364 -0.1273 -0.3408 -0.0999
  366MPD2    C1 5528   1.704   0.604  15.409 -0.2369  0.0174  0.0643
  366MPD2    C2 5529   1.679   0.485  15.474  0.1106 -0.3467 -0.2020
  366MPD2    C3 5530   1.554   0.425  15.457 -0.5319 -0.7187 -0.0927
  366MPD2    C4 5531   1.451   0.494  15.401 -0.1733 -0.2449 -0.3530
  366MPD2    C5 5532   1.476   0.624  15.362 -0.1916  0.2594 -0.0441
  366MPD2     H 5533   1.751   0.422  15.525 -0.4293 -1.7817 -1.2114
  366MPD2    H1 5534   1.348   0.460  15.400 -0.1520 -0.2940 -1.8260
  366MPD2    H2 5535   1.603   0.786  15.341  0.7523 -0.3076  0.2558
  366MPD2    H3 5536   1.387   0.680  15.335 -1.2896 -1.3161  0.3309
  366MPD2     N 5537   1.552   0.287  15.481  0.1975  0.0805 -0.4172
  366MPD2    H5 5538   1.641   0.247  15.510  0.0756 -1.1385 -1.7455
  366MPD2    N1 5539   1.828   0.667  15.402  0.2858  0.1716 -0.9196
  366MPD2    H7 5540   1.836   0.754  15.351  0.1253  1.0253  0.4987
  367TMC3    C1 5541   2.057   0.694  15.399  0.6387 -0.4700 -0.0779
  367TMC3    C2 5542   2.130   0.773  15.488  0.4178 -0.7448  0.3142
  367TMC3    C3 5543   2.179   0.886  15.441 -0.6976  0.4729  0.0004
  367TMC3    C4 5544   2.032   0.732  15.272 -0.1898  0.6759 -0.2709
  367TMC3    C5 5545   2.085   0.851  15.229  0.8080 -0.4852  0.5173
  367TMC3    C6 5546   2.161   0.924  15.314  0.2315  0.2521  0.3524
  367TMC3     C 5547   1.943   0.611  15.438 -0.3575  0.0422  0.0537
  367TMC3     O 5548   1.967   0.517  15.517 -0.0600  0.1300 -0.6052
  367TMC3     H 5549   2.131   0.735  15.589  1.1678 -0.1259  0.5393
  367TMC3    H1 5550   1.969   0.680  15.201 -1.8433  2.8180 -0.3628
  367TMC3    H2 5551   2.191   1.024  15.286 -0.2389  0.3436  0.1661
  367TMC3    C7 5552   2.050   0.890  15.091  0.2376  0.2677  0.1621
  367TMC3    C8 5553   2.245   0.968  15.528  0.4847  0.1232  0.2851
  367TMC3    O1 5554   1.936   0.855  15.050 -0.4546  0.4410  0.0502
  367TMC3    O2 5555   2.286   0.906  15.622  0.4718 -0.2517  0.4330
  368MPD2     C 5556   3.110   1.763  13.099  0.7445  0.6649  0.0200
  368MPD2    C1 5557   3.127   1.894  13.063  0.4914  0.3096 -0.1110
  368MPD2    C2 5558   3.237   1.935  12.994 -0.2209 -0.0512  0.3633
  368MPD2    C3 5559   3.335   1.847  12.955 -0.1810 -0.1322  0.5019
  368MPD2    C4 5560   3.318   1.718  12.988  0.2273  0.1467  0.0391
  368MPD2    C5 5561   3.209   1.677  13.052 -0.2764 -0.1461 -0.2015
  368MPD2     H 5562   3.250   2.041  12.977  2.9837 -0.3020  1.3515
  368MPD2    H1 5563   3.391   1.641  12.965  1.1648  0.3264  2.3414
  368MPD2    H2 5564   3.024   1.722  13.151  0.3678  1.5678  0.0971
  368MPD2    H3 5565   3.204   1.575  13.090 -0.8374 -0.8366 -2.1255
  368MPD2     N 5566   3.453   1.897  12.901 -0.2704 -0.4788 -0.0589
  368MPD2    H5 5567   3.477   1.993  12.921 -0.2513 -0.2801 -1.0111
  368MPD2    N1 5568   3.022   1.986  13.112  0.2930  0.1701  0.3540
  368MPD2    H7 5569   2.942   1.947  13.160  0.7443  1.8491  2.4648
  369TMC3    C1 5570   2.902   2.196  13.112  0.0681 -0.0473 -0.5439
  369TMC3    C2 5571   2.902   2.326  13.061 -0.3249  0.4079  0.8626
  369TMC3    C3 5572   2.787   2.371  13.012 -0.3887  0.1492 -0.8880
  369TMC3    C4 5573   2.791   2.119  13.113 -0.6848  0.0557 -0.0811
  369TMC3    C5 5574   2.675   2.169  13.065 -0.7205  0.3439  0.3881
  369TMC3    C6 5575   2.672   2.296  13.020  0.4625  0.2777  0.1116
  369TMC3     C 5576   3.028   2.127  13.103  0.1975 -0.3646  0.4539
  369TMC3     O 5577   3.124   2.202  13.086  0.2996 -0.2651 -0.2518
  369TMC3     H 5578   2.997   2.375  13.045 -0.9957  1.2307 -0.5651
  369TMC3    H1 5579   2.793   2.020  13.158 -0.0411  0.2024  0.2135
  369TMC3    H2 5580   2.583   2.340  12.976  0.2652 -2.0426 -1.8158
  369TMC3    C7 5581   2.558   2.105  13.116  0.0193  0.3003 -0.2770
  369TMC3    C8 5582   2.792   2.477  12.913  0.0807  0.5892 -0.1969
  369TMC3    O1 5583   2.571   2.009  13.194  0.2989  0.8333  0.0884
  369TMC3    O2 5584   2.705   2.483  12.827 -0.3770 -0.0402  0.6237
  370TMC3    C1 5585   2.523   2.863  16.174  0.5000  0.5637  0.5815
  370TMC3    C2 5586   2.467   2.800  16.287  0.0220  0.4717  0.3567
  370TMC3    C3 5587   2.446   2.671  16.287 -0.1593  0.1170  0.3085
  370TMC3    C4 5588   2.559   2.792  16.061  0.3067 -0.1245 -0.1810
  370TMC3    C5 5589   2.546   2.648  16.068 -0.0649  0.7392 -0.1134
  370TMC3    C6 5590   2.498   2.594  16.187 -0.7049  0.0694  0.2370
  370TMC3     C 5591   2.619   2.967  16.200  0.3147 -0.5109  0.1269
  370TMC3     O 5592   2.681   2.956  16.304 -0.6247  0.1921  0.3112
  370TMC3     H 5593   2.452   2.865  16.372 -0.6482 -1.2579  1.5784
  370TMC3    H1 5594   2.605   2.834  15.972  0.4067 -0.1752 -0.1543
  370TMC3    H2 5595   2.479   2.488  16.196  0.9968 -0.1004  1.8377
  370TMC3    C7 5596   2.632   2.571  15.976  0.3777 -0.4182 -0.2713
  370TMC3    C8 5597   2.427   2.596  16.412 -0.0380  0.1132  0.6941
  370TMC3    O1 5598   2.683   2.634  15.884  0.4296  0.5373  0.3819
  370TMC3    O2 5599   2.447   2.476  16.415 -0.3416 -0.3597  0.7000
  371TMC3    C1 5600   3.981   1.295  15.412  0.0826 -0.3398  0.0028
  371TMC3    C2 5601   3.917   1.280  15.528 -0.2666  0.2715 -0.0916
  371TMC3    C3 5602   3.854   1.384  15.584  0.2520  0.4449 -0.4346
  371TMC3    C4 5603   3.987   1.415  15.349 -0.4390  0.4458 -0.0230
  371TMC3    C5 5604   3.925   1.524  15.409 -1.0087 -0.3454  0.6980
  371TMC3    C6 5605   3.854   1.508  15.527  0.4604  0.0593 -0.6780
  371TMC3     C 5606   4.026   1.185  15.338 -0.3375 -0.9077 -0.1456
  371TMC3     O 5607   4.075   1.209  15.232 -0.3871  0.4210  0.6866
  371TMC3     H 5608   3.890   1.180  15.559  0.9954 -0.7391 -2.2558
  371TMC3    H1 5609   4.045   1.430  15.259 -0.8808  0.2682 -0.3365
  371TMC3    H2 5610   3.815   1.599  15.570 -2.3567 -0.5898 -1.8220
  371TMC3    C7 5611   3.946   1.658  15.357 -0.2744  0.5280 -0.3394
  371TMC3    C8 5612   3.811   1.368  15.719  0.1638  1.0095  0.0270
  371TMC3    O1 5613   3.861   1.743  15.391  0.0291 -0.0153  0.4690
  371TMC3    O2 5614   3.831   1.262  15.770  0.3656 -0.1147  0.0376
  372MPD2     C 5615   3.558   2.244  13.175  0.4122 -1.3215 -0.4437
  372MPD2    C1 5616   3.672   2.269  13.241  0.3687 -0.5015 -0.4594
  372MPD2    C2 5617   3.733   2.168  13.303  0.5076  0.1097 -0.4680
  372MPD2    C3 5618   3.690   2.038  13.275  0.3623  0.3511 -0.0453
  372MPD2    C4 5619   3.578   2.009  13.201 -0.6560  0.2713 -1.2034
  372MPD2    C5 5620   3.514   2.119  13.151  0.7068 -0.1678 -0.7540
  372MPD2     H 5621   3.820   2.187  13.365  0.2079 -1.7591  0.5333
  372MPD2    H1 5622   3.542   1.907  13.202  0.3076 -0.0671 -0.5069
  372MPD2    H2 5623   3.494   2.326  13.144 -0.2613 -2.0103 -0.8796
  372MPD2    H3 5624   3.414   2.105  13.111  1.2289  0.0541 -2.1378
  372MPD2     N 5625   3.766   1.941  13.334 -0.6260  0.7179  0.7298
  372MPD2    H5 5626   3.842   1.971  13.394 -0.6672 -0.4558  1.3727
  372MPD2    N1 5627   3.732   2.396  13.260 -0.6154 -0.4258 -0.0951
  372MPD2    H7 5628   3.806   2.409  13.328 -1.3834  1.2765  0.3957
  373TMC3    C1 5629   3.851   1.724  13.380  0.1352  0.6654  0.0707
  373TMC3    C2 5630   3.845   1.744  13.518  0.0302  0.4056  0.0257
  373TMC3    C3 5631   3.866   1.630  13.597 -0.2271 -0.4228 -0.0443
  373TMC3    C4 5632   3.912   1.614  13.324  0.2993 -0.8138  0.0213
  373TMC3    C5 5633   3.956   1.515  13.411  0.0906  0.2375  0.0496
  373TMC3    C6 5634   3.919   1.513  13.542  0.2892 -0.0810 -0.3663
  373TMC3     C 5635   3.763   1.804  13.301  0.3650 -0.3004  0.5395
  373TMC3     O 5636   3.712   1.756  13.202 -0.5001 -0.0579 -0.3166
  373TMC3     H 5637   3.793   1.830  13.557 -1.2726  0.4702 -1.8472
  373TMC3    H1 5638   3.932   1.602  13.219 -0.5695 -2.2610  0.0165
  373TMC3    H2 5639   3.945   1.436  13.613  1.8667 -0.7740 -1.6763
  373TMC3    C7 5640   4.036   1.407  13.370 -0.2173 -0.1771 -0.2788
  373TMC3    C8 5641   3.828   1.625  13.729  0.0738  0.0234  0.4740
  373TMC3    O1 5642   4.043   1.386  13.249  0.1814 -0.3201  0.2900
  373TMC3    O2 5643   3.826   1.517  13.785  0.4809  0.0577  0.3154
  374TMC3    C1 5644   4.337   2.867  10.022  0.1989 -0.3710  0.1701
  374TMC3    C2 5645   4.447   2.785  10.008 -0.6237  0.4001  0.6308
  374TMC3    C3 5646   4.531   2.819   9.907 -0.1701 -0.5466 -0.9081
  374TMC3    C4 5647   4.322   2.973   9.939  0.5084  0.2719  0.2359
  374TMC3    C5 5648   4.407   3.003   9.839  0.4698  0.0002 -0.6289
  374TMC3    C6 5649   4.513   2.925   9.827 -0.0358  0.2042 -0.3265
  374TMC3     C 5650   4.238   2.844  10.127 -0.3044  0.3839  0.3091
  374TMC3     O 5651   4.134   2.911  10.126  0.4186  0.3734  0.0598
  374TMC3     H 5652   4.462   2.696  10.067 -0.3668 -0.4436 -0.7014
  374TMC3    H1 5653   4.240   3.038   9.964  0.0047  0.0515 -0.8209
  374TMC3    H2 5654   4.592   2.961   9.763 -0.5633  0.9475 -0.5568
  374TMC3    C7 5655   4.365   3.098   9.736 -1.2933  0.0828 -0.0617
  374TMC3    C8 5656   4.637   2.736   9.847 -0.4455 -0.7261  0.0622
  374TMC3    O1 5657   4.265   3.166   9.748 -0.7785  0.4006 -0.5634
  374TMC3    O2 5658   4.686   2.777   9.742  0.3272  0.1414  0.4187
  375MPD2     C 5659   4.165   3.498  16.396 -0.5119 -0.3104  0.2959
  375MPD2    C1 5660   4.054   3.415  16.400  0.0733 -1.0791  0.2599
  375MPD2    C2 5661   4.072   3.284  16.360  0.0231 -0.0741  0.6570
  375MPD2    C3 5662   4.198   3.229  16.328  0.0347  0.6035 -0.0463
  375MPD2    C4 5663   4.306   3.311  16.349  0.5511  0.1885  1.0190
  375MPD2    C5 5664   4.288   3.441  16.379  0.7089 -0.2639  0.5462
  375MPD2     H 5665   3.980   3.227  16.355  0.5772 -0.9535  0.5014
  375MPD2    H1 5666   4.408   3.279  16.331 -0.2162 -2.5869  1.5404
  375MPD2    H2 5667   4.150   3.603  16.417  0.2202 -0.5781  2.1323
  375MPD2    H3 5668   4.381   3.496  16.388 -0.5828  2.3075 -1.7996
  375MPD2     N 5669   4.221   3.101  16.285  0.6344  0.3747 -0.0432
  375MPD2    H5 5670   4.316   3.077  16.257  0.0341 -1.2386 -0.6935
  375MPD2    N1 5671   3.919   3.460  16.439  0.1177 -0.6413  0.5404
  375MPD2    H7 5672   3.850   3.387  16.419 -0.8072  0.5490 -0.6320
  376TMC3    C1 5673   4.187   2.905  16.171 -0.5537 -0.5243  0.5840
  376TMC3    C2 5674   4.294   2.840  16.226  0.1731  0.1343 -0.3526
  376TMC3    C3 5675   4.381   2.781  16.141  0.2183 -0.1102  0.1176
  376TMC3    C4 5676   4.161   2.917  16.042  0.3855  0.7946  0.6084
  376TMC3    C5 5677   4.253   2.863  15.953  0.1935  0.3518 -0.7500
  376TMC3    C6 5678   4.364   2.792  16.003  0.1833 -0.1556  0.5094
  376TMC3     C 5679   4.125   3.011  16.254  0.1402  0.7604  0.3229
  376TMC3     O 5680   4.008   3.032  16.227  0.1744  0.4816  0.3178
  376TMC3     H 5681   4.302   2.834  16.334 -1.5107 -1.2170 -0.3196
  376TMC3    H1 5682   4.072   2.967  16.005  0.4564  0.1189 -0.4519
  376TMC3    H2 5683   4.451   2.762  15.946  0.1499  0.7136 -0.0057
  376TMC3    C7 5684   4.230   2.873  15.810  0.2660 -0.5758  0.1381
  376TMC3    C8 5685   4.512   2.753  16.205 -0.5961  0.4937 -0.0535
  376TMC3    O1 5686   4.163   2.969  15.769  0.3405  0.0103  0.2574
  376TMC3    O2 5687   4.620   2.764  16.148  0.0446 -0.2529  0.5464
  377MPD2     C 5688   2.255   2.485  12.010  0.1355  0.2260  0.0839
  377MPD2    C1 5689   2.297   2.414  12.121 -0.4991  0.5883  0.4105
  377MPD2    C2 5690   2.211   2.399  12.228 -0.2534  0.3878  0.0602
  377MPD2    C3 5691   2.085   2.451  12.222 -0.3126 -0.0949 -0.1806
  377MPD2    C4 5692   2.046   2.524  12.111  0.6827  0.9341 -0.1072
  377MPD2    C5 5693   2.129   2.525  12.002 -0.1100 -0.1277  0.3167
  377MPD2     H 5694   2.240   2.350  12.320 -0.4518  0.3070  0.0813
  377MPD2    H1 5695   1.944   2.560  12.111  0.2026 -0.4399 -0.7237
  377MPD2    H2 5696   2.316   2.502  11.921 -1.2301 -1.6907 -1.2046
  377MPD2    H3 5697   2.091   2.574  11.913 -0.7937 -0.0925  0.6351
  377MPD2     N 5698   1.995   2.441  12.327  0.2345 -0.4340  0.4026
  377MPD2    H5 5699   1.913   2.501  12.319  0.7040  0.1995  0.3093
  377MPD2    N1 5700   2.429   2.377  12.133 -0.1635 -0.4417  0.2138
  377MPD2    H7 5701   2.489   2.408  12.057 -1.6736  0.1925 -0.7178
  378TMC3    C1 5702   2.830   2.416  12.127 -0.8165  0.2301 -0.1615
  378TMC3    C2 5703   2.700   2.372  12.118  0.2421  0.0563 -0.6951
  378TMC3    C3 5704   2.632   2.332  12.229  0.4247  0.3595  0.1111
  378TMC3    C4 5705   2.896   2.406  12.246 -0.0495 -0.0758  0.2918
  378TMC3    C5 5706   2.829   2.360  12.354 -0.4191  0.3638 -0.7675
  378TMC3    C6 5707   2.697   2.329  12.351  0.1479 -0.0751  0.6281
  378TMC3     C 5708   2.881   2.498  12.020  0.5221 -0.8846 -0.7627
  378TMC3     O 5709   2.798   2.546  11.947  0.0606 -0.0765 -0.1440
  378TMC3     H 5710   2.661   2.372  12.017 -0.2766  0.4172 -0.4947
  378TMC3    H1 5711   3.001   2.433  12.253  0.5335 -2.0625 -0.7444
  378TMC3    H2 5712   2.648   2.283  12.436  0.8846  1.1477  1.6934
  378TMC3    C7 5713   2.903   2.309  12.471  0.4154 -0.1356 -0.1740
  378TMC3    C8 5714   2.491   2.310  12.228  0.7869 -0.7851 -0.0904
  378TMC3    O1 5715   2.846   2.284  12.577  0.5370  0.1505 -0.3759
  378TMC3    O2 5716   2.444   2.245  12.319 -0.1555 -0.3250 -0.5491
  379MPD2     C 5717   3.254   1.288  16.144 -0.6980  0.6033  0.3144
  379MPD2    C1 5718   3.166   1.246  16.236  0.2297  0.4514 -0.4908
  379MPD2    C2 5719   3.202   1.160  16.343 -0.5107  0.6703  0.2162
  379MPD2    C3 5720   3.341   1.132  16.361 -0.4799  0.9998 -0.0681
  379MPD2    C4 5721   3.429   1.186  16.264  0.2236 -0.8630 -0.1976
  379MPD2    C5 5722   3.384   1.263  16.162 -0.1674  0.2048  0.7473
  379MPD2     H 5723   3.130   1.108  16.404 -0.9574  1.1382  0.0879
  379MPD2    H1 5724   3.536   1.169  16.266  0.1897 -1.1466 -0.7186
  379MPD2    H2 5725   3.225   1.345  16.056 -1.3860 -1.6854 -0.9503
  379MPD2    H3 5726   3.451   1.307  16.089  2.5445  0.2269  3.2563
  379MPD2     N 5727   3.393   1.037  16.448  0.1623  0.2883 -0.1207
  379MPD2    H5 5728   3.494   1.032  16.436  0.1092 -0.6448 -0.2050
  379MPD2    N1 5729   3.030   1.267  16.211  0.0673 -0.3945  0.0070
  379MPD2    H7 5730   3.008   1.292  16.115 -1.1566  1.1257  0.6730
  380TMC3    C1 5731   2.799   1.229  16.246  0.7862  0.2641 -0.0347
  380TMC3    C2 5732   2.754   1.104  16.275 -0.8086  0.0038 -0.8529
  380TMC3    C3 5733   2.678   1.038  16.185 -0.1665  0.6195  0.1729
  380TMC3    C4 5734   2.757   1.297  16.139  0.6719  0.7820 -0.1311
  380TMC3    C5 5735   2.671   1.233  16.059  0.1790 -0.1430  0.0570
  380TMC3    C6 5736   2.634   1.103  16.071 -0.6720 -0.0443  0.3052
  380TMC3     C 5737   2.926   1.256  16.299 -0.1139  0.1209 -0.3083
  380TMC3     O 5738   2.927   1.235  16.420  0.1851 -0.3721  0.1333
  380TMC3     H 5739   2.777   1.043  16.362 -2.9129  1.0163  0.4211
  380TMC3    H1 5740   2.789   1.400  16.128  2.2183  0.2310 -0.7509
  380TMC3    H2 5741   2.575   1.048  15.998  0.1660 -0.5189 -0.0188
  380TMC3    C7 5742   2.594   1.314  15.966 -0.3536  0.2135  0.6418
  380TMC3    C8 5743   2.636   0.899  16.208 -0.1660  0.2481 -0.3893
  380TMC3    O1 5744   2.623   1.434  15.963 -0.2383  0.4224 -0.2346
  380TMC3    O2 5745   2.521   0.883  16.166 -0.6113  0.6881 -0.0908
  381TMC3    C1 5746   2.630   1.795  16.434 -0.6470  0.3697  0.0024
  381TMC3    C2 5747   2.693   1.900  16.381 -0.1771  0.1041 -0.3264
  381TMC3    C3 5748   2.690   2.016  16.448  0.6480  0.2643 -0.3969
  381TMC3    C4 5749   2.575   1.799  16.559 -0.1214 -0.3543  0.2226
  381TMC3    C5 5750   2.570   1.922  16.618 -0.2425  0.1490  0.4739
  381TMC3    C6 5751   2.634   2.027  16.566  0.0008 -0.2249  0.3262
  381TMC3     C 5752   2.559   1.710  16.346  0.4317  0.4145  0.2036
  381TMC3     O 5753   2.517   1.760  16.245 -0.0807  0.1357 -0.3763
  381TMC3     H 5754   2.712   1.906  16.274  2.6785 -1.1815  0.0975
  381TMC3    H1 5755   2.545   1.712  16.617 -0.9401 -0.0892  0.2037
  381TMC3    H2 5756   2.639   2.111  16.634 -1.2165 -0.6781  0.9821
  381TMC3    C7 5757   2.523   1.922  16.757  0.2578  0.3064 -0.6556
  381TMC3    C8 5758   2.774   2.112  16.396  0.3509 -0.2616 -0.0094
  381TMC3    O1 5759   2.526   1.815  16.822  0.3070  0.3414  0.1993
  381TMC3    O2 5760   2.858   2.083  16.313  0.0880  0.2198 -0.1290
  382MPD2     C 5761   2.211   0.522  16.438  0.2727 -0.2582  0.2507
  382MPD2    C1 5762   2.171   0.479  16.562  0.5446 -0.8052 -0.1458
  382MPD2    C2 5763   2.226   0.368  16.623  0.0837  0.7999 -0.0230
  382MPD2    C3 5764   2.305   0.276  16.558  0.0457 -0.3328 -0.3895
  382MPD2    C4 5765   2.351   0.317  16.436  0.3049 -0.0020 -0.2682
  382MPD2    C5 5766   2.308   0.439  16.379  0.5523 -0.1019  0.2004
  382MPD2     H 5767   2.183   0.351  16.721 -0.7108  2.6308 -0.0403
  382MPD2    H1 5768   2.428   0.265  16.379  0.8513  1.3158 -0.7376
  382MPD2    H2 5769   2.168   0.605  16.383  1.4630 -0.6908 -1.3197
  382MPD2    H3 5770   2.337   0.453  16.275  3.5302 -0.5905  0.9741
  382MPD2     N 5771   2.348   0.155  16.617 -0.1154  0.0474 -0.1749
  382MPD2    H5 5772   2.397   0.082  16.567 -1.6883 -1.0446 -0.1386
  382MPD2    N1 5773   2.070   0.544  16.635  0.1778 -0.5170  0.2429
  382MPD2    H7 5774   2.056   0.512  16.730 -3.1080  0.6130  0.1201
  383TMC3    C1 5775   2.359   4.721  16.784 -0.5303 -0.1761 -0.0906
  383TMC3    C2 5776   2.272   4.622  16.755 -0.3461  0.0759 -0.5111
  383TMC3    C3 5777   2.264   4.518  16.847 -0.4235 -0.6890  0.1239
  383TMC3    C4 5778   2.435   4.717  16.899  0.6560 -0.1488  0.0225
  383TMC3    C5 5779   2.428   4.607  16.982 -0.0752  0.6016  0.4727
  383TMC3    C6 5780   2.340   4.508  16.963 -0.5265 -0.8887  0.3641
  383TMC3     C 5781   2.322   0.119  16.748 -0.0525 -0.2432 -0.1172
  383TMC3     O 5782   2.317   0.192  16.844  0.5795  0.3123 -0.7074
  383TMC3     H 5783   2.212   4.624  16.665 -0.3493 -2.0244 -0.5544
  383TMC3    H1 5784   2.500   0.062  16.923  1.5924 -1.3634  1.6912
  383TMC3    H2 5785   2.333   4.428  17.036 -0.0681 -0.4126  0.9248
  383TMC3    C7 5786   2.472   4.622  17.121  0.4317 -0.0517  0.0077
  383TMC3    C8 5787   2.136   4.459  16.837 -0.4915  0.1723  0.7487
  383TMC3    O1 5788   2.458   4.523  17.195 -0.1824  0.4352  0.5232
  383TMC3    O2 5789   2.067   4.485  16.739 -0.2097  0.5718  0.6029
  384MPD2     C 5790   3.395   0.639  12.050 -0.3317  0.2406  0.7575
  384MPD2    C1 5791   3.464   0.625  12.166  0.2948  0.0996  0.1096
  384MPD2    C2 5792   3.559   0.528  12.180  0.1376 -0.4935 -0.6598
  384MPD2    C3 5793   3.587   0.437  12.079 -0.6036  0.2909 -0.1599
  384MPD2    C4 5794   3.532   0.463  11.955  0.3163  0.0904  0.2597
  384MPD2    C5 5795   3.438   0.566  11.940 -0.0446 -0.4735 -0.0766
  384MPD2     H 5796   3.627   0.519  12.264  0.4715  0.0288 -0.8732
  384MPD2    H1 5797   3.569   0.425  11.860  1.7225  1.0295  0.4234
  384MPD2    H2 5798   3.310   0.704  12.033 -1.0850 -0.4689  1.8184
  384MPD2    H3 5799   3.400   0.597  11.843 -1.7308  2.1569  1.4352
  384MPD2     N 5800   3.690   0.348  12.110 -0.9787 -0.7759 -0.0658
  384MPD2    H5 5801   3.734   0.352  12.201 -0.9639 -1.9340 -0.0264
  384MPD2    N1 5802   3.430   0.710  12.272 -0.1659  0.2242  0.1087
  384MPD2    H7 5803   3.345   0.765  12.263 -0.1452  0.2141 -0.1396
  385TMC3    C1 5804   3.829   0.163  12.090  0.4677 -0.4463  0.5232
  385TMC3    C2 5805   3.815   0.028  12.109  0.1184 -0.1603 -0.2077
  385TMC3    C3 5806   3.853   4.715  12.227  0.4308  0.2060 -0.6556
  385TMC3    C4 5807   3.893   0.226  12.190 -0.0344 -0.4477 -0.5891
  385TMC3    C5 5808   3.909   0.185  12.317  0.1288 -0.2370  0.2235
  385TMC3    C6 5809   3.883   0.058  12.334 -0.1498  0.8591  0.2807
  385TMC3     C 5810   3.726   0.245  12.027  0.7463 -0.2098  0.4013
  385TMC3     O 5811   3.657   0.191  11.938 -0.2055  0.1870 -0.4661
  385TMC3     H 5812   3.751   4.707  12.044  1.3179  0.4525 -1.9366
  385TMC3    H1 5813   3.928   0.325  12.165  0.6708 -0.5360  0.0429
  385TMC3    H2 5814   3.903   4.736  12.422  2.0101  2.1862  0.6786
  385TMC3    C7 5815   3.857   0.287  12.418  0.3211 -0.3188 -0.2010
  385TMC3    C8 5816   3.838   4.567  12.246 -0.4066  0.1965 -0.0602
  385TMC3    O1 5817   3.822   0.391  12.367  0.1222 -0.5250  0.4656
  385TMC3    O2 5818   3.869   4.528  12.357 -0.3085 -0.2221  0.0492
  386TMC3    C1 5819   3.965   2.794  12.069 -1.2181 -0.4710  0.0853
  386TMC3    C2 5820   4.012   2.757  11.938  0.2148  0.5247  0.8545
  386TMC3    C3 5821   3.932   2.788  11.833 -0.6918  0.1303 -0.2630
  386TMC3    C4 5822   3.844   2.857  12.092  0.3680  0.7398  0.3081
  386TMC3    C5 5823   3.773   2.891  11.972  0.2187 -0.0712  0.2311
  386TMC3    C6 5824   3.812   2.855  11.847 -0.0075 -0.0279 -0.2183
  386TMC3     C 5825   4.035   2.747  12.190  1.0244 -0.0076  0.3473
  386TMC3     O 5826   3.982   2.778  12.296 -0.6666 -0.0036  0.3007
  386TMC3     H 5827   4.110   2.712  11.924 -0.0583  0.6878 -1.5631
  386TMC3    H1 5828   3.805   2.879  12.190  0.9863  1.6007  0.3615
  386TMC3    H2 5829   3.752   2.884  11.762 -0.0919  0.5179  0.0285
  386TMC3    C7 5830   3.637   2.946  11.987 -0.4985  0.2327  0.5013
  386TMC3    C8 5831   3.961   2.734  11.697 -0.2351 -0.1130 -0.7242
  386TMC3    O1 5832   3.581   2.934  12.092 -1.1896 -0.2098  0.2781
  386TMC3    O2 5833   3.875   2.755  11.606  0.0659  0.5997  0.0587
  387MPD2     C 5834   1.493   2.706   9.774  0.0166 -0.5202  0.0305
  387MPD2    C1 5835   1.628   2.695   9.808  0.1088 -0.2357  0.6202
  387MPD2    C2 5836   1.691   2.578   9.779  0.1638  0.3020 -0.2410
  387MPD2    C3 5837   1.638   2.473   9.713  0.0640 -0.0763  0.4131
  387MPD2    C4 5838   1.510   2.481   9.669  0.2240  0.3509  0.1412
  387MPD2    C5 5839   1.441   2.598   9.703 -0.1257  0.3088  0.1145
  387MPD2     H 5840   1.799   2.572   9.791  0.0676 -2.0203 -0.5623
  387MPD2    H1 5841   1.465   2.399   9.614 -0.7793  1.1273 -0.1851
  387MPD2    H2 5842   1.437   2.790   9.813 -0.4144 -0.4274 -0.8036
  387MPD2    H3 5843   1.335   2.606   9.685 -0.0118 -2.5931 -1.9475
  387MPD2     N 5844   1.720   2.370   9.685 -0.1014  0.0964 -0.2009
  387MPD2    H5 5845   1.816   2.377   9.718 -0.3658  3.4019 -0.1112
  387MPD2    N1 5846   1.695   2.795   9.876  0.2626 -0.1168  1.1988
  387MPD2    H7 5847   1.794   2.787   9.895  0.4949  0.9692  0.4619
  388TMC3    C1 5848   1.730   2.931  10.051 -0.4645 -0.4510  0.0544
  388TMC3    C2 5849   1.725   3.063  10.093  0.1248  0.0838  0.0935
  388TMC3    C3 5850   1.816   3.085  10.193  0.1481 -0.1231 -0.6178
  388TMC3    C4 5851   1.789   2.823  10.111  0.0912  0.8530  0.1925
  388TMC3    C5 5852   1.873   2.860  10.207 -0.3944 -0.5777  0.0062
  388TMC3    C6 5853   1.890   2.989  10.243 -0.0593  0.5024  0.0358
  388TMC3     C 5854   1.640   2.897   9.943 -0.1389  0.3074  0.4153
  388TMC3     O 5855   1.526   2.943   9.947  0.1189  0.5625 -0.1847
  388TMC3     H 5856   1.678   3.133  10.025  0.9002  0.0155 -0.5120
  388TMC3    H1 5857   1.760   2.721  10.089 -1.3013  1.2702  0.1057
  388TMC3    H2 5858   1.978   3.022  10.298  0.1822 -0.5731  0.2916
  388TMC3    C7 5859   1.993   2.773  10.231 -0.0987  0.5610 -0.4123
  388TMC3    C8 5860   1.833   3.231  10.220 -1.0847  0.4255 -0.2363
  388TMC3    O1 5861   2.099   2.817  10.276  0.0567 -0.1879 -0.3714
  388TMC3    O2 5862   1.786   3.303  10.130 -0.6802  0.4142 -0.7646
  389MPD2     C 5863   1.389   0.596  11.056 -0.4006  0.7025  0.7429
  389MPD2    C1 5864   1.288   0.568  10.973 -0.6916 -0.3013  0.7174
  389MPD2    C2 5865   1.193   0.474  11.014 -0.7449  0.8311  0.5779
  389MPD2    C3 5866   1.199   0.420  11.139 -0.0307 -0.0865 -0.9380
  389MPD2    C4 5867   1.304   0.449  11.226 -0.0996  0.8241 -0.2230
  389MPD2    C5 5868   1.404   0.535  11.180  0.4969 -0.2003 -0.0097
  389MPD2     H 5869   1.117   0.435  10.947  0.3076 -1.4583  0.7279
  389MPD2    H1 5870   1.314   0.390  11.316 -1.2968  1.2186  0.1662
  389MPD2    H2 5871   1.457   0.677  11.032 -1.9016  2.0714  1.0829
  389MPD2    H3 5872   1.482   0.560  11.251 -2.0581  0.3545  2.5947
  389MPD2     N 5873   1.108   0.332  11.201  0.5729 -0.1277  0.6277
  389MPD2    H5 5874   1.129   0.296  11.294  0.0610  1.8516  1.5202
  389MPD2    N1 5875   1.267   0.641  10.857  0.1939  0.1224  0.4992
  389MPD2    H7 5876   1.330   0.720  10.858  1.3895 -0.8128 -0.5117
  390TMC3    C1 5877   0.903   0.218  11.218 -0.4751  0.1422  0.4078
  390TMC3    C2 5878   0.937   0.187  11.344  0.5374  0.6935 -0.0675
  390TMC3    C3 5879   0.839   0.195  11.431 -0.1810 -0.1355 -0.2307
  390TMC3    C4 5880   0.773   0.239  11.172 -0.4764 -0.1084 -0.0670
  390TMC3    C5 5881   0.684   0.276  11.271 -0.7080  0.8772  0.4159
  390TMC3    C6 5882   0.716   0.253  11.403 -0.5623 -0.4522 -0.7461
  390TMC3     C 5883   0.994   0.280  11.136  0.2307  0.1467  0.1237
  390TMC3     O 5884   0.967   0.286  11.015  0.0051  0.3260  0.1491
  390TMC3     H 5885   1.022   0.127  11.376 -0.9748 -0.6973  1.3038
  390TMC3    H1 5886   0.747   0.278  11.074 -2.7364  0.8875  0.9263
  390TMC3    H2 5887   0.655   0.290  11.484  0.1152 -2.5049  0.7078
  390TMC3    C7 5888   0.551   0.237  11.232 -1.3468  0.4756  0.2634
  390TMC3    C8 5889   0.811   0.081  11.510 -0.4057 -0.1183  0.1844
  390TMC3    O1 5890   0.533   0.225  11.112  1.0567 -0.2572 -0.0055
  390TMC3    O2 5891   0.859   4.709  11.477 -0.0733 -0.2837 -0.3095
  391MPD2     C 5892   0.091   1.993  11.130  0.9632  0.2777 -0.7541
  391MPD2    C1 5893   0.196   2.085  11.124 -0.6815  0.7264  0.8885
  391MPD2    C2 5894   0.247   2.110  10.991 -0.0978 -0.4962  0.6479
  391MPD2    C3 5895   0.190   2.058  10.872  0.2984 -0.0748  0.1319
  391MPD2    C4 5896   0.099   1.957  10.892 -0.3634 -0.3755  0.4383
  391MPD2    C5 5897   0.058   1.919  11.018 -0.3580  0.2580  0.8948
  391MPD2     H 5898   0.327   2.180  10.966 -0.0531 -0.7085  0.1975
  391MPD2    H1 5899   0.062   1.897  10.809  0.9144  0.3797 -0.6711
  391MPD2    H2 5900   0.043   1.976  11.226  0.3606  1.0528 -0.9196
  391MPD2    H3 5901   4.728   1.836  11.031  2.4531 -2.1598  0.0324
  391MPD2     N 5902   0.244   2.096  10.749 -0.3533  0.7932  0.6252
  391MPD2    H5 5903   0.321   2.162  10.747  0.5433 -0.2687 -0.3709
  391MPD2    N1 5904   0.236   2.154  11.240  0.4713  0.0046  0.4114
  391MPD2    H7 5905   0.171   2.148  11.317 -0.4754  0.9290 -0.3069
  392TMC3    C1 5906   0.257   2.110  10.514  0.0662 -0.4899  0.5042
  392TMC3    C2 5907   0.189   2.130  10.401  0.9128  0.1811  0.3034
  392TMC3    C3 5908   0.250   2.195  10.304  1.0884  0.2559  0.0096
  392TMC3    C4 5909   0.383   2.140  10.522 -0.1376  0.3587 -0.0573
  392TMC3    C5 5910   0.452   2.192  10.418  0.3723  0.0775 -0.3457
  392TMC3    C6 5911   0.378   2.238  10.306  0.8714  0.0486  1.0565
  392TMC3     C 5912   0.187   2.062  10.627 -0.3001  0.4289 -0.6057
  392TMC3     O 5913   0.082   2.003  10.596  0.4384 -0.2887 -0.4301
  392TMC3     H 5914   0.082   2.120  10.393  0.8971 -0.2424  1.0453
  392TMC3    H1 5915   0.432   2.112  10.614 -1.5218  1.4515  1.0142
  392TMC3    H2 5916   0.411   2.311  10.233 -0.6037 -1.8041 -1.4398
  392TMC3    C7 5917   0.583   2.251  10.441 -0.5599  0.0565 -0.0217
  392TMC3    C8 5918   0.163   2.251  10.200  0.6175  0.7120 -0.7475
  392TMC3    O1 5919   0.629   2.232  10.553 -0.2292 -1.0129  0.2511
  392TMC3    O2 5920   0.040   2.252  10.217  1.0029  0.2747  0.3123
  393TMC3    C1 5921   4.530   0.648  10.516  0.0953  0.1955 -0.2438
  393TMC3    C2 5922   4.450   0.630  10.629 -0.4508  0.1095 -0.0029
  393TMC3    C3 5923   4.492   0.534  10.718 -0.2218  0.0592  0.5236
  393TMC3    C4 5924   4.647   0.575  10.495 -0.2060 -0.2994 -0.7619
  393TMC3    C5 5925   4.673   0.474  10.581 -0.8008 -0.2115 -0.6202
  393TMC3    C6 5926   4.599   0.452  10.695 -0.0716  0.2193 -0.3039
  393TMC3     C 5927   4.472   0.728  10.417  0.1459  0.1098  0.2607
  393TMC3     O 5928   4.358   0.761  10.436  0.0683  0.1455 -0.6132
  393TMC3     H 5929   4.358   0.685  10.646 -0.3233  0.8389 -1.6822
  393TMC3    H1 5930   4.679   0.569  10.392  2.4830  2.7561 -0.1031
  393TMC3    H2 5931   4.613   0.363  10.755  0.9211 -0.2497 -1.2360
  393TMC3    C7 5932   0.016   0.361  10.536  0.8909 -0.4382  0.0574
  393TMC3    C8 5933   4.413   0.520  10.841 -0.6424 -0.7098 -0.0186
  393TMC3    O1 5934   4.736   0.253  10.588  0.4080  0.3336  1.1797
  393TMC3    O2 5935   4.306   0.582  10.846 -0.1669  0.3857  0.0784
  394TMC3    C1 5936   1.162   0.737  10.668  0.0936 -0.5297 -0.9125
  394TMC3    C2 5937   1.035   0.756  10.608  0.1299 -0.6469 -0.1764
  394TMC3    C3 5938   1.030   0.844  10.501  0.2108 -0.0200  0.4556
  394TMC3    C4 5939   1.278   0.800  10.614  0.1370 -0.0311  0.0999
  394TMC3    C5 5940   1.257   0.891  10.516 -0.4942  0.4493  0.1630
  394TMC3    C6 5941   1.141   0.912  10.455  0.0419 -0.2062 -0.6768
  394TMC3     C 5942   1.171   0.624  10.757  0.0762 -0.0664 -0.6037
  394TMC3     O 5943   1.087   0.536  10.739  0.2075  0.1427 -0.0685
  394TMC3     H 5944   0.949   0.714  10.658 -0.2137  0.4120  0.1370
  394TMC3    H1 5945   1.374   0.778  10.658 -0.9855  0.6034  2.8489
  394TMC3    H2 5946   1.131   0.981  10.373 -0.2862 -3.7333 -3.6329
  394TMC3    C7 5947   1.372   0.940  10.440 -0.6942  0.1539  0.7295
  394TMC3    C8 5948   0.934   0.796  10.406  0.0350 -0.2118  0.5482
  394TMC3    O1 5949   1.353   1.038  10.369 -0.1351  0.3163  0.6916
  394TMC3    O2 5950   0.871   0.698  10.427  0.2819  0.7061 -0.0904
  395TMC3    C1 5951   0.339   3.212  15.346 -0.0758 -1.0961 -0.3835
  395TMC3    C2 5952   0.237   3.238  15.256  0.2495 -0.2121  0.1588
  395TMC3    C3 5953   0.218   3.364  15.212 -0.0920 -0.3741 -0.0523
  395TMC3    C4 5954   0.404   3.314  15.402  0.2058 -0.1762  0.5620
  395TMC3    C5 5955   0.393   3.435  15.340  0.1917  0.5701  0.8384
  395TMC3    C6 5956   0.304   3.462  15.242  0.2425 -0.0372  0.0387
  395TMC3     C 5957   0.348   3.090  15.416 -0.1906  0.1215 -0.1863
  395TMC3     O 5958   0.400   3.089  15.526  0.1170  0.6520 -0.0696
  395TMC3     H 5959   0.174   3.155  15.226  0.0031  0.4102 -1.0385
  395TMC3    H1 5960   0.478   3.308  15.481 -0.9808  0.6914  1.7346
  395TMC3    H2 5961   0.296   3.561  15.199  1.5967 -0.4433 -1.1417
  395TMC3    C7 5962   0.504   3.531  15.343  0.6978  0.2764 -0.4804
  395TMC3    C8 5963   0.134   3.392  15.092 -0.4061 -0.4928 -0.3096
  395TMC3    O1 5964   0.476   3.650  15.323 -0.7843  0.1342 -0.0990
  395TMC3    O2 5965   0.159   3.497  15.034  0.1169 -0.0219 -0.8733
  396MPD2     C 5966   4.600   3.913  17.188 -0.1398 -1.1398  0.1602
  396MPD2    C1 5967   4.672   4.026  17.230 -0.1085 -0.1787 -0.3094
  396MPD2    C2 5968   4.712   4.117  17.132  0.8560 -0.2101 -0.3532
  396MPD2    C3 5969   4.677   4.098  16.996  0.2975  0.1749 -0.6658
  396MPD2    C4 5970   4.583   4.000  16.966  0.0992 -0.0252  0.1532
  396MPD2    C5 5971   4.550   3.909  17.063 -0.4668  0.8054 -0.1790
  396MPD2     H 5972   0.045   4.197  17.152 -2.4885  2.0620  2.2866
  396MPD2    H1 5973   4.548   3.979  16.866 -1.8240  1.9990  0.3895
  396MPD2    H2 5974   4.561   3.837  17.255 -0.5146 -0.8184  0.3040
  396MPD2    H3 5975   4.478   3.832  17.038 -1.6471  1.2410  1.8471
  396MPD2     N 5976   4.719   4.196  16.904 -0.5781 -0.1351  0.4991
  396MPD2    H5 5977   0.032   4.275  16.942 -1.3309 -0.7855  2.8733
  396MPD2    N1 5978   4.691   4.042  17.370 -0.0415  0.1481  0.0608
  396MPD2    H7 5979   4.651   3.976  17.435 -1.1310  1.4730  0.7465
  397TMC3    C1 5980   0.080   4.108  17.561 -0.0277 -0.3156 -0.5835
  397TMC3    C2 5981   0.214   4.094  17.583  0.5994 -0.4377  0.0900
  397TMC3    C3 5982   0.254   3.960  17.617 -0.3988  0.6383  0.5578
  397TMC3    C4 5983   4.726   4.020  17.613  1.3110  0.5069  0.0874
  397TMC3    C5 5984   0.036   3.902  17.676 -0.2424 -0.5846 -0.2877
  397TMC3    C6 5985   0.166   3.871  17.674 -0.1550  0.1465 -0.8379
  397TMC3     C 5986   0.046   4.130  17.421  0.3184 -0.7373 -0.0723
  397TMC3     O 5987   0.109   4.216  17.356  0.4011 -0.3652 -0.5879
  397TMC3     H 5988   0.284   4.156  17.529 -2.5959 -0.1002 -3.6493
  397TMC3    H1 5989   4.623   4.051  17.625  1.5141  1.5580 -0.9580
  397TMC3    H2 5990   0.204   3.771  17.691  3.3195  1.5848 -0.1187
  397TMC3    C7 5991   4.693   3.840   0.028  0.3940  0.0180  0.4902
  397TMC3    C8 5992   0.344   3.892  17.531  0.7501  0.1059  0.2412
  397TMC3    O1 5993   4.577   3.880   0.033  0.4497 -0.2194 -0.2560
  397TMC3    O2 5994   0.292   3.789  17.491  0.5227 -0.0533  0.5909
  398MPD2     C 5995   3.210   1.230   0.752 -0.3716  0.4459 -0.6989
  398MPD2    C1 5996   3.343   1.185   0.731 -0.4869  0.7079 -0.2219
  398MPD2    C2 5997   3.446   1.264   0.771 -0.2636 -0.2879  0.4131
  398MPD2    C3 5998   3.422   1.393   0.817  0.0063 -0.4523  0.1006
  398MPD2    C4 5999   3.295   1.440   0.825 -0.0775 -0.4386 -0.8327
  398MPD2    C5 6000   3.188   1.353   0.795  0.4711  1.2271 -0.4295
  398MPD2     H 6001   3.549   1.230   0.780 -0.2800 -0.2429  0.7785
  398MPD2    H1 6002   3.265   1.538   0.863 -2.2790 -1.4196 -0.0227
  398MPD2    H2 6003   3.122   1.168   0.739 -0.0925  0.5281 -2.9925
  398MPD2    H3 6004   3.083   1.374   0.813 -0.0029 -1.1844 -0.3638
  398MPD2     N 6005   3.527   1.466   0.859  0.3528 -0.0209  0.6253
  398MPD2    H5 6006   3.609   1.409   0.844 -0.9487 -1.5140 -0.9201
  398MPD2    N1 6007   3.373   1.058   0.679  0.2502  0.0547  0.4535
  398MPD2    H7 6008   3.469   1.027   0.666  0.7313  2.0518 -0.7464
  399TMC3    C1 6009   3.329   0.872   0.542  0.1045 -0.3421  0.2030
  399TMC3    C2 6010   3.440   0.812   0.587 -0.0837 -0.0311 -0.5759
  399TMC3    C3 6011   3.474   0.701   0.519  0.1182 -0.1786 -0.5137
  399TMC3    C4 6012   3.244   0.810   0.458  0.0201  0.3523 -0.2119
  399TMC3    C5 6013   3.280   0.695   0.388 -0.2335  0.4920 -0.1851
  399TMC3    C6 6014   3.401   0.645   0.417  0.2384 -0.4108  0.7956
  399TMC3     C 6015   3.272   0.980   0.614 -0.2062  0.8589 -0.6133
  399TMC3     O 6016   3.152   0.990   0.616 -0.2738  0.0781 -0.2469
  399TMC3     H 6017   3.513   0.861   0.651 -0.3638 -1.2744  0.6906
  399TMC3    H1 6018   3.156   0.868   0.430  0.0498  0.3500 -0.3123
  399TMC3    H2 6019   3.428   0.559   0.357  3.4805 -0.7186  2.6594
  399TMC3    C7 6020   3.221   0.664   0.260 -0.0666 -0.1908 -0.2770
  399TMC3    C8 6021   3.597   0.637   0.565  0.5177 -0.2259  0.5879
  399TMC3    O1 6022   3.275   0.590   0.181 -0.4424  0.0130 -0.4658
  399TMC3    O2 6023   3.651   0.677   0.665 -0.2222 -0.4160 -0.3261
  400TMC3    C1 6024   2.020   4.135  16.651 -0.8042 -0.2169  0.9685
  400TMC3    C2 6025   1.912   4.051  16.673 -0.8202 -0.6127  0.1548
  400TMC3    C3 6026   1.807   4.069  16.591  0.7079 -0.7224 -0.5260
  400TMC3    C4 6027   2.020   4.239  16.557 -0.1335  1.0458  0.3704
  400TMC3    C5 6028   1.905   4.250  16.478 -0.1355 -0.5775  0.7406
  400TMC3    C6 6029   1.803   4.167  16.500  0.7220 -0.0014  0.0808
  400TMC3     C 6030   2.139   4.122  16.737  0.1880 -0.0865  0.0299
  400TMC3     O 6031   2.115   4.054  16.836  0.0867  1.0271  0.1876
  400TMC3     H 6032   1.921   3.957  16.726  0.0848 -1.0867 -0.8268
  400TMC3    H1 6033   2.106   4.304  16.545  0.8638 -0.2400  0.5559
  400TMC3    H2 6034   1.706   4.181  16.453  0.2995 -0.3784  0.8359
  400TMC3    C7 6035   1.895   4.384  16.417  0.2741 -0.0306  0.0392
  400TMC3    C8 6036   1.682   3.981  16.613 -0.0494 -0.2980 -0.3673
  400TMC3    O1 6037   1.979   4.424  16.339 -0.4343 -0.2521 -0.3014
  400TMC3    O2 6038   1.604   3.967  16.520 -0.1737 -0.0167  0.3282
  401MPD2     C 6039   4.628   2.950   0.547  0.0224 -0.6262  0.1661
  401MPD2    C1 6040   4.676   2.936   0.682 -0.6808 -0.1049 -0.0389
  401MPD2    C2 6041   4.649   2.817   0.744  0.2104  0.2161  0.2130
  401MPD2    C3 6042   4.564   2.726   0.684 -0.1620 -0.4088 -0.0427
  401MPD2    C4 6043   4.503   2.757   0.570 -0.3353  0.1808 -0.0882
  401MPD2    C5 6044   4.538   2.867   0.497  0.2157  0.2475  0.5766
  401MPD2     H 6045   4.704   2.799   0.836  0.7118 -1.8091 -0.5008
  401MPD2    H1 6046   4.437   2.679   0.533 -1.2449  0.4661  0.9354
  401MPD2    H2 6047   4.641   3.043   0.493 -1.3948 -0.4620  0.1056
  401MPD2    H3 6048   4.489   2.889   0.403  2.5241  0.1823 -0.6344
  401MPD2     N 6049   4.523   2.601   0.747 -0.3203 -0.0378 -0.6840
  401MPD2    H5 6050   4.465   2.529   0.705  0.2334 -1.4349  0.9847
  401MPD2    N1 6051   0.021   3.029   0.745  0.3086 -0.6731 -0.1225
  401MPD2    H7 6052   0.024   3.012   0.845 -0.9711 -1.1589 -0.1706
  402TMC3    C1 6053   4.514   2.431   0.919 -0.0134  0.6209  0.7924
  402TMC3    C2 6054   4.500   2.399   1.051  0.0262  0.7317 -0.3456
  402TMC3    C3 6055   4.532   2.274   1.099  0.2907  0.3604  0.3634
  402TMC3    C4 6056   4.575   2.335   0.839 -0.4561 -0.2731  0.5153
  402TMC3    C5 6057   4.600   2.214   0.888 -0.1676 -0.0888  0.1009
  402TMC3    C6 6058   4.582   2.180   1.016 -0.9822  0.0976  0.2403
  402TMC3     C 6059   4.546   2.569   0.878  1.1336 -0.4146 -1.4238
  402TMC3     O 6060   4.583   2.642   0.966  0.1784  0.5346 -0.1586
  402TMC3     H 6061   4.460   2.469   1.124  1.2246  0.7713  0.2813
  402TMC3    H1 6062   4.608   2.375   0.744 -0.1146 -1.8801 -0.0423
  402TMC3    H2 6063   4.588   2.076   1.047  2.1644  0.7431  1.7579
  402TMC3    C7 6064   4.642   2.115   0.793 -0.0617 -0.5320 -0.2790
  402TMC3    C8 6065   4.546   2.265   1.249 -0.2205 -0.1512  0.2001
  402TMC3    O1 6066   4.608   2.138   0.678 -0.0757  0.1178  0.1796
  402TMC3    O2 6067   4.491   2.348   1.322 -0.4067  0.0933 -0.4852
  403MPD2     C 6068   3.015   0.446  13.078 -0.5151  0.3684 -0.0374
  403MPD2    C1 6069   2.967   0.406  13.195 -0.1889  0.6948  0.2883
  403MPD2    C2 6070   3.043   0.415  13.312  0.1429 -0.2645 -0.0493
  403MPD2    C3 6071   3.175   0.446  13.297 -0.0389  0.2658 -0.0552
  403MPD2    C4 6072   3.227   0.482  13.171 -0.5163 -0.7205 -0.7533
  403MPD2    C5 6073   3.144   0.492  13.069  0.2852  0.1700  0.0711
  403MPD2     H 6074   3.006   0.392  13.411 -0.1852  1.3435  0.2069
  403MPD2    H1 6075   3.333   0.498  13.157 -0.2033 -2.1858 -0.0774
  403MPD2    H2 6076   2.947   0.450  12.994 -0.1854  0.7785 -0.2834
  403MPD2    H3 6077   3.190   0.523  12.976 -1.6549 -3.1358 -2.0224
  403MPD2     N 6078   3.256   0.454  13.409  0.0193 -0.1563  0.7472
  403MPD2    H5 6079   3.208   0.435  13.497  0.6109  0.5721  1.2325
  403MPD2    N1 6080   2.830   0.353  13.189 -0.6322  0.0993  0.0902
  403MPD2    H7 6081   2.777   0.350  13.103  0.6435 -0.5541 -0.6622
  404TMC3    C1 6082   2.641   0.246  13.252  0.0611  0.3450  0.1998
  404TMC3    C2 6083   2.613   0.119  13.297 -0.8117  0.6214 -0.0528
  404TMC3    C3 6084   2.564   0.023  13.204  0.7311 -0.2560  0.4100
  404TMC3    C4 6085   2.614   0.282  13.121 -0.6891  0.1114 -0.1682
  404TMC3    C5 6086   2.579   0.183  13.030  0.4815 -0.4049  0.2951
  404TMC3    C6 6087   2.559   0.057  13.069  0.7897  0.1777 -0.5069
  404TMC3     C 6088   2.763   0.295  13.297 -0.7655 -0.7881 -0.1164
  404TMC3     O 6089   2.796   0.271  13.415  0.3941 -0.2186  0.5842
  404TMC3     H 6090   2.644   0.078  13.392  3.5458 -1.3870 -2.3342
  404TMC3    H1 6091   2.598   0.387  13.103  4.3824  0.7354 -0.9853
  404TMC3    H2 6092   2.526   4.727  12.991  1.4556 -1.1302  0.3539
  404TMC3    C7 6093   2.657   0.207  12.914 -0.2313  0.6954 -0.0454
  404TMC3    C8 6094   2.519   4.631  13.241  0.0217 -0.9368 -0.6931
  404TMC3    O1 6095   2.727   0.307  12.932  0.0786  0.1697 -0.7350
  404TMC3    O2 6096   2.496   4.546  13.157  0.0732  0.1676 -0.0303
  405MPD2     C 6097   3.427   1.384  15.344  0.0478  0.3478  0.2173
  405MPD2    C1 6098   3.401   1.265  15.273 -0.7800 -0.2606 -0.9035
  405MPD2    C2 6099   3.290   1.270  15.194 -0.0584 -0.0776  0.2107
  405MPD2    C3 6100   3.210   1.381  15.176  0.2966  0.1081 -0.5110
  405MPD2    C4 6101   3.251   1.497  15.229 -0.4736  0.0013  0.1763
  405MPD2    C5 6102   3.359   1.498  15.316  0.0691 -0.3425  0.5368
  405MPD2     H 6103   3.263   1.176  15.147 -3.1555  0.7143  0.3918
  405MPD2    H1 6104   3.188   1.585  15.227 -2.1596 -1.2112  0.3148
  405MPD2    H2 6105   3.517   1.389  15.404 -0.2003  0.5280  0.5726
  405MPD2    H3 6106   3.392   1.584  15.373  0.9033 -2.0350  2.5934
  405MPD2     N 6107   3.089   1.360  15.099  0.0383 -0.3786 -0.6726
  405MPD2    H5 6108   3.081   1.268  15.057  1.1478  0.2598 -2.2294
  405MPD2    N1 6109   3.462   1.139  15.289 -0.4372 -0.8917 -0.5998
  405MPD2    H7 6110   3.427   1.064  15.231  0.2696 -1.1084 -0.7433
  406TMC3    C1 6111   2.680   1.366  14.900  0.7656  0.0666 -0.0837
  406TMC3    C2 6112   2.660   1.239  14.941  0.0897  0.3416  0.2705
  406TMC3    C3 6113   2.747   1.185  15.027  0.1248 -0.1580 -0.4646
  406TMC3    C4 6114   2.792   1.444  14.941  0.2805 -0.8175 -0.6354
  406TMC3    C5 6115   2.872   1.388  15.036 -0.1639  0.5436  0.0665
  406TMC3    C6 6116   2.850   1.259  15.080 -0.2930 -0.1525  0.1415
  406TMC3     C 6117   2.586   1.421  14.811 -0.0506 -0.8147  0.0217
  406TMC3     O 6118   2.478   1.366  14.799  0.1765 -0.0297 -0.3174
  406TMC3     H 6119   2.575   1.178  14.911 -1.2313  1.3202  1.9752
  406TMC3    H1 6120   2.809   1.546  14.908  0.1473 -0.3246  0.7806
  406TMC3    H2 6121   2.902   1.215  15.164 -0.3541  0.5609  0.5476
  406TMC3    C7 6122   2.992   1.452  15.076  0.0463 -0.0771  0.3616
  406TMC3    C8 6123   2.744   1.047  15.062 -0.3098 -0.7079  0.4500
  406TMC3    O1 6124   2.998   1.575  15.059 -0.2158 -0.0568 -0.0120
  406TMC3    O2 6125   2.635   0.992  15.039 -0.5200  0.7578  0.1271
  407MPD2     C 6126   1.079   2.180   9.612  0.1177 -0.0485 -0.4077
  407MPD2    C1 6127   1.209   2.171   9.652 -0.4008 -0.3192 -0.3093
  407MPD2    C2 6128   1.264   2.247   9.754  0.3127 -0.5073  0.4151
  407MPD2    C3 6129   1.185   2.347   9.812  0.6501 -0.1546  0.0758
  407MPD2    C4 6130   1.047   2.367   9.768  0.4563 -0.8370 -0.1808
  407MPD2    C5 6131   0.999   2.285   9.664  0.5289  0.3117 -0.3071
  407MPD2     H 6132   1.369   2.237   9.779 -0.1342 -2.0520  1.6948
  407MPD2    H1 6133   0.984   2.448   9.805 -0.3793 -0.5032 -2.3316
  407MPD2    H2 6134   1.038   2.122   9.530  0.2499  0.8243 -1.0840
  407MPD2    H3 6135   0.896   2.295   9.633 -0.0088 -0.1885  1.3344
  407MPD2     N 6136   1.232   2.432   9.908 -0.1651 -0.5488  0.8254
  407MPD2    H5 6137   1.169   2.510   9.928 -0.4164  0.2971 -3.1658
  407MPD2    N1 6138   1.301   2.087   9.590  0.3414 -0.0501  0.4172
  407MPD2    H7 6139   1.399   2.104   9.607  0.8655 -0.3360 -2.2778
  408TMC3    C1 6140   1.374   1.897   9.484  0.8077  0.1508  0.4846
  408TMC3    C2 6141   1.447   1.970   9.400  0.5258  0.3659  0.1985
  408TMC3    C3 6142   1.542   1.907   9.323  0.1341 -0.3731  0.1947
  408TMC3    C4 6143   1.384   1.759   9.495 -0.0054 -0.3480  0.6630
  408TMC3    C5 6144   1.481   1.693   9.428 -0.3080  0.4486  0.3061
  408TMC3    C6 6145   1.562   1.767   9.338  0.8290  0.0279 -0.7611
  408TMC3     C 6146   1.257   1.963   9.544 -0.6377 -0.4950 -0.3163
  408TMC3     O 6147   1.154   1.895   9.552  0.2503 -0.1977 -0.1903
  408TMC3     H 6148   1.434   2.076   9.387  0.0346  0.5499  2.1618
  408TMC3    H1 6149   1.320   1.695   9.555 -0.5652 -0.6568 -0.2720
  408TMC3    H2 6150   1.642   1.720   9.281  1.6653 -0.4243  0.7969
  408TMC3    C7 6151   1.520   1.559   9.466 -0.0322  0.4259 -0.1871
  408TMC3    C8 6152   1.660   1.983   9.294  0.4277  0.9987 -0.6927
  408TMC3    O1 6153   1.456   1.517   9.563  0.1278 -0.7038 -0.0441
  408TMC3    O2 6154   1.759   1.914   9.271 -0.5391 -0.0297 -0.2276
  409MPD2     C 6155   0.725   3.956  16.790  0.2025  0.0889 -0.1954
  409MPD2    C1 6156   0.838   3.939  16.866  0.6621  0.2967  0.0950
  409MPD2    C2 6157   0.934   4.041  16.864 -0.1781  0.1084  1.2638
  409MPD2    C3 6158   0.923   4.151  16.777 -0.6359  0.6852  0.0996
  409MPD2    C4 6159   0.810   4.162  16.700  0.0964 -0.4496 -0.7761
  409MPD2    C5 6160   0.720   4.065  16.704 -0.3536  0.4414 -0.0122
  409MPD2     H 6161   1.013   4.035  16.937  0.1106  0.5788  0.9868
  409MPD2    H1 6162   0.784   4.248  16.639 -1.2916  0.7475  1.5465
  409MPD2    H2 6163   0.652   3.876  16.784 -0.4988  0.6480  0.8857
  409MPD2    H3 6164   0.639   4.066  16.632 -1.2588  1.0231  0.9997
  409MPD2     N 6165   1.030   4.247  16.762 -0.3182 -0.0173 -0.3819
  409MPD2    H5 6166   1.028   4.318  16.689 -0.4149 -1.0585 -1.3817
  409MPD2    N1 6167   0.849   3.838  16.963 -0.1229 -0.0544 -0.4920
  409MPD2    H7 6168   0.920   3.839  17.035 -0.1161 -0.1364 -0.4975
  410TMC3    C1 6169   1.252   4.335  16.789 -0.0472 -0.0835 -1.1784
  410TMC3    C2 6170   1.375   4.276  16.816 -1.0244  0.3672  0.3179
  410TMC3    C3 6171   1.473   4.293  16.725 -0.1247 -0.4835 -0.5391
  410TMC3    C4 6172   1.228   4.401  16.677  0.1839 -0.1837 -0.0438
  410TMC3    C5 6173   1.326   4.405  16.578  0.3369  0.1350  0.3264
  410TMC3    C6 6174   1.447   4.352  16.606 -0.4610  0.2225  0.1197
  410TMC3     C 6175   1.144   4.248  16.840 -0.0858  0.0275 -0.3582
  410TMC3     O 6176   1.175   4.187  16.944 -0.6884 -0.1002 -0.1170
  410TMC3     H 6177   1.397   4.222  16.907  0.0704  2.4172  1.2655
  410TMC3    H1 6178   1.134   4.456  16.678  1.4654  1.9698  1.8884
  410TMC3    H2 6179   1.523   4.370  16.531 -0.4941  0.7090  0.2073
  410TMC3    C7 6180   1.318   4.469  16.449  0.0403 -0.5711 -0.2975
  410TMC3    C8 6181   1.611   4.299  16.761  0.6931 -0.2428  0.1682
  410TMC3    O1 6182   1.400   4.451  16.366  0.4154 -0.0821 -0.5733
  410TMC3    O2 6183   1.692   4.344  16.680  0.6042  0.8366  0.6780
  411MPD2     C 6184   0.966   4.090  14.781 -0.1418  0.2638 -0.2050
  411MPD2    C1 6185   0.852   4.098  14.863  0.8180  0.3125 -0.5045
  411MPD2    C2 6186   0.790   3.977  14.901  0.6419  0.4681 -0.0135
  411MPD2    C3 6187   0.846   3.852  14.868 -0.0858  0.4432  0.1491
  411MPD2    C4 6188   0.970   3.846  14.802 -0.7485 -0.3036  0.3263
  411MPD2    C5 6189   1.024   3.965  14.757  0.0937 -0.6638 -0.1755
  411MPD2     H 6190   0.703   3.982  14.966  0.6581  0.2399  0.0253
  411MPD2    H1 6191   1.018   3.756  14.766 -0.1845 -1.0839  2.9909
  411MPD2    H2 6192   1.009   4.179  14.736 -1.6561  0.9603 -0.2881
  411MPD2    H3 6193   1.111   3.964  14.693  0.4678 -1.3733  0.3446
  411MPD2     N 6194   0.781   3.731  14.903 -0.0476  0.3723 -0.5915
  411MPD2    H5 6195   0.818   3.639  14.882 -1.2126 -0.2293 -0.0105
  411MPD2    N1 6196   0.817   4.228  14.895  0.6474 -0.0546 -0.8449
  411MPD2    H7 6197   0.864   4.299  14.841 -1.4717  0.8478 -1.4958
  412TMC3    C1 6198   0.608   3.581  14.953  0.4116  0.1109 -0.2738
  412TMC3    C2 6199   0.473   3.558  14.939  0.4812 -0.7416 -0.5344
  412TMC3    C3 6200   0.431   3.425  14.950  0.3002  0.3126  0.0073
  412TMC3    C4 6201   0.700   3.486  14.975 -0.0568 -0.6204  0.1468
  412TMC3    C5 6202   0.653   3.361  14.992  0.6461 -0.1041 -0.4193
  412TMC3    C6 6203   0.519   3.329  14.979  0.5367  0.1314 -0.0433
  412TMC3     C 6204   0.651   3.720  14.950  0.3134 -0.2532  0.1750
  412TMC3     O 6205   0.562   3.803  14.963 -0.4168 -0.5873 -0.6690
  412TMC3     H 6206   0.406   3.641  14.922 -0.1072 -1.5122 -1.9729
  412TMC3    H1 6207   0.806   3.506  14.985 -0.6719  1.3755  2.6834
  412TMC3    H2 6208   0.488   3.234  15.019 -2.4925  1.1253 -0.0156
  412TMC3    C7 6209   0.727   3.267  14.916  0.3888 -0.0576  0.2717
  412TMC3    C8 6210   0.342   3.377  14.848  0.1376 -0.7566  0.4104
  412TMC3    O1 6211   0.850   3.258  14.938  0.5312  0.1923 -0.5073
  412TMC3    O2 6212   0.357   3.259  14.824 -0.3156  0.1015  0.2411
  413MPD2     C 6213   2.452   2.564  15.264 -0.0486  0.3013  0.3561
  413MPD2    C1 6214   2.399   2.472  15.180  0.1341 -0.2579 -0.3298
  413MPD2    C2 6215   2.458   2.344  15.183  0.0646 -0.2885 -0.4051
  413MPD2    C3 6216   2.564   2.312  15.256 -0.3386 -0.8557 -0.1261
  413MPD2    C4 6217   2.627   2.412  15.331 -0.1420 -0.0024  0.2497
  413MPD2    C5 6218   2.563   2.535  15.328 -0.3663  0.0930  0.2510
  413MPD2     H 6219   2.397   2.266  15.138 -1.4299  1.4586 -1.4201
  413MPD2    H1 6220   2.718   2.407  15.390  0.1054  1.3928  0.0033
  413MPD2    H2 6221   2.418   2.667  15.261  0.0783  0.3279 -0.2828
  413MPD2    H3 6222   2.615   2.606  15.391  0.3442 -0.9941  0.8885
  413MPD2     N 6223   2.613   2.182  15.246 -0.5837 -0.2792  0.2271
  413MPD2    H5 6224   2.564   2.117  15.186 -1.4623  1.3811 -0.8686
  413MPD2    N1 6225   2.291   2.515  15.100 -0.5276 -0.4957  0.1853
  413MPD2    H7 6226   2.251   2.608  15.100  3.8660  1.4157  0.4662
  414TMC3    C1 6227   2.754   1.995  15.243 -0.7017 -0.1954  0.3843
  414TMC3    C2 6228   2.836   1.915  15.322 -0.0608 -0.4940  0.0752
  414TMC3    C3 6229   2.838   1.779  15.291  0.4781  0.1287  0.3982
  414TMC3    C4 6230   2.687   1.952  15.130  0.5905 -0.3696 -0.6606
  414TMC3    C5 6231   2.707   1.821  15.107 -0.2750  0.3588 -0.1259
  414TMC3    C6 6232   2.770   1.731  15.184  0.3170  0.0143  0.7629
  414TMC3     C 6233   2.727   2.130  15.300  0.2834 -0.1377  0.1446
  414TMC3     O 6234   2.803   2.171  15.389 -0.0125 -0.5010 -0.3643
  414TMC3     H 6235   2.877   1.961  15.411 -0.9820 -2.1899  1.3892
  414TMC3    H1 6236   2.643   2.011  15.051 -2.0225 -0.1034  0.9904
  414TMC3    H2 6237   2.762   1.633  15.139  1.4183  0.0405  0.5027
  414TMC3    C7 6238   2.630   1.757  15.000 -0.0273  0.4454  0.0746
  414TMC3    C8 6239   2.929   1.689  15.355 -0.3940 -0.4495 -0.1937
  414TMC3    O1 6240   2.563   1.661  15.036 -0.3816  0.2484 -0.2106
  414TMC3    O2 6241   2.908   1.568  15.352  0.1681  0.6835  0.4555
  415TMC3    C1 6242   4.032   4.708  10.248  0.3167 -1.0333  0.3020
  415TMC3    C2 6243   4.122   0.021  10.164  0.0935  0.2365  0.1420
  415TMC3    C3 6244   4.196   4.674  10.082  0.2370  0.7693  0.2747
  415TMC3    C4 6245   3.998   4.576  10.241 -0.4530  0.2033  0.4458
  415TMC3    C5 6246   4.060   4.492  10.149 -0.2515  0.1529  0.1633
  415TMC3    C6 6247   4.163   4.538  10.073 -0.2147  0.6801 -0.1081
  415TMC3     C 6248   4.010   0.033  10.380 -0.1152 -0.2147  0.8325
  415TMC3     O 6249   3.933   4.708  10.448  0.0323 -0.6962 -0.2080
  415TMC3     H 6250   4.142   0.127  10.174 -0.6948  0.5804 -1.9748
  415TMC3    H1 6251   3.932   4.532  10.315 -0.3415 -1.6855 -0.5971
  415TMC3    H2 6252   4.224   4.483  10.001  0.0635 -0.7832  1.2483
  415TMC3    C7 6253   4.005   4.363  10.126 -0.4362  0.1605 -0.1914
  415TMC3    C8 6254   4.317   4.711  10.011 -0.4904  0.1069  1.0764
  415TMC3    O1 6255   4.014   4.318  10.009  0.1025 -0.3055 -0.1609
  415TMC3    O2 6256   4.390   4.623   9.964  0.4463 -0.6521 -0.1304
  416MPD2     C 6257   0.688   3.418  11.191  0.1539 -0.3006  0.7518
  416MPD2    C1 6258   0.568   3.360  11.230 -0.0529  0.9332 -0.7866
  416MPD2    C2 6259   0.539   3.232  11.207  0.2149  0.4358  0.1324
  416MPD2    C3 6260   0.623   3.159  11.122 -0.4970 -0.1866 -0.3290
  416MPD2    C4 6261   0.750   3.207  11.092  0.0147  0.0602  1.0840
  416MPD2    C5 6262   0.779   3.337  11.134 -0.1133  0.1012  0.4952
  416MPD2     H 6263   0.448   3.183  11.241  0.6083 -0.4903 -0.1653
  416MPD2    H1 6264   0.820   3.141  11.042 -0.8893 -0.0789 -0.0254
  416MPD2    H2 6265   0.705   3.525  11.202 -1.8731  0.1397 -0.3496
  416MPD2    H3 6266   0.881   3.372  11.126  0.4252 -1.5867 -0.1509
  416MPD2     N 6267   0.580   3.032  11.064 -0.2859 -0.0828  0.0826
  416MPD2    H5 6268   0.504   2.984  11.112  0.5086 -1.1550  0.2602
  416MPD2    N1 6269   0.474   3.442  11.303  0.6413 -0.3733 -0.3519
  416MPD2    H7 6270   0.480   3.542  11.291 -1.0869 -0.0419  1.6027
  417TMC3    C1 6271   0.266   3.489  11.412 -0.5588  0.0466  0.2440
  417TMC3    C2 6272   0.190   3.484  11.524 -0.3870  0.4867  0.1231
  417TMC3    C3 6273   0.088   3.574  11.544  0.0396 -0.6797  0.3641
  417TMC3    C4 6274   0.229   3.575  11.311 -0.1776  0.2157 -0.0278
  417TMC3    C5 6275   0.118   3.651  11.327 -0.4309  0.5641  0.2026
  417TMC3    C6 6276   0.046   3.661  11.439 -0.2033  0.3618  0.4308
  417TMC3     C 6277   0.376   3.394  11.388  0.0339 -0.1725  0.3261
  417TMC3     O 6278   0.371   3.284  11.439  0.2745  0.6605 -0.0354
  417TMC3     H 6279   0.225   3.418  11.602 -0.3841  0.2511 -0.0765
  417TMC3    H1 6280   0.276   3.573  11.213 -1.4704 -2.4663 -0.5964
  417TMC3    H2 6281   4.703   3.733  11.450 -0.1802  0.4375  0.1140
  417TMC3    C7 6282   0.075   3.719  11.207 -0.1196  0.3716  0.6754
  417TMC3    C8 6283   0.028   3.607  11.671 -0.2224  0.0387 -0.9432
  417TMC3    O1 6284   0.147   3.704  11.107 -0.1758  0.0832 -0.2627
  417TMC3    O2 6285   4.685   3.696  11.664  0.1471 -0.3331 -0.1888
  418TMC3    C1 6286   3.873   1.571   0.840  0.3205 -0.3121  0.1990
  418TMC3    C2 6287   3.752   1.649   0.843  0.1151  0.4186 -0.2255
  418TMC3    C3 6288   3.667   1.612   0.944  0.9993 -0.5077 -0.2799
  418TMC3    C4 6289   3.895   1.459   0.918 -0.2028  0.4580  0.1117
  418TMC3    C5 6290   3.805   1.432   1.017  0.0282 -0.2163  0.4428
  418TMC3    C6 6291   3.690   1.509   1.031  0.7722 -0.7938  0.4472
  418TMC3     C 6292   3.957   1.599   0.730 -0.0419 -0.0537 -0.0090
  418TMC3     O 6293   3.946   1.707   0.674 -0.2531  0.1500  0.7717
  418TMC3     H 6294   3.737   1.732   0.774  0.3621  1.4959  1.0148
  418TMC3    H1 6295   3.986   1.400   0.911 -0.2534  0.4995 -0.8827
  418TMC3    H2 6296   3.604   1.497   1.096  2.1768 -0.3871  2.3920
  418TMC3    C7 6297   3.793   1.290   1.050  0.0787  0.9506  0.5255
  418TMC3    C8 6298   3.534   1.598   0.895 -0.1422 -0.3749  0.2282
  418TMC3    O1 6299   3.859   1.215   0.976 -0.3566  0.0186 -0.6520
  418TMC3    O2 6300   3.449   1.683   0.926  0.0455 -0.1510  0.1746
  419MPD2     C 6301   2.825   3.153  12.286 -0.0601  0.2303  0.3218
  419MPD2    C1 6302   2.706   3.210  12.245  0.1467  0.5643  0.3331
  419MPD2    C2 6303   2.614   3.240  12.338  0.1466 -0.3903  0.2567
  419MPD2    C3 6304   2.623   3.181  12.465  0.1860 -0.6277 -0.0666
  419MPD2    C4 6305   2.738   3.105  12.494 -0.2390  0.3982  0.0013
  419MPD2    C5 6306   2.842   3.110  12.411  0.4829 -0.1570  0.4244
  419MPD2     H 6307   2.519   3.278  12.302  0.8344 -2.6740 -3.9949
  419MPD2    H1 6308   2.762   3.063  12.591  1.2596  1.7076  0.1936
  419MPD2    H2 6309   2.912   3.162  12.222  0.1276 -0.1791  0.5228
  419MPD2    H3 6310   2.941   3.080  12.444  1.7248  0.9403 -2.2775
  419MPD2     N 6311   2.509   3.190  12.542  0.6466  0.8433 -0.0431
  419MPD2    H5 6312   2.425   3.235  12.507  0.6281 -0.5981 -1.8131
  419MPD2    N1 6313   2.688   3.250  12.113  0.0788  0.0176  0.3467
  419MPD2    H7 6314   2.604   3.301  12.087 -0.6590 -1.4909 -0.1855
  420TMC3    C1 6315   2.356   3.144  12.705  0.1611 -0.3183  0.6277
  420TMC3    C2 6316   2.275   3.192  12.604 -0.4297  0.9824 -0.4712
  420TMC3    C3 6317   2.180   3.281  12.644  0.1259 -0.1242 -0.4460
  420TMC3    C4 6318   2.349   3.179  12.837 -0.6292 -0.1568 -0.6798
  420TMC3    C5 6319   2.256   3.278  12.870 -0.6016 -0.1833  0.0028
  420TMC3    C6 6320   2.164   3.324  12.776 -0.4231 -0.2799  0.5578
  420TMC3     C 6321   2.495   3.131  12.661 -0.5972 -0.5298 -0.3551
  420TMC3     O 6322   2.578   3.083  12.732  0.5120  0.7544  0.0789
  420TMC3     H 6323   2.278   3.143  12.507  1.6032 -2.4239  1.3081
  420TMC3    H1 6324   2.429   3.146  12.902  0.6658  1.5908 -1.3601
  420TMC3    H2 6325   2.086   3.395  12.802  0.0887 -0.4603  2.5950
  420TMC3    C7 6326   2.266   3.319  13.004  0.2702 -0.6780  0.1168
  420TMC3    C8 6327   2.075   3.326  12.547  0.1286  0.3779 -0.1583
  420TMC3    O1 6328   2.324   3.243  13.082 -0.0206  0.5767  0.2316
  420TMC3    O2 6329   1.994   3.404  12.593  0.7249  0.4351  0.5999
  421TMC3    C1 6330   3.437   0.497  13.536  0.5200  0.1077  0.7152
  421TMC3    C2 6331   3.401   0.617  13.592 -0.4741 -0.7031  0.2912
  421TMC3    C3 6332   3.475   0.653  13.704 -0.0641 -0.4854  0.1569
  421TMC3    C4 6333   3.552   0.429  13.572 -0.1234  0.3137 -0.2104
  421TMC3    C5 6334   3.623   0.478  13.678  0.1524  0.5772 -0.5260
  421TMC3    C6 6335   3.593   0.594  13.745  1.0242  1.1629  0.2918
  421TMC3     C 6336   3.393   0.473  13.402 -0.0985 -0.4205 -0.8983
  421TMC3     O 6337   3.483   0.457  13.325  0.5585  0.3833 -0.4847
  421TMC3     H 6338   3.301   0.655  13.572 -0.2897 -1.2759 -1.7897
  421TMC3    H1 6339   3.579   0.340  13.517 -2.7519  0.2227 -1.3886
  421TMC3    H2 6340   3.651   0.631  13.829 -0.2596 -1.5520  2.3822
  421TMC3    C7 6341   3.705   0.385  13.756 -0.2342  0.1878 -0.2071
  421TMC3    C8 6342   3.415   0.715  13.821  1.2187  0.4058 -0.1174
  421TMC3    O1 6343   3.800   0.442  13.809 -0.2535  0.8193 -0.7401
  421TMC3    O2 6344   3.425   0.650  13.926  0.6713 -0.0037 -0.0681
  422TMC3    C1 6345   1.219   1.583  12.531 -0.5017  0.0567 -0.3071
  422TMC3    C2 6346   1.162   1.699  12.576 -0.0835 -0.0855  0.2426
  422TMC3    C3 6347   1.051   1.686  12.658  0.1628 -0.2399  0.1674
  422TMC3    C4 6348   1.173   1.455  12.552  0.4790 -0.2022  0.1205
  422TMC3    C5 6349   1.059   1.452  12.626  0.1519  0.1526  0.5815
  422TMC3    C6 6350   1.002   1.561  12.688  0.3796  0.4795 -0.2817
  422TMC3     C 6351   1.355   1.602  12.483 -0.2259 -0.1029  0.0918
  422TMC3     O 6352   1.402   1.714  12.491  0.2163 -0.1454 -0.3924
  422TMC3     H 6353   1.205   1.796  12.553  1.0513 -0.8098 -0.6683
  422TMC3    H1 6354   1.220   1.372  12.502 -1.2319 -2.0813  1.6146
  422TMC3    H2 6355   0.925   1.546  12.763  0.7938  0.0660  0.0602
  422TMC3    C7 6356   0.984   1.330  12.609 -0.5913 -0.0390 -0.4214
  422TMC3    C8 6357   0.986   1.806  12.684 -0.0871  0.2605  0.2901
  422TMC3    O1 6358   1.058   1.234  12.585  0.1285 -0.3247 -0.6572
  422TMC3    O2 6359   1.020   1.916  12.641  0.0481  0.1611 -0.2033
  423MPD2     C 6360   1.818   2.974   0.459 -0.5223  0.1331  0.6336
  423MPD2    C1 6361   1.905   2.865   0.479  0.0715 -0.0699 -0.4237
  423MPD2    C2 6362   1.937   2.781   0.374  0.2195  0.4151 -0.0169
  423MPD2    C3 6363   1.881   2.809   0.251  0.2891 -0.2590  0.6972
  423MPD2    C4 6364   1.804   2.921   0.224 -0.2414 -0.1127  0.2167
  423MPD2    C5 6365   1.769   2.998   0.332  0.1673 -0.7414 -0.2302
  423MPD2     H 6366   1.983   2.684   0.389  0.8760  0.8140  0.4962
  423MPD2    H1 6367   1.775   2.943   0.121  0.6493  1.4058  0.2976
  423MPD2    H2 6368   1.790   3.041   0.540 -0.5975 -0.8378  1.3999
  423MPD2    H3 6369   1.709   3.087   0.314  1.9410  0.6110  0.6171
  423MPD2     N 6370   1.915   2.736   0.136 -0.0210  0.0381 -0.9878
  423MPD2    H5 6371   1.863   2.758   0.052 -1.9919  1.3669  0.5928
  423MPD2    N1 6372   1.962   2.836   0.609  0.5001  0.1707 -0.4292
  423MPD2    H7 6373   2.033   2.764   0.599  1.1041  0.6560  0.4114
  424TMC3    C1 6374   2.068   2.898   0.808 -0.9807 -0.2716 -0.4544
  424TMC3    C2 6375   2.110   2.772   0.828 -0.6091  0.5552  0.9312
  424TMC3    C3 6376   2.240   2.759   0.876 -0.4070  0.1606  0.2877
  424TMC3    C4 6377   2.143   3.005   0.848  0.7474 -0.0072  0.3078
  424TMC3    C5 6378   2.260   2.986   0.911  0.9329 -0.6159 -0.4703
  424TMC3    C6 6379   2.316   2.868   0.919 -0.4870  0.0445 -0.2961
  424TMC3     C 6380   1.962   2.933   0.714  0.3443  0.0535 -0.4817
  424TMC3     O 6381   1.912   3.049   0.720  0.2429  0.2591  0.8322
  424TMC3     H 6382   2.049   2.687   0.801  1.4576 -1.2206  1.8256
  424TMC3    H1 6383   2.131   3.103   0.804 -0.7091  0.2688  1.3310
  424TMC3    H2 6384   2.413   2.853   0.964 -1.7915 -1.7304  1.8948
  424TMC3    C7 6385   2.342   3.101   0.937 -0.5352  0.2597 -0.3870
  424TMC3    C8 6386   2.276   2.624   0.914  0.0194 -0.2388 -0.6377
  424TMC3    O1 6387   2.462   3.089   0.966 -0.3590  0.3604  0.1294
  424TMC3    O2 6388   2.193   2.533   0.922 -0.0641 -0.3057 -0.1969
  425MPD2     C 6389   1.444   2.235  17.110 -0.6712 -0.2333  0.3883
  425MPD2    C1 6390   1.336   2.160  17.142  0.4473 -0.3377 -0.4273
  425MPD2    C2 6391   1.226   2.211  17.202  0.3734  0.9250 -0.0441
  425MPD2    C3 6392   1.217   2.340  17.235 -0.6107 -0.2700  0.0712
  425MPD2    C4 6393   1.328   2.418  17.218 -0.5817  0.4154  0.3551
  425MPD2    C5 6394   1.435   2.373  17.141 -0.6030  0.4194  0.5549
  425MPD2     H 6395   1.144   2.143  17.222  3.0067 -1.9864  0.8095
  425MPD2    H1 6396   1.333   2.524  17.243 -2.1493 -0.0716  2.6629
  425MPD2    H2 6397   1.533   2.195  17.063 -0.6433  1.3869 -0.9403
  425MPD2    H3 6398   1.519   2.433  17.106  0.6279 -1.3923  0.4245
  425MPD2     N 6399   1.101   2.388  17.295  0.5690  0.1371  0.0071
  425MPD2    H5 6400   1.031   2.318  17.318  0.7434  0.3044  1.0589
  425MPD2    N1 6401   1.351   2.017  17.115  0.0734 -0.0549  0.3373
  425MPD2    H7 6402   1.434   1.988  17.065  1.7734  2.6266  1.5938
  426TMC3    C1 6403   1.313   1.791  17.122 -0.1255  0.6449 -0.3554
  426TMC3    C2 6404   1.328   1.770  16.989 -0.3987 -0.3733  0.3995
  426TMC3    C3 6405   1.331   1.647  16.939  0.3060 -0.0845 -0.3556
  426TMC3    C4 6406   1.278   1.690  17.209  0.3232 -0.3851 -0.3693
  426TMC3    C5 6407   1.292   1.566  17.160 -0.1197  0.2256  0.2799
  426TMC3    C6 6408   1.316   1.541  17.025 -0.3587 -0.1116 -0.5206
  426TMC3     C 6409   1.273   1.922  17.169  0.4866 -0.0416  0.1377
  426TMC3     O 6410   1.180   1.926  17.250  0.1516  0.0993  0.1325
  426TMC3     H 6411   1.334   1.857  16.925  0.5223 -0.0799  0.8903
  426TMC3    H1 6412   1.262   1.722  17.312  2.1048 -0.5154 -0.0506
  426TMC3    H2 6413   1.316   1.438  16.991 -1.2156 -0.2447 -0.1160
  426TMC3    C7 6414   1.227   1.452  17.225  0.1280 -0.4641  0.2054
  426TMC3    C8 6415   1.274   1.633  16.808  0.1632 -0.7617 -0.1609
  426TMC3    O1 6416   1.221   1.347  17.162  0.2142  0.1726  0.2493
  426TMC3    O2 6417   1.308   1.532  16.750 -0.2060 -0.0252 -0.2221
  427MPD2     C 6418   4.494   3.632  14.987  0.4598  0.0607  0.2327
  427MPD2    C1 6419   4.540   3.737  15.057  0.2749  0.5013 -0.1903
  427MPD2    C2 6420   4.501   3.870  15.032 -0.8352 -0.8115  0.0062
  427MPD2    C3 6421   4.409   3.892  14.928 -0.5539  0.6851  0.3311
  427MPD2    C4 6422   4.360   3.783  14.866  0.0691  1.0402 -0.2457
  427MPD2    C5 6423   4.401   3.660  14.893 -0.4433 -0.0977  0.0357
  427MPD2     H 6424   4.539   3.952  15.091 -0.6667 -0.3160 -0.7808
  427MPD2    H1 6425   4.277   3.782  14.795  0.3607  0.1882 -0.5711
  427MPD2    H2 6426   4.525   3.528  14.989  0.0923 -0.0303  1.1319
  427MPD2    H3 6427   4.356   3.580  14.834  0.3218  0.2719 -1.0277
  427MPD2     N 6428   4.351   4.017  14.901 -0.3110 -0.3195 -0.2997
  427MPD2    H5 6429   4.279   4.022  14.830 -1.8970 -2.1370  1.1876
  427MPD2    N1 6430   4.627   3.715  15.172 -0.4519  0.4906  0.2252
  427MPD2    H7 6431   4.665   3.797  15.217  0.8612  1.1783 -2.1142
  428TMC3    C1 6432   0.007   3.600  15.334 -0.2299 -0.1065 -0.1884
  428TMC3    C2 6433   0.004   3.485  15.409  0.1568 -0.2239  0.3682
  428TMC3    C3 6434   0.067   3.495  15.534 -0.6124 -0.1477  0.7457
  428TMC3    C4 6435   0.076   3.714  15.369 -0.0004 -0.1552  0.2460
  428TMC3    C5 6436   0.144   3.714  15.485  0.4286 -0.0993  0.0594
  428TMC3    C6 6437   0.143   3.604  15.568 -0.0943 -0.3107  0.1276
  428TMC3     C 6438   4.661   3.591  15.220  0.8401 -0.3310  0.4627
  428TMC3     O 6439   4.603   3.484  15.197 -0.0338  0.3087 -0.1477
  428TMC3     H 6440   4.676   3.401  15.391 -0.5376 -0.1662  2.6940
  428TMC3    H1 6441   0.080   3.802  15.305 -0.1278 -0.7835 -0.6160
  428TMC3    H2 6442   0.200   3.595  15.659  1.0905 -0.5136 -0.6342
  428TMC3    C7 6443   0.230   3.821  15.524  0.2803  0.0849  0.4963
  428TMC3    C8 6444   0.025   3.399  15.633  1.0918 -0.4295 -0.8712
  428TMC3    O1 6445   0.240   3.840  15.648 -0.2315 -0.8131 -0.7017
  428TMC3    O2 6446   4.727   3.288  15.597  0.4690 -0.1381  0.5177
  429MPD2     C 6447   1.271   0.041  17.547  0.3296  0.2016  0.1619
  429MPD2    C1 6448   1.329   4.686  17.466  0.2588 -0.6317  0.5294
  429MPD2    C2 6449   1.335   4.717  17.328  0.1848 -0.0598 -0.1523
  429MPD2    C3 6450   1.291   0.099  17.274  0.6209 -0.0951 -0.4435
  429MPD2    C4 6451   1.228   0.184  17.359  0.0767 -0.6703  0.5709
  429MPD2    C5 6452   1.220   0.156  17.493 -0.1597  0.2128 -0.3143
  429MPD2     H 6453   1.386   4.642  17.269 -0.0000  0.1497 -0.5802
  429MPD2    H1 6454   1.196   0.285  17.338 -2.6798 -1.6797  0.0245
  429MPD2    H2 6455   1.271   0.036  17.655  0.7254 -0.1289  0.1447
  429MPD2    H3 6456   1.186   0.230  17.565  2.2862 -0.3582  1.4414
  429MPD2     N 6457   1.327   0.131  17.138  0.0852  0.2992 -0.0413
  429MPD2    H5 6458   1.376   0.062  17.081 -0.3963 -0.2193  0.1743
  429MPD2    N1 6459   1.389   4.568  17.507  0.2959  0.1008  0.8432
  429MPD2    H7 6460   1.434   4.516  17.432 -0.5365 -1.6336  1.5569
  430TMC3    C1 6461   1.331   0.261  16.941  0.0186 -0.5373  0.0726
  430TMC3    C2 6462   1.226   0.316  16.872  0.3093  0.8382 -0.4363
  430TMC3    C3 6463   1.189   0.266  16.749  0.3564 -0.4606  0.9362
  430TMC3    C4 6464   1.393   0.156  16.881 -0.0083 -0.0673  0.5402
  430TMC3    C5 6465   1.364   0.117  16.753  0.2943 -0.4126 -0.7130
  430TMC3    C6 6466   1.256   0.165  16.689 -0.6855  0.5923  0.3129
  430TMC3     C 6467   1.299   0.252  17.081 -0.0901 -0.1781 -0.2377
  430TMC3     O 6468   1.237   0.342  17.133 -0.5780 -0.3417  0.0642
  430TMC3     H 6469   1.164   0.392  16.918  0.1519  1.5500 -1.8138
  430TMC3    H1 6470   1.490   0.122  16.917  0.3928  0.8437  0.3216
  430TMC3    H2 6471   1.229   0.124  16.592  3.1861 -0.0151 -0.5072
  430TMC3    C7 6472   1.447   0.022  16.685  0.1241  0.4658 -0.7157
  430TMC3    C8 6473   1.047   0.273  16.710 -0.1829  0.1195  0.5935
  430TMC3    O1 6474   1.488   4.673  16.758  0.5797  0.3416  0.5601
  430TMC3    O2 6475   1.002   0.164  16.680  0.0554  0.2807 -0.0901
  431MPD2     C 6476   2.306   3.956  12.101  0.1072 -0.5079  0.5698
  431MPD2    C1 6477   2.417   3.979  12.033  0.6296  0.4329  0.1032
  431MPD2    C2 6478   2.478   3.875  11.958  0.3244 -0.4613 -0.1801
  431MPD2    C3 6479   2.426   3.742  11.970  0.3805 -0.0162  0.1247
  431MPD2    C4 6480   2.319   3.721  12.050  0.3971  0.4742  0.0379
  431MPD2    C5 6481   2.244   3.832  12.101 -0.1178 -0.2253 -0.8843
  431MPD2     H 6482   2.562   3.899  11.893 -0.9113  2.5212 -0.6853
  431MPD2    H1 6483   2.279   3.621  12.057  0.9134  0.3012  0.4680
  431MPD2    H2 6484   2.250   4.039  12.142  0.0997 -0.2570  0.0424
  431MPD2    H3 6485   2.148   3.808  12.145 -0.3669  0.8025 -0.8595
  431MPD2     N 6486   2.494   3.630  11.909 -0.3063 -0.5346 -0.3738
  431MPD2    H5 6487   2.475   3.538  11.946  1.1944 -1.5566 -2.1170
  431MPD2    N1 6488   2.488   4.101  12.053  0.2382  0.1347  0.3776
  431MPD2    H7 6489   2.582   4.099  12.015  1.1915  1.5172  2.6646
  432TMC3    C1 6490   2.656   3.506  11.799  0.0668  0.7257 -0.0472
  432TMC3    C2 6491   2.731   3.483  11.689 -0.6226 -0.3891  0.3264
  432TMC3    C3 6492   2.797   3.364  11.673  0.4643 -0.2842  0.0998
  432TMC3    C4 6493   2.657   3.413  11.901  0.5277 -0.4138 -0.0212
  432TMC3    C5 6494   2.732   3.299  11.889  0.6138  0.2222 -0.3008
  432TMC3    C6 6495   2.800   3.276  11.771 -0.6113  0.2879  0.4099
  432TMC3     C 6496   2.598   3.634  11.819 -0.1271  0.3474 -0.5383
  432TMC3     O 6497   2.649   3.727  11.762  0.4578 -0.3075 -0.2025
  432TMC3     H 6498   2.742   3.561  11.614  1.3162 -0.2436  0.7640
  432TMC3    H1 6499   2.624   3.448  11.998  2.6647  0.0575  0.5526
  432TMC3    H2 6500   2.864   3.188  11.770  0.9432  1.4158 -1.1971
  432TMC3    C7 6501   2.771   3.227  12.007  0.1422  0.3136 -0.2392
  432TMC3    C8 6502   2.894   3.334  11.563 -0.0261  1.0744 -0.0513
  432TMC3    O1 6503   2.868   3.159  12.000  0.6022 -0.3007  0.0408
  432TMC3    O2 6504   2.915   3.218  11.529  0.3071  0.2690 -0.6011
  433MPD2     C 6505   1.491   2.741  10.953 -0.7897 -0.1714 -0.1389
  433MPD2    C1 6506   1.373   2.688  11.001  0.0024  0.3383  0.0399
  433MPD2    C2 6507   1.334   2.715  11.136  0.8681 -0.4897 -0.1041
  433MPD2    C3 6508   1.413   2.796  11.216 -0.0267 -0.6687  0.1294
  433MPD2    C4 6509   1.530   2.839  11.168  0.2230 -0.3894 -0.2719
  433MPD2    C5 6510   1.569   2.814  11.041  0.0547 -0.1605  0.4474
  433MPD2     H 6511   1.239   2.689  11.180  1.0962 -0.4502  0.4159
  433MPD2    H1 6512   1.595   2.911  11.217  1.1344 -0.8996 -0.7228
  433MPD2    H2 6513   1.526   2.706  10.857  2.3298  1.0638  0.5630
  433MPD2    H3 6514   1.668   2.838  11.005 -0.3798  1.8602  0.6350
  433MPD2     N 6515   1.364   2.826  11.348 -0.2951  0.0700  0.3428
  433MPD2    H5 6516   1.281   2.781  11.384 -1.0315  1.5779  0.5435
  433MPD2    N1 6517   1.300   2.611  10.908  0.6198 -0.3827  0.2703
  433MPD2    H7 6518   1.351   2.585  10.824  2.6009 -2.7898  2.2511
  434TMC3    C1 6519   1.165   2.437  10.843 -0.3363 -0.0257  0.1681
  434TMC3    C2 6520   1.162   2.313  10.894 -0.5355 -0.4848 -0.3376
  434TMC3    C3 6521   1.217   2.210  10.822  0.1597 -0.3631 -0.4134
  434TMC3    C4 6522   1.227   2.460  10.722  0.3084  0.3246  0.2883
  434TMC3    C5 6523   1.270   2.355  10.650  0.3041  0.2394  0.1364
  434TMC3    C6 6524   1.266   2.226  10.699  0.1842 -0.2330 -0.4978
  434TMC3     C 6525   1.184   2.547  10.942  0.0215 -0.0881  0.2291
  434TMC3     O 6526   1.127   2.531  11.053 -0.1732  0.4087  0.3784
  434TMC3     H 6527   1.126   2.298  10.996 -1.3696 -1.3925 -0.7646
  434TMC3    H1 6528   1.216   2.557  10.675  0.9495  0.5089  0.5251
  434TMC3    H2 6529   1.297   2.143  10.636  1.6672 -1.3892  1.7482
  434TMC3    C7 6530   1.207   2.372  10.521  0.3677 -0.3195  0.0093
  434TMC3    C8 6531   1.292   2.124  10.915 -0.4104  1.0708  1.2090
  434TMC3    O1 6532   1.229   2.482  10.466  0.8800  1.0734 -0.3211
  434TMC3    O2 6533   1.260   2.121  11.033  0.0976  0.1000 -0.2582
  435MPD2     C 6534   2.853   2.763  15.416  0.5924  0.7213  0.5281
  435MPD2    C1 6535   2.811   2.769  15.544  0.9241 -0.3087 -0.1870
  435MPD2    C2 6536   2.884   2.718  15.644  0.6246 -0.1056 -0.3045
  435MPD2    C3 6537   3.009   2.669  15.617 -0.0987 -0.0384  0.1060
  435MPD2    C4 6538   3.049   2.657  15.482 -0.0581 -0.1177  0.1365
  435MPD2    C5 6539   2.967   2.703  15.382 -0.6030 -0.0308  0.0932
  435MPD2     H 6540   2.850   2.728  15.747  0.0770  3.2396 -0.7888
  435MPD2    H1 6541   3.143   2.610  15.454  0.8313  1.6086  0.2558
  435MPD2    H2 6542   2.794   2.799  15.333  0.8847  0.6637  0.2958
  435MPD2    H3 6543   3.016   2.719  15.287  1.4680  1.8146  1.4844
  435MPD2     N 6544   3.091   2.626  15.730 -0.2573  0.2916 -0.0311
  435MPD2    H5 6545   3.047   2.631  15.822 -1.7505 -1.8225 -0.6446
  435MPD2    N1 6546   2.680   2.823  15.570  0.1814  0.1636 -0.5162
  435MPD2    H7 6547   2.643   2.806  15.663  3.0251 -1.3133  0.3440
  436TMC3    C1 6548   2.320   2.929  15.737 -0.0012 -0.0660 -0.3640
  436TMC3    C2 6549   2.444   2.903  15.676 -0.5206  0.6642 -0.7045
  436TMC3    C3 6550   2.454   2.893  15.540  0.0133  0.4572 -0.5650
  436TMC3    C4 6551   2.204   2.898  15.669  0.2777  0.6948  0.3908
  436TMC3    C5 6552   2.229   2.862  15.538 -0.2551 -0.1201  0.5085
  436TMC3    C6 6553   2.346   2.876  15.468 -0.2176  0.2832  0.0150
  436TMC3     C 6554   2.325   2.993  15.868 -0.2025  0.3249 -0.5111
  436TMC3     O 6555   2.434   3.035  15.898  0.2477 -0.3826 -0.6521
  436TMC3     H 6556   2.535   2.918  15.733  0.1618 -2.5770 -0.9442
  436TMC3    H1 6557   2.101   2.918  15.695  0.3490 -0.9117  1.9427
  436TMC3    H2 6558   2.354   2.851  15.364 -0.4070  0.5243 -0.0597
  436TMC3    C7 6559   2.140   2.772  15.478  0.4469  0.1439 -0.6404
  436TMC3    C8 6560   2.593   2.884  15.481  0.3252 -0.0565  0.4237
  436TMC3    O1 6561   2.179   2.721  15.373 -0.7579  0.1524  0.3120
  436TMC3    O2 6562   2.607   2.897  15.360 -0.9690  0.1226  0.1123
  437TMC3    C1 6563   2.425   4.688  11.479 -0.2128 -0.2392 -0.0626
  437TMC3    C2 6564   2.412   0.008  11.356  0.3241  0.0193  0.8595
  437TMC3    C3 6565   2.493   0.113  11.318 -0.5656 -0.4022  0.1988
  437TMC3    C4 6566   2.526   4.727  11.556  0.1499  0.3856 -0.2612
  437TMC3    C5 6567   2.617   0.082  11.507 -0.1770  0.7636 -0.3297
  437TMC3    C6 6568   2.598   0.157  11.394 -0.2484  0.1431 -0.0972
  437TMC3     C 6569   2.331   4.587  11.526 -0.3956 -0.3132  0.6146
  437TMC3     O 6570   2.268   4.530  11.436  0.1767  0.3507 -0.0056
  437TMC3     H 6571   2.334   4.709  11.290  1.1630 -2.3998  1.2256
  437TMC3    H1 6572   2.554   4.669  11.644 -0.2329  0.0484 -0.3636
  437TMC3    H2 6573   2.662   0.241  11.368  0.2070 -0.2807 -0.3609
  437TMC3    C7 6574   2.706   0.140  11.609  0.2519 -0.7303 -0.1505
  437TMC3    C8 6575   2.465   0.203  11.199 -0.2225  0.5684 -0.1209
  437TMC3    O1 6576   2.812   0.192  11.578 -0.1023 -0.1475 -0.1006
  437TMC3    O2 6577   2.562   0.260  11.143 -0.5107 -0.5910 -0.1457
  438MPD2     C 6578   4.002   1.254  16.889 -0.7569 -0.1724 -0.1477
  438MPD2    C1 6579   4.075   1.145  16.936  0.4868 -0.3109 -0.1349
  438MPD2    C2 6580   4.090   1.117  17.067 -0.0294 -0.0007  0.1266
  438MPD2    C3 6581   4.035   1.199  17.169 -0.1081  0.3900  0.8381
  438MPD2    C4 6582   3.968   1.310  17.118  0.5101 -0.3916  0.4481
  438MPD2    C5 6583   3.953   1.338  16.984 -0.1299  0.5630  0.3580
  438MPD2     H 6584   4.161   1.036  17.076 -0.3745  0.1780  4.5438
  438MPD2    H1 6585   3.917   1.375  17.188  0.1580  2.0027 -2.0557
  438MPD2    H2 6586   3.988   1.280  16.785  0.2734 -1.0434 -0.5033
  438MPD2    H3 6587   3.908   1.433  16.956 -0.6118 -0.0882 -1.0749
  438MPD2     N 6588   4.055   1.180  17.300  0.3828 -0.0492  0.2016
  438MPD2    H5 6589   4.024   1.261  17.353 -2.5666 -0.9142 -0.1992
  438MPD2    N1 6590   4.144   1.054  16.848 -0.0600  0.0362 -0.2194
  438MPD2    H7 6591   4.208   0.995  16.898  1.6924  1.2105 -1.0763
  439TMC3    C1 6592   4.235   0.958  16.653  0.5757 -0.5019 -0.7000
  439TMC3    C2 6593   4.202   0.897  16.536 -0.1472  0.4997 -0.5180
  439TMC3    C3 6594   4.292   0.805  16.484  0.0127  0.6669 -0.7302
  439TMC3    C4 6595   4.338   0.910  16.732 -1.0489  0.0614  0.2621
  439TMC3    C5 6596   4.419   0.819  16.675  0.1381 -0.3226 -1.1481
  439TMC3    C6 6597   4.408   0.772  16.550  0.6268 -0.3809  1.2599
  439TMC3     C 6598   4.147   1.054  16.711 -0.5737 -0.2837 -0.8576
  439TMC3     O 6599   4.070   1.115  16.634 -0.0410  0.2859  0.0345
  439TMC3     H 6600   4.125   0.943  16.476  1.0516  1.7039 -1.1437
  439TMC3    H1 6601   4.372   0.961  16.821 -3.1501  0.4602  0.8464
  439TMC3    H2 6602   4.471   0.688  16.526 -0.0709 -1.1310  2.0407
  439TMC3    C7 6603   4.534   0.777  16.751  0.1257  0.5377  0.5068
  439TMC3    C8 6604   4.252   0.717  16.380 -0.0758  0.5789 -0.3411
  439TMC3    O1 6605   4.521   0.780  16.872  0.6392 -0.5653  0.3205
  439TMC3    O2 6606   4.345   0.655  16.326 -0.2189  0.6108  0.6136
  440MPD2     C 6607   2.545   0.975  15.359 -0.2648 -0.2001  0.6581
  440MPD2    C1 6608   2.628   1.087  15.356 -0.0772 -0.4648  0.1796
  440MPD2    C2 6609   2.759   1.078  15.405 -0.2488  0.0116  1.3468
  440MPD2    C3 6610   2.804   0.948  15.442 -0.4084 -0.2850  0.0882
  440MPD2    C4 6611   2.723   0.841  15.441 -0.0349 -0.6607  0.1033
  440MPD2    C5 6612   2.592   0.853  15.403 -0.4418  0.3312 -0.1350
  440MPD2     H 6613   2.815   1.170  15.419 -0.9318  0.4889  0.9131
  440MPD2    H1 6614   2.761   0.743  15.468 -1.4933 -0.8322  1.5866
  440MPD2    H2 6615   2.440   0.973  15.333  0.3677 -1.0221 -1.8347
  440MPD2    H3 6616   2.523   0.771  15.389  1.0124 -0.6374 -1.6510
  440MPD2     N 6617   2.935   0.925  15.492 -0.1760  0.1226 -0.1081
  440MPD2    H5 6618   2.954   0.838  15.541  0.5840  0.1037 -0.4453
  440MPD2    N1 6619   2.573   1.214  15.341  0.3620 -0.0607 -0.0825
  440MPD2    H7 6620   2.620   1.288  15.391 -0.1538 -1.0054  1.8255
  441TMC3    C1 6621   3.152   0.997  15.570 -0.7069  0.5506 -0.4137
  441TMC3    C2 6622   3.232   1.107  15.578 -0.2294 -0.5307 -0.2523
  441TMC3    C3 6623   3.274   1.154  15.701  0.5867  0.1601  0.0474
  441TMC3    C4 6624   3.132   0.931  15.689 -0.0958  0.2228 -0.0265
  441TMC3    C5 6625   3.170   0.974  15.808  0.7414 -0.0856 -0.0571
  441TMC3    C6 6626   3.249   1.082  15.818 -0.0093 -0.4094 -0.4461
  441TMC3     C 6627   3.038   1.021  15.485 -0.3618 -0.3106  0.0195
  441TMC3     O 6628   3.033   1.127  15.427  0.0042  0.1800  0.0880
  441TMC3     H 6629   3.252   1.156  15.483  3.2661 -0.5147  0.4767
  441TMC3    H1 6630   3.081   0.836  15.696 -1.7155  1.0309 -0.8154
  441TMC3    H2 6631   3.258   1.137  15.910 -1.2917 -1.4636  0.2992
  441TMC3    C7 6632   3.082   0.943  15.924 -0.0998  0.3789  0.5275
  441TMC3    C8 6633   3.308   1.292  15.717 -0.4451 -0.5838 -0.4370
  441TMC3    O1 6634   2.966   0.932  15.886 -0.0455 -0.1544 -0.1939
  441TMC3    O2 6635   3.387   1.324  15.807 -0.5834 -0.2842 -0.4174
  442MPD2     C 6636   1.188   1.943  16.119 -0.0142 -0.5101  1.7617
  442MPD2    C1 6637   1.051   1.937  16.149 -0.1687 -0.0112  0.4376
  442MPD2    C2 6638   0.972   1.837  16.094  0.6965 -0.7553  0.6428
  442MPD2    C3 6639   1.031   1.732  16.030 -0.7653 -0.5075  0.7373
  442MPD2    C4 6640   1.169   1.728  16.006 -0.0700 -0.4383  0.0522
  442MPD2    C5 6641   1.243   1.840  16.052 -0.4910 -0.9064 -0.3600
  442MPD2     H 6642   0.865   1.841  16.110  1.0798 -0.4319  3.1840
  442MPD2    H1 6643   1.218   1.651  15.948  0.3286  0.6149 -0.9967
  442MPD2    H2 6644   1.261   2.012  16.159  0.0406  1.5954 -1.9576
  442MPD2    H3 6645   1.348   1.845  16.024 -0.2644 -1.0388  0.4607
  442MPD2     N 6646   0.955   1.628  15.972  0.7273 -0.0218  0.5651
  442MPD2    H5 6647   0.996   1.578  15.893 -0.4963 -1.1365  0.6401
  442MPD2    N1 6648   0.988   2.041  16.225 -0.0168 -0.0649  0.0620
  442MPD2    H7 6649   0.888   2.034  16.243  0.5266 -0.2902  2.9981
  443TMC3    C1 6650   0.945   2.245  16.332 -0.0949 -0.1892 -0.0346
  443TMC3    C2 6651   0.853   2.267  16.231 -0.0511  0.3481  0.3750
  443TMC3    C3 6652   0.729   2.292  16.274 -0.3681 -0.5429 -0.2472
  443TMC3    C4 6653   0.921   2.243  16.465  0.3307  1.3771 -0.3501
  443TMC3    C5 6654   0.791   2.267  16.505  0.5315  0.5320  0.7014
  443TMC3    C6 6655   0.698   2.294  16.410 -0.5710  0.0253 -0.8630
  443TMC3     C 6656   1.045   2.151  16.284 -0.9516  0.3293  0.3703
  443TMC3     O 6657   1.160   2.191  16.306 -0.7581 -0.2315  0.3496
  443TMC3     H 6658   0.875   2.253  16.126  2.0833 -0.6478  0.9463
  443TMC3    H1 6659   0.998   2.207  16.532 -0.0444  1.6762  0.2379
  443TMC3    H2 6660   0.598   2.311  16.448 -0.2274  2.6670 -1.1885
  443TMC3    C7 6661   0.744   2.188  16.623  0.3431  0.2526 -0.8867
  443TMC3    C8 6662   0.626   2.248  16.182 -0.3195 -0.2202 -0.0096
  443TMC3    O1 6663   0.631   2.146  16.614 -0.0538 -0.1189 -0.2494
  443TMC3    O2 6664   0.657   2.222  16.070  0.3058  0.3714  0.1837
  444MPD2     C 6665   0.920   1.470  16.877  1.7476  0.4505 -0.5767
  444MPD2    C1 6666   0.895   1.355  16.944 -0.0949  0.1380  0.3337
  444MPD2    C2 6667   0.920   1.230  16.874  0.4719  0.9306 -0.0154
  444MPD2    C3 6668   0.944   1.235  16.736 -0.3223 -0.0291 -0.4724
  444MPD2    C4 6669   0.942   1.358  16.670  0.9758  0.8872  0.0899
  444MPD2    C5 6670   0.930   1.474  16.741  0.3094 -0.6799 -0.7120
  444MPD2     H 6671   0.911   1.135  16.925 -1.1072 -0.3981 -2.7845
  444MPD2    H1 6672   0.941   1.361  16.561  1.6206 -1.0056  0.0355
  444MPD2    H2 6673   0.931   1.567  16.924  3.1199 -0.4384  0.9579
  444MPD2    H3 6674   0.924   1.567  16.685 -0.1561  0.5916  1.4306
  444MPD2     N 6675   0.976   1.116  16.666 -0.0534  0.1601  0.5871
  444MPD2    H5 6676   0.989   1.038  16.730  1.3603  0.9447  1.2424
  444MPD2    N1 6677   0.855   1.352  17.083  0.0559 -0.1802 -0.4158
  444MPD2    H7 6678   0.855   1.263  17.132 -2.2809  1.5681  2.7215
  445TMC3    C1 6679   1.016   0.960  16.490 -0.2384  0.3057 -0.0966
  445TMC3    C2 6680   0.953   0.896  16.383  0.0125  0.6058  0.1440
  445TMC3    C3 6681   0.999   0.777  16.331 -0.6553  0.0850  0.1261
  445TMC3    C4 6682   1.129   0.894  16.541 -0.2939  0.2619 -0.3180
  445TMC3    C5 6683   1.182   0.786  16.480  0.4245 -0.1981 -0.2351
  445TMC3    C6 6684   1.115   0.724  16.377  0.6058  0.3682 -0.4799
  445TMC3     C 6685   0.988   1.093  16.533 -0.0484 -0.4126 -0.1490
  445TMC3     O 6686   0.977   1.173  16.438 -0.2997  0.7002  0.0284
  445TMC3     H 6687   0.863   0.943  16.345  0.3070  1.0164 -0.0391
  445TMC3    H1 6688   1.174   0.935  16.630  0.3276 -0.6556 -0.2169
  445TMC3    H2 6689   1.150   0.634  16.328 -3.7107 -2.0482  0.8931
  445TMC3    C7 6690   1.328   0.764  16.484  0.5716  0.1983 -0.0090
  445TMC3    C8 6691   0.911   0.691  16.255  0.0077  0.0882  0.4464
  445TMC3    O1 6692   1.411   0.854  16.471  0.5625 -0.1514 -0.0769
  445TMC3    O2 6693   0.935   0.570  16.269  0.0727  0.1504 -0.2682
  446MPD2     C 6694   1.021   1.931  11.490 -0.3076 -0.1015  0.8521
  446MPD2    C1 6695   1.030   1.956  11.353  0.8253 -0.0436  0.1311
  446MPD2    C2 6696   1.125   2.045  11.308  0.0394 -0.5540  0.0862
  446MPD2    C3 6697   1.215   2.104  11.391  0.6625  0.0481  0.9534
  446MPD2    C4 6698   1.215   2.065  11.528  0.4059  0.3777  0.0676
  446MPD2    C5 6699   1.117   1.981  11.575 -0.0674  0.5979  0.7044
  446MPD2     H 6700   1.120   2.068  11.202  2.8977  1.4687  0.3753
  446MPD2    H1 6701   1.283   2.101  11.604  0.5009 -0.2228  0.2670
  446MPD2    H2 6702   0.953   1.864  11.541  0.8200  0.4127  3.0341
  446MPD2    H3 6703   1.109   1.951  11.679 -1.4530 -0.3283  0.3312
  446MPD2     N 6704   1.320   2.180  11.330 -0.1036  0.2834 -0.6625
  446MPD2    H5 6705   1.317   2.185  11.228  3.0143 -3.0072 -0.9508
  446MPD2    N1 6706   0.952   1.877  11.263  0.0816 -0.6893 -0.1254
  446MPD2    H7 6707   0.976   1.890  11.166  0.0693  1.1072  0.1084
  447TMC3    C1 6708   1.545   2.253  11.309  1.0011 -0.3201 -0.1649
  447TMC3    C2 6709   1.530   2.302  11.180  0.1097 -1.0543 -0.1820
  447TMC3    C3 6710   1.641   2.316  11.104  0.0100  0.1404 -0.6257
  447TMC3    C4 6711   1.671   2.238  11.358  0.1891 -0.1683 -0.4677
  447TMC3    C5 6712   1.782   2.255  11.279 -0.8557  0.2029  0.1704
  447TMC3    C6 6713   1.768   2.277  11.144 -0.0245 -0.0383  0.8483
  447TMC3     C 6714   1.438   2.215  11.395  0.1802  0.5473 -0.3855
  447TMC3     O 6715   1.471   2.176  11.507  0.1247  0.0632  0.4036
  447TMC3     H 6716   1.435   2.329  11.135  0.1684  1.4517  1.1978
  447TMC3    H1 6717   1.683   2.204  11.460 -0.7736 -0.2666 -0.3915
  447TMC3    H2 6718   1.856   2.299  11.085  0.7991 -1.0962  1.6832
  447TMC3    C7 6719   1.916   2.230  11.328 -0.1495  0.2213 -0.3965
  447TMC3    C8 6720   1.629   2.364  10.969  0.2496  0.5227 -0.0976
  447TMC3    O1 6721   2.001   2.200  11.246  0.3369  0.3233 -0.0497
  447TMC3    O2 6722   1.524   2.411  10.933  0.7031  0.3313  0.0758
  448TMC3    C1 6723   3.572   2.536  16.824  0.5724 -0.6995  0.9296
  448TMC3    C2 6724   3.594   2.421  16.751 -0.0754  0.5177 -0.5042
  448TMC3    C3 6725   3.556   2.296  16.809  0.2215 -0.0797  0.5870
  448TMC3    C4 6726   3.529   2.533  16.956  0.4304 -0.1996 -0.4957
  448TMC3    C5 6727   3.501   2.411  17.009 -0.4621  1.1914 -0.5692
  448TMC3    C6 6728   3.524   2.290  16.944 -0.0419  0.1079  0.3562
  448TMC3     C 6729   3.656   2.643  16.779  0.4379 -0.6862 -0.3032
  448TMC3     O 6730   3.685   2.643  16.657  0.0934 -0.4663  0.2658
  448TMC3     H 6731   3.658   2.425  16.664 -0.2064  2.5863 -0.4998
  448TMC3    H1 6732   3.511   2.623  17.014  1.3365 -1.0232  1.0629
  448TMC3    H2 6733   3.496   2.200  16.996 -0.0249 -1.2439 -1.9764
  448TMC3    C7 6734   3.467   2.417  17.152  0.1023 -0.0233  0.9624
  448TMC3    C8 6735   3.611   2.181  16.755 -0.1461  0.0972 -0.4638
  448TMC3    O1 6736   3.391   2.510  17.185 -0.9103 -0.2505  0.6894
  448TMC3    O2 6737   3.664   2.106  16.835  0.3072 -0.0599 -0.0837
  449MPD2     C 6738   1.130   0.541  13.909 -0.5111 -0.1003 -0.0984
  449MPD2    C1 6739   1.015   0.542  13.840 -0.6969  0.1159 -0.0567
  449MPD2    C2 6740   0.928   0.440  13.835  0.1039  0.4237  0.3706
  449MPD2    C3 6741   0.952   0.326  13.910  0.5940  0.2432 -0.6776
  449MPD2    C4 6742   1.072   0.323  13.979 -0.7949  0.0210  0.1067
  449MPD2    C5 6743   1.163   0.425  13.975  0.5667  0.6100 -0.1018
  449MPD2     H 6744   0.834   0.457  13.783 -0.3810 -1.0847  0.7573
  449MPD2    H1 6745   1.101   0.240  14.043  1.3087  1.6720  1.3236
  449MPD2    H2 6746   1.201   0.623  13.910 -0.9438  0.2853 -0.8931
  449MPD2    H3 6747   1.251   0.430  14.038  1.6445  1.2782 -1.6717
  449MPD2     N 6748   0.853   0.223  13.902 -0.4678  0.5042 -0.2699
  449MPD2    H5 6749   0.772   0.245  13.846 -0.8986  1.9611  0.9334
  449MPD2    N1 6750   0.975   0.655  13.760 -0.2174  0.0985 -0.3910
  449MPD2    H7 6751   0.877   0.659  13.733  0.2412 -2.2113 -2.3488
  450TMC3    C1 6752   0.971   0.844  13.635  0.5369  0.1177  0.4004
  450TMC3    C2 6753   0.989   0.821  13.503 -0.4819 -0.2173 -0.2339
  450TMC3    C3 6754   0.880   0.788  13.419 -0.5646 -0.2205 -0.1984
  450TMC3    C4 6755   0.846   0.848  13.683  0.3029  0.5385  0.0098
  450TMC3    C5 6756   0.740   0.820  13.599  0.3265  0.5122  0.0194
  450TMC3    C6 6757   0.756   0.792  13.467  0.1670  0.2057 -0.3848
  450TMC3     C 6758   1.049   0.760  13.728 -0.2871  0.9756  0.2812
  450TMC3     O 6759   1.166   0.788  13.743  0.0669 -0.0310 -0.2472
  450TMC3     H 6760   1.090   0.821  13.463  0.3932 -2.6552  2.0048
  450TMC3    H1 6761   0.833   0.859  13.790  2.0843 -2.6739  0.5945
  450TMC3    H2 6762   0.674   0.774  13.398 -0.6486  0.7637  0.4519
  450TMC3    C7 6763   0.658   0.718  13.659 -0.4708  0.1935 -0.3691
  450TMC3    C8 6764   0.907   0.727  13.285  0.2337 -0.1364  0.6398
  450TMC3    O1 6765   0.708   0.665  13.755  0.1690  0.3782 -0.0644
  450TMC3    O2 6766   0.813   0.701  13.210  0.7083 -0.6402 -0.4586
  451MPD2     C 6767   2.001   4.604   0.987 -0.0741 -0.2258 -0.4182
  451MPD2    C1 6768   2.091   4.677   0.918 -0.6946 -0.0585  0.1880
  451MPD2    C2 6769   2.166   4.612   0.819 -0.5633 -0.4989  0.0990
  451MPD2    C3 6770   2.143   4.486   0.780 -0.0188 -0.4296 -0.3738
  451MPD2    C4 6771   2.043   4.422   0.849  0.1603  0.4189 -0.0245
  451MPD2    C5 6772   1.974   4.472   0.956  0.1991  0.2832 -0.3314
  451MPD2     H 6773   2.245   4.663   0.764 -1.1779  1.4575  1.0432
  451MPD2    H1 6774   2.006   4.325   0.818 -2.5669  0.8003  2.0474
  451MPD2    H2 6775   1.940   4.642   1.068  2.3107 -0.5891  1.5654
  451MPD2    H3 6776   1.907   4.419   1.023 -1.0807  1.1206 -0.9555
  451MPD2     N 6777   2.216   4.410   0.687 -0.2998 -0.2897 -0.0355
  451MPD2    H5 6778   2.194   4.311   0.684 -2.4480  0.1702  0.5299
  451MPD2    N1 6779   2.111   0.076   0.951 -0.1244 -0.0394  0.0650
  451MPD2    H7 6780   2.048   0.120   1.017 -0.9923  1.7691 -1.9521
  452TMC3    C1 6781   2.374   4.350   0.523  0.2205 -0.2217  0.7132
  452TMC3    C2 6782   2.309   4.231   0.508  0.7195  0.4316  0.5158
  452TMC3    C3 6783   2.355   4.137   0.421 -0.8488  0.7637  0.3223
  452TMC3    C4 6784   2.480   4.379   0.447  0.4284  0.0392 -0.0767
  452TMC3    C5 6785   2.521   4.287   0.347 -0.0483  0.0483 -0.9939
  452TMC3    C6 6786   2.456   4.164   0.336 -0.3290  0.0941  0.0934
  452TMC3     C 6787   2.320   4.455   0.608 -0.5474 -0.1709  0.9962
  452TMC3     O 6788   2.373   4.566   0.596 -0.3140 -0.3531 -0.9182
  452TMC3     H 6789   2.230   4.201   0.576  0.7979  4.0170  2.1864
  452TMC3    H1 6790   2.543   4.467   0.455 -2.7355  2.3482 -0.6318
  452TMC3    H2 6791   2.496   4.089   0.269 -1.6517 -0.9651  0.4806
  452TMC3    C7 6792   2.631   4.320   0.266 -0.1352 -0.6307 -0.2708
  452TMC3    C8 6793   2.284   4.009   0.405  0.1420 -0.1210 -0.3498
  452TMC3    O1 6794   2.683   4.428   0.276 -0.1439 -0.0688  0.4644
  452TMC3    O2 6795   2.173   4.007   0.451 -0.5304 -0.0341 -0.3374
  453TMC3    C1 6796   3.822   1.019  11.550 -0.4404  0.3224 -0.0381
  453TMC3    C2 6797   3.684   0.996  11.571 -0.2825  0.4339 -0.2605
  453TMC3    C3 6798   3.596   1.084  11.519 -0.1913  0.4055  1.2347
  453TMC3    C4 6799   3.875   1.123  11.475  0.3705 -0.3579 -0.1883
  453TMC3    C5 6800   3.779   1.211  11.431  0.0893  0.3042  0.0473
  453TMC3    C6 6801   3.644   1.188  11.451 -0.3942 -0.3761  0.6786
  453TMC3     C 6802   3.918   0.931  11.611 -0.0762 -0.8762  0.7097
  453TMC3     O 6803   4.034   0.967  11.592 -0.2895 -0.4321 -0.2769
  453TMC3     H 6804   3.651   0.917  11.638  0.9385 -0.5494 -0.8145
  453TMC3    H1 6805   3.981   1.147  11.474 -0.0912  1.6108 -1.7407
  453TMC3    H2 6806   3.562   1.247  11.411 -0.6864 -0.1543  1.6149
  453TMC3    C7 6807   3.816   1.330  11.366  0.6768 -0.8755  0.7588
  453TMC3    C8 6808   3.465   1.073  11.569 -0.0397  0.2861  0.4369
  453TMC3    O1 6809   3.936   1.336  11.336 -0.2709 -0.1667  0.0996
  453TMC3    O2 6810   3.400   1.173  11.596  0.1217 -0.4572  0.0768
  454MPD2     C 6811   1.643   0.900  16.182  0.0678  0.5424 -0.1791
  454MPD2    C1 6812   1.611   0.939  16.051 -0.0119 -0.1354 -0.2795
  454MPD2    C2 6813   1.551   1.065  16.036 -0.3514 -0.8634  0.0646
  454MPD2    C3 6814   1.505   1.139  16.144  0.6955  0.0654 -0.8487
  454MPD2    C4 6815   1.548   1.109  16.271 -0.1468 -0.2520 -0.0157
  454MPD2    C5 6816   1.620   0.991  16.286 -0.1569 -0.1332 -0.2560
  454MPD2     H 6817   1.515   1.087  15.937  0.2777  0.4541  0.1321
  454MPD2    H1 6818   1.516   1.162  16.360  0.5040 -0.8268  0.5688
  454MPD2    H2 6819   1.669   0.798  16.207  2.9377  1.2959 -0.0872
  454MPD2    H3 6820   1.645   0.947  16.382 -2.2198 -0.0130  0.3251
  454MPD2     N 6821   1.433   1.256  16.124 -0.4840 -0.3036  1.0835
  454MPD2    H5 6822   1.397   1.297  16.210  0.5157  2.6608  0.0516
  454MPD2    N1 6823   1.624   0.857  15.937 -0.4134 -0.4356  1.2809
  454MPD2    H7 6824   1.599   0.892  15.845 -1.8232 -2.8998  0.7355
  455TMC3    C1 6825   1.265   1.368  16.007 -0.1438  0.2543 -0.5336
  455TMC3    C2 6826   1.228   1.438  16.120 -0.7804 -0.5106  0.4746
  455TMC3    C3 6827   1.118   1.405  16.191 -0.2268 -0.2336 -1.1712
  455TMC3    C4 6828   1.194   1.251  15.983  0.6889 -0.0197 -0.4236
  455TMC3    C5 6829   1.081   1.220  16.056 -0.0085  0.1481 -0.5475
  455TMC3    C6 6830   1.039   1.301  16.164 -0.1257 -0.6499  0.1200
  455TMC3     C 6831   1.400   1.316  16.001 -0.4913  0.0243  0.2395
  455TMC3     O 6832   1.433   1.280  15.888  0.2383  0.2576 -0.1381
  455TMC3     H 6833   1.285   1.522  16.159  2.2677 -2.6387  0.6398
  455TMC3    H1 6834   1.229   1.181  15.908 -1.5728 -2.4922  0.8453
  455TMC3    H2 6835   0.954   1.271  16.224 -1.4595  2.7713 -0.0621
  455TMC3    C7 6836   1.052   1.078  16.077 -0.0477  0.2427  0.6708
  455TMC3    C8 6837   1.117   1.449  16.327  0.1311  0.5587 -0.0723
  455TMC3    O1 6838   0.942   1.026  16.057  0.5638  0.4336  0.2656
  455TMC3    O2 6839   1.201   1.405  16.401  0.3590  0.5865  0.4833
  456MPD2     C 6840   4.050   1.004  16.077 -0.2306 -0.4233 -0.4891
  456MPD2    C1 6841   4.172   1.022  16.133 -0.4999 -0.5573  0.4600
  456MPD2    C2 6842   4.171   1.112  16.239 -0.0281  0.5289  0.2552
  456MPD2    C3 6843   4.060   1.192  16.271 -0.0582 -0.5304 -0.9715
  456MPD2    C4 6844   3.940   1.177  16.207  0.0617 -0.3202  0.6815
  456MPD2    C5 6845   3.936   1.074  16.115  0.1383 -0.4937  0.0101
  456MPD2     H 6846   4.258   1.128  16.301  1.3559 -0.6148 -1.3957
  456MPD2    H1 6847   3.849   1.231  16.227  0.0860  0.0306 -0.1489
  456MPD2    H2 6848   4.047   0.943  15.987  1.3570  0.1882 -0.9725
  456MPD2    H3 6849   3.846   1.045  16.062 -0.9815  2.2778  0.4172
  456MPD2     N 6850   4.074   1.283  16.381 -0.1407  0.1593 -0.4195
  456MPD2    H5 6851   4.168   1.286  16.419  0.0253  0.3398 -0.8436
  456MPD2    N1 6852   4.276   0.941  16.087  0.0208  0.0513 -0.2507
  456MPD2    H7 6853   4.266   0.879  16.008  0.4737 -1.0881  0.5727
  457TMC3    C1 6854   4.015   1.433  16.552 -0.1804  0.2225 -0.1233
  457TMC3    C2 6855   3.927   1.535  16.570 -0.7687  0.1602 -0.6086
  457TMC3    C3 6856   3.965   1.624  16.665  0.8809  0.3696  0.7755
  457TMC3    C4 6857   4.136   1.427  16.619 -0.1583  0.6343 -0.5857
  457TMC3    C5 6858   4.159   1.514  16.718 -0.2154  0.0769  0.4962
  457TMC3    C6 6859   4.073   1.612  16.747  0.6441  0.2881 -0.3409
  457TMC3     C 6860   3.974   1.347  16.445 -0.7295 -0.5030  0.1474
  457TMC3     O 6861   3.857   1.345  16.414  0.0868 -0.2843 -0.2266
  457TMC3     H 6862   3.830   1.540  16.523  0.1401  2.4042 -2.2807
  457TMC3    H1 6863   4.199   1.341  16.598 -0.7411  0.3926 -1.3550
  457TMC3    H2 6864   4.103   1.688  16.818  0.2047 -1.7136  1.9760
  457TMC3    C7 6865   4.259   1.469  16.820 -0.1332 -0.0143  0.2309
  457TMC3    C8 6866   3.897   1.753  16.669 -0.0527 -0.2520 -0.6167
  457TMC3    O1 6867   4.316   1.363  16.795 -0.1767 -0.4558  0.4111
  457TMC3    O2 6868   3.901   1.822  16.769  0.4043 -0.2293  0.0524
  458MPD2     C 6869   2.843   0.226  12.099 -0.4013 -0.5414 -0.2452
  458MPD2    C1 6870   2.710   0.239  12.091  0.1434 -0.0768 -1.0742
  458MPD2    C2 6871   2.647   0.202  11.969 -0.1012  0.9119  0.1898
  458MPD2    C3 6872   2.718   0.172  11.857 -0.5591  0.0596 -0.2488
  458MPD2    C4 6873   2.855   0.161  11.869 -0.2683 -0.1711  0.7099
  458MPD2    C5 6874   2.916   0.186  11.986 -0.0997 -0.1503 -0.5415
  458MPD2     H 6875   2.539   0.206  11.955 -0.1282  0.0728  0.1333
  458MPD2    H1 6876   2.912   0.114  11.790  1.7645  1.5394  1.1381
  458MPD2    H2 6877   2.903   0.257  12.185 -0.4663  1.3770 -0.8931
  458MPD2    H3 6878   3.024   0.182  11.993 -0.1120  0.7243  0.2105
  458MPD2     N 6879   2.650   0.139  11.740 -0.5181 -0.2147 -0.2725
  458MPD2    H5 6880   2.553   0.111  11.745 -1.0878  1.8412 -0.0343
  458MPD2    N1 6881   2.647   0.302  12.212  0.0367  0.4236  0.2743
  458MPD2    H7 6882   2.705   0.333  12.290 -1.8953  0.5733  1.6447
  459TMC3    C1 6883   2.466   0.337  12.362  0.2184  0.9939  0.1692
  459TMC3    C2 6884   2.542   0.442  12.412 -0.1188 -0.5026  0.0003
  459TMC3    C3 6885   2.530   0.477  12.546 -0.0900 -0.4344 -0.5117
  459TMC3    C4 6886   2.382   0.263  12.436 -1.1010 -0.2855 -0.3444
  459TMC3    C5 6887   2.377   0.298  12.571 -0.0708 -0.6569  0.0189
  459TMC3    C6 6888   2.451   0.401  12.623 -0.0998 -0.2677  0.2991
  459TMC3     C 6889   2.511   0.290  12.225 -0.2825  0.7366 -0.0770
  459TMC3     O 6890   2.429   0.240  12.154 -0.8671 -0.2107 -0.0703
  459TMC3     H 6891   2.600   0.505  12.345 -2.0444 -0.8068 -1.9514
  459TMC3    H1 6892   2.312   0.192  12.392 -1.6064 -2.6514  4.2576
  459TMC3    H2 6893   2.442   0.427  12.728  1.1515  0.1933  0.2876
  459TMC3    C7 6894   2.314   0.209  12.661  0.3665  0.1279  0.2822
  459TMC3    C8 6895   2.630   0.568  12.598 -1.1664  0.2974  0.0800
  459TMC3    O1 6896   2.268   0.111  12.604 -0.4300 -1.0789  0.2772
  459TMC3    O2 6897   2.703   0.612  12.511 -0.0146  0.3463  0.1530
  460MPD2     C 6898   1.888   2.355  10.708  0.3897 -0.1510  0.4659
  460MPD2    C1 6899   1.766   2.387  10.765 -0.9574 -0.6096  0.0995
  460MPD2    C2 6900   1.673   2.449  10.694 -0.6282  0.2864  0.2686
  460MPD2    C3 6901   1.693   2.471  10.557  0.0527 -0.0232  0.8810
  460MPD2    C4 6902   1.820   2.449  10.501  0.3823 -0.4992  0.4809
  460MPD2    C5 6903   1.919   2.397  10.583 -0.5437  0.0606 -0.4446
  460MPD2     H 6904   1.579   2.476  10.740 -0.2208  2.0868  0.0385
  460MPD2    H1 6905   1.854   2.475  10.401 -2.3064  0.5030 -0.1651
  460MPD2    H2 6906   1.978   2.319  10.756  1.4084  2.0431  0.1962
  460MPD2    H3 6907   2.022   2.392  10.548 -0.2723 -1.7068  0.6135
  460MPD2     N 6908   1.591   2.531  10.474  0.1853 -0.0591  0.2627
  460MPD2    H5 6909   1.504   2.565  10.513  0.7789  1.7242 -0.0034
  460MPD2    N1 6910   1.744   2.350  10.900  0.5703  0.3666  0.1114
  460MPD2    H7 6911   1.826   2.305  10.940  0.0765  0.0978  0.8097
  461TMC3    C1 6912   1.485   2.578  10.274  0.1765 -0.6523 -0.7019
  461TMC3    C2 6913   1.474   2.485  10.179  0.2322  0.0535  0.2373
  461TMC3    C3 6914   1.394   2.525  10.073 -0.4608 -0.1190 -0.4437
  461TMC3    C4 6915   1.414   2.695  10.283 -0.0466 -0.8226  0.4981
  461TMC3    C5 6916   1.332   2.718  10.177  0.1141  0.5001  0.3414
  461TMC3    C6 6917   1.322   2.640  10.070 -0.3276  0.3249 -0.2053
  461TMC3     C 6918   1.608   2.561  10.340  0.4144 -0.1559  0.5990
  461TMC3     O 6919   1.703   2.561  10.255 -0.0225  0.0364  0.1957
  461TMC3     H 6920   1.545   2.404  10.168 -0.2513 -0.4004  0.4997
  461TMC3    H1 6921   1.425   2.752  10.374 -0.2045 -1.4644  0.9235
  461TMC3    H2 6922   1.266   2.666   9.982 -1.1677  1.9293  0.7899
  461TMC3    C7 6923   1.280   2.854  10.154 -0.9615 -0.0473 -0.5804
  461TMC3    C8 6924   1.356   2.422   9.977  0.0605  0.0132 -0.6092
  461TMC3    O1 6925   1.177   2.873  10.085 -0.1188 -0.4635 -0.2253
  461TMC3    O2 6926   1.436   2.326   9.979 -0.1919 -0.0307  0.0002
  462TMC3    C1 6927   1.606   4.573   0.333  0.4890 -0.3100  0.0599
  462TMC3    C2 6928   1.734   4.579   0.387  0.5518 -0.6190  0.3988
  462TMC3    C3 6929   1.814   4.470   0.374  0.8184 -0.1076 -0.0467
  462TMC3    C4 6930   1.555   4.460   0.287 -0.2673 -0.0338  0.5083
  462TMC3    C5 6931   1.638   4.348   0.274 -0.1923  0.4387 -0.0629
  462TMC3    C6 6932   1.772   4.359   0.304  0.1220 -0.8449 -0.2013
  462TMC3     C 6933   1.526   4.684   0.367  0.2359 -0.0356 -0.4888
  462TMC3     O 6934   1.556   0.010   0.465 -0.3255  0.2982 -0.5592
  462TMC3     H 6935   1.771   4.678   0.411  0.4745 -0.5961  0.4234
  462TMC3    H1 6936   1.453   4.457   0.252 -0.0638  0.9932 -0.1729
  462TMC3    H2 6937   1.816   4.262   0.328  1.0888  0.0515  1.6298
  462TMC3    C7 6938   1.573   4.227   0.224 -0.1762 -0.0163  0.5477
  462TMC3    C8 6939   1.957   4.489   0.385 -0.5839 -0.6529  0.1462
  462TMC3    O1 6940   1.450   4.221   0.216  0.1612 -0.0109 -0.7531
  462TMC3    O2 6941   1.993   4.590   0.450 -0.0272  0.3461  0.2205
  463MPD2     C 6942   2.909   2.668   1.208 -0.3313 -0.2199  0.2156
  463MPD2    C1 6943   2.789   2.720   1.185 -0.7441  0.0504  0.4608
  463MPD2    C2 6944   2.773   2.791   1.064  0.8049  0.0813 -0.1902
  463MPD2    C3 6945   2.872   2.793   0.960 -0.3147  0.1736 -0.3948
  463MPD2    C4 6946   2.998   2.759   1.002 -0.4581  0.5443  0.0902
  463MPD2    C5 6947   3.011   2.701   1.121 -0.2223 -0.9566 -0.4796
  463MPD2     H 6948   2.677   2.834   1.042  0.2919 -1.0073 -0.0652
  463MPD2    H1 6949   3.088   2.774   0.943 -0.5352 -2.3397 -0.7657
  463MPD2    H2 6950   2.930   2.614   1.300 -0.0989 -0.8606 -0.2098
  463MPD2    H3 6951   3.111   2.682   1.158  0.2541 -0.0047 -1.2858
  463MPD2     N 6952   2.838   2.831   0.829 -0.2511 -0.0784 -0.1059
  463MPD2    H5 6953   2.914   2.839   0.763  0.7746 -0.7229  1.0044
  463MPD2    N1 6954   2.672   2.690   1.262 -0.2361 -0.0583  0.2966
  463MPD2    H7 6955   2.589   2.727   1.218  0.7485  0.8961 -0.7790
  464TMC3    C1 6956   2.506   2.586   1.393 -0.7483  0.2642  0.1052
  464TMC3    C2 6957   2.430   2.693   1.392 -0.0592  1.0313 -0.5487
  464TMC3    C3 6958   2.295   2.675   1.419  0.7463  0.4353  0.6148
  464TMC3    C4 6959   2.459   2.462   1.430 -0.0126  0.3034  0.3549
  464TMC3    C5 6960   2.323   2.454   1.445 -0.7777 -0.6036  0.0260
  464TMC3    C6 6961   2.237   2.555   1.436  0.1704 -0.3267  0.6965
  464TMC3     C 6962   2.648   2.602   1.369 -0.3854 -0.1477  0.0691
  464TMC3     O 6963   2.734   2.548   1.443  0.1099  0.6480  0.1410
  464TMC3     H 6964   2.463   2.793   1.369 -2.2351  1.7113 -0.7475
  464TMC3    H1 6965   2.524   2.377   1.416 -1.2416 -0.5584 -0.1744
  464TMC3    H2 6966   2.142   2.555   1.488  0.6074 -2.5418  1.4655
  464TMC3    C7 6967   2.267   2.317   1.465  0.0108 -0.0967  0.2232
  464TMC3    C8 6968   2.201   2.788   1.418  0.3175 -0.7322  0.0815
  464TMC3    O1 6969   2.346   2.240   1.507  0.4141 -0.0140  0.0858
  464TMC3    O2 6970   2.084   2.763   1.393  0.6161 -0.1472 -0.3408
  465MPD2     C 6971   3.833   0.790  17.030  0.2924  1.2064  0.0321
  465MPD2    C1 6972   3.725   0.763  17.104  0.3189  0.2778 -0.4181
  465MPD2    C2 6973   3.612   0.839  17.088  0.5406  0.1361  0.5347
  465MPD2    C3 6974   3.606   0.948  17.002  0.0967 -0.6999  0.8101
  465MPD2    C4 6975   3.715   0.975  16.932 -0.8704 -0.5821 -0.0788
  465MPD2    C5 6976   3.824   0.897  16.941 -0.3756  0.2470 -0.8086
  465MPD2     H 6977   3.520   0.817  17.141  1.5118 -3.1838  0.8488
  465MPD2    H1 6978   3.734   1.062  16.869  0.0833 -0.9960 -0.3533
  465MPD2    H2 6979   3.924   0.733  17.030  0.0625  0.8357  1.0646
  465MPD2    H3 6980   3.903   0.912  16.869 -0.0524 -2.7197 -1.0893
  465MPD2     N 6981   3.477   1.011  16.984 -0.0781  0.7992 -0.2846
  465MPD2    H5 6982   3.400   0.969  17.035 -0.8365  0.6870 -1.5301
  465MPD2    N1 6983   3.708   0.637  17.161 -0.2075  0.4771  0.2333
  465MPD2    H7 6984   3.625   0.617  17.215  1.4150 -1.0687  2.2023
  466TMC3    C1 6985   3.091   1.136  16.880 -0.1046 -0.3997 -0.2506
  466TMC3    C2 6986   3.081   1.235  16.796  0.1480 -0.1766  0.6415
  466TMC3    C3 6987   3.194   1.293  16.752  0.4416  0.0250  0.1704
  466TMC3    C4 6988   3.215   1.101  16.928 -0.4779 -0.7723 -0.0128
  466TMC3    C5 6989   3.329   1.167  16.883 -0.2152  0.4537  0.3880
  466TMC3    C6 6990   3.324   1.257  16.784  0.7991 -0.0825 -0.0324
  466TMC3     C 6991   2.970   1.085  16.950 -0.1660  0.0362 -0.5249
  466TMC3     O 6992   2.983   1.024  17.051  0.0912 -0.0392  0.0802
  466TMC3     H 6993   2.986   1.254  16.746  0.5556  0.0171 -0.0604
  466TMC3    H1 6994   3.213   1.035  17.014  1.9834  1.6563  1.8708
  466TMC3    H2 6995   3.408   1.318  16.754 -0.3231  0.3403 -2.3058
  466TMC3    C7 6996   3.464   1.112  16.894 -0.8949 -0.3970  0.9044
  466TMC3    C8 6997   3.171   1.407  16.670  0.0841  0.4032  0.1749
  466TMC3    O1 6998   3.551   1.171  16.830 -0.3658 -0.6140 -0.2695
  466TMC3    O2 6999   3.262   1.442  16.594 -0.6010  0.5782 -0.1973
  467TMC3    C1 7000   4.223   4.022  13.996 -0.2035  0.5484  0.6109
  467TMC3    C2 7001   4.236   4.082  13.877 -0.2613  0.1735 -0.2879
  467TMC3    C3 7002   4.122   4.095  13.804 -0.1825  0.2718  0.0870
  467TMC3    C4 7003   4.100   3.987  14.045  0.3428 -0.1534 -0.1658
  467TMC3    C5 7004   3.991   4.001  13.971  0.2697  0.1558 -0.0041
  467TMC3    C6 7005   3.998   4.057  13.844  0.0870 -0.3020  0.6574
  467TMC3     C 7006   4.326   4.047  14.096  0.4020  0.1515  0.2169
  467TMC3     O 7007   4.290   4.057  14.217 -0.5073 -0.0310  0.0034
  467TMC3     H 7008   4.334   4.112  13.842  0.2053 -2.2272 -1.0691
  467TMC3    H1 7009   4.101   3.954  14.149  0.9802 -0.7972 -0.3777
  467TMC3    H2 7010   3.916   4.074  13.774 -0.9868 -1.4707  1.6318
  467TMC3    C7 7011   3.860   3.989  14.033 -0.1399  0.4451  0.2196
  467TMC3    C8 7012   4.134   4.138  13.666  0.0566 -0.4537 -0.2398
  467TMC3    O1 7013   3.866   3.969  14.157 -0.0184 -0.5662 -0.2473
  467TMC3    O2 7014   4.235   4.209  13.637  0.3868  0.7073 -0.1879
  468MPD2     C 7015   3.698   2.122  10.573 -0.2310  0.0508  0.3940
  468MPD2    C1 7016   3.701   2.125  10.708 -0.5777 -0.8940 -0.9918
  468MPD2    C2 7017   3.673   2.006  10.775 -0.2495  0.6709  0.1578
  468MPD2    C3 7018   3.669   1.880  10.715  0.2926 -0.4491 -0.2719
  468MPD2    C4 7019   3.687   1.883  10.579 -0.1223 -0.7906  0.0494
  468MPD2    C5 7020   3.685   2.000  10.510  0.5675  0.3776  0.1687
  468MPD2     H 7021   3.672   2.011  10.883  1.4920  0.3686  0.1769
  468MPD2    H1 7022   3.689   1.787  10.530  1.8333 -1.5600  1.6510
  468MPD2    H2 7023   3.721   2.209  10.512  1.6875 -0.8203 -0.1199
  468MPD2    H3 7024   3.690   1.992  10.402  2.3790  0.7052  0.2354
  468MPD2     N 7025   3.659   1.759  10.779  0.4817  0.1214  0.1819
  468MPD2    H5 7026   3.662   1.677  10.719  0.5325  1.0285 -1.0330
  468MPD2    N1 7027   3.725   2.242  10.789  0.0851  0.8303 -0.3070
  468MPD2    H7 7028   3.721   2.229  10.890  0.8853 -1.5176 -0.5728
  469TMC3    C1 7029   3.797   2.459  10.849 -0.5547  0.1895  0.2396
  469TMC3    C2 7030   3.881   2.407  10.942  0.5185 -0.4694 -0.5147
  469TMC3    C3 7031   3.956   2.501  11.013  0.8388 -0.5083  0.2925
  469TMC3    C4 7032   3.769   2.593  10.831  0.5140 -0.5100  0.0360
  469TMC3    C5 7033   3.838   2.679  10.914 -0.1462 -0.5679  0.6387
  469TMC3    C6 7034   3.927   2.633  11.009 -0.3720 -0.7269 -0.4193
  469TMC3     C 7035   3.744   2.369  10.751  0.0043  0.1388  0.4627
  469TMC3     O 7036   3.732   2.428  10.644 -0.3332 -0.0447 -0.2238
  469TMC3     H 7037   3.917   2.304  10.945  0.5127 -0.4527  0.0926
  469TMC3    H1 7038   3.710   2.641  10.753 -0.2656 -0.3914  0.6969
  469TMC3    H2 7039   3.989   2.707  11.058  0.0899 -1.1602 -0.3465
  469TMC3    C7 7040   3.828   2.820  10.884  0.5339  0.1598  0.2097
  469TMC3    C8 7041   4.047   2.454  11.117 -0.5555  0.1002 -0.7519
  469TMC3    O1 7042   3.761   2.861  10.787 -0.2163  0.4000  0.0489
  469TMC3    O2 7043   4.102   2.345  11.105  0.7582  0.4607 -0.1880
  470TMC3    C1 7044   0.865   4.166   0.632  0.2230 -0.1982 -0.7233
  470TMC3    C2 7045   0.933   4.281   0.658  0.2365 -0.4380 -0.7407
  470TMC3    C3 7046   0.925   4.316   0.795  0.2815  0.0923 -0.1589
  470TMC3    C4 7047   0.826   4.082   0.734  0.2061  0.1795 -0.3020
  470TMC3    C5 7048   0.837   4.123   0.862  0.3363  0.5432  0.2183
  470TMC3    C6 7049   0.879   4.240   0.898 -0.5825  0.0134 -0.1474
  470TMC3     C 7050   0.876   4.129   0.492  0.0111 -0.4217  0.0745
  470TMC3     O 7051   0.973   4.178   0.432  0.3323  0.0269 -0.7490
  470TMC3     H 7052   0.962   4.352   0.582  3.4522 -0.6778  0.2756
  470TMC3    H1 7053   0.775   3.987   0.725 -0.9351  0.6377  1.4703
  470TMC3    H2 7054   0.880   4.279   0.999 -0.8259  0.2876 -0.2526
  470TMC3    C7 7055   0.858   4.011   0.953 -0.7333  0.2834  0.0665
  470TMC3    C8 7056   0.949   4.456   0.823 -0.1264 -0.4862  0.2304
  470TMC3    O1 7057   0.768   3.929   0.956  0.4586  0.5528  0.4709
  470TMC3    O2 7058   0.875   4.515   0.906  0.4853 -0.4970 -0.2657
  471MPD2     C 7059   0.653   0.531  16.526  0.9275 -0.6291  0.8906
  471MPD2    C1 7060   0.690   0.400  16.519  0.1215  0.0808  0.2114
  471MPD2    C2 7061   0.811   0.366  16.574  0.6752  0.4918 -0.9356
  471MPD2    C3 7062   0.889   0.448  16.654  0.0003  0.5921 -0.2761
  471MPD2    C4 7063   0.841   0.583  16.670  0.4183 -0.2635  0.3568
  471MPD2    C5 7064   0.730   0.622  16.599  0.6503 -0.0422 -0.0068
  471MPD2     H 7065   0.851   0.268  16.554  1.4831  0.4407  0.9785
  471MPD2    H1 7066   0.892   0.658  16.729 -1.6686  0.4226  1.2673
  471MPD2    H2 7067   0.566   0.572  16.476  0.4948 -1.9684  0.5506
  471MPD2    H3 7068   0.695   0.725  16.603 -0.5971 -0.3452 -2.8033
  471MPD2     N 7069   1.010   0.406  16.710 -0.0979  0.5845  0.2366
  471MPD2    H5 7070   1.073   0.481  16.738  2.1005 -1.9276  2.0904
  471MPD2    N1 7071   0.626   0.297  16.445 -0.5747 -0.1258 -0.1100
  471MPD2    H7 7072   0.646   0.199  16.464 -0.6612 -0.2359 -0.5734
  472TMC3    C1 7073   0.495   0.195  16.298  0.1583  0.1740 -0.4684
  472TMC3    C2 7074   0.379   0.127  16.301  0.7481  0.3740  0.0600
  472TMC3    C3 7075   0.385   4.732  16.264 -0.5388  0.8974 -0.1848
  472TMC3    C4 7076   0.610   0.142  16.249  0.1783 -0.0826 -0.2148
  472TMC3    C5 7077   0.613   0.009  16.213  0.0809 -0.1433  0.5309
  472TMC3    C6 7078   0.502   4.663  16.238  0.2718  0.6346  0.0969
  472TMC3     C 7079   0.508   0.311  16.384 -0.2118 -0.3212  1.0499
  472TMC3     O 7080   0.427   0.405  16.371  0.4103  0.2291  0.7337
  472TMC3     H 7081   0.294   0.166  16.356  0.7043 -1.0476  1.0003
  472TMC3    H1 7082   0.704   0.193  16.239  0.2188 -0.2725 -0.7995
  472TMC3    H2 7083   0.519   4.559  16.216 -1.3667 -0.1762  2.7431
  472TMC3    C7 7084   0.737   4.684  16.239  0.6175 -0.1896 -0.5647
  472TMC3    C8 7085   0.269   4.647  16.279 -0.0841  0.1066 -1.0473
  472TMC3    O1 7086   0.736   4.577  16.297  0.4053  0.0521 -0.1100
  472TMC3    O2 7087   0.156   4.692  16.266  0.1433 -0.0470  0.0026
  473MPD2     C 7088   1.017   1.585  13.874  0.0962 -0.5888  0.6797
  473MPD2    C1 7089   0.930   1.696  13.861 -0.1157 -0.4810  0.5930
  473MPD2    C2 7090   0.925   1.786  13.970  0.5299 -0.1870 -0.0281
  473MPD2    C3 7091   1.017   1.780  14.073 -0.0868 -0.4518 -0.8466
  473MPD2    C4 7092   1.102   1.669  14.076  0.3740 -0.6974  0.0674
  473MPD2    C5 7093   1.102   1.568  13.980  0.1365  0.3170 -0.0473
  473MPD2     H 7094   0.869   1.878  13.962  1.2332  0.4043  1.9898
  473MPD2    H1 7095   1.176   1.661  14.155  0.6835 -0.1289 -0.1651
  473MPD2    H2 7096   1.010   1.505  13.800 -0.0475  0.8818 -0.8973
  473MPD2    H3 7097   1.155   1.474  13.985 -3.4131 -1.6745 -0.2214
  473MPD2     N 7098   1.016   1.897  14.158  0.7891 -0.0446 -0.1260
  473MPD2    H5 7099   0.950   1.971  14.135  2.0008  0.7238 -1.1278
  473MPD2    N1 7100   0.855   1.732  13.744 -0.0987  1.1023  0.8273
  473MPD2    H7 7101   0.794   1.812  13.754 -0.1462  0.9216  2.0581
  474TMC3    C1 7102   1.113   2.068  14.295 -0.1891  0.4423  0.8907
  474TMC3    C2 7103   1.005   2.148  14.287 -0.8834  0.2175  0.0734
  474TMC3    C3 7104   1.021   2.285  14.299 -0.5235 -0.2196 -0.1492
  474TMC3    C4 7105   1.238   2.122  14.308 -0.0332 -0.0008 -0.0334
  474TMC3    C5 7106   1.248   2.256  14.322  0.4351  0.3907  0.5312
  474TMC3    C6 7107   1.144   2.341  14.324 -0.4038 -0.4592  0.2599
  474TMC3     C 7108   1.112   1.928  14.253  0.3758  0.1415 -0.2282
  474TMC3     O 7109   1.206   1.861  14.289  0.4481 -0.0403  1.2304
  474TMC3     H 7110   0.909   2.099  14.277 -1.1399  1.1819 -2.3002
  474TMC3    H1 7111   1.322   2.054  14.299  0.2045  0.5744 -2.0968
  474TMC3    H2 7112   1.158   2.448  14.333 -0.3661 -0.5167  0.9190
  474TMC3    C7 7113   1.383   2.311  14.332  0.2529 -0.2561 -0.0094
  474TMC3    C8 7114   0.902   2.363  14.284  0.3434  0.1072  0.5404
  474TMC3    O1 7115   1.479   2.237  14.307  0.1394  0.1772  0.3662
  474TMC3    O2 7116   0.796   2.304  14.267 -0.3608  0.0422  0.4255
  475MPD2     C 7117   0.373   0.167  10.224  0.5017  0.2947 -0.0929
  475MPD2    C1 7118   0.375   0.303  10.215 -0.5398 -0.1954  0.1885
  475MPD2    C2 7119   0.300   0.378  10.305  0.2177 -0.8564 -0.4914
  475MPD2    C3 7120   0.206   0.312  10.383 -0.3215  0.1028 -0.2244
  475MPD2    C4 7121   0.196   0.173  10.386 -0.4944  0.8798  0.1105
  475MPD2    C5 7122   0.283   0.109  10.312 -0.0312 -0.2560  0.6278
  475MPD2     H 7123   0.305   0.486  10.301  1.1836 -0.9257 -1.1102
  475MPD2    H1 7124   0.135   0.111  10.451  0.2648  1.0275  0.9628
  475MPD2    H2 7125   0.438   0.102  10.167 -1.6931 -0.9794 -1.1613
  475MPD2    H3 7126   0.290   0.001  10.325  0.9208 -0.2461  0.2342
  475MPD2     N 7127   0.114   0.396  10.448  0.4573 -0.1022  0.5174
  475MPD2    H5 7128   0.121   0.495  10.426 -0.9068  0.0385  0.6873
  475MPD2    N1 7129   0.446   0.373  10.115 -0.7376 -0.1538 -0.5837
  475MPD2    H7 7130   0.424   0.472  10.105 -0.0076  0.2546  1.7273
  476TMC3    C1 7131   0.570   0.417   9.927  0.5132  0.1864  0.0116
  476TMC3    C2 7132   0.497   0.410   9.812  0.4047  0.2158 -0.5965
  476TMC3    C3 7133   0.466   0.529   9.757 -0.4981 -0.0243 -0.7789
  476TMC3    C4 7134   0.617   0.531   9.978  0.2232  0.5404  0.3065
  476TMC3    C5 7135   0.599   0.649   9.912 -0.3809  0.3126  0.3962
  476TMC3    C6 7136   0.535   0.648   9.790 -0.0015  0.2205 -0.6544
  476TMC3     C 7137   0.529   0.320  10.019  0.0602 -0.1449 -0.1030
  476TMC3     O 7138   0.544   0.197   9.994  0.4942 -0.0761  0.3284
  476TMC3     H 7139   0.460   0.313   9.782 -0.4397  0.3702 -0.0742
  476TMC3    H1 7140   0.677   0.521  10.068 -1.1952  0.1255  1.2237
  476TMC3    H2 7141   0.509   0.742   9.742  0.3957  1.5963  1.8283
  476TMC3    C7 7142   0.601   0.775   9.987  0.7447  0.2497 -0.0783
  476TMC3    C8 7143   0.323   0.548   9.758  0.2471  0.2538  0.4333
  476TMC3    O1 7144   0.595   0.876   9.919  0.2737  0.2617  0.0622
  476TMC3    O2 7145   0.274   0.648   9.709  0.4372  0.0722 -0.0982
  477MPD2     C 7146   2.240   1.635  11.663 -0.8359 -0.0189 -0.4775
  477MPD2    C1 7147   2.127   1.598  11.728 -0.7095 -0.9174 -0.5258
  477MPD2    C2 7148   2.142   1.515  11.838 -0.6699 -0.0011 -0.3811
  477MPD2    C3 7149   2.266   1.488  11.889  0.1471  0.0147  0.8628
  477MPD2    C4 7150   2.372   1.513  11.811 -0.0066 -0.1316  0.5882
  477MPD2    C5 7151   2.360   1.591  11.703 -0.1566 -0.4778  0.0534
  477MPD2     H 7152   2.049   1.484  11.885 -1.3130  0.8291 -1.0871
  477MPD2    H1 7153   2.474   1.482  11.830  0.5740 -0.0430 -2.3709
  477MPD2    H2 7154   2.225   1.700  11.577  1.1792  1.1689  0.0528
  477MPD2    H3 7155   2.445   1.616  11.642 -1.7336 -0.4557 -2.1353
  477MPD2     N 7156   2.269   1.439  12.017 -0.0716 -0.4289  0.4399
  477MPD2    H5 7157   2.177   1.417  12.054 -0.0042  1.1874  1.5822
  477MPD2    N1 7158   2.006   1.651  11.693  0.6943  0.2726  0.1903
  477MPD2    H7 7159   2.009   1.712  11.613  0.6555 -0.5934 -0.4722
  478TMC3    C1 7160   1.771   1.681  11.666 -0.1226 -0.0538 -0.0598
  478TMC3    C2 7161   1.671   1.734  11.746 -0.6828  0.2213  0.0348
  478TMC3    C3 7162   1.584   1.826  11.694  0.2862 -0.4754 -0.9742
  478TMC3    C4 7163   1.785   1.715  11.536  0.3568  0.2698 -0.6712
  478TMC3    C5 7164   1.695   1.810  11.482  0.3333 -0.6893 -0.1597
  478TMC3    C6 7165   1.597   1.869  11.562 -0.5246  0.1989 -0.6278
  478TMC3     C 7166   1.885   1.615  11.744 -0.0323  0.9467 -0.6145
  478TMC3     O 7167   1.853   1.555  11.849  0.1460 -0.3763 -0.3423
  478TMC3     H 7168   1.677   1.725  11.854 -0.2926 -0.2789 -0.0320
  478TMC3    H1 7169   1.864   1.670  11.478  0.1550 -0.6910 -0.1976
  478TMC3    H2 7170   1.524   1.935  11.518 -1.4145 -0.7138 -0.5343
  478TMC3    C7 7171   1.731   1.845  11.347 -0.0574  0.5730  0.5795
  478TMC3    C8 7172   1.492   1.884  11.792 -0.0567 -0.2424  0.2773
  478TMC3    O1 7173   1.850   1.834  11.315  0.2324  0.1155  0.9129
  478TMC3    O2 7174   1.446   1.823  11.887 -0.3806  0.0411 -0.4361
  479MPD2     C 7175   0.388   4.091  15.328  0.2347  0.0360 -0.8440
  479MPD2    C1 7176   0.350   4.021  15.438 -0.3247  0.0264  0.1569
  479MPD2    C2 7177   0.385   4.077  15.560 -0.3615  0.1712 -0.1253
  479MPD2    C3 7178   0.459   4.192  15.567  0.2652 -0.3043 -0.1324
  479MPD2    C4 7179   0.484   4.263  15.453  0.2367 -0.5712 -0.2065
  479MPD2    C5 7180   0.452   4.214  15.333  0.4084  0.1489 -0.1944
  479MPD2     H 7181   0.341   4.042  15.653  0.5965 -1.4214 -0.2583
  479MPD2    H1 7182   0.559   4.340  15.454 -0.9738  0.6231 -0.9158
  479MPD2    H2 7183   0.353   4.049  15.235 -2.0914 -0.9146  0.4623
  479MPD2    H3 7184   0.498   4.262  15.247  0.2520  1.6395  0.5530
  479MPD2     N 7185   0.469   4.266  15.685  0.2147 -0.0039  0.4336
  479MPD2    H5 7186   0.477   4.367  15.682  1.6505 -0.1223  0.1724
  479MPD2    N1 7187   0.270   3.899  15.420 -0.4632  0.6022 -0.4217
  479MPD2    H7 7188   0.262   3.870  15.323 -1.5604 -0.5428  0.0259
  480TMC3    C1 7189   0.192   4.147  15.975 -0.0630  0.4682  0.4276
  480TMC3    C2 7190   0.104   4.190  15.885  0.0866 -0.1575 -0.6497
  480TMC3    C3 7191   0.145   4.299  15.813 -0.1767 -0.2419 -0.0567
  480TMC3    C4 7192   0.317   4.204  15.987 -0.7933 -0.4011  0.0547
  480TMC3    C5 7193   0.366   4.291  15.896 -0.1936  0.1263  0.3951
  480TMC3    C6 7194   0.272   4.351  15.818  0.0145 -0.7486 -0.1037
  480TMC3     C 7195   0.175   4.021  16.043 -0.4888  0.6068 -0.3710
  480TMC3     O 7196   0.274   3.953  16.059 -0.7615 -0.7504  0.3044
  480TMC3     H 7197   0.001   4.158  15.880  0.0204 -0.2279  0.9539
  480TMC3    H1 7198   0.388   4.161  16.057 -0.1215 -0.4477 -0.6674
  480TMC3    H2 7199   0.295   4.443  15.767  1.9842 -0.5562  1.1728
  480TMC3    C7 7200   0.448   4.209  15.804  0.2055 -0.2966  0.7694
  480TMC3    C8 7201   0.068   4.324  15.701 -0.2017  0.2274  0.0049
  480TMC3    O1 7202   0.463   4.093  15.829 -0.0466  0.2118  0.2052
  480TMC3    O2 7203   4.709   4.253  15.687  0.2683  0.0403  0.2725
  481MPD2     C 7204   2.531   3.641  14.221 -0.3501  0.6803  0.0957
  481MPD2    C1 7205   2.483   3.512  14.224 -0.2243 -0.9927  0.1642
  481MPD2    C2 7206   2.478   3.453  14.345 -0.3687 -0.2502  0.1627
  481MPD2    C3 7207   2.524   3.520  14.464  0.2713  0.2329 -0.1628
  481MPD2    C4 7208   2.585   3.648  14.457 -0.2500 -0.6713  0.2241
  481MPD2    C5 7209   2.576   3.706  14.335 -0.8166  0.6213 -0.0895
  481MPD2     H 7210   2.448   3.348  14.344  1.6132 -0.8219  0.4731
  481MPD2    H1 7211   2.620   3.706  14.542 -0.7918  1.1225 -0.7839
  481MPD2    H2 7212   2.537   3.693  14.127 -0.8148  0.3725 -0.1032
  481MPD2    H3 7213   2.599   3.810  14.317  0.1966 -0.2939 -4.0396
  481MPD2     N 7214   2.520   3.466  14.597  0.6044 -0.1301  0.1948
  481MPD2    H5 7215   2.544   3.532  14.670 -1.0207 -1.0258  1.5373
  481MPD2    N1 7216   2.424   3.462  14.100 -0.1465 -0.3748 -0.9326
  481MPD2    H7 7217   2.432   3.526  14.022  2.3824  0.1619 -0.2513
  482TMC3    C1 7218   2.330   3.323  13.941  0.3471 -0.4297 -0.1934
  482TMC3    C2 7219   2.265   3.202  13.918  0.1737  0.5809 -0.5220
  482TMC3    C3 7220   2.188   3.191  13.810 -0.5485  0.1164 -0.1133
  482TMC3    C4 7221   2.331   3.421  13.852  0.2130  0.1283  0.2541
  482TMC3    C5 7222   2.259   3.398  13.739  0.6121  0.3021  0.3910
  482TMC3    C6 7223   2.183   3.284  13.719 -0.4584  0.6822  0.6851
  482TMC3     C 7224   2.377   3.338  14.071  0.8108  0.0185  0.1860
  482TMC3     O 7225   2.371   3.244  14.150  0.0289  0.3294  0.0185
  482TMC3     H 7226   2.264   3.127  13.996  1.2583  0.8694 -0.2270
  482TMC3    H1 7227   2.393   3.508  13.861  2.6798 -1.7917  1.7578
  482TMC3    H2 7228   2.136   3.272  13.622 -0.3947  0.0304  0.7331
  482TMC3    C7 7229   2.278   3.501  13.643 -0.2070  0.1039 -0.6246
  482TMC3    C8 7230   2.083   3.087  13.819  0.4239 -1.0403  0.3069
  482TMC3    O1 7231   2.292   3.614  13.680 -0.3933 -0.3198  0.0221
  482TMC3    O2 7232   2.123   2.986  13.873 -0.2322 -0.0715  0.0150
  483TMC3    C1 7233   0.144   3.228   0.788 -0.1087 -0.4575 -0.1418
  483TMC3    C2 7234   0.222   3.320   0.725  0.2244 -0.0741  0.4128
  483TMC3    C3 7235   0.345   3.345   0.770  0.5568  0.5106  0.7746
  483TMC3    C4 7236   0.178   3.168   0.904 -0.7493 -0.5726  0.2503
  483TMC3    C5 7237   0.306   3.195   0.950  0.2067  0.2916 -0.8773
  483TMC3    C6 7238   0.391   3.279   0.883 -0.3003  0.3394 -0.1733
  483TMC3     C 7239   0.078   3.141   0.694  0.2298  0.3449 -0.0520
  483TMC3     O 7240   0.077   3.184   0.577 -0.0973  0.1771 -0.8334
  483TMC3     H 7241   0.191   3.374   0.637 -1.3502 -0.3276  0.8187
  483TMC3    H1 7242   0.121   3.103   0.970 -0.1111 -0.4595  0.9165
  483TMC3    H2 7243   0.493   3.296   0.914  0.2065 -0.5127 -1.3939
  483TMC3    C7 7244   0.354   3.103   1.053  0.3559  0.6872 -0.0135
  483TMC3    C8 7245   0.443   3.423   0.689 -0.0259 -0.1779 -0.2661
  483TMC3    O1 7246   0.277   3.014   1.094 -0.8458  0.1360  0.5318
  483TMC3    O2 7247   0.414   3.450   0.577  0.3635 -0.3343 -0.2578
  484MPD2     C 7248   2.703   0.666  12.953  0.2797  0.3791  0.1721
  484MPD2    C1 7249   2.720   0.646  12.817 -0.2281  0.2748  0.1889
  484MPD2    C2 7250   2.837   0.675  12.754  0.0106  0.2568  0.0321
  484MPD2    C3 7251   2.945   0.720  12.831  0.4197  0.1265  0.3003
  484MPD2    C4 7252   2.929   0.736  12.973 -0.1432  0.0824 -0.0820
  484MPD2    C5 7253   2.804   0.711  13.030  0.3161 -0.0096  0.0435
  484MPD2     H 7254   2.859   0.666  12.649  0.3063 -0.1031  0.1247
  484MPD2    H1 7255   3.013   0.764  13.035  1.0866 -2.1141 -0.7573
  484MPD2    H2 7256   2.616   0.637  13.009  0.0651  0.7243  0.0173
  484MPD2    H3 7257   2.792   0.719  13.138 -0.9427  0.9882 -0.1756
  484MPD2     N 7258   3.073   0.752  12.780  0.5592  0.1414  0.2907
  484MPD2    H5 7259   3.141   0.773  12.852 -1.3241  0.6030  1.9475
  484MPD2    N1 7260   2.623   0.584  12.738 -0.6488  0.7730  0.3514
  484MPD2    H7 7261   2.542   0.547  12.787  0.0552  0.9917  1.6589
  485TMC3    C1 7262   3.257   0.779  12.634  0.0952 -0.0256 -0.1864
  485TMC3    C2 7263   3.339   0.808  12.743  0.3080 -0.5201  0.2300
  485TMC3    C3 7264   3.473   0.817  12.723 -0.2544 -0.0043  0.0488
  485TMC3    C4 7265   3.306   0.767  12.507  0.2993 -0.0687 -0.4678
  485TMC3    C5 7266   3.444   0.788  12.493 -0.4428  0.0598  0.2696
  485TMC3    C6 7267   3.525   0.824  12.598 -0.1492 -1.0764  0.5224
  485TMC3     C 7268   3.121   0.741  12.652 -0.1915  0.3531  0.1651
  485TMC3     O 7269   3.058   0.721  12.547  0.1371  0.3367 -0.3966
  485TMC3     H 7270   3.307   0.786  12.845  0.6476 -1.2600  0.1769
  485TMC3    H1 7271   3.245   0.712  12.436  0.1463 -0.4201 -0.0672
  485TMC3    H2 7272   3.629   0.850  12.581 -1.5569  2.8913 -2.1329
  485TMC3    C7 7273   3.509   0.730  12.378 -0.7571 -0.7007  0.3149
  485TMC3    C8 7274   3.546   0.724  12.800 -0.6183  0.2819 -0.1166
  485TMC3    O1 7275   3.621   0.689  12.405 -0.8995 -0.0878  0.0361
  485TMC3    O2 7276   3.513   0.699  12.915 -0.1984  0.3397  0.3238
  486MPD2     C 7277   0.605   3.619  13.275  0.4598  0.1796 -0.1836
  486MPD2    C1 7278   0.531   3.578  13.166  0.2108 -0.2519 -0.6356
  486MPD2    C2 7279   0.539   3.656  13.049  0.8449  0.4297 -0.4812
  486MPD2    C3 7280   0.605   3.776  13.042 -0.2158  0.4262 -0.0215
  486MPD2    C4 7281   0.690   3.800  13.149  0.8906  0.5053  0.0473
  486MPD2    C5 7282   0.682   3.728  13.259  0.1340  0.1421 -0.1886
  486MPD2     H 7283   0.488   3.631  12.956  0.0233 -0.5388  0.2376
  486MPD2    H1 7284   0.758   3.884  13.158  0.5753  0.7281  0.3858
  486MPD2    H2 7285   0.602   3.565  13.369  0.8327 -0.0894 -0.3253
  486MPD2    H3 7286   0.748   3.753  13.342  0.2028 -0.2365 -0.1267
  486MPD2     N 7287   0.606   3.857  12.924  0.3145 -1.0632 -0.4083
  486MPD2    H5 7288   0.545   3.826  12.849 -1.6484 -0.3729  0.9124
  486MPD2    N1 7289   0.458   3.461  13.174 -0.7427  0.0158 -0.1023
  486MPD2    H7 7290   0.469   3.416  13.264  0.6121 -2.0370 -1.2697
  487TMC3    C1 7291   0.320   3.280  13.128 -0.2821  0.1729  0.0670
  487TMC3    C2 7292   0.223   3.226  13.042 -0.3186 -0.6082 -0.4353
  487TMC3    C3 7293   0.176   3.102  13.069 -0.0400  0.1414 -0.6031
  487TMC3    C4 7294   0.353   3.213  13.243  0.2924 -0.0519  0.1823
  487TMC3    C5 7295   0.293   3.100  13.267  0.0007  0.1234 -0.3841
  487TMC3    C6 7296   0.205   3.033  13.176  0.2475  0.5666  0.2825
  487TMC3     C 7297   0.377   3.400  13.077 -0.9672  0.1526  0.5905
  487TMC3     O 7298   0.349   3.442  12.966 -0.0891  0.1693 -0.4196
  487TMC3     H 7299   0.193   3.271  12.948  2.3715 -0.1870 -1.0813
  487TMC3    H1 7300   0.417   3.258  13.318  1.3551 -0.9405 -0.1793
  487TMC3    H2 7301   0.153   2.941  13.203 -0.3419  0.9285  0.3797
  487TMC3    C7 7302   0.297   3.056  13.399 -0.2213 -1.1012  0.1063
  487TMC3    C8 7303   0.037   3.097  13.036 -0.3458 -0.6493  0.1018
  487TMC3    O1 7304   0.311   3.141  13.489  0.4446  0.6809  0.3821
  487TMC3    O2 7305   4.720   2.987  13.041 -0.0843  0.3450  0.2179
  488MPD2     C 7306   0.276   1.280  16.137  0.0328  0.3827 -0.1022
  488MPD2    C1 7307   0.350   1.400  16.157  0.0950 -0.6686  0.2576
  488MPD2    C2 7308   0.383   1.434  16.287 -0.4458 -0.0366  0.0760
  488MPD2    C3 7309   0.365   1.346  16.394 -0.1018 -0.8355  0.3641
  488MPD2    C4 7310   0.294   1.226  16.370 -0.8483  0.0211 -0.0919
  488MPD2    C5 7311   0.245   1.192  16.244  0.5372  0.3972  0.2223
  488MPD2     H 7312   0.423   1.532  16.310 -2.1036  0.5803  0.3622
  488MPD2    H1 7313   0.270   1.154  16.447 -1.5661  1.1071  0.6994
  488MPD2    H2 7314   0.240   1.249  16.039  1.2357 -0.6918 -0.2065
  488MPD2    H3 7315   0.189   1.100  16.233 -0.6690  0.8986  2.2152
  488MPD2     N 7316   0.416   1.391  16.522  0.3447  0.3625  0.1328
  488MPD2    H5 7317   0.460   1.482  16.522  0.9688  0.0538  2.1541
  488MPD2    N1 7318   0.386   1.479  16.048  0.2789 -0.4654  0.4097
  488MPD2    H7 7319   0.427   1.571  16.061 -0.3672  0.3255 -3.2403
  489TMC3    C1 7320   0.455   1.392  16.750 -0.0663 -0.0717 -1.0679
  489TMC3    C2 7321   0.541   1.498  16.732  0.2295  0.5282 -0.0857
  489TMC3    C3 7322   0.565   1.576  16.844 -0.2468  0.2162  0.0536
  489TMC3    C4 7323   0.419   1.359  16.876  0.0656 -0.7955 -0.2126
  489TMC3    C5 7324   0.433   1.446  16.981 -0.5614  0.4369  0.5009
  489TMC3    C6 7325   0.505   1.563  16.962 -0.2706 -0.3046 -0.1906
  489TMC3     C 7326   0.419   1.310  16.637 -0.8799  0.1672  0.0356
  489TMC3     O 7327   0.391   1.192  16.654 -0.1294 -0.4484  0.3831
  489TMC3     H 7328   0.611   1.506  16.650 -1.5151  0.3931 -1.5839
  489TMC3    H1 7329   0.380   1.258  16.885  0.6971 -1.0554 -0.4403
  489TMC3    H2 7330   0.519   1.617  17.055  0.7648 -0.2142 -0.3937
  489TMC3    C7 7331   0.426   1.378  17.113 -0.3940 -0.4420 -0.0665
  489TMC3    C8 7332   0.639   1.699  16.818  0.1883  0.1013  0.3141
  489TMC3    O1 7333   0.453   1.256  17.116 -0.1040  0.0296 -0.1474
  489TMC3    O2 7334   0.626   1.747  16.703  0.3507  0.1805 -0.2796
  490MPD2     C 7335   0.848   0.650  17.313 -0.2409  0.2871 -0.3748
  490MPD2    C1 7336   0.978   0.610  17.275  0.5497 -0.2415  0.3539
  490MPD2    C2 7337   1.094   0.667  17.325  0.0860 -0.3481 -0.0712
  490MPD2    C3 7338   1.092   0.754  17.435 -0.5956  0.3168 -0.4572
  490MPD2    C4 7339   0.965   0.809  17.458 -0.4479 -0.4754 -0.1159
  490MPD2    C5 7340   0.851   0.756  17.393  0.3207  0.5487  0.5003
  490MPD2     H 7341   1.187   0.622  17.292 -0.7153 -2.1395  0.0804
  490MPD2    H1 7342   0.957   0.893  17.527  2.0127 -0.5756  0.3016
  490MPD2    H2 7343   0.752   0.603  17.293 -0.9856  1.8982 -0.6367
  490MPD2    H3 7344   0.752   0.796  17.416 -0.0420  0.6868 -1.3045
  490MPD2     N 7345   1.212   0.794  17.488 -0.8757  0.2077  0.2902
  490MPD2    H5 7346   1.292   0.757  17.438  0.2890  1.7284  1.0294
  490MPD2    N1 7347   0.993   0.502  17.184 -0.1266 -0.9372  0.0709
  490MPD2    H7 7348   1.082   0.454  17.174 -0.2532 -1.2795  0.6303
  491TMC3    C1 7349   0.915   0.326  17.045 -0.0985  0.1207 -0.0256
  491TMC3    C2 7350   0.964   0.232  17.130 -0.5218 -0.7146  0.1199
  491TMC3    C3 7351   0.917   0.104  17.140 -0.9714  0.0748 -0.5122
  491TMC3    C4 7352   0.824   0.288  16.954 -0.2519  0.3383 -0.1397
  491TMC3    C5 7353   0.789   0.157  16.939 -0.0423 -0.1693 -0.1506
  491TMC3    C6 7354   0.831   0.065  17.037  0.3678 -0.2690  0.3752
  491TMC3     C 7355   0.886   0.458  17.104  0.8726  0.3761 -0.1299
  491TMC3     O 7356   0.784   0.515  17.069  1.5505  1.1139  0.3564
  491TMC3     H 7357   1.018   0.274  17.215  0.8187  1.9829 -2.0587
  491TMC3    H1 7358   0.792   0.356  16.876 -0.4192  0.2104 -0.1820
  491TMC3    H2 7359   0.783   4.706  17.036 -0.0217 -0.0418 -2.2287
  491TMC3    C7 7360   0.659   0.121  16.877 -0.3415 -0.4253 -0.3346
  491TMC3    C8 7361   0.885   0.082  17.272 -0.3326  0.0179  0.3435
  491TMC3    O1 7362   0.639   0.006  16.863 -0.5795 -0.3321 -0.5685
  491TMC3    O2 7363   0.829   0.176  17.327  0.7894  0.1830 -0.0637
  492MPD2     C 7364   2.213   4.683  10.886  0.6237 -0.3643  0.2206
  492MPD2    C1 7365   2.091   4.674  10.820  0.0139 -0.4166  0.3245
  492MPD2    C2 7366   1.978   4.627  10.887  0.0088 -0.5456 -0.0366
  492MPD2    C3 7367   1.988   4.582  11.022  0.0700  0.3567  0.3007
  492MPD2    C4 7368   2.110   4.592  11.085  0.4286  0.0958  0.4184
  492MPD2    C5 7369   2.222   4.638  11.016 -0.0231  0.4922  0.5133
  492MPD2     H 7370   1.887   4.643  10.830  1.2487 -0.2880 -1.9823
  492MPD2    H1 7371   2.125   4.558  11.187 -0.5772 -1.4067  0.0690
  492MPD2    H2 7372   2.300   4.730  10.842  0.5649 -0.2761  0.2001
  492MPD2    H3 7373   2.319   4.642  11.064 -0.3482 -0.4297  1.2327
  492MPD2     N 7374   1.878   4.535  11.098  0.9061 -0.0119  0.0752
  492MPD2    H5 7375   1.897   4.509  11.194  2.1618 -0.6204 -0.3428
  492MPD2    N1 7376   2.094   4.722  10.685  0.3019 -0.7991  0.2515
  492MPD2    H7 7377   2.188   4.734  10.650  0.4141 -0.2423  0.7312
  493TMC3    C1 7378   2.018   0.081  10.487 -0.1344  0.0316  0.0022
  493TMC3    C2 7379   2.100   0.186  10.492 -0.1829 -0.0923  0.2640
  493TMC3    C3 7380   2.104   0.280  10.396  0.3861  0.1230 -0.1137
  493TMC3    C4 7381   1.926   0.069  10.383  0.0546  0.3872 -0.2956
  493TMC3    C5 7382   1.932   0.174  10.290 -0.5780  0.8871 -0.0371
  493TMC3    C6 7383   2.026   0.269  10.285 -0.3269  0.4790  0.3812
  493TMC3     C 7384   1.985   0.004  10.605 -0.0345  0.6864  0.0866
  493TMC3     O 7385   1.871   4.700  10.619 -0.4224 -0.7637  0.0894
  493TMC3     H 7386   2.155   0.210  10.583 -1.5229  0.4935  0.9219
  493TMC3    H1 7387   1.848   4.732  10.393  1.1518 -0.5034  1.6569
  493TMC3    H2 7388   2.026   0.348  10.212  1.2525 -0.1665 -0.3093
  493TMC3    C7 7389   1.836   0.152  10.187  0.7688  0.1587  0.3128
  493TMC3    C8 7390   2.231   0.358  10.410 -0.2593  0.2050 -0.4439
  493TMC3    O1 7391   1.778   0.254  10.149 -0.1651  0.7432 -0.2335
  493TMC3    O2 7392   2.324   0.311  10.482  0.2227  0.3562  0.1647
  494TMC3    C1 7393   1.530   2.487   0.471 -1.1701 -0.6832 -0.1496
  494TMC3    C2 7394   1.537   2.352   0.490  0.2286  0.1380 -0.0964
  494TMC3    C3 7395   1.567   2.277   0.380 -0.1429  0.4448  0.2991
  494TMC3    C4 7396   1.548   2.546   0.351  0.6069  0.0057 -0.2206
  494TMC3    C5 7397   1.602   2.469   0.247 -0.3613  0.2536 -0.6728
  494TMC3    C6 7398   1.612   2.332   0.259 -0.2671  0.3414 -0.2180
  494TMC3     C 7399   1.542   2.576   0.586  0.1851  0.3944  0.5580
  494TMC3     O 7400   1.500   2.688   0.566  0.2673  0.0162  0.5916
  494TMC3     H 7401   1.516   2.315   0.590  1.1625 -0.5192 -0.1464
  494TMC3    H1 7402   1.541   2.654   0.346  1.3224  0.1337  1.3272
  494TMC3    H2 7403   1.665   2.272   0.186  1.4550  2.7753 -0.9850
  494TMC3    C7 7404   1.613   2.520   0.113 -0.6847 -0.3497 -0.2333
  494TMC3    C8 7405   1.562   2.133   0.392  0.9932  0.0702  0.5188
  494TMC3    O1 7406   1.659   2.454   0.026 -0.1126  0.3422  0.6042
  494TMC3    O2 7407   1.560   2.091   0.506 -0.3823 -0.4281  0.6855
  495TMC3    C1 7408   0.696   4.412  14.983  0.5583  0.7389 -0.3304
  495TMC3    C2 7409   0.672   4.436  14.853 -0.1262 -0.3212 -0.2438
  495TMC3    C3 7410   0.542   4.485  14.824  0.4435 -0.0120  0.6648
  495TMC3    C4 7411   0.609   4.453  15.085  0.1693  0.3504  0.7743
  495TMC3    C5 7412   0.492   4.511  15.051  0.1761  0.0904  0.1778
  495TMC3    C6 7413   0.457   4.523  14.919 -0.8485 -0.0793  0.4306
  495TMC3     C 7414   0.740   4.272  14.998 -0.3706  0.3235 -0.1885
  495TMC3     O 7415   0.700   4.211  15.094  0.3036 -0.1416  0.2049
  495TMC3     H 7416   0.744   4.424  14.773  1.8376  1.4678  1.2461
  495TMC3    H1 7417   0.634   4.435  15.189 -2.8096 -2.3746  1.0456
  495TMC3    H2 7418   0.356   4.554  14.892 -0.7106  0.1136  0.1393
  495TMC3    C7 7419   0.400   4.541  15.164 -0.0502  0.2920  0.4439
  495TMC3    C8 7420   0.474   4.414  14.712 -0.5085 -0.5544 -0.0191
  495TMC3    O1 7421   0.449   4.558  15.276 -0.3216  0.4050 -0.1137
  495TMC3    O2 7422   0.352   4.437  14.702 -0.1203 -0.4230  0.4749
  496MPD2     C 7423   2.312   4.361  14.682 -0.0020  0.7188  0.3759
  496MPD2    C1 7424   2.415   4.341  14.767  0.4648  0.1531 -0.5051
  496MPD2    C2 7425   2.385   4.314  14.902  0.0639 -0.2955 -0.1015
  496MPD2    C3 7426   2.262   4.321  14.956  0.3855  0.5142  0.5576
  496MPD2    C4 7427   2.160   4.334  14.865  0.1010  0.3937  0.5534
  496MPD2    C5 7428   2.181   4.357  14.734  0.5878  0.1793  0.2689
  496MPD2     H 7429   2.470   4.300  14.968 -1.7136 -0.9230  2.0151
  496MPD2    H1 7430   2.056   4.347  14.891  0.3774  1.0740  1.3533
  496MPD2    H2 7431   2.323   4.386  14.577  1.4036 -0.3866  0.2558
  496MPD2    H3 7432   2.096   4.352  14.667  1.1499 -2.0228 -0.2838
  496MPD2     N 7433   2.233   4.307  15.096 -0.0693 -0.5470  0.1508
  496MPD2    H5 7434   2.137   4.306  15.129 -0.0959 -0.8812  0.0609
  496MPD2    N1 7435   2.551   4.358  14.724 -0.3497  0.2843 -0.0064
  496MPD2    H7 7436   2.562   4.367  14.623 -1.1729  2.6827  0.1319
  497TMC3    C1 7437   2.260   4.329  15.330  0.0964  0.5015  0.2787
  497TMC3    C2 7438   2.129   4.375  15.335 -0.0847  0.4588 -0.7449
  497TMC3    C3 7439   2.073   4.347  15.456 -0.2358 -0.4986 -0.1796
  497TMC3    C4 7440   2.343   4.283  15.432 -0.0598 -0.6353  0.1983
  497TMC3    C5 7441   2.275   4.261  15.550  0.1718  0.0712 -0.8481
  497TMC3    C6 7442   2.142   4.296  15.562 -0.1480 -0.0499 -0.3374
  497TMC3     C 7443   2.324   4.312  15.198  0.2603  0.3422 -0.1354
  497TMC3     O 7444   2.446   4.303  15.188  0.4751  0.3870 -0.3459
  497TMC3     H 7445   2.067   4.412  15.254 -0.5275  0.4224 -0.4214
  497TMC3    H1 7446   2.439   4.240  15.406  0.9437  0.0804  2.7407
  497TMC3    H2 7447   2.094   4.286  15.658  2.6972  0.4016  1.1471
  497TMC3    C7 7448   2.323   4.156  15.640  0.3742 -0.5055 -0.1280
  497TMC3    C8 7449   1.930   4.381  15.476  0.2027  0.1265  0.1641
  497TMC3    O1 7450   2.243   4.080  15.695 -0.3302 -0.4952  0.1411
  497TMC3    O2 7451   1.879   4.460  15.398  0.0054  0.3849 -0.7010
  498MPD2     C 7452   4.578   0.326   9.736 -0.4551 -0.0187  0.9340
  498MPD2    C1 7453   4.465   0.386   9.786 -0.4294  0.3160  0.0299
  498MPD2    C2 7454   4.387   0.312   9.874 -0.3644  0.1580 -0.2165
  498MPD2    C3 7455   4.402   0.176   9.897 -1.0207 -1.4245  0.2099
  498MPD2    C4 7456   4.516   0.121   9.836 -0.3399  1.3369  0.4626
  498MPD2    C5 7457   4.603   0.198   9.759  0.4894 -0.3099 -0.2857
  498MPD2     H 7458   4.307   0.359   9.929  0.6543 -2.2415  3.3424
  498MPD2    H1 7459   4.544   0.016   9.844 -1.3831  0.8935 -1.8335
  498MPD2    H2 7460   4.646   0.381   9.673 -1.7872  0.5612 -0.0034
  498MPD2    H3 7461   4.682   0.148   9.705 -2.0084 -0.3491 -3.9095
  498MPD2     N 7462   4.309   0.108   9.976 -0.2925 -0.5990  0.1608
  498MPD2    H5 7463   4.229   0.159  10.011  0.7644 -0.5394  2.4688
  498MPD2    N1 7464   4.427   0.516   9.753 -0.1355 -0.9361 -0.3070
  498MPD2    H7 7465   4.342   0.548   9.799  0.6219 -0.3751  0.7193
  499TMC3    C1 7466   4.471   0.743   9.680  0.2037  0.2815 -0.1034
  499TMC3    C2 7467   4.579   0.821   9.660 -0.0451 -0.0018 -0.0020
  499TMC3    C3 7468   4.566   0.954   9.649  0.2610 -0.3924 -0.3451
  499TMC3    C4 7469   4.346   0.793   9.666  0.6673  0.8785  0.0518
  499TMC3    C5 7470   4.333   0.931   9.647  0.7212  0.3622  0.0658
  499TMC3    C6 7471   4.443   1.013   9.646 -0.8533  0.1036  0.5231
  499TMC3     C 7472   4.496   0.598   9.667  0.6174 -0.4919 -0.5608
  499TMC3     O 7473   4.597   0.579   9.602 -0.6093 -0.1282  0.5677
  499TMC3     H 7474   4.676   0.777   9.677  1.1666  1.1502 -3.8805
  499TMC3    H1 7475   4.258   0.734   9.688 -0.1987  0.6852 -4.0639
  499TMC3    H2 7476   4.434   1.117   9.615 -2.3171 -0.6037 -1.4507
  499TMC3    C7 7477   4.212   1.003   9.690 -0.6116 -0.1539  0.3069
  499TMC3    C8 7478   4.686   1.037   9.634  0.1845 -0.3904 -0.5351
  499TMC3    O1 7479   4.231   1.113   9.738 -0.0315  0.3128 -0.4325
  499TMC3    O2 7480   0.050   0.972   9.612  0.2785 -0.1603 -0.3392
  500MPD2     C 7481   0.700   1.241   9.928 -0.0903  0.9567 -0.0147
  500MPD2    C1 7482   0.668   1.332  10.029  0.0013 -0.2846  0.4364
  500MPD2    C2 7483   0.540   1.359  10.056  1.0302  0.3845 -0.4121
  500MPD2    C3 7484   0.437   1.296   9.989 -0.0752  0.2320  0.2456
  500MPD2    C4 7485   0.465   1.196   9.893 -0.5276 -0.3041  0.2234
  500MPD2    C5 7486   0.596   1.168   9.863  0.5957 -0.1919 -0.1120
  500MPD2     H 7487   0.531   1.430  10.136 -1.3962  2.4044 -2.4655
  500MPD2    H1 7488   0.390   1.147   9.833  0.6203 -1.6023 -0.1594
  500MPD2    H2 7489   0.801   1.209   9.905 -0.9936 -1.9851  0.0541
  500MPD2    H3 7490   0.627   1.089   9.794 -1.6106 -1.3418  0.2042
  500MPD2     N 7491   0.306   1.332  10.012  0.5367 -0.3288  0.3256
  500MPD2    H5 7492   0.291   1.419  10.063 -0.1728 -1.4859  2.0599
  500MPD2    N1 7493   0.768   1.404  10.102 -0.3069  0.0020  0.3479
  500MPD2    H7 7494   0.744   1.487  10.157  0.1186  0.1972  0.2401
  501TMC3    C1 7495   0.977   1.480  10.169  0.0746 -0.2439 -0.3488
  501TMC3    C2 7496   0.921   1.601  10.202 -0.8164  0.2287 -0.5763
  501TMC3    C3 7497   0.987   1.672  10.298  0.0702  0.2389 -0.1306
  501TMC3    C4 7498   1.099   1.441  10.216 -0.1889  0.2318 -0.0288
  501TMC3    C5 7499   1.165   1.525  10.299  0.7480  0.4903  0.1235
  501TMC3    C6 7500   1.107   1.639  10.348 -0.1006 -0.4863 -0.6380
  501TMC3     C 7501   0.901   1.382  10.085 -0.1732  0.2411  0.3618
  501TMC3     O 7502   0.958   1.280  10.063 -0.8414  0.2940 -0.5976
  501TMC3     H 7503   0.833   1.642  10.155 -1.4239 -1.0459 -0.5616
  501TMC3    H1 7504   1.147   1.347  10.191  0.9601  0.9241 -0.4245
  501TMC3    H2 7505   1.157   1.710  10.413  1.7747 -2.3164 -0.0712
  501TMC3    C7 7506   1.290   1.482  10.350  0.2899 -0.5927  0.6401
  501TMC3    C8 7507   0.950   1.804  10.345 -0.0906 -0.6738  0.1427
  501TMC3    O1 7508   1.311   1.360  10.349 -0.0348  0.0601  0.9744
  501TMC3    O2 7509   0.975   1.813  10.462  0.0063 -0.0866  0.5082
  502TMC3    C1 7510   0.103   0.380  15.036  0.3357 -0.1753  0.3936
  502TMC3    C2 7511   0.072   0.505  14.992  0.0725 -0.2091 -0.4747
  502TMC3    C3 7512   4.683   0.542  14.943  0.4478  0.5059  0.3711
  502TMC3    C4 7513   0.006   0.283  15.025  0.2679  0.2776 -0.6749
  502TMC3    C5 7514   4.615   0.325  14.980  0.0608 -0.0799  0.3479
  502TMC3    C6 7515   4.585   0.448  14.937  0.4193  0.5914 -0.4392
  502TMC3     C 7516   0.149   0.403  15.168  0.0345  0.3786  0.1740
  502TMC3     O 7517   0.222   0.497  15.191 -0.2270  0.0806  0.0560
  502TMC3     H 7518   0.147   0.584  14.995  0.8978 -0.9044 -2.7260
  502TMC3    H1 7519   0.021   0.184  15.066 -0.9355 -0.0154 -0.9416
  502TMC3    H2 7520   4.489   0.475  14.895  0.6607  2.6421  0.3639
  502TMC3    C7 7521   4.515   0.267  15.070 -0.0435 -0.7378 -0.8755
  502TMC3    C8 7522   4.658   0.689  14.922  0.0473 -0.2052 -0.1350
  502TMC3    O1 7523   4.559   0.211  15.168 -0.3777 -0.0833  0.5337
  502TMC3    O2 7524   0.012   0.763  14.881 -0.8084 -0.0249 -0.3472
  503MPD2     C 7525   2.015   1.254  16.622 -0.7307  0.0734  0.1075
  503MPD2    C1 7526   2.014   1.274  16.759 -0.5346 -1.4660  0.0854
  503MPD2    C2 7527   2.074   1.167  16.835 -0.4568  0.7512  0.7818
  503MPD2    C3 7528   2.134   1.058  16.774  0.2290 -0.0852 -0.0167
  503MPD2    C4 7529   2.130   1.045  16.636  0.7478  0.0489  0.0925
  503MPD2    C5 7530   2.066   1.141  16.562 -0.3056 -0.4382 -0.1049
  503MPD2     H 7531   2.063   1.167  16.943 -0.2719  2.1997  0.7990
  503MPD2    H1 7532   2.179   0.968  16.578 -0.5971 -0.6052 -0.1653
  503MPD2    H2 7533   1.950   1.316  16.562  0.2530  0.4312 -0.5844
  503MPD2    H3 7534   2.059   1.131  16.455  0.4269  0.0030 -0.1939
  503MPD2     N 7535   2.197   0.957  16.853 -0.2426  0.1230 -0.0635
  503MPD2    H5 7536   2.189   0.969  16.954  1.6613  0.8820  0.0028
  503MPD2    N1 7537   1.959   1.387  16.823  0.1715 -0.0777 -0.7536
  503MPD2    H7 7538   1.947   1.370  16.923 -2.1478 -2.7360 -1.5128
  504TMC3    C1 7539   2.333   0.784  16.912 -0.2840  0.2207  0.1566
  504TMC3    C2 7540   2.277   0.815  17.034  0.4442 -0.0496  0.1402
  504TMC3    C3 7541   2.361   0.823  17.141  0.1065 -0.4309  0.0161
  504TMC3    C4 7542   2.456   0.739  16.894  0.1996  0.4135 -0.0070
  504TMC3    C5 7543   2.534   0.745  16.999 -0.3447  0.5566 -0.1239
  504TMC3    C6 7544   2.494   0.790  17.125  0.3441  0.6704  0.0573
  504TMC3     C 7545   2.281   0.858  16.804  0.6679  0.3451  0.1386
  504TMC3     O 7546   2.321   0.825  16.691  0.1122  0.2785 -0.4559
  504TMC3     H 7547   2.171   0.835  17.039  0.4115 -0.4525  1.0309
  504TMC3    H1 7548   2.489   0.719  16.793  0.3023 -0.9939  0.3193
  504TMC3    H2 7549   2.563   0.819  17.204  2.0747  2.1078 -1.9543
  504TMC3    C7 7550   2.671   0.729  16.973 -0.3046  0.9471 -0.8658
  504TMC3    C8 7551   2.313   0.875  17.263 -0.3458  0.6877  0.8253
  504TMC3    O1 7552   2.709   0.753  16.860 -0.4077 -0.1882 -0.2571
  504TMC3    O2 7553   2.221   0.951  17.244 -0.5089 -0.5212  0.0214
  505MPD2     C 7554   2.945   4.262  10.837 -0.7092  0.2883  0.2471
  505MPD2    C1 7555   3.082   4.264  10.809 -0.0818  0.3837  0.7549
  505MPD2    C2 7556   3.152   4.387  10.822 -0.6524 -0.2216  0.1247
  505MPD2    C3 7557   3.082   4.498  10.843 -0.4583 -0.0166  0.2885
  505MPD2    C4 7558   2.947   4.495  10.865  0.6609 -0.5840  0.2869
  505MPD2    C5 7559   2.878   4.377  10.869  0.0230  0.1991 -0.5209
  505MPD2     H 7560   3.260   4.390  10.825 -0.7458  0.2955  2.6383
  505MPD2    H1 7561   2.891   4.583  10.894 -0.7247 -0.4977 -2.6534
  505MPD2    H2 7562   2.886   4.171  10.843  0.3878 -0.5883 -2.1501
  505MPD2    H3 7563   2.775   4.377  10.904 -0.3105  0.6448 -1.5109
  505MPD2     N 7564   3.139   4.630  10.849  0.3152  0.1373  0.5568
  505MPD2    H5 7565   3.094   4.694  10.914 -0.6100 -1.5697  1.5923
  505MPD2    N1 7566   3.150   4.138  10.791  0.2114  0.0523 -0.4418
  505MPD2    H7 7567   3.104   4.048  10.805  0.1151  0.0245 -0.9437
  506TMC3    C1 7568   3.342   4.004  10.737 -0.4622  0.2383  0.1779
  506TMC3    C2 7569   3.402   3.960  10.620 -0.0777  0.8490 -0.2833
  506TMC3    C3 7570   3.526   3.904  10.626  0.5766 -0.6450 -0.2717
  506TMC3    C4 7571   3.414   4.002  10.854 -0.6698  0.7037  0.2118
  506TMC3    C5 7572   3.546   3.971  10.846 -0.1460 -0.3780  0.5967
  506TMC3    C6 7573   3.600   3.911  10.738 -0.3422 -0.4796 -0.2088
  506TMC3     C 7574   3.272   4.131  10.724 -0.7616 -0.4275 -0.9232
  506TMC3     O 7575   3.340   4.227  10.686  0.1631 -0.6497 -0.8695
  506TMC3     H 7576   3.352   3.987  10.528 -0.1651  0.8297 -0.2415
  506TMC3    H1 7577   3.370   4.025  10.950 -2.3851  0.3310 -0.4916
  506TMC3    H2 7578   3.704   3.882  10.734 -0.4479 -0.9350  0.2396
  506TMC3    C7 7579   3.639   4.057  10.910 -0.1455 -0.0492 -0.1196
  506TMC3    C8 7580   3.599   3.879  10.502 -0.7151 -0.2270 -0.2134
  506TMC3    O1 7581   3.759   4.037  10.891 -0.1671  0.1175 -0.0445
  506TMC3    O2 7582   3.550   3.801  10.422 -0.6280  0.7583 -0.1776
  507TMC3    C1 7583   3.514   0.822  15.542  0.0800 -0.3935 -0.3569
  507TMC3    C2 7584   3.437   0.760  15.447 -0.4383 -0.2041  0.1916
  507TMC3    C3 7585   3.450   0.797  15.312  0.2017  0.3651 -0.0606
  507TMC3    C4 7586   3.589   0.932  15.516  0.4364  0.6735 -0.4749
  507TMC3    C5 7587   3.591   0.966  15.382  0.4908  0.1744 -0.3486
  507TMC3    C6 7588   3.534   0.898  15.278  0.0511  0.9107 -0.7087
  507TMC3     C 7589   3.491   0.777  15.678  0.2785  0.1132 -0.5330
  507TMC3     O 7590   3.425   0.673  15.686 -0.1659  0.5578 -0.1776
  507TMC3     H 7591   3.371   0.678  15.470  0.2727 -0.5787  0.8789
  507TMC3    H1 7592   3.637   0.998  15.587  0.2344 -2.5326  2.6360
  507TMC3    H2 7593   3.558   0.915  15.174 -1.5773 -0.9736 -1.3881
  507TMC3    C7 7594   3.569   1.109  15.371  0.6009  0.1207  0.7829
  507TMC3    C8 7595   3.336   0.804  15.228 -0.1449  0.3467 -0.1276
  507TMC3    O1 7596   3.627   1.186  15.448 -0.6769 -0.2778  0.5506
  507TMC3    O2 7597   3.333   0.896  15.145  0.4292 -0.2682  0.1811
  508MPD2     C 7598   4.302   2.631  15.545 -0.4038 -1.0464 -0.4300
  508MPD2    C1 7599   4.273   2.748  15.602  1.4318 -0.7544  0.0459
  508MPD2    C2 7600   4.264   2.866  15.528 -0.4091 -0.2574  0.6059
  508MPD2    C3 7601   4.275   2.859  15.391  0.9185 -0.1338 -0.3961
  508MPD2    C4 7602   4.297   2.733  15.337 -0.3876 -0.6895  0.8207
  508MPD2    C5 7603   4.313   2.617  15.413  0.4968  0.0186 -0.4053
  508MPD2     H 7604   4.256   2.966  15.569 -0.3083  0.4555 -1.1010
  508MPD2    H1 7605   4.298   2.721  15.229  0.1993 -0.3627  0.7867
  508MPD2    H2 7606   4.298   2.545  15.612  2.3938  1.2624  2.7333
  508MPD2    H3 7607   4.338   2.521  15.371  1.5730 -0.0533  0.3828
  508MPD2     N 7608   4.275   2.979  15.321 -0.2856  0.3716 -0.5241
  508MPD2    H5 7609   4.262   3.062  15.378  0.6858 -0.0575  0.3175
  508MPD2    N1 7610   4.273   2.759  15.743 -0.4657 -0.9077  0.0312
  508MPD2    H7 7611   4.285   2.669  15.790 -2.4131 -0.7611  0.8309
  509TMC3    C1 7612   4.221   3.347  15.078 -0.0954 -0.2676 -0.0452
  509TMC3    C2 7613   4.294   3.421  15.173  0.1147  0.6468  0.2656
  509TMC3    C3 7614   4.361   3.346  15.265 -1.1067 -0.2572 -0.0946
  509TMC3    C4 7615   4.225   3.210  15.077  1.0353 -1.2932  0.2420
  509TMC3    C5 7616   4.304   3.142  15.160  0.8947  0.1920  0.6531
  509TMC3    C6 7617   4.372   3.208  15.248  0.7299  0.0185  0.3381
  509TMC3     C 7618   4.094   3.406  15.044  0.0784  0.5002 -0.7412
  509TMC3     O 7619   4.007   3.323  15.022  0.7308 -0.7046 -0.2046
  509TMC3     H 7620   4.299   3.529  15.172 -1.4346  0.6973 -1.7108
  509TMC3    H1 7621   4.155   3.155  15.014  0.9846 -0.3078 -0.5536
  509TMC3    H2 7622   4.435   3.146  15.311  0.2538 -1.7272 -0.9010
  509TMC3    C7 7623   4.283   3.005  15.186  0.3224 -0.2047  1.0060
  509TMC3    C8 7624   4.397   3.391  15.400 -0.3480 -0.4541  0.1236
  509TMC3    O1 7625   4.300   2.930  15.093  0.2502 -0.4259 -0.2795
  509TMC3    O2 7626   4.423   3.300  15.477 -0.3051  0.5597 -0.4838
  510MPD2     C 7627   1.635   4.694  14.547 -0.0692 -0.3401 -0.2583
  510MPD2    C1 7628   1.704   4.579  14.585 -0.7037 -0.4980 -0.1400
  510MPD2    C2 7629   1.792   4.521  14.502  0.2072  0.2686  0.7962
  510MPD2    C3 7630   1.816   4.573  14.373  0.7685 -0.2124  0.5607
  510MPD2    C4 7631   1.744   4.687  14.337 -0.2126  0.0671 -0.5711
  510MPD2    C5 7632   1.660   0.010  14.426  0.0204  0.4849 -0.0780
  510MPD2     H 7633   1.858   4.438  14.525 -0.0420 -0.2344 -0.3163
  510MPD2    H1 7634   1.760   4.732  14.239 -2.9077  2.2617 -0.0001
  510MPD2    H2 7635   1.591   0.023  14.620 -2.9148 -1.8333 -0.6106
  510MPD2    H3 7636   1.606   0.101  14.406 -2.7378 -0.9268  0.9084
  510MPD2     N 7637   1.919   4.510  14.295  0.3196  0.5450  0.9221
  510MPD2    H5 7638   1.963   4.430  14.339 -0.8340  0.6208  2.1999
  510MPD2    N1 7639   1.685   4.554  14.724  0.1154  0.6191  0.2947
  510MPD2    H7 7640   1.611   4.607  14.768 -0.9276 -0.8229  0.2534
  511TMC3    C1 7641   1.707   4.438  14.931 -0.3262 -0.0053 -0.6499
  511TMC3    C2 7642   1.593   4.489  14.969 -0.1173 -0.7960 -0.8398
  511TMC3    C3 7643   1.548   4.447  15.094  0.2204 -0.1210 -0.2266
  511TMC3    C4 7644   1.776   4.357  15.013 -0.6156 -0.1523  0.0084
  511TMC3    C5 7645   1.728   4.313  15.125 -1.1333  0.3254 -0.7132
  511TMC3    C6 7646   1.615   4.366  15.173  0.2819  0.1000  0.1881
  511TMC3     C 7647   1.748   4.450  14.790 -0.6463 -0.2438 -0.1646
  511TMC3     O 7648   1.846   4.386  14.763  0.1288  0.1484 -0.4669
  511TMC3     H 7649   1.524   4.551  14.912 -1.4551 -1.4510  0.0795
  511TMC3    H1 7650   1.869   4.317  14.975 -0.5185 -0.9442  1.0657
  511TMC3    H2 7651   1.573   4.333  15.267  0.4187 -0.1454  0.1647
  511TMC3    C7 7652   1.802   4.206  15.193  0.0538  0.6986  0.0843
  511TMC3    C8 7653   1.425   4.515  15.140 -0.2106  0.8357  0.7899
  511TMC3    O1 7654   1.916   4.189  15.160 -0.2538  0.3204  0.1989
  511TMC3    O2 7655   1.418   4.628  15.106  0.9254 -0.2347 -0.2063
  512TMC3    C1 7656   0.808   3.551  13.650  0.1959  0.3067 -0.0434
  512TMC3    C2 7657   0.938   3.570  13.686 -0.0620  0.0641 -0.0087
  512TMC3    C3 7658   1.017   3.459  13.712 -0.1972 -0.1936  0.0759
  512TMC3    C4 7659   0.752   3.428  13.645 -0.2838 -0.3298  0.3324
  512TMC3    C5 7660   0.833   3.322  13.660  0.1173  0.3329 -0.0934
  512TMC3    C6 7661   0.965   3.334  13.699 -0.6046  0.3533  0.1368
  512TMC3     C 7662   0.725   3.671  13.623  0.7338 -0.8176 -0.0796
  512TMC3     O 7663   0.784   3.776  13.592 -0.2780  0.7710  0.2337
  512TMC3     H 7664   0.960   3.674  13.706  0.4652  0.3296 -2.0670
  512TMC3    H1 7665   0.651   3.415  13.606  0.1341 -0.4873 -0.6823
  512TMC3    H2 7666   1.034   3.256  13.727  1.1422  1.3849 -1.3036
  512TMC3    C7 7667   0.761   3.200  13.678  0.1173 -0.3050  0.4211
  512TMC3    C8 7668   1.142   3.471  13.781 -0.1850 -0.9579 -0.8963
  512TMC3    O1 7669   0.636   3.205  13.689  0.1715  0.3325 -0.4886
  512TMC3    O2 7670   1.195   3.371  13.836 -0.0150 -0.0984  0.0857
  513MPD2     C 7671   2.690   4.063  12.742  0.2253  0.3185  0.0557
  513MPD2    C1 7672   2.674   3.932  12.702  0.0827  0.1064 -0.0015
  513MPD2    C2 7673   2.734   3.832  12.783 -0.5944 -0.0619  0.2127
  513MPD2    C3 7674   2.818   3.857  12.887 -0.2961 -0.1173  0.7306
  513MPD2    C4 7675   2.838   3.989  12.928 -0.5848  0.8082 -0.6340
  513MPD2    C5 7676   2.781   4.088  12.842  0.5013  0.9182 -0.2333
  513MPD2     H 7677   2.725   3.728  12.755 -1.5691  0.2324 -0.5700
  513MPD2    H1 7678   2.902   4.016  13.012 -2.0199  1.2705  0.3113
  513MPD2    H2 7679   2.647   4.148  12.692 -1.8737 -1.0533 -0.4751
  513MPD2    H3 7680   2.804   4.192  12.861  1.4224  0.3486  1.7855
  513MPD2     N 7681   2.885   3.744  12.949  0.4208  0.3358 -0.0741
  513MPD2    H5 7682   2.860   3.657  12.902 -0.5980  1.2081 -1.1556
  513MPD2    N1 7683   2.603   3.902  12.588 -0.2347  0.7643 -0.5035
  513MPD2    H7 7684   2.576   3.984  12.535 -0.0610 -0.6241 -2.7292
  514TMC3    C1 7685   2.584   3.793  12.380  0.3096 -0.4551  0.7622
  514TMC3    C2 7686   2.640   3.909  12.320 -0.1149 -0.3125  0.2058
  514TMC3    C3 7687   2.727   3.899  12.219  0.2081 -0.8035 -0.5360
  514TMC3    C4 7688   2.621   3.670  12.328 -0.1087  0.9572 -0.0733
  514TMC3    C5 7689   2.723   3.665  12.238 -0.6930 -0.2520 -1.3582
  514TMC3    C6 7690   2.775   3.773  12.177  0.4074  0.1360 -0.8953
  514TMC3     C 7691   2.593   3.779  12.529 -0.3212 -0.4634 -0.0125
  514TMC3     O 7692   2.632   3.671  12.568  0.1289 -0.6378  0.5999
  514TMC3     H 7693   2.605   4.009  12.344 -0.7423  0.0821 -2.3095
  514TMC3    H1 7694   2.582   3.579  12.372  2.2177 -0.8646 -1.7719
  514TMC3    H2 7695   2.852   3.755  12.103 -0.2210 -0.5006 -1.3949
  514TMC3    C7 7696   2.829   3.566  12.272  0.2643  0.2816  0.0016
  514TMC3    C8 7697   2.805   4.018  12.190  0.1837  0.3074 -0.1433
  514TMC3    O1 7698   2.930   3.568  12.197 -0.3661  0.3256  0.0205
  514TMC3    O2 7699   2.790   4.113  12.266  0.0362 -0.6178  0.4333
  515MPD2     C 7700   1.421   0.233  14.591  0.7006  0.1065  0.9250
  515MPD2    C1 7701   1.348   0.315  14.509  0.5687  0.6807 -0.6106
  515MPD2    C2 7702   1.380   0.447  14.500 -0.1519 -0.2016 -0.8140
  515MPD2    C3 7703   1.487   0.501  14.574  0.3437  0.2260 -0.3063
  515MPD2    C4 7704   1.553   0.417  14.665 -0.0887  0.1937 -0.1507
  515MPD2    C5 7705   1.524   0.286  14.661  0.7706  0.0892  0.5869
  515MPD2     H 7706   1.317   0.509  14.438  1.2972  3.7459  1.5945
  515MPD2    H1 7707   1.635   0.450  14.727  0.7172  0.3555 -1.2864
  515MPD2    H2 7708   1.423   0.126  14.604  1.6658  0.0736  0.4949
  515MPD2    H3 7709   1.576   0.218  14.728  0.4361 -1.4716 -0.7263
  515MPD2     N 7710   1.518   0.638  14.565  0.2004  0.1299 -0.3414
  515MPD2    H5 7711   1.593   0.668  14.628 -0.2786 -0.1544  0.3677
  515MPD2    N1 7712   1.230   0.270  14.446 -0.1675 -0.4784 -0.4031
  515MPD2    H7 7713   1.177   0.348  14.407  1.7300 -0.3179 -2.6682
  516TMC3    C1 7714   1.031   0.151  14.422  0.2240  0.5108 -0.0589
  516TMC3    C2 7715   0.982   0.239  14.326 -0.2883  1.5125  0.2044
  516TMC3    C3 7716   0.850   0.276  14.325  0.7624 -0.8256 -0.0754
  516TMC3    C4 7717   0.945   0.092  14.512  0.3905  0.0721  0.3803
  516TMC3    C5 7718   0.809   0.130  14.506  0.2743 -0.5048  0.0855
  516TMC3    C6 7719   0.761   0.217  14.413  0.1050 -0.0552 -0.2666
  516TMC3     C 7720   1.169   0.149  14.456 -0.4828  0.1238  0.0078
  516TMC3     O 7721   1.215   0.044  14.496 -0.4382  0.2501  0.2379
  516TMC3     H 7722   1.045   0.293  14.256 -0.1840  0.0940 -0.8140
  516TMC3    H1 7723   0.979   0.031  14.595 -1.0361  1.1186  1.7229
  516TMC3    H2 7724   0.664   0.262  14.432 -0.6980 -1.3780 -1.2421
  516TMC3    C7 7725   0.730   0.118  14.626 -0.3055 -0.2101  0.0854
  516TMC3    C8 7726   0.803   0.370  14.225 -0.0868 -0.6941 -0.0751
  516TMC3    O1 7727   0.792   0.140  14.730 -0.5906 -0.6965 -1.0244
  516TMC3    O2 7728   0.687   0.363  14.193 -0.1878  0.1872 -0.2297
  517MPD2     C 7729   0.995   2.804   0.221  0.4431 -0.8386  0.3592
  517MPD2    C1 7730   0.953   2.855   0.100  0.6605 -0.7994 -0.2371
  517MPD2    C2 7731   0.981   2.993   0.090 -0.0153  0.3158  0.2470
  517MPD2    C3 7732   1.025   3.073   0.196  0.1097 -0.0922 -0.4123
  517MPD2    C4 7733   1.050   3.015   0.317 -0.7472 -0.0990  0.0991
  517MPD2    C5 7734   1.047   2.880   0.322 -0.1195  0.8142  0.0278
  517MPD2     H 7735   0.956   3.050   0.002 -0.9950  0.2084  0.4526
  517MPD2    H1 7736   1.075   3.070   0.407 -1.6200  1.9586 -0.9443
  517MPD2    H2 7737   0.993   2.699   0.245  1.1479 -0.2643  2.9787
  517MPD2    H3 7738   1.079   2.830   0.413  0.2454  0.6709 -0.1793
  517MPD2     N 7739   1.035   3.208   0.180 -0.8805 -0.5905  0.2938
  517MPD2    H5 7740   1.071   3.258   0.260 -0.3012  0.4021 -0.5787
  517MPD2    N1 7741   0.907   2.775  17.744 -0.3496 -0.0394 -0.3544
  517MPD2    H7 7742   0.886   2.818  17.655 -0.5941  1.3741  0.3813
  518TMC3    C1 7743   0.870   2.570  17.618  0.1285 -0.2479 -0.5861
  518TMC3    C2 7744   0.802   2.453  17.627 -0.5191  0.1431  0.3793
  518TMC3    C3 7745   0.814   2.370  17.511  0.1478  0.5721 -0.1245
  518TMC3    C4 7746   0.947   2.610  17.511 -0.6551  0.2852 -0.1427
  518TMC3    C5 7747   0.945   2.523  17.406  0.6914 -0.3852  0.7485
  518TMC3    C6 7748   0.878   2.407  17.397  0.3773 -0.4886  0.2720
  518TMC3     C 7749   0.872   2.641   0.001  0.2860 -0.3641  0.4671
  518TMC3     O 7750   0.843   2.583   0.102 -0.1992 -0.4808 -0.5053
  518TMC3     H 7751   0.736   2.433  17.710 -1.2004  0.5938 -0.0527
  518TMC3    H1 7752   1.010   2.698  17.514 -0.1280 -0.0788 -0.5228
  518TMC3    H2 7753   0.867   2.359  17.300  0.6355 -0.1541  0.0785
  518TMC3    C7 7754   1.069   2.514  17.333 -0.1971  0.1597 -0.5427
  518TMC3    C8 7755   0.800   2.221  17.526  0.0872  0.1240  0.3498
  518TMC3    O1 7756   1.133   2.617  17.321  0.5128  0.0872 -0.0846
  518TMC3    O2 7757   0.817   2.153  17.428 -0.0427 -0.3996 -0.4472
  519MPD2     C 7758   2.376   1.037  14.025  0.7610  0.5300 -0.2702
  519MPD2    C1 7759   2.397   1.026  13.885 -0.4098  0.2747 -0.5785
  519MPD2    C2 7760   2.431   0.901  13.828  0.3156  0.0661 -0.2759
  519MPD2    C3 7761   2.446   0.790  13.911  0.3350 -0.4857 -0.3659
  519MPD2    C4 7762   2.429   0.803  14.049 -0.2707 -0.2228  0.3150
  519MPD2    C5 7763   2.379   0.920  14.105  0.4568 -0.1120  0.4081
  519MPD2     H 7764   2.437   0.889  13.720 -0.8680  1.3673 -0.4961
  519MPD2    H1 7765   2.437   0.726  14.125  0.1174 -0.9206 -0.4372
  519MPD2    H2 7766   2.349   1.127  14.079  0.3420  1.6305 -2.3348
  519MPD2    H3 7767   2.372   0.911  14.213 -0.4787 -0.7311  0.2971
  519MPD2     N 7768   2.476   0.667  13.852 -0.6257 -0.2123 -0.7948
  519MPD2    H5 7769   2.477   0.658  13.751 -0.8083 -0.4590 -0.7755
  519MPD2    N1 7770   2.371   1.146  13.806  0.1592 -0.2317  0.2544
  519MPD2    H7 7771   2.338   1.232  13.849  0.7549  1.3587 -2.4774
  520TMC3    C1 7772   2.544   0.448  13.833  0.1380  0.0989  0.0679
  520TMC3    C2 7773   2.445   0.396  13.758 -0.0849 -0.0111 -0.1424
  520TMC3    C3 7774   2.473   0.285  13.675 -0.3396 -0.0818  0.5120
  520TMC3    C4 7775   2.672   0.391  13.842 -0.3821 -0.2342 -0.3019
  520TMC3    C5 7776   2.693   0.279  13.761  0.3612  0.4140  0.6082
  520TMC3    C6 7777   2.592   0.222  13.687  0.2610 -0.5123  0.0944
  520TMC3     C 7778   2.528   0.561  13.921 -0.2229 -0.3108 -0.2448
  520TMC3     O 7779   2.592   0.561  14.030 -1.0540  0.6314  0.4717
  520TMC3     H 7780   2.356   0.457  13.753  0.4646  0.9050  1.0700
  520TMC3    H1 7781   2.748   0.426  13.910  0.4612 -0.3224 -1.1922
  520TMC3    H2 7782   2.598   0.124  13.640 -0.0360 -1.6922  2.5075
  520TMC3    C7 7783   2.817   0.215  13.775 -0.1253 -0.2735  0.0504
  520TMC3    C8 7784   2.377   0.223  13.590 -0.6662  0.8957  0.2599
  520TMC3    O1 7785   2.897   0.245  13.864 -0.3763  0.4022 -0.4288
  520TMC3    O2 7786   2.415   0.156  13.496  0.1935  0.6109 -0.4585
  521MPD2     C 7787   3.218   3.814  17.177 -0.3823 -0.4422 -0.3513
  521MPD2    C1 7788   3.172   3.711  17.099 -0.4054 -0.0430  0.1041
  521MPD2    C2 7789   3.239   3.666  16.988 -0.3844  0.0717  0.0852
  521MPD2    C3 7790   3.354   3.728  16.948 -0.8899  0.1281  0.3262
  521MPD2    C4 7791   3.408   3.827  17.032 -0.3945 -0.3275  0.2578
  521MPD2    C5 7792   3.337   3.863  17.144 -0.0881  0.4932  1.0044
  521MPD2     H 7793   3.198   3.591  16.922  0.1271 -0.8650  0.8358
  521MPD2    H1 7794   3.501   3.874  17.001 -0.9816  1.8515  1.7675
  521MPD2    H2 7795   3.149   3.852  17.252  0.4949  0.1213  0.1659
  521MPD2    H3 7796   3.371   3.942  17.211 -0.1062  1.5843 -0.2649
  521MPD2     N 7797   3.419   3.697  16.827 -0.1605 -0.0346 -0.1277
  521MPD2    H5 7798   3.380   3.618  16.777  0.5341 -2.5096  3.2614
  521MPD2    N1 7799   3.040   3.673  17.133 -0.6023 -0.5731  0.4826
  521MPD2    H7 7800   2.991   3.727  17.203 -1.2327  0.4234 -0.7241
  522TMC3    C1 7801   3.573   3.688  16.656 -0.0061  0.0201  0.1166
  522TMC3    C2 7802   3.715   3.677  16.627 -0.8841  0.5306 -0.7034
  522TMC3    C3 7803   3.746   3.582  16.537 -0.0200  0.8774 -0.6973
  522TMC3    C4 7804   3.480   3.614  16.586  0.0213  0.5367  0.2062
  522TMC3    C5 7805   3.522   3.524  16.497  0.1155  0.5978  0.0154
  522TMC3    C6 7806   3.654   3.506  16.476 -0.6376 -0.0529 -0.1617
  522TMC3     C 7807   3.529   3.760  16.770 -0.4598  0.2271  0.4575
  522TMC3     O 7808   3.589   3.863  16.798  0.2689  0.6427  0.5905
  522TMC3     H 7809   3.782   3.750  16.672 -2.2021  3.0132 -2.7237
  522TMC3    H1 7810   3.374   3.634  16.594 -0.9232 -3.4721 -2.3898
  522TMC3    H2 7811   3.688   3.447  16.391 -3.2961 -1.8746  0.0570
  522TMC3    C7 7812   3.447   3.412  16.470  1.2357  0.5016 -0.5163
  522TMC3    C8 7813   3.886   3.578  16.507  0.6864  0.0010  0.2142
  522TMC3    O1 7814   3.496   3.300  16.463 -0.0259  0.2709  0.4546
  522TMC3    O2 7815   3.957   3.657  16.568 -0.2925 -0.4050 -0.0659
  523MPD2     C 7816   1.411   3.164  10.316  0.3575 -0.1679 -0.1890
  523MPD2    C1 7817   1.335   3.092  10.230 -0.2311  0.5513 -0.3220
  523MPD2    C2 7818   1.268   3.164  10.135 -0.3872  0.4820  0.2698
  523MPD2    C3 7819   1.268   3.305  10.132  0.5350 -0.1521  0.0512
  523MPD2    C4 7820   1.336   3.361  10.234 -0.0848  0.5964 -0.0964
  523MPD2    C5 7821   1.406   3.293  10.327  0.2105 -0.5570  0.4878
  523MPD2     H 7822   1.207   3.109  10.064 -0.8993  1.6273 -0.1796
  523MPD2    H1 7823   1.335   3.468  10.248  1.2222  0.7732 -1.3939
  523MPD2    H2 7824   1.481   3.126  10.390 -1.3239  2.0965  2.5801
  523MPD2    H3 7825   1.472   3.342  10.398  0.6415  0.3172 -0.4980
  523MPD2     N 7826   1.204   3.386  10.036  0.5243  0.0991 -0.8317
  523MPD2    H5 7827   1.208   3.487  10.047  0.4270 -0.1940  2.0765
  523MPD2    N1 7828   1.343   2.951  10.234  0.2130  0.4775  0.5763
  523MPD2    H7 7829   1.402   2.901  10.300 -0.0799  1.8348  1.8749
  524TMC3    C1 7830   1.082   3.455   9.846 -0.3092 -0.2039  0.2904
  524TMC3    C2 7831   1.078   3.448   9.713  0.0426  0.0083 -0.2239
  524TMC3    C3 7832   1.015   3.538   9.632  0.5801 -0.8649 -0.5681
  524TMC3    C4 7833   1.010   3.551   9.911 -0.0931  0.0201  0.2465
  524TMC3    C5 7834   0.942   3.645   9.834 -0.7106  0.0050 -0.2412
  524TMC3    C6 7835   0.948   3.645   9.692 -0.1470 -0.1613 -0.4669
  524TMC3     C 7836   1.144   3.345   9.922 -1.0757 -1.2378  0.2373
  524TMC3     O 7837   1.114   3.234   9.879 -0.8642  0.2800 -0.3654
  524TMC3     H 7838   1.148   3.376   9.671  0.2220 -0.5800  1.0869
  524TMC3    H1 7839   1.004   3.565  10.018 -2.5382 -2.9624  0.5243
  524TMC3    H2 7840   0.880   3.709   9.638  0.1212  0.7602  0.2758
  524TMC3    C7 7841   0.833   3.709   9.902  1.1000 -0.0749  0.2833
  524TMC3    C8 7842   1.029   3.526   9.488 -0.3648 -0.7531  0.3280
  524TMC3    O1 7843   0.781   3.638   9.990  0.6599  0.5175 -0.1520
  524TMC3    O2 7844   1.108   3.440   9.449 -0.0510 -0.2320  0.3585
  525MPD2     C 7845   3.554   0.120  14.205  0.4041  0.4915  0.0098
  525MPD2    C1 7846   3.679   0.162  14.252  0.2866 -0.1406 -0.2556
  525MPD2    C2 7847   3.724   0.290  14.216  0.7862  0.1303  0.0785
  525MPD2    C3 7848   3.649   0.365  14.135  0.2789  0.6271  0.3313
  525MPD2    C4 7849   3.532   0.316  14.081 -0.1996  0.2936  0.0953
  525MPD2    C5 7850   3.489   0.193  14.113  0.1082  0.5645  0.1739
  525MPD2     H 7851   3.809   0.340  14.261  0.7065 -0.4287  0.8359
  525MPD2    H1 7852   3.469   0.379  14.020 -1.2716  0.2214  1.1340
  525MPD2    H2 7853   3.512   0.020  14.213 -0.0123  0.6782  0.1335
  525MPD2    H3 7854   3.401   0.160  14.059  1.0042 -2.2015  0.4198
  525MPD2     N 7855   3.678   0.505  14.125  1.0628 -0.2659 -0.5989
  525MPD2    H5 7856   3.602   0.558  14.083  0.6488 -0.2704  0.1280
  525MPD2    N1 7857   3.747   0.103  14.361  0.2278  0.2554 -0.4526
  525MPD2    H7 7858   3.834   0.147  14.390  1.4214 -1.0545 -2.0502
  526TMC3    C1 7859   3.805   4.698  14.532 -0.1132  0.2795 -0.5427
  526TMC3    C2 7860   3.738   4.690  14.646 -0.2223  0.6907 -0.1366
  526TMC3    C3 7861   3.814   4.677  14.759  0.7158  1.1715  0.0032
  526TMC3    C4 7862   3.943   4.689  14.513 -0.0736 -0.3369 -0.2533
  526TMC3    C5 7863   4.009   4.661  14.628  0.2928  0.0567  0.2942
  526TMC3    C6 7864   3.952   4.669  14.749  0.3291 -0.1558 -0.3090
  526TMC3     C 7865   3.713   4.726  14.424 -0.6580 -0.0684  0.3193
  526TMC3     O 7866   3.612   4.660  14.411 -0.2410  0.2655  0.2839
  526TMC3     H 7867   3.635   4.722  14.657 -0.3357  0.3900 -0.3257
  526TMC3    H1 7868   3.981   4.659  14.416  1.7026  1.0551  0.0116
  526TMC3    H2 7869   4.006   4.672  14.843  1.1867 -2.5748 -0.7197
  526TMC3    C7 7870   4.147   4.600  14.615  0.0612  0.3508 -0.4109
  526TMC3    C8 7871   3.755   4.720  14.891 -1.3914  0.4303  0.3556
  526TMC3    O1 7872   4.179   4.560  14.508 -0.2440 -0.2534  0.0863
  526TMC3    O2 7873   3.827   0.030  14.976  0.0967 -0.6440  0.0685
  527MPD2     C 7874   2.349   3.584   1.128 -0.2647 -0.4452  0.0027
  527MPD2    C1 7875   2.222   3.533   1.133  0.1886  0.1002  0.6928
  527MPD2    C2 7876   2.200   3.404   1.085  0.0627  1.0803 -0.5762
  527MPD2    C3 7877   2.300   3.331   1.034  0.1507  0.2607 -0.3703
  527MPD2    C4 7878   2.428   3.386   1.018  0.5689  0.4091 -0.6668
  527MPD2    C5 7879   2.450   3.508   1.077 -0.2432  0.2771  0.6169
  527MPD2     H 7880   2.102   3.359   1.082  0.7268 -0.3090 -1.7463
  527MPD2    H1 7881   2.500   3.333   0.956 -0.8436 -1.4708 -0.7066
  527MPD2    H2 7882   2.365   3.689   1.150 -0.1643 -0.2919 -0.8073
  527MPD2    H3 7883   2.539   3.567   1.057  0.2333 -0.8139 -0.5344
  527MPD2     N 7884   2.260   3.209   0.970 -0.3809 -0.3767  0.4448
  527MPD2    H5 7885   2.160   3.198   0.955 -0.3489 -0.5934  0.3954
  527MPD2    N1 7886   2.102   3.593   1.161 -0.0177  0.1605 -0.2380
  527MPD2    H7 7887   2.020   3.534   1.153  1.0243 -1.5049  1.3985
  528TMC3    C1 7888   1.958   3.786   1.194  0.3359  0.1935  0.1154
  528TMC3    C2 7889   1.865   3.719   1.116 -0.1956 -0.2743 -0.3647
  528TMC3    C3 7890   1.748   3.774   1.100  0.1805 -0.5605  0.4681
  528TMC3    C4 7891   1.931   3.904   1.262 -0.2925  0.3887 -0.2819
  528TMC3    C5 7892   1.803   3.953   1.245 -0.0211  0.2871  0.6764
  528TMC3    C6 7893   1.713   3.898   1.158  0.0732  0.3742  0.6280
  528TMC3     C 7894   2.095   3.730   1.199  0.3327  0.5061  0.1676
  528TMC3     O 7895   2.179   3.809   1.236  0.1667  0.0922 -0.7045
  528TMC3     H 7896   1.884   3.626   1.064  1.1601  0.8804 -1.9050
  528TMC3    H1 7897   2.019   3.953   1.303  0.5878 -0.0428 -1.6508
  528TMC3    H2 7898   1.619   3.951   1.158 -0.0139  0.2202 -0.1307
  528TMC3    C7 7899   1.773   4.075   1.316  0.0226  0.1519  0.2677
  528TMC3    C8 7900   1.662   3.720   0.993 -0.7164  0.6925 -0.2194
  528TMC3    O1 7901   1.671   4.132   1.281  0.0202  0.2029 -0.6087
  528TMC3    O2 7902   1.704   3.628   0.924 -0.6067 -0.3169  0.1302
  529MPD2     C 7903   4.227   2.074   0.780 -0.5975 -0.2128  0.7477
  529MPD2    C1 7904   4.249   1.959   0.706 -0.5700  0.8613  0.2293
  529MPD2    C2 7905   4.205   1.958   0.575  0.0378 -0.3061 -0.4179
  529MPD2    C3 7906   4.138   2.064   0.515 -0.4881  0.7540  0.2218
  529MPD2    C4 7907   4.108   2.172   0.594 -0.3693 -0.2770 -0.1483
  529MPD2    C5 7908   4.150   2.175   0.726  0.0139 -0.4225 -0.2014
  529MPD2     H 7909   4.204   1.861   0.527 -0.6606 -0.4531 -0.1029
  529MPD2    H1 7910   4.061   2.264   0.560  1.7948  0.8902  0.0128
  529MPD2    H2 7911   4.261   2.083   0.883  0.6995 -0.3259  0.3271
  529MPD2    H3 7912   4.106   2.252   0.788  0.6676 -0.6111  0.4931
  529MPD2     N 7913   4.087   2.057   0.381  0.0208 -0.4742  0.5277
  529MPD2    H5 7914   4.019   2.124   0.347  1.3753  0.2865 -0.6798
  529MPD2    N1 7915   4.307   1.846   0.759 -0.2074 -0.7037  0.0560
  529MPD2    H7 7916   4.334   1.771   0.696  0.7612  1.9693 -2.7122
  530TMC3    C1 7917   4.420   1.720   0.935 -0.9780  0.0209  1.0918
  530TMC3    C2 7918   4.489   1.730   1.052  0.2370  0.7064  0.4255
  530TMC3    C3 7919   4.526   1.619   1.123 -0.3190  0.2898  0.2394
  530TMC3    C4 7920   4.378   1.598   0.887  0.1922 -0.5504  0.0208
  530TMC3    C5 7921   4.398   1.494   0.971 -0.3548  1.1107 -0.5542
  530TMC3    C6 7922   4.472   1.506   1.083 -0.0736 -0.4482  0.0612
  530TMC3     C 7923   4.350   1.838   0.893 -0.1716 -0.0393 -0.2983
  530TMC3     O 7924   4.343   1.916   0.988  0.5621  0.7494  0.3295
  530TMC3     H 7925   4.532   1.827   1.074  0.3275  0.8139 -0.2423
  530TMC3    H1 7926   4.312   1.581   0.803  0.0615 -0.5692  0.1282
  530TMC3    H2 7927   4.483   1.420   1.148 -1.1130 -2.0538 -1.8699
  530TMC3    C7 7928   4.344   1.364   0.931 -0.0057 -0.5278  0.3118
  530TMC3    C8 7929   4.592   1.628   1.249  0.4117  0.7112  0.8773
  530TMC3    O1 7930   4.376   1.331   0.819 -0.3877 -0.0181  0.2737
  530TMC3    O2 7931   4.602   1.744   1.282 -0.0130 -0.8488  0.6347
  531MPD2     C 7932   3.112   3.301  12.608  0.4419  0.6545 -0.0348
  531MPD2    C1 7933   2.991   3.344  12.671 -0.2169 -0.0866  0.2292
  531MPD2    C2 7934   2.902   3.423  12.602 -0.5782  0.0303  0.4580
  531MPD2    C3 7935   2.916   3.446  12.464  0.4609  0.0924  0.4533
  531MPD2    C4 7936   3.030   3.385  12.403  0.2174  0.2421  0.2621
  531MPD2    C5 7937   3.126   3.326  12.475  0.2118  0.1831 -0.4286
  531MPD2     H 7938   2.817   3.473  12.647  0.7783  3.1418 -0.4396
  531MPD2    H1 7939   3.051   3.394  12.297  3.0400  1.6333  0.9332
  531MPD2    H2 7940   3.183   3.249  12.672  0.5525  0.0343 -0.6701
  531MPD2    H3 7941   3.212   3.293  12.417  0.7510  1.9499 -0.6336
  531MPD2     N 7942   2.816   3.528  12.405  0.1617 -0.0420 -0.8270
  531MPD2    H5 7943   2.744   3.565  12.467  0.3636  0.1539 -0.7063
  531MPD2    N1 7944   2.979   3.346  12.814 -0.3653  0.2649 -0.1196
  531MPD2    H7 7945   2.890   3.386  12.844  0.9375  1.4465  2.1398
  532TMC3    C1 7946   3.090   3.409  13.010 -0.1405  0.1325  0.0009
  532TMC3    C2 7947   3.041   3.530  12.975 -0.1143 -0.1921 -0.4841
  532TMC3    C3 7948   3.035   3.621  13.077  1.0428  0.6067 -0.1057
  532TMC3    C4 7949   3.139   3.378  13.134 -0.3680  0.0167 -0.1354
  532TMC3    C5 7950   3.139   3.479  13.231  0.4909 -0.3073 -0.1037
  532TMC3    C6 7951   3.078   3.601  13.202  0.8575  0.7227  0.1957
  532TMC3     C 7952   3.080   3.306  12.907  0.4423 -0.7860 -0.0740
  532TMC3     O 7953   3.169   3.221  12.900  0.2940  0.7503  0.0832
  532TMC3     H 7954   3.038   3.573  12.875 -1.8668 -0.3973 -0.5109
  532TMC3    H1 7955   3.181   3.280  13.153 -1.3841 -0.8104 -2.2004
  532TMC3    H2 7956   3.054   3.665  13.286 -2.1502 -0.1833  0.0480
  532TMC3    C7 7957   3.182   3.450  13.365  0.6776 -0.2932 -0.4969
  532TMC3    C8 7958   2.977   3.751  13.050 -0.7601  0.2375  0.5857
  532TMC3    O1 7959   3.151   3.529  13.447  0.6581 -0.3076 -0.0297
  532TMC3    O2 7960   3.021   3.848  13.114 -0.0130 -0.2802 -0.6527
  533TMC3    C1 7961   3.765   0.723  14.157 -0.4128 -0.1606 -0.2494
  533TMC3    C2 7962   3.866   0.796  14.191  1.1886  0.4538 -0.3233
  533TMC3    C3 7963   3.853   0.918  14.258  0.7304  0.2760  0.2093
  533TMC3    C4 7964   3.640   0.777  14.181  0.5476  0.3199 -0.0139
  533TMC3    C5 7965   3.624   0.893  14.254  0.1048  0.0383  0.3463
  533TMC3    C6 7966   3.732   0.958  14.297 -0.5828  0.2249  0.4756
  533TMC3     C 7967   3.779   0.581  14.177  0.1122 -0.8251 -0.4247
  533TMC3     O 7968   3.887   0.542  14.219  0.1227 -0.1184  0.2990
  533TMC3     H 7969   3.969   0.764  14.178  0.9903 -0.4793  0.4193
  533TMC3    H1 7970   3.551   0.726  14.147  1.5476 -0.6659 -1.1182
  533TMC3    H2 7971   3.734   1.046  14.359 -0.2383 -0.2959  1.2039
  533TMC3    C7 7972   3.504   0.889  14.350  0.4204 -1.3952 -0.5193
  533TMC3    C8 7973   3.968   0.991  14.309 -0.3357  0.4385  0.2267
  533TMC3    O1 7974   3.435   0.786  14.355 -0.2398 -0.4947 -0.4613
  533TMC3    O2 7975   3.970   1.033  14.423 -0.2099  0.5361 -0.2836
  534MPD2     C 7976   2.085   2.098   1.549  0.2402  0.2268 -0.3572
  534MPD2    C1 7977   2.059   2.185   1.445 -0.6626  0.0688 -0.0413
  534MPD2    C2 7978   1.938   2.170   1.380 -0.5183 -0.3396  0.0156
  534MPD2    C3 7979   1.854   2.063   1.401 -0.0888  0.6486  0.3275
  534MPD2    C4 7980   1.878   1.987   1.514  0.2958 -0.3944 -0.0670
  534MPD2    C5 7981   1.992   1.996   1.581 -0.0101 -0.3750 -0.8441
  534MPD2     H 7982   1.916   2.240   1.300 -1.4317 -0.6070  0.0355
  534MPD2    H1 7983   1.817   1.902   1.541  1.9486 -2.0919 -1.6931
  534MPD2    H2 7984   2.177   2.095   1.605  0.8021  3.0387 -1.1520
  534MPD2    H3 7985   2.012   1.921   1.657  0.1072  0.8853  0.3610
  534MPD2     N 7986   1.732   2.043   1.332 -0.4544  0.8586 -0.0525
  534MPD2    H5 7987   1.659   2.001   1.388  2.2139 -4.9127 -0.9067
  534MPD2    N1 7988   2.139   2.299   1.419  0.3739 -0.4602 -0.0532
  534MPD2    H7 7989   2.097   2.373   1.365  1.4076  1.5186  1.8249
  535TMC3    C1 7990   1.572   2.097   1.173  0.5588 -0.0877  0.5190
  535TMC3    C2 7991   1.476   2.107   1.273 -0.0695 -0.2094  1.0455
  535TMC3    C3 7992   1.343   2.113   1.224  0.1208  0.2704 -0.6668
  535TMC3    C4 7993   1.542   2.099   1.040 -0.0954 -0.3833  0.0009
  535TMC3    C5 7994   1.412   2.118   1.001  0.0663 -0.1975  0.2081
  535TMC3    C6 7995   1.315   2.117   1.095 -0.2971  0.1214  0.5974
  535TMC3     C 7996   1.705   2.089   1.207  0.3915  0.0141  0.1636
  535TMC3     O 7997   1.786   2.123   1.123  0.3925 -0.0735  0.2605
  535TMC3     H 7998   1.503   2.126   1.376  1.1995 -0.7614  0.8049
  535TMC3    H1 7999   1.626   2.097   0.971 -0.7188 -0.2628 -0.7471
  535TMC3    H2 8000   1.212   2.127   1.064 -1.1875 -1.8838  2.9100
  535TMC3    C7 8001   1.367   2.128   0.861 -0.4331 -0.1067 -0.3808
  535TMC3    C8 8002   1.233   2.073   1.316 -0.9080 -0.1723 -0.6414
  535TMC3    O1 8003   1.407   2.046   0.778  0.1077  0.2051  0.1450
  535TMC3    O2 8004   1.115   2.072   1.265  0.2569  0.3968 -0.3305
  536MPD2     C 8005   4.331   4.298  16.234 -0.1658  0.0925  0.2344
  536MPD2    C1 8006   4.396   4.413  16.270 -1.0110  0.5842  0.1216
  536MPD2    C2 8007   4.366   4.519  16.198 -0.0938 -0.1171 -0.3805
  536MPD2    C3 8008   4.283   4.514  16.085  0.2265  0.3120  0.6350
  536MPD2    C4 8009   4.217   4.398  16.051  1.3481 -0.3251 -0.2180
  536MPD2    C5 8010   4.235   4.290  16.134  0.1636 -0.1389 -0.0992
  536MPD2     H 8011   4.421   4.611  16.215 -0.9950  0.1472  1.0533
  536MPD2    H1 8012   4.146   4.385  15.970  1.0185  1.0395 -0.1424
  536MPD2    H2 8013   4.335   4.210  16.298 -0.7541 -0.3545 -0.3402
  536MPD2    H3 8014   4.174   4.203  16.113  1.4583 -0.7598 -1.2188
  536MPD2     N 8015   4.284   4.631  16.005 -0.3038  0.0081  0.3978
  536MPD2    H5 8016   4.328   4.717  16.036  0.5031 -0.6684  1.1333
  536MPD2    N1 8017   4.488   4.415  16.384 -0.0292 -0.1636 -0.6165
  536MPD2    H7 8018   4.520   4.323  16.411  1.4111  0.7015  0.6228
  537TMC3    C1 8019   4.666   4.473  16.529 -0.3524 -0.4176 -0.2887
  537TMC3    C2 8020   0.036   4.550  16.551  0.6671  0.4589  0.2141
  537TMC3    C3 8021   0.125   4.514  16.651 -0.3867  0.1473 -0.4424
  537TMC3    C4 8022   4.630   4.369  16.606 -0.0093 -0.2466 -0.0400
  537TMC3    C5 8023   4.718   4.333  16.705 -0.2841  0.9956  0.9491
  537TMC3    C6 8024   0.095   4.403  16.727 -1.4415  0.6477 -0.1304
  537TMC3     C 8025   4.567   4.519  16.426  0.1820 -0.1303  0.0031
  537TMC3     O 8026   4.567   4.638  16.399  0.2308  0.2578  0.0252
  537TMC3     H 8027   0.058   4.627  16.478  0.8152  1.5250  1.3931
  537TMC3    H1 8028   4.531   4.325  16.609  0.4413 -1.2117  0.7239
  537TMC3    H2 8029   0.167   4.372  16.801 -1.5230  0.9773  0.0831
  537TMC3    C7 8030   4.683   4.207  16.773 -0.0682  0.1937 -0.1463
  537TMC3    C8 8031   0.235   4.605  16.679 -0.0271  0.1430 -0.2127
  537TMC3    O1 8032   4.624   4.127  16.704  0.2638  0.6718 -0.0506
  537TMC3    O2 8033   0.339   4.553  16.715 -0.4612  0.1150  0.0257
  538TMC3    C1 8034   2.102   2.569  10.857 -0.5637 -0.2984  0.2616
  538TMC3    C2 8035   2.194   2.576  10.764  0.3828 -0.4500 -0.1038
  538TMC3    C3 8036   2.175   2.670  10.659 -0.5305  0.1357 -0.1714
  538TMC3    C4 8037   1.980   2.628  10.840 -0.2902 -0.3553  0.8218
  538TMC3    C5 8038   1.968   2.714  10.735  0.0838 -0.3501  0.2119
  538TMC3    C6 8039   2.065   2.744  10.646  0.1324  0.1358  0.0267
  538TMC3     C 8040   2.132   2.511  10.987 -0.1372  0.4323  0.0602
  538TMC3     O 8041   2.044   2.446  11.047  0.0131 -0.4134 -1.1562
  538TMC3     H 8042   2.294   2.534  10.773  0.9930  1.0519  0.2012
  538TMC3    H1 8043   1.903   2.616  10.915 -1.8714 -0.7940 -0.8741
  538TMC3    H2 8044   2.046   2.802  10.557  1.1650 -0.5161 -0.6093
  538TMC3    C7 8045   1.839   2.776  10.722 -0.1144  0.2940  0.4671
  538TMC3    C8 8046   2.294   2.696  10.580 -0.2488 -0.0914 -1.1865
  538TMC3    O1 8047   1.749   2.728  10.786 -0.2091 -0.0734 -0.1296
  538TMC3    O2 8048   2.386   2.621  10.601 -0.1029  0.1288 -0.1536
  539MPD2     C 8049   1.386   2.080  11.982  0.2549 -1.0492 -0.3693
  539MPD2    C1 8050   1.409   2.116  11.850  0.0872  0.1272 -0.7417
  539MPD2    C2 8051   1.393   2.250  11.809  0.4974 -0.3813  0.0996
  539MPD2    C3 8052   1.353   2.348  11.897 -0.1498 -0.0642  0.3049
  539MPD2    C4 8053   1.320   2.310  12.030  0.0053  0.7958 -0.5737
  539MPD2    C5 8054   1.342   2.174  12.068 -0.1065 -0.0641  0.0765
  539MPD2     H 8055   1.415   2.276  11.706  0.3823  1.0962  0.4400
  539MPD2    H1 8056   1.282   2.383  12.100 -0.6698 -1.6099  1.5472
  539MPD2    H2 8057   1.388   1.983  12.030  1.1260 -0.4667  0.7739
  539MPD2    H3 8058   1.311   2.149  12.169 -0.5014 -0.8438 -0.2386
  539MPD2     N 8059   1.329   2.480  11.856 -0.1170 -0.4439 -0.0335
  539MPD2    H5 8060   1.281   2.545  11.918  1.0728  3.3687 -3.0718
  539MPD2    N1 8061   1.469   2.021  11.757  0.1836 -0.2824 -0.1605
  539MPD2    H7 8062   1.495   2.064  11.669 -1.9444  1.2197 -0.0541
  540TMC3    C1 8063   1.355   2.675  11.718  0.5476  0.3836  0.3773
  540TMC3    C2 8064   1.431   2.736  11.621 -0.4567 -0.3491 -0.0144
  540TMC3    C3 8065   1.398   2.865  11.581  0.1750 -0.2479  0.8365
  540TMC3    C4 8066   1.244   2.732  11.775  0.4794 -0.8223  0.1837
  540TMC3    C5 8067   1.208   2.852  11.708 -0.1001 -0.3650 -0.2180
  540TMC3    C6 8068   1.283   2.922  11.624 -0.5700  0.3637 -0.6769
  540TMC3     C 8069   1.380   2.537  11.740  0.2156  0.0619 -0.3122
  540TMC3     O 8070   1.458   2.492  11.654 -0.0815 -0.1943 -0.0549
  540TMC3     H 8071   1.518   2.685  11.583 -0.4082 -0.1114 -0.2194
  540TMC3    H1 8072   1.173   2.677  11.836  0.4380  1.3654  2.0894
  540TMC3    H2 8073   1.244   3.016  11.586  2.1350  2.1424  0.9476
  540TMC3    C7 8074   1.094   2.924  11.756  0.4531  0.3576 -0.7393
  540TMC3    C8 8075   1.444   2.891  11.445 -0.4564 -0.5281  0.7414
  540TMC3    O1 8076   1.117   3.040  11.774 -0.4034 -0.4008 -0.0029
  540TMC3    O2 8077   1.548   2.954  11.435 -0.6149  0.1409  0.3443
  541MPD2     C 8078   4.654   4.188  13.032 -0.0424 -0.1450 -0.5626
  541MPD2    C1 8079   4.560   4.097  12.984 -0.3958  0.1684 -0.3831
  541MPD2    C2 8080   4.553   4.092  12.845 -0.5129  0.4341  0.4272
  541MPD2    C3 8081   4.625   4.167  12.758  0.0650 -0.1776  0.2636
  541MPD2    C4 8082   4.710   4.267  12.809 -0.1398  0.0123 -0.0116
  541MPD2    C5 8083   4.719   4.274  12.947  0.0478  0.1201 -0.7115
  541MPD2     H 8084   4.482   4.026  12.797 -1.1491 -0.8005  3.0894
  541MPD2    H1 8085   0.026   4.333  12.742 -2.0997  1.8170  0.2123
  541MPD2    H2 8086   4.679   4.194  13.137  0.5792 -1.0498 -0.6578
  541MPD2    H3 8087   0.037   4.357  12.989 -0.0051  0.2846 -0.9650
  541MPD2     N 8088   4.604   4.158  12.619  0.3926  0.5026  0.0523
  541MPD2    H5 8089   4.645   4.234  12.566  1.6046 -1.0564 -1.2375
  541MPD2    N1 8090   4.478   4.013  13.059  0.3562  0.6406  0.5161
  541MPD2    H7 8091   4.447   3.933  13.005 -0.4943  2.0400 -1.0646
  542TMC3    C1 8092   4.563   4.088  12.410  0.7037  0.3251  0.1416
  542TMC3    C2 8093   4.584   3.976  12.330 -0.2534 -0.2642  0.4515
  542TMC3    C3 8094   4.577   3.997  12.189 -0.5688  0.5498  0.3545
  542TMC3    C4 8095   4.556   4.213  12.362 -0.0014 -0.6846  0.2670
  542TMC3    C5 8096   4.565   4.226  12.222  0.2352 -0.4961 -0.1169
  542TMC3    C6 8097   4.569   4.122  12.129 -0.5912 -0.1700 -0.6560
  542TMC3     C 8098   4.546   4.062  12.551  0.4053 -0.2841 -0.9013
  542TMC3     O 8099   4.497   3.952  12.588  0.2085  0.3579  0.6202
  542TMC3     H 8100   4.597   3.875  12.368  1.2532 -0.1371  0.2690
  542TMC3    H1 8101   4.537   4.301  12.423  2.4610 -0.9555  1.4107
  542TMC3    H2 8102   4.557   4.137  12.023 -0.9878 -0.3029 -0.6314
  542TMC3    C7 8103   4.571   4.363  12.170  0.1452 -0.2530  0.1730
  542TMC3    C8 8104   4.608   3.890  12.096  1.0787  0.0361 -0.0891
  542TMC3    O1 8105   4.561   4.387  12.048 -0.8756 -0.0783  0.3999
  542TMC3    O2 8106   4.604   3.910  11.978 -0.0832 -0.6073 -0.3743
  543TMC3    C1 8107   4.159   1.093  17.487  0.0233 -0.0389  0.3625
  543TMC3    C2 8108   4.146   0.989  17.576 -0.1715 -0.7399  0.0090
  543TMC3    C3 8109   4.205   1.001  17.698 -0.4313  0.2414 -0.0080
  543TMC3    C4 8110   4.232   1.204  17.524 -0.1639 -0.0741 -0.4882
  543TMC3    C5 8111   4.262   1.220  17.655 -0.0987 -1.1556  0.1883
  543TMC3    C6 8112   4.262   1.115  17.746  0.1827 -0.2760 -0.2307
  543TMC3     C 8113   4.119   1.069  17.351  0.1652 -0.0553 -0.0444
  543TMC3     O 8114   4.147   0.963  17.296 -0.0923  0.1561 -0.1475
  543TMC3     H 8115   4.109   0.898  17.530 -0.3847  1.0576 -3.3886
  543TMC3    H1 8116   4.246   1.283  17.452  0.0439  0.5182  0.1970
  543TMC3    H2 8117   4.301   1.127   0.098 -0.8046  0.1574  0.0973
  543TMC3    C7 8118   4.320   1.347  17.694  0.5727  1.3305 -0.0826
  543TMC3    C8 8119   4.172   0.900   0.055  0.1914 -1.0853  0.2503
  543TMC3    O1 8120   4.407   1.336   0.032 -0.2129  0.2555  0.3734
  543TMC3    O2 8121   4.167   0.939   0.172 -0.2371  0.2838  0.3828
  544MPD2     C 8122   4.059   0.439   0.222  0.9472 -0.6088 -0.0039
  544MPD2    C1 8123   4.028   0.438   0.090  0.1823 -0.0125  0.0574
  544MPD2    C2 8124   4.067   0.545   0.017 -0.5402 -0.7409  0.4656
  544MPD2    C3 8125   4.106   0.669   0.078  0.2458  0.1063 -0.6329
  544MPD2    C4 8126   4.111   0.671   0.217  0.2688  0.4662 -0.9496
  544MPD2    C5 8127   4.089   0.552   0.285  0.1858 -0.5065 -0.1471
  544MPD2     H 8128   4.051   0.546  17.659 -1.2642  0.1889  0.5869
  544MPD2    H1 8129   4.138   0.756   0.280 -0.3184  0.2414 -0.3936
  544MPD2    H2 8130   4.039   0.354   0.286 -3.0063 -0.0247 -0.4414
  544MPD2    H3 8131   4.086   0.554   0.393  0.5868 -1.0295 -0.1328
  544MPD2     N 8132   4.141   0.779  17.747  0.1919 -0.7166 -0.0627
  544MPD2    H5 8133   4.146   0.759  17.648 -1.4485 -0.6945 -0.1472
  544MPD2    N1 8134   3.986   0.313   0.039 -0.0699 -0.5764 -0.3184
  544MPD2    H7 8135   3.993   0.232   0.099 -0.4924  1.6827  2.7447
  545TMC3    C1 8136   3.945   0.145  17.627 -0.2412 -1.4739  0.1757
  545TMC3    C2 8137   3.990   0.122  17.498  0.5961 -0.3233 -0.2376
  545TMC3    C3 8138   4.011   4.730  17.459  0.2946 -0.5836  0.0720
  545TMC3    C4 8139   3.942   0.046  17.723  0.8168  0.8028  0.4324
  545TMC3    C5 8140   3.966   4.654  17.680 -0.4875 -0.3822  0.0929
  545TMC3    C6 8141   4.012   4.629  17.555 -0.2241 -0.2180 -0.2924
  545TMC3     C 8142   3.952   0.291  17.658 -0.5103 -0.1447  0.0866
  545TMC3     O 8143   3.942   0.375  17.566  0.3510  0.2480  0.1226
  545TMC3     H 8144   3.982   0.197  17.421 -1.0680 -1.0247 -0.7333
  545TMC3    H1 8145   3.919   0.059   0.080  1.5452  2.7452  0.3508
  545TMC3    H2 8146   4.040   4.529  17.524  2.1780  0.3147  0.1804
  545TMC3    C7 8147   3.926   4.539   0.009 -0.2156  0.4160 -0.8025
  545TMC3    C8 8148   4.067   4.705  17.329 -0.1931  0.5749  0.5199
  545TMC3    O1 8149   3.827   4.546   0.078 -0.3871  0.1770  0.0354
  545TMC3    O2 8150   4.123   4.600  17.309 -0.5951  0.5519 -0.3350
  546MPD2     C 8151   0.621   0.684  17.720  0.6890 -0.3194 -0.1312
  546MPD2    C1 8152   0.574   0.726  17.598 -0.6205 -0.3419 -0.2518
  546MPD2    C2 8153   0.586   0.860  17.565 -0.3870 -0.6989  0.2184
  546MPD2    C3 8154   0.654   0.954  17.641 -0.0445 -0.4872 -0.1208
  546MPD2    C4 8155   0.707   0.913   0.010 -0.1267 -0.5138 -0.2554
  546MPD2    C5 8156   0.689   0.778   0.049  0.1865 -0.4610 -0.0304
  546MPD2     H 8157   0.547   0.896  17.471  2.6325  0.6709 -0.4952
  546MPD2    H1 8158   0.762   0.987   0.067  0.9459 -3.0274  1.9213
  546MPD2    H2 8159   0.621   0.582   0.008 -0.1938  0.8257  3.0612
  546MPD2    H3 8160   0.727   0.755   0.147 -0.2745 -0.6320  0.1106
  546MPD2     N 8161   0.687   1.087  17.593  0.2118 -0.8560 -0.1567
  546MPD2    H5 8162   0.732   1.157  17.652  1.0341 -0.9667 -0.6530
  546MPD2    N1 8163   0.519   0.626  17.513  0.3487  0.0095  0.2317
  546MPD2    H7 8164   0.540   0.528  17.529 -1.6966 -0.5875 -0.8010
  547TMC3    C1 8165   0.418   0.539  17.313  0.1772 -0.3929 -0.2224
  547TMC3    C2 8166   0.374   0.559  17.189 -0.1730 -0.0676  0.7140
  547TMC3    C3 8167   0.284   0.473  17.127  0.3991  0.4710 -0.4957
  547TMC3    C4 8168   0.367   0.430  17.383 -0.0431 -0.0194 -0.3077
  547TMC3    C5 8169   0.287   0.339  17.318 -0.7971  0.1652 -0.5695
  547TMC3    C6 8170   0.235   0.362  17.191  0.0803  0.0909 -1.2332
  547TMC3     C 8171   0.455   0.653  17.392  0.4293  0.3814  0.5793
  547TMC3     O 8172   0.429   0.756  17.336  0.4029 -0.0027 -0.1699
  547TMC3     H 8173   0.397   0.657  17.148  1.1277 -0.7388 -0.1592
  547TMC3    H1 8174   0.395   0.423  17.488 -4.1620 -1.5476  0.6659
  547TMC3    H2 8175   0.158   0.303  17.142  0.1509 -1.7742  0.8882
  547TMC3    C7 8176   0.227   0.238  17.395  0.0074 -0.6426 -0.0337
  547TMC3    C8 8177   0.209   0.518  17.014  1.0025 -0.7422 -0.3502
  547TMC3    O1 8178   0.228   0.261  17.513 -0.0640  0.0978  0.9412
  547TMC3    O2 8179   0.091   0.481  17.017 -0.1892 -0.0745  0.3901
  548MPD2     C 8180   0.857   0.879  12.198  0.3051 -0.3449 -0.0609
  548MPD2    C1 8181   0.876   0.740  12.236  0.4619  0.2470  0.2740
  548MPD2    C2 8182   0.965   0.663  12.158 -0.0020 -0.6006 -0.1556
  548MPD2    C3 8183   1.022   0.721  12.046 -0.4394 -0.0955 -0.4788
  548MPD2    C4 8184   1.013   0.859  12.025  0.6401 -0.2189  0.3117
  548MPD2    C5 8185   0.933   0.935  12.101  0.2576 -1.0489 -0.0098
  548MPD2     H 8186   0.985   0.559  12.180 -0.3949 -0.0999  2.5455
  548MPD2    H1 8187   1.060   0.909  11.941 -0.4503  0.0743 -0.1300
  548MPD2    H2 8188   0.781   0.942  12.242  0.7327 -0.1675  0.4260
  548MPD2    H3 8189   0.918   1.041  12.087  1.2521 -0.9552 -0.3798
  548MPD2     N 8190   1.111   0.639  11.965  0.1268 -0.3087  0.3927
  548MPD2    H5 8191   1.109   0.540  11.987 -1.5406 -0.7713 -1.8906
  548MPD2    N1 8192   0.796   0.693  12.338  0.0216  0.6778 -0.5154
  548MPD2    H7 8193   0.723   0.757  12.368 -1.6390 -0.8864 -1.2117
  549TMC3    C1 8194   0.711   0.542  12.497 -0.7065  0.3445 -0.6889
  549TMC3    C2 8195   0.623   0.637  12.545  0.1396  1.1161  0.0351
  549TMC3    C3 8196   0.548   0.620  12.658  0.7027 -0.2444  0.2077
  549TMC3    C4 8197   0.706   0.418  12.560 -0.2126  0.6508 -0.0186
  549TMC3    C5 8198   0.641   0.407  12.680  0.3147  0.0415 -0.3061
  549TMC3    C6 8199   0.559   0.503  12.731  0.2855  0.2209  0.1681
  549TMC3     C 8200   0.815   0.571  12.398  0.6311 -0.1611 -0.3498
  549TMC3     O 8201   0.897   0.479  12.372 -0.0379 -0.6371  0.2224
  549TMC3     H 8202   0.598   0.721  12.480  0.9487  0.7988 -0.6824
  549TMC3    H1 8203   0.767   0.335  12.526 -0.3262 -0.1795  1.7891
  549TMC3    H2 8204   0.515   0.484  12.828 -0.2788 -1.2254 -0.3769
  549TMC3    C7 8205   0.711   0.324  12.768 -1.0840  0.2707 -0.3440
  549TMC3    C8 8206   0.424   0.695  12.660  0.3041 -0.2389  0.4251
  549TMC3    O1 8207   0.743   0.373  12.877 -0.2891  0.2979 -0.6203
  549TMC3    O2 8208   0.402   0.764  12.563  0.3112  0.2720  0.3061
  550TMC3    C1 8209   3.394   3.741  12.826 -0.1662 -0.1728 -0.3745
  550TMC3    C2 8210   3.333   3.849  12.880 -0.0293  0.3356  0.5995
  550TMC3    C3 8211   3.361   3.973  12.827 -0.4352  0.4504 -0.6916
  550TMC3    C4 8212   3.493   3.753  12.734 -0.0083 -0.2793 -0.2329
  550TMC3    C5 8213   3.529   3.880  12.695 -0.0362 -0.1391 -0.0920
  550TMC3    C6 8214   3.458   3.990  12.732  0.0746 -0.0164 -0.2025
  550TMC3     C 8215   3.396   3.618  12.905  0.8777  0.4663 -0.3436
  550TMC3     O 8216   3.382   3.630  13.027  0.1409  0.3949 -0.1994
  550TMC3     H 8217   3.255   3.827  12.953 -2.5302  1.0118 -1.8663
  550TMC3    H1 8218   3.541   3.669  12.687 -1.8889 -0.7379 -1.3313
  550TMC3    H2 8219   3.466   4.083  12.677  1.4388  0.1176  0.2270
  550TMC3    C7 8220   3.602   3.894  12.569  0.0372 -0.0121 -0.0373
  550TMC3    C8 8221   3.276   4.085  12.860 -0.2216 -0.7118 -0.7388
  550TMC3    O1 8222   3.556   3.971  12.487 -0.0365  0.4655 -0.0739
  550TMC3    O2 8223   3.287   4.187  12.791 -0.1587 -0.0035  0.4920
  551TMC3    C1 8224   1.368   1.441  13.140  0.5094  0.1527  0.4948
  551TMC3    C2 8225   1.500   1.456  13.094 -0.1421 -0.5631  0.8102
  551TMC3    C3 8226   1.576   1.561  13.151 -0.1266 -0.5043 -0.6171
  551TMC3    C4 8227   1.322   1.522  13.233  1.0393 -0.0988 -0.0950
  551TMC3    C5 8228   1.396   1.621  13.284 -0.2092 -0.6417  0.1591
  551TMC3    C6 8229   1.518   1.651  13.238 -0.2005 -0.8045 -0.9695
  551TMC3     C 8230   1.295   1.328  13.088  0.9896  0.2638  0.7568
  551TMC3     O 8231   1.355   1.263  12.998 -1.4798  0.1993 -0.0146
  551TMC3     H 8232   1.548   1.396  13.017  0.1047  1.9489 -0.9992
  551TMC3    H1 8233   1.217   1.526  13.262  1.0584 -0.0430 -0.0340
  551TMC3    H2 8234   1.575   1.730  13.284 -0.1009 -1.8716  0.7358
  551TMC3    C7 8235   1.341   1.704  13.387  0.8202  0.0310  0.9226
  551TMC3    C8 8236   1.705   1.575  13.100 -1.1161 -0.2971 -0.4459
  551TMC3    O1 8237   1.310   1.816  13.361 -0.1525 -0.3141  0.6101
  551TMC3    O2 8238   1.759   1.485  13.036  0.4579 -0.3509  0.1272
  552MPD2     C 8239   3.204   3.549  13.958 -0.1761  0.7110  0.2111
  552MPD2    C1 8240   3.171   3.461  14.061 -0.3048  1.0660  0.1399
  552MPD2    C2 8241   3.235   3.484  14.179 -0.0601 -0.4294 -0.0791
  552MPD2    C3 8242   3.311   3.595  14.205 -0.6775 -0.1790  0.9111
  552MPD2    C4 8243   3.342   3.683  14.102 -0.5072 -0.3746  0.6363
  552MPD2    C5 8244   3.293   3.657  13.978  0.0841  0.1960 -0.7642
  552MPD2     H 8245   3.225   3.407  14.255 -1.7951  0.9974  1.1603
  552MPD2    H1 8246   3.404   3.769  14.125 -1.0904  0.1016  0.4293
  552MPD2    H2 8247   3.169   3.529  13.858 -1.1155 -0.5847  0.8070
  552MPD2    H3 8248   3.313   3.721  13.893  0.5218 -1.3759 -1.8317
  552MPD2     N 8249   3.369   3.623  14.331 -0.3283  0.0137 -0.2755
  552MPD2    H5 8250   3.437   3.697  14.331  1.6084 -1.7818  1.8279
  552MPD2    N1 8251   3.095   3.350  14.045 -0.8206  0.2518 -0.4827
  552MPD2    H7 8252   3.097   3.281  14.119  0.8106  1.0343  0.1949
  553TMC3    C1 8253   2.976   3.168  13.962  0.1985 -0.1555  0.3264
  553TMC3    C2 8254   2.985   3.099  13.843  0.6862  0.0066  0.6025
  553TMC3    C3 8255   3.045   2.980  13.847  0.3170 -0.1596 -0.0181
  553TMC3    C4 8256   3.018   3.114  14.080  0.3314 -0.2221 -0.4212
  553TMC3    C5 8257   3.084   2.997  14.079 -0.4117 -0.3476 -0.0674
  553TMC3    C6 8258   3.094   2.920  13.961 -1.0858 -0.5440  0.6267
  553TMC3     C 8259   3.015   3.312  13.945  0.3842  0.2522  0.4914
  553TMC3     O 8260   2.976   3.375  13.846 -0.4210 -0.2543  0.6999
  553TMC3     H 8261   2.959   3.147  13.749 -2.5075 -0.9561  0.9839
  553TMC3    H1 8262   2.998   3.168  14.172 -1.5689  0.3527 -1.1768
  553TMC3    H2 8263   3.136   2.820  13.955 -1.0848 -0.5801  1.2542
  553TMC3    C7 8264   3.212   3.018  14.141  0.1502  0.1956  0.5597
  553TMC3    C8 8265   3.085   2.913  13.725 -0.4486 -0.1224 -0.5043
  553TMC3    O1 8266   3.228   3.125  14.200  0.0056  0.0717  0.5976
  553TMC3    O2 8267   3.148   2.807  13.736 -0.1069 -0.2750 -0.2821
  554TMC3    C1 8268   0.374   2.268  11.610 -0.7092 -0.0433 -0.4446
  554TMC3    C2 8269   0.318   2.237  11.486  0.0727  0.6085 -0.5147
  554TMC3    C3 8270   0.370   2.299  11.378 -0.3753 -0.4312 -0.5354
  554TMC3    C4 8271   0.466   2.367  11.624 -0.2834 -0.2090  0.2611
  554TMC3    C5 8272   0.514   2.423  11.509 -0.3913  0.2998 -0.5965
  554TMC3    C6 8273   0.472   2.383  11.381 -0.3077 -0.1837 -0.4939
  554TMC3     C 8274   0.352   2.173  11.711  0.0038 -0.4047 -0.3422
  554TMC3     O 8275   0.245   2.109  11.696  0.6310 -0.4633 -0.4190
  554TMC3     H 8276   0.238   2.163  11.487 -0.4301  1.1551 -0.6965
  554TMC3    H1 8277   0.498   2.413  11.717  1.1520 -0.1709 -0.2467
  554TMC3    H2 8278   0.499   2.428  11.286 -3.1756 -0.1292 -1.2730
  554TMC3    C7 8279   0.593   2.546  11.522 -0.1172  0.0240  0.8828
  554TMC3    C8 8280   0.340   2.242  11.249 -0.5139 -0.0767 -0.0755
  554TMC3    O1 8281   0.604   2.587  11.635  0.5553 -0.3712  0.5644
  554TMC3    O2 8282   0.416   2.270  11.159  0.5664  0.0362  0.3202
  555TMC3    C1 8283   3.922   2.541  15.334 -0.2809 -0.5566  0.1747
  555TMC3    C2 8284   3.918   2.590  15.463  1.1914  0.4138  0.3817
  555TMC3    C3 8285   3.950   2.503  15.563  0.1014 -0.6182 -0.1835
  555TMC3    C4 8286   3.964   2.412  15.298  0.4751 -1.3089 -0.7753
  555TMC3    C5 8287   3.973   2.328  15.403 -0.0690 -0.4344  0.0923
  555TMC3    C6 8288   3.971   2.370  15.533  0.1700 -0.3879 -0.5669
  555TMC3     C 8289   3.923   2.638  15.228 -0.3491 -0.5183 -0.6247
  555TMC3     O 8290   3.940   2.759  15.247  0.1551  0.0267  0.3766
  555TMC3     H 8291   3.892   2.695  15.477 -0.3772  0.2557 -1.2618
  555TMC3    H1 8292   3.982   2.378  15.196  0.3446 -1.7337 -0.6591
  555TMC3    H2 8293   3.988   2.295  15.609 -2.0799 -0.4955 -0.1712
  555TMC3    C7 8294   4.011   2.189  15.379  0.2325 -0.1253  0.0958
  555TMC3    C8 8295   3.947   2.553  15.702 -0.0624  0.0911 -0.2636
  555TMC3    O1 8296   3.962   2.113  15.460  0.4571  0.2855  0.2109
  555TMC3    O2 8297   3.871   2.650  15.716 -0.6424  0.0536  0.5577
  556MPD2     C 8298   2.852   3.922  10.514 -0.2695  0.7131 -0.1916
  556MPD2    C1 8299   2.815   3.800  10.566 -1.1417 -0.7135  0.0489
  556MPD2    C2 8300   2.711   3.729  10.512 -0.8741 -0.2291 -0.6866
  556MPD2    C3 8301   2.648   3.774  10.396 -0.7881  0.0402 -0.1436
  556MPD2    C4 8302   2.697   3.892  10.346 -0.6633 -0.2968  0.6779
  556MPD2    C5 8303   2.802   3.967  10.398  0.2197 -0.2958  0.2694
  556MPD2     H 8304   2.667   3.642  10.559 -0.8058 -0.0365 -0.2666
  556MPD2    H1 8305   2.649   3.952  10.270 -2.9803 -0.3803  2.0735
  556MPD2    H2 8306   2.927   3.984  10.563  1.1430  0.1146 -1.5700
  556MPD2    H3 8307   2.845   4.056  10.353 -0.8486  0.6779  1.1916
  556MPD2     N 8308   2.542   3.702  10.342  0.0520  0.4356 -0.2809
  556MPD2    H5 8309   2.512   3.616  10.386 -0.1032 -0.8273 -2.8651
  556MPD2    N1 8310   2.859   3.752  10.688  0.5430  1.0656  0.2212
  556MPD2    H7 8311   2.830   3.657  10.711  2.7699  0.1170 -0.8263
  557TMC3    C1 8312   2.369   3.622  10.206  0.5002 -0.0088 -0.0122
  557TMC3    C2 8313   2.260   3.649  10.125  0.3190  0.4435  0.1614
  557TMC3    C3 8314   2.172   3.551  10.102 -0.1206  0.2445 -0.5593
  557TMC3    C4 8315   2.384   3.498  10.263 -0.3127 -0.4777  0.1492
  557TMC3    C5 8316   2.298   3.400  10.226  0.7141  0.1599 -0.0927
  557TMC3    C6 8317   2.190   3.418  10.140  0.1068  0.3420  0.6979
  557TMC3     C 8318   2.464   3.732  10.233  0.4711 -1.0233 -0.1846
  557TMC3     O 8319   2.457   3.836  10.167  0.4262 -0.1604 -0.2589
  557TMC3     H 8320   2.246   3.748  10.082 -0.0085  0.9087  1.3470
  557TMC3    H1 8321   2.463   3.461  10.328 -0.6209  0.2527  0.9437
  557TMC3    H2 8322   2.118   3.337  10.133  3.5484 -2.6752  0.5048
  557TMC3    C7 8323   2.305   3.263  10.273 -0.8478 -0.8760 -0.2364
  557TMC3    C8 8324   2.076   3.571   9.989  0.0077 -0.1394 -0.3571
  557TMC3    O1 8325   2.199   3.222  10.319 -0.5132  0.1525 -0.4294
  557TMC3    O2 8326   2.059   3.685   9.958  0.0820 -0.0736 -0.0819
  558TMC3    C1 8327   0.080   1.319  10.029  0.1660  0.2378 -0.2818
  558TMC3    C2 8328   0.011   1.256  10.134  0.8095 -0.4836  0.0221
  558TMC3    C3 8329   4.643   1.322  10.181  0.2140  0.4440 -0.3708
  558TMC3    C4 8330   0.070   1.451   9.998  0.1176  0.2204 -0.0933
  558TMC3    C5 8331   4.694   1.504  10.049  0.7659  0.7875 -0.5833
  558TMC3    C6 8332   4.607   1.442  10.134 -0.0911 -0.3345 -0.1524
  558TMC3     C 8333   0.198   1.253   9.978  0.9949 -0.0811  0.1393
  558TMC3     O 8334   0.189   1.140   9.947  0.1535 -0.0135  0.2609
  558TMC3     H 8335   0.033   1.153  10.156  0.9133 -0.5583 -0.4319
  558TMC3    H1 8336   0.109   1.495   9.907 -0.4508 -0.8895 -0.8676
  558TMC3    H2 8337   4.531   1.500  10.185 -0.5784 -0.2448 -0.9780
  558TMC3    C7 8338   4.633   1.615   9.976 -0.1527  0.2889  0.0502
  558TMC3    C8 8339   4.565   1.277  10.281  0.4735  0.2782  0.0737
  558TMC3    O1 8340   4.713   1.700   9.941 -0.4050 -0.6479 -0.1404
  558TMC3    O2 8341   4.446   1.303  10.281 -0.3192  0.1906  0.2263
  559MPD2     C 8342   0.415   1.847  10.445 -0.1874  0.5073 -0.2124
  559MPD2    C1 8343   0.350   1.769  10.536 -0.0407 -0.1841  0.5109
  559MPD2    C2 8344   0.419   1.719  10.645 -0.5490 -0.0176  0.1970
  559MPD2    C3 8345   0.542   1.770  10.682  0.0347  0.1950 -0.0223
  559MPD2    C4 8346   0.607   1.853  10.591  0.4218 -0.4984  0.0324
  559MPD2    C5 8347   0.544   1.890  10.474 -0.5357 -0.2930  0.3952
  559MPD2     H 8348   0.368   1.662  10.722  0.1879 -0.1456  0.5903
  559MPD2    H1 8349   0.709   1.889  10.593  0.5831 -1.0156  0.8973
  559MPD2    H2 8350   0.369   1.893  10.359 -1.7646 -1.3831 -0.3637
  559MPD2    H3 8351   0.583   1.956  10.397  0.2323  0.5730  1.5306
  559MPD2     N 8352   0.600   1.732  10.803  0.1378  0.8873  0.2773
  559MPD2    H5 8353   0.552   1.665  10.862  0.3309  0.0489 -0.5173
  559MPD2    N1 8354   0.211   1.732  10.504 -0.0361 -0.3891 -0.7567
  559MPD2    H7 8355   0.163   1.779  10.427  1.3569 -0.8367 -1.8973
  560TMC3    C1 8356   0.777   1.692  10.962 -0.1256  0.0863 -0.2624
  560TMC3    C2 8357   0.717   1.568  10.978  0.0772 -0.2274  0.4520
  560TMC3    C3 8358   0.717   1.519  11.109  0.0353 -0.3713 -0.2406
  560TMC3    C4 8359   0.821   1.765  11.060 -0.2586  0.2826 -0.4779
  560TMC3    C5 8360   0.804   1.712  11.183  0.0367  0.8278  0.8113
  560TMC3    C6 8361   0.766   1.585  11.213 -1.0723  0.1186 -0.6740
  560TMC3     C 8362   0.732   1.768  10.847  0.9587  0.2127 -0.1439
  560TMC3     O 8363   0.811   1.832  10.779  0.1532 -0.2434  0.9446
  560TMC3     H 8364   0.683   1.509  10.893  0.1946  0.0012  0.2464
  560TMC3    H1 8365   0.849   1.869  11.046  1.0643 -0.0321 -0.2328
  560TMC3    H2 8366   0.762   1.538  11.311  2.4188  1.9461  0.3424
  560TMC3    C7 8367   0.857   1.784  11.296 -0.1753 -0.7799 -0.4191
  560TMC3    C8 8368   0.634   1.401  11.126 -0.3179 -0.8803  0.4292
  560TMC3    O1 8369   0.827   1.739  11.407  0.1276  0.5171 -0.3024
  560TMC3    O2 8370   0.569   1.373  11.026  0.3441  0.0964  0.0363
  561TMC3    C1 8371   2.980   0.702  11.410 -0.7529 -0.3480 -0.3061
  561TMC3    C2 8372   2.873   0.639  11.470 -1.0688  0.5405 -0.3302
  561TMC3    C3 8373   2.791   0.722  11.536 -0.2244  0.3421  0.2723
  561TMC3    C4 8374   3.013   0.834  11.407  0.2896  0.0435  0.0574
  561TMC3    C5 8375   2.929   0.913  11.486 -0.5582  0.6739  0.2990
  561TMC3    C6 8376   2.824   0.858  11.556  0.1105  0.0300  0.9535
  561TMC3     C 8377   3.066   0.603  11.341  0.7901 -0.0591  0.7471
  561TMC3     O 8378   3.040   0.484  11.359 -0.4342  0.4392 -0.2916
  561TMC3     H 8379   2.858   0.532  11.461  2.8037 -0.0189 -0.2191
  561TMC3    H1 8380   3.111   0.866  11.373 -0.4404  2.4012  0.1773
  561TMC3    H2 8381   2.762   0.925  11.615 -0.5836 -0.2040  0.4995
  561TMC3    C7 8382   2.947   1.062  11.500  0.1200 -0.2630  0.8050
  561TMC3    C8 8383   2.718   0.649  11.638 -0.0845 -0.1771 -0.0611
  561TMC3    O1 8384   2.891   1.106  11.597 -0.1073  0.7094 -0.2706
  561TMC3    O2 8385   2.758   0.537  11.666  0.7446 -0.3550  0.9555
  562TMC3    C1 8386   3.840   2.348  16.279  0.7572 -0.0673  0.6180
  562TMC3    C2 8387   3.729   2.434  16.289  0.9206  0.6071  0.6235
  562TMC3    C3 8388   3.650   2.454  16.179  0.1276 -0.5304  0.5462
  562TMC3    C4 8389   3.863   2.280  16.166 -0.2958  0.0664  0.5049
  562TMC3    C5 8390   3.786   2.304  16.057  0.1616 -0.1132 -0.7892
  562TMC3    C6 8391   3.685   2.391  16.058  0.4999  0.4381  0.3383
  562TMC3     C 8392   3.915   2.302  16.394 -0.6227  0.3257 -0.5478
  562TMC3     O 8393   3.952   2.185  16.389 -0.2747  0.5879  0.1695
  562TMC3     H 8394   3.709   2.485  16.382  2.5195  0.4389  1.0677
  562TMC3    H1 8395   3.960   2.231  16.169  0.0437  0.7441  0.8527
  562TMC3    H2 8396   3.612   2.393  15.978  0.3837  0.1219  0.4340
  562TMC3    C7 8397   3.789   2.209  15.946 -0.1485 -0.0058  0.3780
  562TMC3    C8 8398   3.556   2.560  16.195  0.3371  0.5597  0.3637
  562TMC3    O1 8399   3.755   2.247  15.837  0.3222 -0.5261 -0.2582
  562TMC3    O2 8400   3.529   2.584  16.311  0.2494 -0.2390 -0.1664
  563MPD2     C 8401   0.980   3.837  15.930  0.0878 -0.1573  0.3040
  563MPD2    C1 8402   1.089   3.913  15.960 -0.3718 -0.0523  0.5024
  563MPD2    C2 8403   1.212   3.852  15.965  0.5734 -0.2777 -0.0470
  563MPD2    C3 8404   1.227   3.717  15.936 -0.0580 -0.3960 -0.2687
  563MPD2    C4 8405   1.123   3.652  15.896  0.1123 -0.2513  0.1054
  563MPD2    C5 8406   1.006   3.713  15.896 -0.4349  0.3734 -0.1728
  563MPD2     H 8407   1.301   3.894  16.012 -1.3944  3.0909  0.6804
  563MPD2    H1 8408   1.126   3.550  15.862  1.8400  0.1146 -0.8698
  563MPD2    H2 8409   0.876   3.870  15.926  0.5853  1.0749 -2.8332
  563MPD2    H3 8410   0.920   3.663  15.853 -0.0013 -0.3908 -0.1448
  563MPD2     N 8411   1.352   3.658  15.971  0.4702 -0.2242 -0.0204
  563MPD2    H5 8412   1.419   3.721  16.016  0.5271 -0.9816  0.9433
  563MPD2    N1 8413   1.069   4.049  15.998 -0.3909 -0.0591 -0.0590
  563MPD2    H7 8414   0.978   4.093  16.004  0.9131  2.5996  0.5213
  564TMC3    C1 8415   1.172   4.189  16.145  0.9176  0.1152 -0.1429
  564TMC3    C2 8416   1.047   4.228  16.191  0.2644  1.0801  0.0508
  564TMC3    C3 8417   1.040   4.236  16.326  0.3667 -0.0262 -0.7232
  564TMC3    C4 8418   1.252   4.114  16.228  0.1850 -0.1937  0.7866
  564TMC3    C5 8419   1.214   4.088  16.356 -1.2985 -1.3786 -0.5149
  564TMC3    C6 8420   1.114   4.162  16.414 -0.4262  0.1469 -0.2889
  564TMC3     C 8421   1.172   4.135  16.013  0.8299  0.1578  0.1630
  564TMC3     O 8422   1.280   4.132  15.962 -0.6513  0.1561  0.2533
  564TMC3     H 8423   0.994   4.295  16.125  0.5256  1.8376  0.6114
  564TMC3    H1 8424   1.325   4.045  16.186  0.3322  1.2183 -1.2604
  564TMC3    H2 8425   1.085   4.145  16.517  2.9537 -1.7064  0.3651
  564TMC3    C7 8426   1.167   3.947  16.385 -0.3662 -0.2266 -0.3106
  564TMC3    C8 8427   0.934   4.311  16.387 -0.3842  0.0718 -0.5664
  564TMC3    O1 8428   1.069   3.928  16.454 -0.2194  0.1839  0.1265
  564TMC3    O2 8429   0.950   4.376  16.487 -0.1880  0.6362  0.0175
  565TMC3    C1 8430   2.342   1.443   9.297  0.5906 -0.6654 -0.2943
  565TMC3    C2 8431   2.348   1.302   9.303 -0.8294 -0.6174 -0.4336
  565TMC3    C3 8432   2.233   1.229   9.261 -0.2438 -0.2670 -0.2090
  565TMC3    C4 8433   2.234   1.502   9.236 -0.1372  0.1869 -0.1413
  565TMC3    C5 8434   2.129   1.422   9.189 -0.0366 -0.6498 -0.0601
  565TMC3    C6 8435   2.116   1.290   9.215 -0.3638  0.3084  0.5473
  565TMC3     C 8436   2.459   1.531   9.327 -0.0186 -0.0253  0.1614
  565TMC3     O 8437   2.437   1.651   9.301  0.0472  0.5729  0.5349
  565TMC3     H 8438   2.430   1.243   9.343 -0.9358 -0.9044 -0.6329
  565TMC3    H1 8439   2.219   1.610   9.232 -1.9830 -0.0493  0.1155
  565TMC3    H2 8440   2.017   1.248   9.227  0.1085 -1.3762 -1.4367
  565TMC3    C7 8441   2.006   1.491   9.156 -0.1579 -0.7594 -0.5006
  565TMC3    C8 8442   2.239   1.087   9.280  0.0545 -0.2864  0.0099
  565TMC3    O1 8443   1.987   1.609   9.178  0.4651 -0.7083  0.2592
  565TMC3    O2 8444   2.341   1.046   9.337  0.1225  0.1524  0.2460
  566MPD2     C 8445   3.753   1.846  14.182  0.4791  0.0603 -0.0872
  566MPD2    C1 8446   3.811   1.939  14.095  0.2164  0.9392  0.2652
  566MPD2    C2 8447   3.825   1.910  13.957  0.5203 -0.1598  1.0036
  566MPD2    C3 8448   3.801   1.783  13.914 -0.1553  0.5904 -0.2643
  566MPD2    C4 8449   3.743   1.691  14.005 -0.4401 -0.4901  0.6887
  566MPD2    C5 8450   3.712   1.725  14.134  0.3709  0.4332 -0.1022
  566MPD2     H 8451   3.863   1.983  13.886 -0.6420 -0.5405 -0.0256
  566MPD2    H1 8452   3.722   1.590  13.970 -0.1266 -0.0591 -0.7426
  566MPD2    H2 8453   3.737   1.860  14.288  0.1242  2.7907 -0.5049
  566MPD2    H3 8454   3.669   1.650  14.199  2.3646 -1.3050 -0.7928
  566MPD2     N 8455   3.828   1.753  13.785 -0.5674 -0.2489  0.2983
  566MPD2    H5 8456   3.861   1.830  13.728 -1.2137 -1.9763 -2.4565
  566MPD2    N1 8457   3.851   2.067  14.148  0.0430  0.3306 -0.5919
  566MPD2    H7 8458   3.825   2.087  14.244 -1.0106 -3.2186 -0.1349
  567TMC3    C1 8459   3.943   2.286  14.149 -0.4440 -0.6524 -1.2553
  567TMC3    C2 8460   3.968   2.401  14.080  0.6817  0.1429  0.1367
  567TMC3    C3 8461   3.996   2.512  14.155 -0.4261  0.1705 -0.5609
  567TMC3    C4 8462   3.964   2.269  14.283  0.1376 -0.0954 -0.1788
  567TMC3    C5 8463   3.996   2.383  14.346 -0.4931  0.6856 -0.6258
  567TMC3    C6 8464   4.011   2.501  14.291 -0.2841  0.4479  0.4537
  567TMC3     C 8465   3.914   2.168  14.072  0.5513 -0.4291  0.5308
  567TMC3     O 8466   3.935   2.185  13.949  0.6647  0.3615 -0.0940
  567TMC3     H 8467   3.941   2.412  13.976  0.9337  0.4775  0.1056
  567TMC3    H1 8468   3.963   2.174  14.334  1.4316 -0.3057 -0.5326
  567TMC3    H2 8469   4.044   2.591  14.342  0.9126 -0.7022  1.7011
  567TMC3    C7 8470   4.009   2.376  14.497 -0.6894 -0.2741 -0.2454
  567TMC3    C8 8471   4.008   2.639  14.094  0.3864  0.0983 -0.2695
  567TMC3    O1 8472   4.072   2.470  14.547 -0.2351 -0.3481 -0.5637
  567TMC3    O2 8473   3.990   2.737  14.163  0.1269  0.3245  0.3877
  568MPD2     C 8474   1.168   2.813  16.502 -1.0364 -0.7614  0.4714
  568MPD2    C1 8475   1.162   2.849  16.638 -0.1336  0.0862 -0.6321
  568MPD2    C2 8476   1.091   2.965  16.669  0.1584  0.2374 -0.3236
  568MPD2    C3 8477   1.053   3.053  16.571  0.9598  0.3832  0.0666
  568MPD2    C4 8478   1.047   3.014  16.441 -0.1708  0.2929  0.6729
  568MPD2    C5 8479   1.101   2.894  16.413  0.0499 -0.5008 -0.1363
  568MPD2     H 8480   1.078   2.983  16.776  0.8739  0.4552 -0.2795
  568MPD2    H1 8481   1.002   3.078  16.367  1.0890 -1.3417 -1.5162
  568MPD2    H2 8482   1.217   2.722  16.469 -0.4024 -0.9304  1.9222
  568MPD2    H3 8483   1.127   2.868  16.311 -0.9971 -0.3701 -0.4340
  568MPD2     N 8484   1.021   3.189  16.603 -0.1668 -0.1293  0.0238
  568MPD2    H5 8485   1.062   3.220  16.690  1.3754 -0.0742 -0.7265
  568MPD2    N1 8486   1.229   2.762  16.732 -0.3946  0.3297 -0.0879
  568MPD2    H7 8487   1.268   2.675  16.697 -1.3061 -0.3773  0.6422
  569TMC3    C1 8488   0.925   3.407  16.575 -0.5942 -0.2189 -0.1882
  569TMC3    C2 8489   1.018   3.461  16.658  0.4468 -0.1640 -0.3225
  569TMC3    C3 8490   1.023   3.598  16.664  0.0183 -0.3198 -0.5718
  569TMC3    C4 8491   0.841   3.485  16.505 -0.1952  0.0711  0.3192
  569TMC3    C5 8492   0.845   3.623  16.519 -0.1668  0.0367 -0.1577
  569TMC3    C6 8493   0.937   3.685  16.602  0.7844  0.0123  0.0842
  569TMC3     C 8494   0.929   3.268  16.530 -0.0949 -0.0151  0.3484
  569TMC3     O 8495   0.852   3.230  16.444  0.7746 -0.0629  0.0674
  569TMC3     H 8496   1.092   3.401  16.709 -1.7171 -1.4970  1.2316
  569TMC3    H1 8497   0.764   3.443  16.440 -0.2543  1.2896 -0.3931
  569TMC3    H2 8498   0.924   3.786  16.638 -1.2017 -0.2002 -0.0394
  569TMC3    C7 8499   0.751   3.705  16.440  0.7458  0.0375 -0.6538
  569TMC3    C8 8500   1.115   3.649  16.766  0.3574 -0.8320  0.7626
  569TMC3    O1 8501   0.651   3.653  16.390 -0.5546  0.0080 -0.0197
  569TMC3    O2 8502   1.115   3.595  16.876  0.3157  0.1089 -0.0386
  570TMC3    C1 8503   0.416   1.547  15.829  0.5485  0.3451 -0.1899
  570TMC3    C2 8504   0.525   1.520  15.752 -0.2741 -0.5940  0.1076
  570TMC3    C3 8505   0.574   1.631  15.686 -0.0278 -0.1320  0.0034
  570TMC3    C4 8506   0.366   1.675  15.850  0.0848  0.1736 -0.1789
  570TMC3    C5 8507   0.416   1.772  15.776  0.2997  0.1466  0.4720
  570TMC3    C6 8508   0.512   1.755  15.685  0.0040 -0.0352 -0.1967
  570TMC3     C 8509   0.382   1.435  15.917  0.1111  0.1398  0.0196
  570TMC3     O 8510   0.397   1.320  15.876 -0.7817 -0.2865  0.0254
  570TMC3     H 8511   0.571   1.423  15.743 -1.7716 -1.2163 -0.8441
  570TMC3    H1 8512   0.281   1.679  15.918  1.3549 -0.2325  1.4155
  570TMC3    H2 8513   0.547   1.842  15.630  0.1170 -0.6833 -1.1353
  570TMC3    C7 8514   0.406   1.903  15.838 -0.0504 -0.1207  0.3036
  570TMC3    C8 8515   0.691   1.620  15.605 -0.3191 -0.1312 -0.8562
  570TMC3    O1 8516   0.507   1.967  15.827 -0.4239  0.2774 -0.2955
  570TMC3    O2 8517   0.745   1.732  15.599 -0.3803  0.3914 -0.1259
  571MPD2     C 8518   2.983   3.476   0.044 -0.2724 -0.4273  0.2093
  571MPD2    C1 8519   3.043   3.545  17.693  0.6185  0.1609 -0.4229
  571MPD2    C2 8520   3.060   3.680  17.710  0.5803 -0.3690 -0.2477
  571MPD2    C3 8521   3.028   3.747   0.077  0.1422 -0.2492 -0.5667
  571MPD2    C4 8522   2.967   3.674   0.178  0.1550  0.3460 -0.3478
  571MPD2    C5 8523   2.954   3.535   0.163  0.2290 -0.3886  0.1655
  571MPD2     H 8524   3.110   3.737  17.632  2.4177  0.7620  1.7544
  571MPD2    H1 8525   2.940   3.716   0.274 -1.5017 -0.7191 -0.3421
  571MPD2    H2 8526   2.963   3.370   0.030 -2.4756  0.0499 -0.3373
  571MPD2    H3 8527   2.905   3.478   0.242 -0.1359 -1.0062 -0.5035
  571MPD2     N 8528   3.050   3.886   0.098  0.4779 -0.2026 -0.4607
  571MPD2    H5 8529   3.014   3.920   0.186  0.0175  0.7568 -1.0118
  571MPD2    N1 8530   3.083   3.473  17.582  0.5566  0.3847 -0.2955
  571MPD2    H7 8531   3.075   3.372  17.586 -1.9612  0.6598  1.4301
  572TMC3    C1 8532   3.102   4.116   0.052 -0.8521 -0.8596 -0.3326
  572TMC3    C2 8533   3.071   4.153   0.182  0.3802 -0.3589 -0.2162
  572TMC3    C3 8534   3.104   4.277   0.233 -0.4268 -0.3565 -0.0703
  572TMC3    C4 8535   3.160   4.211  17.718  0.4523  0.6608  0.2185
  572TMC3    C5 8536   3.182   4.338   0.023 -0.5845  0.0920 -0.2331
  572TMC3    C6 8537   3.165   4.373   0.156  0.3505 -0.0632  0.3098
  572TMC3     C 8538   3.092   3.976   0.003 -0.7161 -0.5072 -0.4348
  572TMC3     O 8539   3.137   3.962  17.637  0.4675 -0.5056 -0.3905
  572TMC3     H 8540   3.047   4.072   0.249  2.4449  0.7810  1.9018
  572TMC3    H1 8541   3.183   4.193  17.614 -0.1286 -0.1160  0.2202
  572TMC3    H2 8542   3.216   4.458   0.201  1.1933  0.5307 -1.7612
  572TMC3    C7 8543   3.206   4.441  17.678 -0.2064 -0.0349 -0.2450
  572TMC3    C8 8544   3.040   4.322   0.360 -0.2203 -0.1306  0.0713
  572TMC3    O1 8545   3.241   4.411  17.564  0.1325 -0.0103 -0.5696
  572TMC3    O2 8546   3.078   4.431   0.403  0.6162 -0.3158  0.2734
  573MPD2     C 8547   4.694   3.989   1.148  0.3589 -0.0908  0.7719
  573MPD2    C1 8548   0.040   4.041   1.061  0.5507 -0.4328 -0.3718
  573MPD2    C2 8549   0.029   4.026   0.926 -0.0384  0.1051  0.0616
  573MPD2    C3 8550   4.645   3.974   0.880 -0.3816 -0.5719 -0.8185
  573MPD2    C4 8551   4.552   3.933   0.965  0.4813 -0.6173 -0.3063
  573MPD2    C5 8552   4.577   3.932   1.102 -0.1656  0.1070  0.4745
  573MPD2     H 8553   0.103   4.062   0.856 -0.3389 -1.5874 -1.1433
  573MPD2    H1 8554   4.456   3.891   0.936  0.7364 -1.8740  0.6765
  573MPD2    H2 8555   4.712   3.997   1.255 -0.4256  1.3504  0.7970
  573MPD2    H3 8556   4.498   3.898   1.168 -1.6378  0.0141 -1.3632
  573MPD2     N 8557   4.617   3.973   0.743  0.2732  0.0785 -0.8978
  573MPD2    H5 8558   4.527   3.936   0.712  0.4009  0.3897 -1.6425
  573MPD2    N1 8559   0.141   4.112   1.128 -0.5805 -0.1073 -0.6971
  573MPD2    H7 8560   0.130   4.126   1.227 -1.8408  2.8996 -1.2722
  574TMC3    C1 8561   4.645   4.018   0.503 -0.5722  0.2681 -0.4520
  574TMC3    C2 8562   4.513   4.006   0.494 -0.0487  0.0081 -0.6480
  574TMC3    C3 8563   4.456   4.030   0.375  0.7144 -0.1484 -0.5902
  574TMC3    C4 8564   4.726   4.064   0.404 -0.1164  0.3196 -0.3462
  574TMC3    C5 8565   4.672   4.085   0.282 -0.1052  0.5646  0.1949
  574TMC3    C6 8566   4.536   4.081   0.271 -0.1839 -0.4319 -0.3131
  574TMC3     C 8567   4.707   4.002   0.638  0.0204  0.1505 -0.2248
  574TMC3     O 8568   0.087   4.032   0.632 -0.3010  0.3758  0.2905
  574TMC3     H 8569   4.451   3.998   0.583 -2.1190 -0.5208 -2.1414
  574TMC3    H1 8570   0.092   4.083   0.428 -0.5567  0.4926  1.4101
  574TMC3    H2 8571   4.495   4.111   0.175  0.8042 -0.1858 -0.6523
  574TMC3    C7 8572   0.007   4.169   0.183  0.8913  0.0702 -1.0769
  574TMC3    C8 8573   4.314   4.044   0.379  0.5017 -0.1091 -0.7627
  574TMC3    O1 8574   4.679   4.240   0.113 -0.3192 -0.0904 -0.3262
  574TMC3    O2 8575   4.240   3.984   0.456  0.8481  0.4767  0.0067
  575TMC3    C1 8576   2.547   0.379   9.674  0.2113 -0.2013  0.1619
  575TMC3    C2 8577   2.473   0.259   9.698 -0.1117  0.8277  0.5554
  575TMC3    C3 8578   2.343   0.262   9.659  0.2194 -0.2118  0.2098
  575TMC3    C4 8579   2.488   0.487   9.613 -0.6482 -0.0405  0.0229
  575TMC3    C5 8580   2.367   0.474   9.555  0.0898 -0.2744 -0.4557
  575TMC3    C6 8581   2.290   0.358   9.576  0.1721 -0.0153  0.4237
  575TMC3     C 8582   2.666   0.413   9.741 -1.0395 -0.2373  0.2054
  575TMC3     O 8583   2.677   0.528   9.780  0.6143 -0.5428  0.6230
  575TMC3     H 8584   2.506   0.189   9.773  1.0829 -0.4790 -1.2041
  575TMC3    H1 8585   2.553   0.573   9.605 -0.3510 -0.0768  1.9935
  575TMC3    H2 8586   2.186   0.356   9.548 -0.2450 -0.3314  2.0024
  575TMC3    C7 8587   2.317   0.591   9.488  1.1432 -0.0414  0.2263
  575TMC3    C8 8588   2.274   0.132   9.665  0.4664  0.1250  0.0184
  575TMC3    O1 8589   2.390   0.690   9.488 -0.1155 -0.0488  0.0333
  575TMC3    O2 8590   2.298   0.068   9.767  0.2818 -0.1204  0.2104
  576MPD2     C 8591   1.874   1.207  12.622  0.0248 -0.1618 -0.3861
  576MPD2    C1 8592   1.931   1.327  12.573 -0.2062  0.0535 -0.2811
  576MPD2    C2 8593   1.876   1.448  12.611  0.4571 -0.4541 -0.7405
  576MPD2    C3 8594   1.761   1.453  12.690 -0.3378  0.0905 -0.5968
  576MPD2    C4 8595   1.715   1.333  12.744  0.1455  0.7956 -0.9141
  576MPD2    C5 8596   1.770   1.211  12.709 -0.4851  0.2423 -0.3887
  576MPD2     H 8597   1.931   1.534  12.576 -2.8328  1.7977 -0.3211
  576MPD2    H1 8598   1.637   1.337  12.819 -0.7552 -1.1882 -1.7576
  576MPD2    H2 8599   1.902   1.111  12.579  0.7825  0.0415 -0.3334
  576MPD2    H3 8600   1.730   1.117  12.744  2.4900  0.0105  2.3576
  576MPD2     N 8601   1.689   1.577  12.699 -0.1099 -0.1321  0.2862
  576MPD2    H5 8602   1.746   1.652  12.661  0.8173 -0.0582  1.7966
  576MPD2    N1 8603   2.040   1.319  12.480 -0.0104 -0.1862  0.0743
  576MPD2    H7 8604   2.090   1.406  12.463 -0.1044 -0.2623 -0.6101
  577TMC3    C1 8605   2.200   1.228  12.338 -0.0353  0.5887  0.7509
  577TMC3    C2 8606   2.248   1.100  12.326  0.2337  0.1784  0.0929
  577TMC3    C3 8607   2.370   1.082  12.259 -0.1865 -0.9369  0.3263
  577TMC3    C4 8608   2.239   1.329  12.258  0.1097 -0.1863 -0.5625
  577TMC3    C5 8609   2.362   1.314  12.199 -0.4127 -0.1700  0.0625
  577TMC3    C6 8610   2.426   1.192  12.198 -0.2639  0.4404 -0.0125
  577TMC3     C 8611   2.063   1.224  12.388 -0.0543  0.1322 -0.1588
  577TMC3     O 8612   2.000   1.120  12.376  0.2529 -0.1439  0.4629
  577TMC3     H 8613   2.206   1.014  12.377 -0.6323  0.5575  0.0167
  577TMC3    H1 8614   2.191   1.425  12.268 -0.5969 -0.7523  1.4606
  577TMC3    H2 8615   2.519   1.200  12.142 -0.1406 -0.3386  0.0816
  577TMC3    C7 8616   2.387   1.393  12.081 -0.1757  0.2595  0.0124
  577TMC3    C8 8617   2.419   0.952  12.226  0.2856 -0.0132 -0.1190
  577TMC3    O1 8618   2.502   1.386  12.041 -1.1304 -0.2278 -0.3901
  577TMC3    O2 8619   2.382   0.859  12.294 -0.4729 -0.0643  0.5244
  578MPD2     C 8620   4.628   2.204   1.517 -0.0466 -0.2339  0.4569
  578MPD2    C1 8621   4.684   2.145   1.409 -0.0415  0.2358  0.2580
  578MPD2    C2 8622   0.038   2.040   1.429  0.1580  0.0783 -0.4139
  578MPD2    C3 8623   0.085   2.010   1.556  0.0325 -0.2173  0.0431
  578MPD2    C4 8624   0.033   2.075   1.665  0.0858  0.3283  0.3903
  578MPD2    C5 8625   4.674   2.173   1.643 -0.4237 -0.8232 -0.1941
  578MPD2     H 8626   0.086   1.994   1.343 -0.7303  0.6013 -1.2009
  578MPD2    H1 8627   0.066   2.068   1.769  3.1687 -1.2384 -0.6793
  578MPD2    H2 8628   4.546   2.275   1.524 -0.2894 -0.3538 -1.2572
  578MPD2    H3 8629   4.636   2.238   1.722  0.6399 -1.4921  0.8616
  578MPD2     N 8630   0.199   1.919   1.561  0.5606  0.0617 -0.5323
  578MPD2    H5 8631   0.227   1.879   1.472 -2.1530  0.3569 -1.5110
  578MPD2    N1 8632   4.635   2.173   1.283 -0.1843  0.5003  0.0237
  578MPD2    H7 8633   4.681   2.126   1.206 -1.0204 -0.9632  0.4387
  579TMC3    C1 8634   0.401   1.834   1.644 -0.1362  0.1624 -0.3410
  579TMC3    C2 8635   0.513   1.881   1.710 -0.0971 -0.0647 -1.6436
  579TMC3    C3 8636   0.632   1.833   1.656 -0.3318 -0.1613 -0.3187
  579TMC3    C4 8637   0.408   1.762   1.529  0.7381 -0.4564 -0.2149
  579TMC3    C5 8638   0.531   1.716   1.484  0.2192  0.2719 -0.4773
  579TMC3    C6 8639   0.640   1.749   1.550  0.1648  0.4077  0.0714
  579TMC3     C 8640   0.283   1.913   1.669  0.5884  0.3008 -0.0594
  579TMC3     O 8641   0.282   1.986   1.762 -0.3922  0.5757  0.0894
  579TMC3     H 8642   0.511   1.945   1.797  2.6152 -1.4976 -0.5332
  579TMC3    H1 8643   0.312   1.723   1.496  0.0160  1.5893 -0.5352
  579TMC3    H2 8644   0.738   1.711   1.525  0.1386  0.7458 -0.5485
  579TMC3    C7 8645   0.546   1.619   1.375  0.1310  0.0394 -0.0890
  579TMC3    C8 8646   0.756   1.881   1.713  0.3980 -0.1266  0.5430
  579TMC3    O1 8647   0.662   1.584   1.362 -0.5094  0.2191 -0.7386
  579TMC3    O2 8648   0.746   1.927   1.825 -0.1354 -0.2256 -0.1275
  580TMC3    C1 8649   0.149   0.067  11.930  0.0569  0.3285  0.5895
  580TMC3    C2 8650   0.073   0.047  11.820 -0.1214 -0.0672 -0.5981
  580TMC3    C3 8651   0.051   4.650  11.782 -0.5618 -0.2773 -1.1012
  580TMC3    C4 8652   0.188   4.713  12.022 -0.2179 -0.3206  1.0653
  580TMC3    C5 8653   0.138   4.586  11.998  0.2703  0.2827  0.4767
  580TMC3    C6 8654   0.079   4.551  11.875 -0.0824  0.4691 -0.1681
  580TMC3     C 8655   0.232   0.181  11.929  0.3849 -0.2807  0.3097
  580TMC3     O 8656   0.250   0.231  11.817  0.3505  0.3560 -0.7811
  580TMC3     H 8657   0.039   0.136  11.768 -0.7390 -1.0446 -1.8531
  580TMC3    H1 8658   0.277   4.729  12.082  0.3571  0.8992 -0.1172
  580TMC3    H2 8659   0.076   4.449  11.840  1.3847  0.3538  0.0354
  580TMC3    C7 8660   0.181   4.485  12.093  0.3065  0.4917 -0.3351
  580TMC3    C8 8661   0.069   4.627  11.643 -0.5711  0.5691  0.4338
  580TMC3    O1 8662   0.230   4.536  12.192  0.6462 -0.1964  0.0911
  580TMC3    O2 8663   0.001   4.543  11.584  0.0312  0.2989 -0.0936
  581MPD2     C 8664   1.997   4.708  14.887  0.1585  0.0407  0.1992
  581MPD2    C1 8665   1.905   0.059  14.925 -0.1333 -0.4257 -0.0910
  581MPD2    C2 8666   1.867   0.159  14.837 -0.2477  0.6539  0.0793
  581MPD2    C3 8667   1.917   0.167  14.708 -0.1314 -0.0170 -0.0650
  581MPD2    C4 8668   2.020   0.083  14.671  0.1021 -0.1017 -0.1058
  581MPD2    C5 8669   2.051   4.721  14.759  0.7040  0.2504  0.4944
  581MPD2     H 8670   1.799   0.234  14.877  0.4460  1.4775 -0.2691
  581MPD2    H1 8671   2.073   0.083  14.576  0.4155  0.0309  0.0708
  581MPD2    H2 8672   2.024   4.621  14.946 -0.8687 -1.0407 -0.9046
  581MPD2    H3 8673   2.113   4.643  14.717  0.7254 -0.1450  1.2542
  581MPD2     N 8674   1.884   0.276  14.622 -0.6870  0.5223 -0.2093
  581MPD2    H5 8675   1.822   0.348  14.659 -1.1143 -0.0230  0.1325
  581MPD2    N1 8676   1.843   0.025  15.050 -0.4344 -0.3755  0.5559
  581MPD2    H7 8677   1.898   4.696  15.104  1.1247  1.5097  1.3102
  582TMC3    C1 8678   1.702   0.063  15.236  0.3960 -0.6646  0.7870
  582TMC3    C2 8679   1.791   0.026  15.327  0.2879  0.4753 -0.5763
  582TMC3    C3 8680   1.752   0.004  15.461 -0.4606 -0.0445  0.7360
  582TMC3    C4 8681   1.573   0.093  15.277  0.2358 -0.6994  0.1415
  582TMC3    C5 8682   1.536   0.082  15.407  0.0613  0.1032  0.4703
  582TMC3    C6 8683   1.625   0.034  15.500 -0.0453  0.2207  0.0064
  582TMC3     C 8684   1.728   0.084  15.094 -0.0590  0.6302 -0.6141
  582TMC3     O 8685   1.653   0.168  15.045  0.4135 -0.0177 -0.0023
  582TMC3     H 8686   1.886   4.723  15.296 -0.7569 -0.9984 -1.8415
  582TMC3    H1 8687   1.508   0.147  15.209  0.8597 -1.3417 -0.9684
  582TMC3    H2 8688   1.592   0.024  15.603  1.5180 -0.4451  0.4418
  582TMC3    C7 8689   1.459   0.198  15.444 -0.0426  0.2022  0.6706
  582TMC3    C8 8690   1.843   0.070  15.545 -0.4184  0.4949  0.7199
  582TMC3    O1 8691   1.360   0.209  15.372 -0.3208 -0.1528 -0.3196
  582TMC3    O2 8692   1.796   0.167  15.600 -0.0327  0.6512 -0.4585
  583MPD2     C 8693   2.427   1.986  17.026  0.0428  0.9206  0.2667
  583MPD2    C1 8694   2.414   2.070  16.919  0.2051  0.3710  0.3207
  583MPD2    C2 8695   2.337   2.183  16.938 -0.4863  0.4727 -0.2819
  583MPD2    C3 8696   2.273   2.211  17.058  0.4885 -0.3212  0.2491
  583MPD2    C4 8697   2.283   2.125  17.163  0.3183  0.1854 -0.2061
  583MPD2    C5 8698   2.363   2.015  17.144 -0.9672  0.1437 -0.0642
  583MPD2     H 8699   2.320   2.253  16.857  1.0760 -0.3600 -1.3347
  583MPD2    H1 8700   2.232   2.145  17.256 -0.2747 -0.5775 -0.3703
  583MPD2    H2 8701   2.479   1.891  17.022 -4.1414 -1.3418  0.1349
  583MPD2    H3 8702   2.368   1.947  17.228 -0.6988 -1.7976 -1.6572
  583MPD2     N 8703   2.186   2.321  17.064  0.3224 -0.9645  0.0779
  583MPD2    H5 8704   2.182   2.372  16.976 -0.6021  0.1894  0.7873
  583MPD2    N1 8705   2.462   2.039  16.788  0.6077  0.4733 -0.4753
  583MPD2    H7 8706   2.444   2.107  16.715  1.6988  4.2549  2.7630
  584TMC3    C1 8707   2.032   2.483  17.143 -0.3087 -0.1807 -0.4186
  584TMC3    C2 8708   2.089   2.599  17.094 -0.1891  0.0081 -0.0037
  584TMC3    C3 8709   2.038   2.722  17.123  0.3486  0.9025 -0.2902
  584TMC3    C4 8710   1.922   2.497  17.226 -0.6137  0.3809 -0.4321
  584TMC3    C5 8711   1.871   2.627  17.250  0.0307 -0.0079  0.4819
  584TMC3    C6 8712   1.923   2.738  17.193 -0.3027 -0.3185 -0.1914
  584TMC3     C 8713   2.106   2.364  17.167  0.4372  1.1189  0.1722
  584TMC3     O 8714   2.082   2.315  17.276 -0.5905  0.1881  0.4797
  584TMC3     H 8715   2.167   2.600  17.018  2.2439 -3.3457  2.4216
  584TMC3    H1 8716   1.868   2.414  17.271 -0.1173 -0.1178 -0.7581
  584TMC3    H2 8717   1.888   2.839  17.209 -2.0291 -0.6800 -1.7895
  584TMC3    C7 8718   1.780   2.632  17.365 -0.6656  0.5924 -0.2465
  584TMC3    C8 8719   2.052   2.828  17.018 -0.8060  0.0767 -0.4876
  584TMC3    O1 8720   1.743   2.524  17.409 -0.0269 -0.0824  0.4884
  584TMC3    O2 8721   2.042   2.786  16.906  0.1333  0.0858 -0.1936
  585MPD2     C 8722   1.264   1.570   0.403  0.3692 -0.1231  0.1893
  585MPD2    C1 8723   1.247   1.590   0.267  0.1105  0.1514  0.0402
  585MPD2    C2 8724   1.286   1.496   0.180 -0.2127 -0.6107 -0.7050
  585MPD2    C3 8725   1.328   1.375   0.222  0.1379  0.9235 -0.2669
  585MPD2    C4 8726   1.348   1.355   0.358  0.5920 -0.4052 -0.3685
  585MPD2    C5 8727   1.319   1.454   0.447 -0.3310 -0.5694 -0.4429
  585MPD2     H 8728   1.270   1.522   0.076 -1.3274 -0.2657 -0.4545
  585MPD2    H1 8729   1.383   1.258   0.391 -0.6775 -0.4520  0.8750
  585MPD2    H2 8730   1.229   1.639   0.478 -0.9696  1.3571 -1.8053
  585MPD2    H3 8731   1.354   1.441   0.548  1.7429  3.0109 -0.6993
  585MPD2     N 8732   1.359   1.270   0.137 -0.3767  0.8940  0.0999
  585MPD2    H5 8733   1.387   1.180   0.176  0.8914  1.1104 -0.3053
  585MPD2    N1 8734   1.192   1.718   0.231 -0.4702  0.2771 -0.1443
  585MPD2    H7 8735   1.199   1.787   0.304  3.7667 -0.8418  0.5054
  586TMC3    C1 8736   1.407   1.155  17.680  0.1176 -0.4661  0.2486
  586TMC3    C2 8737   1.497   1.159  17.581 -0.2082  0.2639 -0.0177
  586TMC3    C3 8738   1.502   1.045  17.502 -0.8393 -0.1891 -0.4720
  586TMC3    C4 8739   1.330   1.039  17.718  0.5811  0.2770 -0.0112
  586TMC3    C5 8740   1.348   0.929  17.639 -0.0822  0.8173 -0.0548
  586TMC3    C6 8741   1.441   0.930  17.538 -0.4101  0.2904 -0.4210
  586TMC3     C 8742   1.381   1.279  17.746  0.1849 -0.0395 -0.6130
  586TMC3     O 8743   1.391   1.380  17.681  0.7588  0.9105 -0.2673
  586TMC3     H 8744   1.564   1.242  17.565  0.9899 -0.8092 -0.5484
  586TMC3    H1 8745   1.262   1.048   0.053  2.2178  0.2707  1.3057
  586TMC3    H2 8746   1.456   0.839  17.480 -1.2906 -0.6594  0.8338
  586TMC3    C7 8747   1.222   0.874  17.604 -0.1645 -0.2270  0.1166
  586TMC3    C8 8748   1.573   1.057  17.372 -0.3044  0.5808 -0.0313
  586TMC3    O1 8749   1.138   0.904  17.687 -0.1871 -0.0139  0.1843
  586TMC3    O2 8750   1.626   0.952  17.341  0.0341  0.0132 -0.3057
  587TMC3    C1 8751   3.949   0.022  16.187 -0.2384 -0.6558 -0.3546
  587TMC3    C2 8752   3.998   0.129  16.261 -0.2862  0.3013 -0.0524
  587TMC3    C3 8753   4.074   0.086  16.370 -0.1286  0.5138  0.4401
  587TMC3    C4 8754   3.970   4.628  16.222  0.0756  0.1546  0.0937
  587TMC3    C5 8755   4.030   4.600  16.340 -0.7016 -0.9344 -0.0337
  587TMC3    C6 8756   4.087   4.699  16.415  0.2533  0.2209  0.7612
  587TMC3     C 8757   3.850   0.048  16.086  0.1364  0.2134  0.3453
  587TMC3     O 8758   3.845   0.159  16.033  0.3148 -0.2611  0.2616
  587TMC3     H 8759   3.980   0.234  16.239  0.4153 -0.1642 -2.7610
  587TMC3    H1 8760   3.952   4.542  16.159 -1.5594  0.3919  0.2348
  587TMC3    H2 8761   4.120   4.685  16.517 -0.1377  2.3194  1.1878
  587TMC3    C7 8762   4.009   4.465  16.395 -0.2519  0.5013 -0.4737
  587TMC3    C8 8763   4.119   0.194  16.454 -0.2833  0.5719 -0.0612
  587TMC3    O1 8764   3.934   4.390  16.331  0.5132  0.1265  0.2637
  587TMC3    O2 8765   4.228   0.190  16.504 -0.2404 -0.0270 -0.8171
  588TMC3    C1 8766   1.802   2.160   9.624 -0.3290  0.4740  0.0372
  588TMC3    C2 8767   1.762   2.033   9.636  0.3266 -0.0709  0.8256
  588TMC3    C3 8768   1.848   1.947   9.698  0.5719 -0.0223 -0.0813
  588TMC3    C4 8769   1.912   2.209   9.685  0.1858 -0.1844  0.3272
  588TMC3    C5 8770   1.995   2.121   9.749  0.0512 -0.5030 -0.1291
  588TMC3    C6 8771   1.958   1.988   9.770 -0.0631 -0.6951 -0.2330
  588TMC3     C 8772   1.690   2.250   9.623  0.0267 -0.4890 -0.0839
  588TMC3     O 8773   1.587   2.208   9.566 -0.9277 -0.1754  0.0818
  588TMC3     H 8774   1.674   1.990   9.589 -0.5915 -0.1840  2.6465
  588TMC3    H1 8775   1.955   2.304   9.655 -1.4332 -0.2482 -2.2020
  588TMC3    H2 8776   2.033   1.927   9.819 -0.1533 -0.3883  0.2873
  588TMC3    C7 8777   2.075   2.172   9.853 -0.0100 -0.1964 -0.1999
  588TMC3    C8 8778   1.801   1.809   9.720  0.1666  0.3231  0.0285
  588TMC3    O1 8779   2.184   2.122   9.890  0.4947 -0.3408 -0.2128
  588TMC3    O2 8780   1.688   1.787   9.687  0.2669  0.0567  0.1143
  589TMC3    C1 8781   0.862   0.482   1.236  0.0576 -0.1514 -0.4903
  589TMC3    C2 8782   0.974   0.542   1.297  0.0397 -1.5208  0.0324
  589TMC3    C3 8783   1.094   0.486   1.259 -0.6038  0.1913 -0.8876
  589TMC3    C4 8784   0.864   0.392   1.127 -0.0399 -0.0716  0.6109
  589TMC3    C5 8785   0.986   0.341   1.099  0.1114  0.3572  0.4905
  589TMC3    C6 8786   1.101   0.389   1.154 -0.4384  0.6077 -0.5013
  589TMC3     C 8787   0.733   0.522   1.286 -0.3224 -0.3368  0.1636
  589TMC3     O 8788   0.644   0.503   1.203  0.5215  0.0316  0.2731
  589TMC3     H 8789   0.964   0.621   1.370 -3.0909 -0.5797 -1.3880
  589TMC3    H1 8790   0.775   0.344   1.089  0.4878 -0.5724  0.0166
  589TMC3    H2 8791   1.194   0.334   1.141  0.2194  1.7671 -0.7140
  589TMC3    C7 8792   0.993   0.234   0.999  0.4377 -0.7412  0.0343
  589TMC3    C8 8793   1.209   0.571   1.288  0.9039  0.4626 -0.0800
  589TMC3    O1 8794   0.888   0.180   0.968 -0.6093 -0.2060 -0.4740
  589TMC3    O2 8795   1.206   0.660   1.371  0.1652  0.0568  0.5054
  590MPD2     C 8796   4.555   2.692  16.572  0.5161  0.2091  0.0478
  590MPD2    C1 8797   4.573   2.743  16.440 -0.3314 -0.1247  0.1747
  590MPD2    C2 8798   4.679   2.829  16.426  0.0871 -0.0507 -0.1822
  590MPD2    C3 8799   0.015   2.880  16.531  0.4436 -0.1728  0.5901
  590MPD2    C4 8800   4.732   2.830  16.655  0.4080  0.6697 -0.4643
  590MPD2    C5 8801   4.627   2.747  16.680  0.2489 -0.0763 -0.4718
  590MPD2     H 8802   4.697   2.860  16.323  0.2165 -2.1258 -0.7737
  590MPD2    H1 8803   0.050   2.857  16.743 -0.4247  1.0133 -0.0447
  590MPD2    H2 8804   4.481   2.615  16.587  1.6885 -1.4240 -2.6358
  590MPD2    H3 8805   4.617   2.711  16.781  1.5614  3.8127  1.0549
  590MPD2     N 8806   0.114   2.982  16.509 -0.4907  0.1216 -0.1558
  590MPD2    H5 8807   0.144   3.009  16.416  2.7512 -0.2645  0.7977
  590MPD2    N1 8808   4.484   2.704  16.336 -0.3054  0.2645 -0.2529
  590MPD2    H7 8809   4.394   2.658  16.348 -0.8967  1.3734 -0.4901
  591TMC3    C1 8810   0.222   3.186  16.549  0.2724  0.0210  0.2820
  591TMC3    C2 8811   0.309   3.145  16.450 -0.9842 -0.0116 -0.6277
  591TMC3    C3 8812   0.347   3.239  16.359  0.1920  0.1937  1.0161
  591TMC3    C4 8813   0.170   3.311  16.553  0.4302 -0.3441  0.9236
  591TMC3    C5 8814   0.196   3.397  16.448 -0.4949 -0.2393 -0.0681
  591TMC3    C6 8815   0.276   3.360  16.348 -0.4108  0.5069  0.1738
  591TMC3     C 8816   0.157   3.070  16.608 -0.0843  0.1156  0.0596
  591TMC3     O 8817   0.099   3.085  16.715 -0.1860 -0.2396  0.2774
  591TMC3     H 8818   0.359   3.049  16.457 -3.5586 -1.3429 -0.3232
  591TMC3    H1 8819   0.100   3.337  16.632  1.8861  2.3371  1.3556
  591TMC3    H2 8820   0.298   3.408  16.254 -0.9374  0.2850 -0.0646
  591TMC3    C7 8821   0.088   3.489  16.421  0.4120 -0.6997  0.5893
  591TMC3    C8 8822   0.462   3.210  16.272  0.0221  0.1747  0.7084
  591TMC3    O1 8823   4.724   3.472  16.482 -0.2287 -0.9128  0.4941
  591TMC3    O2 8824   0.499   3.093  16.271  0.6150  0.0741  0.1557
  592MPD2     C 8825   1.110   4.666  10.912 -0.5128  0.7160  0.3814
  592MPD2    C1 8826   1.144   4.701  11.039  0.9424  0.8502 -0.1187
  592MPD2    C2 8827   1.063   4.659  11.138  0.0906 -0.2979  0.9830
  592MPD2    C3 8828   0.961   4.566  11.124 -0.3612  0.2092  0.0143
  592MPD2    C4 8829   0.920   4.539  10.999  0.2157 -0.0935  0.0201
  592MPD2    C5 8830   1.000   4.586  10.895 -0.8270 -0.1198  0.0593
  592MPD2     H 8831   1.083   4.686  11.241 -2.2983 -0.7698  1.5555
  592MPD2    H1 8832   0.831   4.481  10.975  0.5391 -1.5672  2.3951
  592MPD2    H2 8833   1.158   4.693  10.818  1.6516  1.1015  1.5911
  592MPD2    H3 8834   0.967   4.563  10.794 -0.7208 -0.3711  0.0817
  592MPD2     N 8835   0.908   4.514  11.245  0.2101  0.2395 -0.3558
  592MPD2    H5 8836   0.953   4.542  11.331  1.4851  0.7162 -1.1855
  592MPD2    N1 8837   1.266   0.026  11.076 -0.4804  0.5103 -0.2097
  592MPD2    H7 8838   1.318   0.045  10.992 -1.2364  0.5656 -0.6611
  593TMC3    C1 8839   1.456   0.078  11.212 -0.4693 -0.1565  0.3035
  593TMC3    C2 8840   1.506   0.057  11.335 -0.3774  0.2636  0.2772
  593TMC3    C3 8841   1.612   0.133  11.375  0.5140 -0.6925 -0.1473
  593TMC3    C4 8842   1.499   0.196  11.147 -0.0188  0.0057 -0.5148
  593TMC3    C5 8843   1.611   0.257  11.184 -0.2893  0.3393 -0.1063
  593TMC3    C6 8844   1.672   0.228  11.303 -0.3870 -0.2375  0.2152
  593TMC3     C 8845   1.312   0.058  11.204 -0.4040  0.3675  0.1843
  593TMC3     O 8846   1.268   0.041  11.314 -0.4186  0.5825  0.0798
  593TMC3     H 8847   1.461   4.716  11.395 -0.5773 -0.2820 -0.5830
  593TMC3    H1 8848   1.446   0.212  11.054  0.3751  0.9578 -0.5747
  593TMC3    H2 8849   1.769   0.269  11.327 -0.1094 -1.3630  0.9870
  593TMC3    C7 8850   1.673   0.354  11.095 -0.0062 -0.4947  0.5763
  593TMC3    C8 8851   1.683   0.083  11.494  0.5199  0.5884 -0.2373
  593TMC3    O1 8852   1.747   0.434  11.154  0.1714 -0.0153  0.2228
  593TMC3    O2 8853   1.643   4.713  11.541  0.0652 -0.1262 -0.1098
  594MPD2     C 8854   4.104   3.424  14.623  0.3825  0.2209 -0.3096
  594MPD2    C1 8855   4.042   3.538  14.569  0.0996  0.5902  0.3585
  594MPD2    C2 8856   4.114   3.635  14.505 -0.1273 -0.4548 -0.3930
  594MPD2    C3 8857   4.253   3.628  14.502  0.6059  0.1274  0.4210
  594MPD2    C4 8858   4.318   3.521  14.559 -0.3290 -0.1686 -0.0052
  594MPD2    C5 8859   4.241   3.419  14.614 -0.6916  0.5361  0.0910
  594MPD2     H 8860   4.059   3.721  14.469 -0.8965  0.1774  2.2618
  594MPD2    H1 8861   4.426   3.515  14.566 -0.2647 -0.8402 -1.5008
  594MPD2    H2 8862   4.045   3.349  14.674 -1.1305  0.7177 -1.3514
  594MPD2    H3 8863   4.291   3.328  14.645 -1.5578  0.3264  0.8821
  594MPD2     N 8864   4.321   3.730  14.440 -0.0016  0.9900 -0.0946
  594MPD2    H5 8865   4.264   3.806  14.402  0.8453  2.3773  1.4102
  594MPD2    N1 8866   3.899   3.534  14.584  0.3303  0.7170  0.0349
  594MPD2    H7 8867   3.871   3.453  14.638 -0.6958  2.3919  2.0209
  595TMC3    C1 8868   4.724   3.974  14.391 -0.2017  0.4465  0.4095
  595TMC3    C2 8869   4.648   3.863  14.357  0.0400  0.3595 -0.5449
  595TMC3    C3 8870   4.512   3.866  14.377  0.4776 -0.5401 -0.2242
  595TMC3    C4 8871   4.671   4.079  14.459  0.4977  0.0725  0.4677
  595TMC3    C5 8872   4.534   4.080  14.485  0.5890 -0.1113  0.2919
  595TMC3    C6 8873   4.461   3.969  14.445 -0.3374 -0.2988  0.0606
  595TMC3     C 8874   0.132   3.967  14.387  0.4676  0.1785 -0.5697
  595TMC3     O 8875   0.173   3.884  14.305 -0.2373  0.7023  0.1526
  595TMC3     H 8876   4.694   3.774  14.317  0.0985 -0.5290  1.5491
  595TMC3    H1 8877   4.720   4.176  14.466 -0.5573  0.6238  0.2640
  595TMC3    H2 8878   4.355   3.977  14.466 -0.4911 -3.9894  0.6088
  595TMC3    C7 8879   4.471   4.196  14.540  0.6507  0.0490 -0.0807
  595TMC3    C8 8880   4.457   3.733  14.425  0.1169 -0.5627  0.1398
  595TMC3    O1 8881   4.347   4.192  14.533 -0.1879  1.0468 -0.2317
  595TMC3    O2 8882   4.547   3.658  14.452 -0.1978  0.1094 -0.1877
  596MPD2     C 8883   3.191   2.062  17.027  0.3415  0.1225  0.1375
  596MPD2    C1 8884   3.166   2.167  16.936  1.0217  0.1532  0.2684
  596MPD2    C2 8885   3.203   2.146  16.808  0.3274 -0.1335 -0.7332
  596MPD2    C3 8886   3.258   2.030  16.759  0.1781 -0.5822 -0.1795
  596MPD2    C4 8887   3.281   1.928  16.850 -0.2780 -0.1604 -0.1482
  596MPD2    C5 8888   3.240   1.940  16.979 -0.6344 -0.3583  0.5859
  596MPD2     H 8889   3.187   2.225  16.736  0.3992 -0.5940 -1.2526
  596MPD2    H1 8890   3.326   1.833  16.822 -2.4602 -1.4755  0.7962
  596MPD2    H2 8891   3.171   2.071  17.134  0.3726 -2.0738  0.3376
  596MPD2    H3 8892   3.257   1.862  17.053  0.5416 -0.0915  0.5924
  596MPD2     N 8893   3.283   2.009  16.619  0.3063 -0.2995 -0.5354
  596MPD2    H5 8894   3.328   1.919  16.601 -0.2650 -0.8252  0.6745
  596MPD2    N1 8895   3.122   2.293  16.982  0.6175  0.3283 -0.4625
  596MPD2    H7 8896   3.108   2.364  16.910  0.3323 -0.4836 -1.2120
  597TMC3    C1 8897   3.030   2.464  17.124 -0.5610  0.1937 -0.2486
  597TMC3    C2 8898   3.107   2.557  17.067  0.2714  0.1132  0.3540
  597TMC3    C3 8899   3.068   2.688  17.059  0.7629  0.6938 -0.1583
  597TMC3    C4 8900   2.917   2.493  17.199 -0.4812  0.1743  0.5700
  597TMC3    C5 8901   2.883   2.627  17.187 -0.2048 -0.0250 -0.1343
  597TMC3    C6 8902   2.952   2.726  17.120 -0.4821  0.2421 -0.9033
  597TMC3     C 8903   3.069   2.323  17.108  0.8742 -0.2515  0.2277
  597TMC3     O 8904   3.049   2.252  17.203 -0.0156 -0.3063  0.2644
  597TMC3     H 8905   3.197   2.523  17.017  0.5885 -1.0830  1.7649
  597TMC3    H1 8906   2.851   2.417  17.240 -0.1723 -1.0601 -1.1952
  597TMC3    H2 8907   2.919   2.829  17.122 -1.6102 -0.1315 -0.3427
  597TMC3    C7 8908   2.745   2.653  17.213 -0.1644  0.0886  0.1095
  597TMC3    C8 8909   3.156   2.790  16.992 -0.0221  0.2293 -0.3365
  597TMC3    O1 8910   2.677   2.554  17.208  0.1106  0.0474  0.3885
  597TMC3    O2 8911   3.171   2.899  17.043  0.1768  0.6700  0.6857
  598TMC3    C1 8912   1.345   3.331  15.552 -0.3437  0.0729 -0.5956
  598TMC3    C2 8913   1.230   3.400  15.550 -0.0370  0.2024  0.4376
  598TMC3    C3 8914   1.235   3.539  15.557 -0.1706 -0.4913  0.1065
  598TMC3    C4 8915   1.462   3.402  15.557 -0.2924 -0.1629 -0.0191
  598TMC3    C5 8916   1.461   3.542  15.560 -0.2342  0.0936  0.2191
  598TMC3    C6 8917   1.346   3.616  15.564  0.6534  0.3269  0.6700
  598TMC3     C 8918   1.351   3.199  15.613 -0.5150  0.4162  0.3712
  598TMC3     O 8919   1.442   3.122  15.588  0.0642  0.3160 -0.0742
  598TMC3     H 8920   1.136   3.347  15.552  0.5335 -0.7677  1.3724
  598TMC3    H1 8921   1.554   3.346  15.565  0.9114  2.1954  2.5044
  598TMC3    H2 8922   1.347   3.722  15.587 -0.5228  0.4347  0.2182
  598TMC3    C7 8923   1.590   3.599  15.547 -0.5249 -0.1454  0.0103
  598TMC3    C8 8924   1.106   3.609  15.547 -0.0645  0.1508  0.4429
  598TMC3    O1 8925   1.690   3.541  15.584 -0.0105  0.6008  0.7262
  598TMC3    O2 8926   1.125   3.729  15.521 -0.0783  0.2355 -0.1574
  599MPD2     C 8927   1.381   1.153  15.510  0.5023 -0.8320 -0.7958
  599MPD2    C1 8928   1.309   1.067  15.590  0.1320 -0.5534  0.2444
  599MPD2    C2 8929   1.188   1.104  15.646 -0.3388  0.3714 -0.3689
  599MPD2    C3 8930   1.142   1.236  15.621  0.2908 -0.0723 -0.4780
  599MPD2    C4 8931   1.223   1.328  15.561  0.0455 -0.0469  0.3313
  599MPD2    C5 8932   1.342   1.283  15.497 -0.5665  0.3552 -0.4275
  599MPD2     H 8933   1.135   1.032  15.707  1.5772  0.4273  1.3919
  599MPD2    H1 8934   1.203   1.434  15.554 -0.1202 -0.0552  0.6797
  599MPD2    H2 8935   1.483   1.125  15.486  2.0829  0.9067  3.7668
  599MPD2    H3 8936   1.399   1.360  15.446 -0.8519 -0.8474 -2.5617
  599MPD2     N 8937   1.014   1.290  15.673 -0.5378 -0.1259  0.8178
  599MPD2    H5 8938   0.996   1.387  15.652 -1.8154  0.0478  2.7336
  599MPD2    N1 8939   1.361   0.941  15.604  0.2842  0.6777 -0.2231
  599MPD2    H7 8940   1.456   0.922  15.574  0.9086  1.6227  1.1919
  600TMC3    C1 8941   0.822   1.291  15.809 -0.0591  0.1088 -0.3574
  600TMC3    C2 8942   0.733   1.215  15.882  0.4568  0.3784  0.9694
  600TMC3    C3 8943   0.675   1.267  15.988  0.2267 -0.7076 -0.3952
  600TMC3    C4 8944   0.841   1.425  15.841 -0.0855  0.6240 -0.4181
  600TMC3    C5 8945   0.777   1.471  15.958 -0.5269 -0.0476  0.4533
  600TMC3    C6 8946   0.698   1.392  16.037 -0.2022  0.2780  0.4726
  600TMC3     C 8947   0.912   1.210  15.724  0.7041 -0.3536 -0.2228
  600TMC3     O 8948   0.898   1.089  15.721  0.1206 -0.0006  0.0201
  600TMC3     H 8949   0.713   1.116  15.841 -0.6598  1.2274 -0.5372
  600TMC3    H1 8950   0.878   1.500  15.773 -1.0636  1.6897  0.2203
  600TMC3    H2 8951   0.653   1.424  16.131 -1.2738  1.1136 -0.3193
  600TMC3    C7 8952   0.834   1.584  16.027  1.0876 -0.2984 -0.2268
  600TMC3    C8 8953   0.639   1.172  16.094  0.2682  0.1397 -0.1852
  600TMC3    O1 8954   0.793   1.614  16.139 -0.2436  0.1145 -0.0732
  600TMC3    O2 8955   0.682   1.183  16.212 -0.4558  0.0311  0.2979
  601MPD2     C 8956   3.274   0.190  17.536 -0.0571  0.1438 -0.2605
  601MPD2    C1 8957   3.262   0.080  17.464 -0.0260 -0.0883  0.1524
  601MPD2    C2 8958   3.249   4.695  17.532  0.2086 -0.7966  0.1616
  601MPD2    C3 8959   3.215   4.687  17.669 -0.3476 -0.0592  0.3950
  601MPD2    C4 8960   3.213   0.073  17.737 -0.5071  0.2363  0.2247
  601MPD2    C5 8961   3.241   0.190  17.670  0.3178 -0.2275 -0.1134
  601MPD2     H 8962   3.240   4.606  17.470  3.3496 -0.3116 -0.9790
  601MPD2    H1 8963   3.175   0.081   0.089  0.4594 -0.3182  0.6363
  601MPD2    H2 8964   3.307   0.290  17.508  1.0960 -0.4005 -0.8701
  601MPD2    H3 8965   3.231   0.283  17.723  0.1088 -1.0644  1.3105
  601MPD2     N 8966   3.201   4.571  17.733  0.9996  0.4189 -0.2415
  601MPD2    H5 8967   3.169   4.573   0.081 -0.7485  0.2218 -0.8278
  601MPD2    N1 8968   3.277   0.082  17.326  0.1135  0.0967  0.0855
  601MPD2    H7 8969   3.270   4.733  17.273 -1.4279 -0.4637  1.2165
  602TMC3    C1 8970   3.275   0.159  17.112  0.1281  0.4140  0.3080
  602TMC3    C2 8971   3.321   0.247  17.019 -0.2296  0.0630  0.0640
  602TMC3    C3 8972   3.331   0.198  16.890 -0.1531 -0.1162  0.4713
  602TMC3    C4 8973   3.239   0.029  17.084  0.0037 -0.8155 -0.5228
  602TMC3    C5 8974   3.271   4.719  16.963 -0.3514 -0.3163 -0.3767
  602TMC3    C6 8975   3.306   0.063  16.858  0.1275  0.0405 -0.3723
  602TMC3     C 8976   3.296   0.195  17.249  0.0182 -0.3435 -0.0966
  602TMC3     O 8977   3.324   0.312  17.274  0.0603 -0.1869  0.1578
  602TMC3     H 8978   3.330   0.354  17.032  1.7667 -0.0491 -0.3630
  602TMC3    H1 8979   3.180   4.697  17.144 -1.7725  1.3255  0.1878
  602TMC3    H2 8980   3.323   0.035  16.754 -0.4721 -3.4110  0.4424
  602TMC3    C7 8981   3.203   4.592  16.922  0.2757  0.6997  0.1706
  602TMC3    C8 8982   3.373   0.290  16.782  0.0668  0.1145 -0.2629
  602TMC3    O1 8983   3.154   4.518  17.008 -0.2761 -0.2929 -0.5688
  602TMC3    O2 8984   3.467   0.362  16.803 -0.3538 -0.2698 -0.0659
  603TMC3    C1 8985   2.556   3.981  10.814 -0.4409 -0.2175 -0.4710
  603TMC3    C2 8986   2.558   3.980  10.956  0.4231  0.4197 -0.2229
  603TMC3    C3 8987   2.540   4.094  11.021 -0.3322 -0.2093  0.3974
  603TMC3    C4 8988   2.563   4.097  10.746 -0.7048  0.0176  0.3242
  603TMC3    C5 8989   2.545   4.217  10.811 -0.3733 -0.4649  0.4840
  603TMC3    C6 8990   2.522   4.206  10.948  0.3285 -0.8903 -0.7379
  603TMC3     C 8991   2.493   3.874  10.744  0.9945  0.1138 -0.1037
  603TMC3     O 8992   2.463   3.901  10.627  0.1164 -0.5307  0.5909
  603TMC3     H 8993   2.563   3.887  11.012  0.9303  1.5670  1.6276
  603TMC3    H1 8994   2.564   4.098  10.638  0.8695 -0.0767  0.3422
  603TMC3    H2 8995   2.518   4.299  11.003 -0.9588 -0.5941 -1.3207
  603TMC3    C7 8996   2.516   4.346  10.749  0.1089  0.0941  0.5897
  603TMC3    C8 8997   2.487   4.084  11.161  0.2750  0.3619  0.1222
  603TMC3    O1 8998   2.560   4.449  10.801 -0.2852  0.1139 -0.2249
  603TMC3    O2 8999   2.543   4.003  11.231 -0.6951 -0.5855  0.0653
  604MPD2     C 9000   2.132   3.232  16.277 -0.1124  0.2240  0.4684
  604MPD2    C1 9001   2.029   3.149  16.232 -0.0035 -0.3681  0.1067
  604MPD2    C2 9002   2.051   3.074  16.112  0.2184 -0.9058  0.5370
  604MPD2    C3 9003   2.177   3.079  16.051 -0.1950  0.0077  0.0131
  604MPD2    C4 9004   2.275   3.156  16.112 -0.0284  0.5512 -0.2912
  604MPD2    C5 9005   2.255   3.234  16.225 -0.4202  0.1679  0.6171
  604MPD2     H 9006   1.972   3.013  16.071  0.3295 -1.1252  0.6488
  604MPD2    H1 9007   2.374   3.167  16.068  0.3431  0.0973  0.4223
  604MPD2    H2 9008   2.116   3.301  16.360 -0.0815  2.0442 -1.0411
  604MPD2    H3 9009   2.330   3.301  16.264 -1.6594  1.7454  0.2803
  604MPD2     N 9010   2.204   3.003  15.928  0.1173 -0.3599 -0.1815
  604MPD2    H5 9011   2.129   2.954  15.879 -0.4419 -0.9699  1.2713
  604MPD2    N1 9012   1.910   3.140  16.314 -0.1122 -0.4994  0.5446
  604MPD2    H7 9013   1.920   3.170  16.410 -2.6954  1.3315  0.2552
  605TMC3    C1 9014   1.701   3.085  16.400 -0.6159 -0.4187  0.7071
  605TMC3    C2 9015   1.768   3.085  16.518 -0.2039 -0.3060  0.0645
  605TMC3    C3 9016   1.747   3.178  16.617  0.4757 -0.1373 -0.2640
  605TMC3    C4 9017   1.607   3.178  16.377 -0.0427 -0.3597 -0.1921
  605TMC3    C5 9018   1.575   3.270  16.477  0.7232 -0.6086 -0.2922
  605TMC3    C6 9019   1.649   3.274  16.595  0.1786  0.1623  0.2020
  605TMC3     C 9020   1.795   3.074  16.282 -0.1987 -0.2716 -0.0103
  605TMC3     O 9021   1.760   3.021  16.176 -0.3509 -0.7762  0.4763
  605TMC3     H 9022   1.846   3.014  16.545  0.2677 -0.7018 -2.3896
  605TMC3    H1 9023   1.561   3.182  16.279  0.3985 -1.5052 -0.4350
  605TMC3    H2 9024   1.648   3.367  16.652 -0.3629  0.6628 -0.6278
  605TMC3    C7 9025   1.533   3.400  16.433 -0.0103 -0.2032  0.5071
  605TMC3    C8 9026   1.876   3.240  16.648  0.5717 -0.8731  0.6114
  605TMC3    O1 9027   1.591   3.502  16.470 -0.7695  0.2425  0.2893
  605TMC3    O2 9028   1.972   3.205  16.576  0.2942  0.1842 -0.0837
  606TMC3    C1 9029   3.521   1.175  17.329 -0.0814  0.2243  0.8785
  606TMC3    C2 9030   3.656   1.177  17.363 -0.2779 -0.0043 -0.5622
  606TMC3    C3 9031   3.699   1.111  17.473  0.4766 -0.3201 -0.1258
  606TMC3    C4 9032   3.429   1.127  17.422 -0.7811 -0.0376 -0.4504
  606TMC3    C5 9033   3.471   1.059  17.527  0.9806  0.3347  0.3077
  606TMC3    C6 9034   3.606   1.048  17.556 -0.4507 -0.4128  0.6003
  606TMC3     C 9035   3.487   1.276  17.233  0.2394  0.4279  0.1868
  606TMC3     O 9036   3.576   1.346  17.195 -0.4287  0.6220  0.6663
  606TMC3     H 9037   3.727   1.224  17.296  0.9829 -2.1106 -0.7025
  606TMC3    H1 9038   3.324   1.140  17.396 -0.7955 -0.5115 -0.6314
  606TMC3    H2 9039   3.632   1.008  17.653  0.7681  1.1390  0.9112
  606TMC3    C7 9040   3.386   1.056  17.643  0.3904 -0.7663 -0.1627
  606TMC3    C8 9041   3.788   1.202  17.538  0.4724  0.2461  0.5932
  606TMC3    O1 9042   3.439   1.053   0.002  0.2039  0.0778  0.3646
  606TMC3    O2 9043   3.797   1.314  17.485 -0.0891 -0.5329 -0.1467
  607MPD2     C 9044   1.104   4.153  11.215 -0.0523 -0.1453 -0.5062
  607MPD2    C1 9045   1.181   4.198  11.321 -1.1976 -0.1911 -0.9176
  607MPD2    C2 9046   1.176   4.136  11.446  0.4434 -0.1785 -0.5691
  607MPD2    C3 9047   1.088   4.026  11.469 -0.3281 -0.1504  0.3637
  607MPD2    C4 9048   1.005   3.990  11.371  0.0394 -0.2576 -0.4282
  607MPD2    C5 9049   1.018   4.052  11.251 -0.0965  0.1931 -0.8833
  607MPD2     H 9050   1.240   4.168  11.528  1.8610 -1.4368 -1.1844
  607MPD2    H1 9051   0.929   3.912  11.370 -0.2576  0.0075  0.6652
  607MPD2    H2 9052   1.107   4.186  11.111 -0.5741  0.4714 -0.3218
  607MPD2    H3 9053   0.944   4.027  11.176 -0.0363  0.6157 -1.0837
  607MPD2     N 9054   1.071   3.979  11.601  0.5710 -0.6222  0.0122
  607MPD2    H5 9055   1.118   4.026  11.678  2.3367 -1.8595 -0.2996
  607MPD2    N1 9056   1.293   4.282  11.304 -0.2000 -0.4971 -0.2915
  607MPD2    H7 9057   1.355   4.286  11.384  1.1156 -3.6502 -1.1204
  608TMC3    C1 9058   1.436   4.448  11.241 -0.0650  1.1805 -0.5319
  608TMC3    C2 9059   1.478   4.422  11.374  0.2788 -0.8309 -0.1466
  608TMC3    C3 9060   1.613   4.438  11.402 -0.8676  0.2100 -0.5435
  608TMC3    C4 9061   1.523   4.478  11.143  0.1008  0.2147 -0.5313
  608TMC3    C5 9062   1.653   4.489  11.163 -0.4087  0.4641  0.3188
  608TMC3    C6 9063   1.700   4.473  11.298 -0.1476 -0.1863  0.4190
  608TMC3     C 9064   1.329   4.363  11.203  0.3227 -0.5078 -0.4200
  608TMC3     O 9065   1.293   4.371  11.084  0.6355  0.0351 -0.1967
  608TMC3     H 9066   1.406   4.439  11.453 -0.0669 -1.6177 -0.2911
  608TMC3    H1 9067   1.486   4.467  11.042  0.7182 -1.7219 -0.5406
  608TMC3    H2 9068   1.806   4.486  11.318  0.0799 -0.8109 -0.3854
  608TMC3    C7 9069   1.746   4.523  11.051  0.0542  0.0048 -0.2450
  608TMC3    C8 9070   1.675   4.386  11.525 -0.3918 -0.3780  0.3982
  608TMC3    O1 9071   1.703   4.553  10.941 -0.4148 -0.2201 -0.1718
  608TMC3    O2 9072   1.795   4.389  11.544 -0.1833 -0.1228 -0.7003
  609TMC3    C1 9073   0.089   3.865   9.298 -0.1316 -0.7123 -0.0726
  609TMC3    C2 9074   0.139   3.957   9.205 -0.4398  0.5033  0.5791
  609TMC3    C3 9075   0.265   3.932   9.157  0.5826  0.0979 -0.5899
  609TMC3    C4 9076   0.155   3.758   9.343  0.4825 -0.0362 -0.5076
  609TMC3    C5 9077   0.283   3.736   9.286  0.3521 -0.0131 -0.0383
  609TMC3    C6 9078   0.341   3.827   9.197  0.2747  0.3897 -0.1255
  609TMC3     C 9079   4.682   3.856   9.314  0.0539  0.3413  0.0271
  609TMC3     O 9080   4.639   3.825   9.422 -0.2349  0.2683 -0.4080
  609TMC3     H 9081   0.089   4.051   9.184 -0.0601  0.7953  1.0034
  609TMC3    H1 9082   0.107   3.691   9.413  0.5723  0.0608 -0.3544
  609TMC3    H2 9083   0.443   3.812   9.164  0.9979  1.3056  1.6806
  609TMC3    C7 9084   0.358   3.614   9.323 -0.3157 -0.7830  0.3850
  609TMC3    C8 9085   0.333   4.035   9.082  0.0102  0.8830 -0.5100
  609TMC3    O1 9086   0.320   3.547   9.417 -0.1179  0.5083 -0.2453
  609TMC3    O2 9087   0.456   4.027   9.071  0.1244 -0.6809 -0.2913
  610TMC3    C1 9088   1.274   3.590  12.281 -0.2755  0.0453 -0.3339
  610TMC3    C2 9089   1.272   3.725  12.289  0.4524 -0.7055 -0.0195
  610TMC3    C3 9090   1.385   3.787  12.333  0.3203 -0.3049 -0.1371
  610TMC3    C4 9091   1.372   3.509  12.327  0.1592 -0.7055 -0.1394
  610TMC3    C5 9092   1.489   3.574  12.369 -0.2764 -0.1120  0.3370
  610TMC3    C6 9093   1.495   3.710  12.365  0.6386 -0.2665  0.4135
  610TMC3     C 9094   1.161   3.515  12.228 -0.3804 -0.2827 -0.4126
  610TMC3     O 9095   1.193   3.439  12.142  0.2456 -0.5919 -0.0246
  610TMC3     H 9096   1.186   3.782  12.256 -0.7165 -1.8536  1.0311
  610TMC3    H1 9097   1.368   3.401  12.327 -0.8891 -0.6609  2.2097
  610TMC3    H2 9098   1.585   3.766  12.387  1.5511 -1.7451  0.4368
  610TMC3    C7 9099   1.620   3.517  12.356 -0.4749  0.7547  0.4069
  610TMC3    C8 9100   1.402   3.923  12.286  0.5021 -0.3996  0.2404
  610TMC3    O1 9101   1.713   3.571  12.418  0.1859  0.3540  0.3776
  610TMC3    O2 9102   1.314   3.973  12.220  0.0908  0.4468 -0.1397
  611MPD2     C 9103   1.572   3.904   9.780  0.2795 -0.2998 -0.8354
  611MPD2    C1 9104   1.578   3.971   9.899  0.3147  0.2898  0.2034
  611MPD2    C2 9105   1.683   4.062   9.918 -0.9160  1.0143 -0.2185
  611MPD2    C3 9106   1.775   4.079   9.815 -0.4838  0.1085 -0.3982
  611MPD2    C4 9107   1.770   4.002   9.701 -0.2107  0.1164  0.5296
  611MPD2    C5 9108   1.662   3.922   9.684  0.3089  0.0881 -0.1570
  611MPD2     H 9109   1.686   4.122  10.009 -0.4496  1.3335 -0.4505
  611MPD2    H1 9110   1.837   4.019   9.617 -2.4311  1.2566 -0.9873
  611MPD2    H2 9111   1.485   3.847   9.751  0.2381 -0.4286 -0.4644
  611MPD2    H3 9112   1.643   3.876   9.587 -2.4182  2.8229 -0.8787
  611MPD2     N 9113   1.864   4.187   9.817  0.3718  0.1238 -0.3943
  611MPD2    H5 9114   1.905   4.218   9.729  2.5327  1.9880  1.2607
  611MPD2    N1 9115   1.468   3.959   9.985  0.4486  0.1477 -0.0986
  611MPD2    H7 9116   1.393   3.894   9.966 -0.3993  0.7823  1.0835
  612TMC3    C1 9117   1.983   4.365   9.916 -0.2757  0.6165 -0.3937
  612TMC3    C2 9118   2.058   4.402  10.024 -0.3508 -0.7106 -0.6000
  612TMC3    C3 9119   2.111   4.523  10.022 -0.2030  0.9089  0.0994
  612TMC3    C4 9120   1.967   4.448   9.801  0.3858  0.0051 -0.7470
  612TMC3    C5 9121   2.017   4.572   9.811 -0.5540  1.1088  0.1608
  612TMC3    C6 9122   2.099   4.614   9.918  0.0768 -0.2048  0.6726
  612TMC3     C 9123   1.898   4.253   9.936 -0.3122  0.0234 -0.0133
  612TMC3     O 9124   1.882   4.213  10.048 -0.5035  0.4346 -0.2240
  612TMC3     H 9125   2.056   4.342  10.113 -3.5696 -1.4739 -1.1892
  612TMC3    H1 9126   1.887   4.429   9.730 -1.0256  0.8953  0.6027
  612TMC3    H2 9127   2.136   4.714   9.939  0.8309 -0.4144  0.3309
  612TMC3    C7 9128   1.945   4.675   9.739  0.1673  0.7422  0.2118
  612TMC3    C8 9129   2.160   4.575  10.149 -0.5700  0.1022 -0.9762
  612TMC3    O1 9130   1.882   4.640   9.640  0.2806 -1.0406 -0.2705
  612TMC3    O2 9131   2.133   4.691  10.170  0.1203  0.0634  0.1454
  613MPD2     C 9132   4.535   1.701  16.745 -0.3953 -0.1752  0.9989
  613MPD2    C1 9133   4.444   1.758  16.655  0.1976  0.0733  0.1428
  613MPD2    C2 9134   4.410   1.695  16.534 -0.4720  0.5397  0.0840
  613MPD2    C3 9135   4.447   1.562  16.516  0.4120  0.2461  0.1758
  613MPD2    C4 9136   4.535   1.510  16.603 -0.4873  0.1825  1.0338
  613MPD2    C5 9137   4.583   1.577  16.710 -0.2163 -0.2137 -0.0937
  613MPD2     H 9138   4.345   1.737  16.459  0.1279 -0.2549 -0.8842
  613MPD2    H1 9139   4.572   1.411  16.579  2.0535  1.3828  0.0343
  613MPD2    H2 9140   4.578   1.765  16.822  2.0561  1.0453 -1.3462
  613MPD2    H3 9141   4.649   1.522  16.777  1.4717 -0.0428 -1.6367
  613MPD2     N 9142   4.410   1.476  16.410  0.5942  0.1813 -0.1405
  613MPD2    H5 9143   4.460   1.388  16.399  2.4709  0.8479  2.9701
  613MPD2    N1 9144   4.388   1.889  16.686  0.4356  0.8210  0.1158
  613MPD2    H7 9145   4.448   1.936  16.752 -0.8324  0.8432  1.2579
  614TMC3    C1 9146   4.380   2.078  16.554  0.8743 -0.0323  0.2258
  614TMC3    C2 9147   4.500   2.048  16.496 -1.1877 -0.3757 -0.2328
  614TMC3    C3 9148   4.534   2.091  16.374 -0.2682  0.0508  0.1777
  614TMC3    C4 9149   4.297   2.168  16.495  0.3647 -0.0088 -0.2273
  614TMC3    C5 9150   4.336   2.215  16.370 -0.3529 -0.2551  0.3060
  614TMC3    C6 9151   4.448   2.173  16.306 -0.5648 -0.1725 -0.1636
  614TMC3     C 9152   4.307   1.961  16.604 -0.1899  0.2047  0.2826
  614TMC3     O 9153   4.226   1.924  16.522 -0.0365 -0.2341 -0.8151
  614TMC3     H 9154   4.568   1.979  16.546 -1.7398 -0.7753 -0.0438
  614TMC3    H1 9155   4.196   2.174  16.535  0.7348 -0.3672  0.7596
  614TMC3    H2 9156   4.482   2.225  16.217  0.2628  1.1149  0.9049
  614TMC3    C7 9157   4.275   2.336  16.327 -0.5386 -0.9859 -0.7393
  614TMC3    C8 9158   4.601   2.002  16.289 -0.2094 -0.0977  0.0049
  614TMC3    O1 9159   4.240   2.412  16.418 -0.2007 -0.3053  0.0470
  614TMC3    O2 9160   4.573   1.983  16.172 -0.7167  0.1730 -0.1059
  615MPD2     C 9161   4.088   3.910  15.732 -0.1001  0.8864  0.2589
  615MPD2    C1 9162   4.022   4.012  15.796 -0.1060  0.7926  0.0280
  615MPD2    C2 9163   3.942   4.099  15.730  0.1519  0.1897 -0.4562
  615MPD2    C3 9164   3.928   4.109  15.594  0.8220  0.7203  0.3237
  615MPD2    C4 9165   3.993   4.008  15.527 -0.9685  0.0187 -0.5604
  615MPD2    C5 9166   4.066   3.911  15.597  0.4250 -0.0587  0.2670
  615MPD2     H 9167   3.875   4.153  15.796  1.1139  0.1806  0.5252
  615MPD2    H1 9168   3.986   4.010  15.419 -2.8748  0.9142 -0.4200
  615MPD2    H2 9169   4.149   3.830  15.773  0.9788  0.3856 -2.3569
  615MPD2    H3 9170   4.113   3.835  15.535  0.6764 -0.7490  1.3032
  615MPD2     N 9171   3.855   4.201  15.515 -0.2478  0.4401 -0.2477
  615MPD2    H5 9172   3.859   4.198  15.413 -0.3350  0.1690 -0.2432
  615MPD2    N1 9173   4.022   4.022  15.943  0.1919  0.2637 -0.5216
  615MPD2    H7 9174   3.960   4.084  15.995  1.7124  0.7424  0.7361
  616TMC3    C1 9175   4.065   3.958  16.169  0.4179 -0.2385 -0.0554
  616TMC3    C2 9176   4.164   3.925  16.261  0.1254 -0.1366 -1.3043
  616TMC3    C3 9177   4.121   3.917  16.393 -0.4873  0.8322  0.6141
  616TMC3    C4 9178   3.931   3.965  16.202  0.1490  0.6248  0.1641
  616TMC3    C5 9179   3.892   3.947  16.335  0.1672  0.2605 -0.4011
  616TMC3    C6 9180   3.990   3.930  16.428 -0.0065 -0.1199 -0.5510
  616TMC3     C 9181   4.104   3.949  16.029  0.2482 -0.3532  0.3146
  616TMC3     O 9182   4.184   3.860  16.001  0.4456 -0.3542  0.1735
  616TMC3     H 9183   4.266   3.911  16.227  1.0982  1.1935  1.0861
  616TMC3    H1 9184   3.852   3.965  16.128  0.3993 -0.7952 -0.1152
  616TMC3    H2 9185   3.957   3.920  16.530  0.5058  1.0245 -0.2687
  616TMC3    C7 9186   3.761   3.903  16.367  0.5463 -0.1024  0.2500
  616TMC3    C8 9187   4.217   3.908  16.496 -0.4609 -0.1168 -0.0481
  616TMC3    O1 9188   3.712   3.940  16.472 -0.3551 -0.6640 -0.1221
  616TMC3    O2 9189   4.323   3.973  16.481 -1.0007  0.0157  0.7034
  617MPD2     C 9190   2.328   1.654  13.246 -0.5224  0.1851 -0.1157
  617MPD2    C1 9191   2.360   1.608  13.378  0.6788 -0.1241  0.3672
  617MPD2    C2 9192   2.258   1.573  13.465 -0.6590 -0.1941  0.2276
  617MPD2    C3 9193   2.124   1.598  13.428 -1.2033  0.3769 -0.3529
  617MPD2    C4 9194   2.094   1.646  13.301 -0.0291 -0.4305 -0.1608
  617MPD2    C5 9195   2.196   1.679  13.212  0.0612  1.0575  0.3208
  617MPD2     H 9196   2.286   1.538  13.564 -3.9935  0.4084  1.3657
  617MPD2    H1 9197   1.992   1.658  13.267 -0.3935 -1.5360  0.5482
  617MPD2    H2 9198   2.396   1.698  13.174  1.2365  0.6506  1.8449
  617MPD2    H3 9199   2.178   1.725  13.116 -4.6789 -0.6083  0.3777
  617MPD2     N 9200   2.014   1.569  13.508 -0.2396 -0.0985  0.2374
  617MPD2    H5 9201   1.925   1.573  13.459 -0.6472 -1.1320  0.8894
  617MPD2    N1 9202   2.499   1.586  13.393 -0.1328  0.0915  0.1902
  617MPD2    H7 9203   2.557   1.615  13.314  0.7448 -0.8964  0.4662
  618TMC3    C1 9204   2.702   1.524  13.480 -0.1462  0.7142 -1.0496
  618TMC3    C2 9205   2.775   1.513  13.593  0.0229  0.1846 -0.3040
  618TMC3    C3 9206   2.911   1.494  13.578  1.0862  0.6646 -0.1724
  618TMC3    C4 9207   2.752   1.517  13.352  0.5655  0.2091  0.2243
  618TMC3    C5 9208   2.881   1.495  13.344  0.7513 -0.4503 -0.1650
  618TMC3    C6 9209   2.966   1.490  13.450  0.3967  0.0936  0.4766
  618TMC3     C 9210   2.561   1.528  13.497 -0.4573 -0.0164  0.1745
  618TMC3     O 9211   2.518   1.466  13.596 -0.2995  0.3348  0.0296
  618TMC3     H 9212   2.737   1.510  13.694 -0.6246 -1.3107 -0.5851
  618TMC3    H1 9213   2.697   1.529  13.259  0.0183 -1.5983  0.3245
  618TMC3    H2 9214   3.072   1.467  13.444  0.5443  1.1970 -1.3230
  618TMC3    C7 9215   2.918   1.420  13.225  0.5949 -0.1874  0.4309
  618TMC3    C8 9216   2.989   1.487  13.698  0.2321  0.3474  0.2416
  618TMC3    O1 9217   2.832   1.406  13.138 -0.3238 -0.3338 -0.4793
  618TMC3    O2 9218   2.932   1.497  13.808  0.1450  0.7951  0.0704
  619MPD2     C 9219   3.626   2.354  13.910 -0.0533 -0.4146  0.4293
  619MPD2    C1 9220   3.557   2.470  13.898  0.2779 -0.1464 -0.0804
  619MPD2    C2 9221   3.445   2.494  13.971 -0.4890 -0.5868  0.7297
  619MPD2    C3 9222   3.378   2.397  14.041  0.5198 -0.2033 -0.2437
  619MPD2    C4 9223   3.449   2.277  14.059  0.4570 -0.2539 -0.0357
  619MPD2    C5 9224   3.568   2.258  13.992 -0.2945  0.6030  0.3243
  619MPD2     H 9225   3.403   2.591  13.949 -0.8464 -0.4437  2.0623
  619MPD2    H1 9226   3.417   2.199  14.127  2.0299 -2.3847 -1.7554
  619MPD2    H2 9227   3.724   2.332  13.868  0.1258 -0.8123  1.0441
  619MPD2    H3 9228   3.612   2.159  13.990 -2.0961 -0.1629 -1.6561
  619MPD2     N 9229   3.244   2.405  14.083  0.1576 -0.3747 -0.0478
  619MPD2    H5 9230   3.196   2.325  14.122 -1.5137  1.3684  1.4649
  619MPD2    N1 9231   3.590   2.575  13.812 -0.3101 -0.1805  0.3486
  619MPD2    H7 9232   3.538   2.661  13.826 -0.1605  0.4415 -2.9708
  620TMC3    C1 9233   3.638   2.652  13.592  0.6830 -0.5264  0.2231
  620TMC3    C2 9234   3.598   2.607  13.473  0.7331  0.8800  0.1644
  620TMC3    C3 9235   3.575   2.694  13.374 -0.3230  0.3251 -0.1294
  620TMC3    C4 9236   3.661   2.786  13.617  0.5076  0.2320 -0.1041
  620TMC3    C5 9237   3.655   2.870  13.500  0.3887 -0.0327  0.3184
  620TMC3    C6 9238   3.623   2.818  13.378 -0.2702  0.2468 -0.1144
  620TMC3     C 9239   3.656   2.549  13.692  0.3275  0.3226  0.9050
  620TMC3     O 9240   3.713   2.447  13.649  0.3271 -0.1333 -0.8331
  620TMC3     H 9241   3.567   2.503  13.461 -0.3801  1.0269  1.7975
  620TMC3    H1 9242   3.685   2.814  13.719 -0.7566  0.0273  0.2454
  620TMC3    H2 9243   3.609   2.877  13.288  0.0825 -0.3150 -0.5390
  620TMC3    C7 9244   3.607   3.005  13.520 -0.3624  0.1435  0.4957
  620TMC3    C8 9245   3.432   2.700  13.371  0.0236 -0.1448 -0.0486
  620TMC3    O1 9246   3.622   3.081  13.423 -0.7684 -0.3394 -0.1839
  620TMC3    O2 9247   3.376   2.631  13.453  0.4638  0.5314  0.0845
  621MPD2     C 9248   3.802   3.419   9.686 -0.0631  0.1349  1.1783
  621MPD2    C1 9249   3.879   3.367   9.793  0.2727  0.7074 -0.0361
  621MPD2    C2 9250   4.013   3.390   9.799 -0.0779 -0.9893 -0.0485
  621MPD2    C3 9251   4.070   3.465   9.697 -0.3178  0.6617 -0.7058
  621MPD2    C4 9252   3.990   3.521   9.594 -0.6121 -0.1520  0.6627
  621MPD2    C5 9253   3.856   3.492   9.587 -0.2537 -0.1443  0.2672
  621MPD2     H 9254   4.063   3.356   9.890 -0.5725 -0.0952  0.5564
  621MPD2    H1 9255   4.043   3.589   9.527  1.7756 -3.6128 -0.9292
  621MPD2    H2 9256   3.696   3.398   9.675  0.2005 -0.4659 -0.2197
  621MPD2    H3 9257   3.786   3.528   9.512  0.7540  2.4374  0.5651
  621MPD2     N 9258   4.208   3.494   9.713 -0.2672 -0.8165 -0.0495
  621MPD2    H5 9259   4.252   3.438   9.785 -0.6820  0.1065  0.9176
  621MPD2    N1 9260   3.826   3.292   9.892  0.0035 -0.0704  0.2039
  621MPD2    H7 9261   3.889   3.244   9.956 -1.1001  1.7871  2.7019
  622TMC3    C1 9262   3.667   3.190  10.033 -0.0455 -0.2445  0.1028
  622TMC3    C2 9263   3.557   3.219  10.111  0.1267  0.2907 -0.2079
  622TMC3    C3 9264   3.536   3.146  10.228  0.0457 -0.2222 -1.3619
  622TMC3    C4 9265   3.751   3.087  10.060  0.1298 -0.5462  0.0762
  622TMC3    C5 9266   3.727   3.022  10.175 -0.5805  0.0627  0.9158
  622TMC3    C6 9267   3.628   3.058  10.269  0.6102  0.0066 -0.2701
  622TMC3     C 9268   3.694   3.287   9.929 -0.2320  0.4835 -0.8897
  622TMC3     O 9269   3.607   3.367   9.900  0.4174  0.3895  0.1999
  622TMC3     H 9270   3.496   3.303  10.079  0.0671 -0.2943 -1.6436
  622TMC3    H1 9271   3.845   3.056  10.018 -0.2910 -0.0324 -1.2385
  622TMC3    H2 9272   3.609   2.997  10.357  0.6097  0.4159  0.0107
  622TMC3    C7 9273   3.766   2.881  10.178 -0.6001  0.2809 -0.2063
  622TMC3    C8 9274   3.455   3.207  10.327  0.3172  0.4782  0.1872
  622TMC3    O1 9275   3.749   2.819  10.282 -0.5460 -0.5079  0.0567
  622TMC3    O2 9276   3.483   3.179  10.440 -0.1440  0.1508  0.5383
  623MPD2     C 9277   2.089   3.307  15.795  0.8846 -0.2160 -0.2750
  623MPD2    C1 9278   2.033   3.383  15.898  0.5722 -0.0899  0.2716
  623MPD2    C2 9279   2.111   3.471  15.965 -0.5401 -0.5551  0.1368
  623MPD2    C3 9280   2.246   3.486  15.945 -0.0264  0.5299  1.1560
  623MPD2    C4 9281   2.300   3.419  15.842 -0.1941  0.0460 -0.1069
  623MPD2    C5 9282   2.226   3.327  15.774  0.1523  0.2052  0.1983
  623MPD2     H 9283   2.066   3.520  16.051  0.7113 -0.3774  0.6976
  623MPD2    H1 9284   2.401   3.434  15.807 -0.6285 -0.2483 -1.5091
  623MPD2    H2 9285   2.030   3.231  15.747  2.0270 -1.6099  0.5222
  623MPD2    H3 9286   2.275   3.285  15.686  1.6481  0.5877  0.8481
  623MPD2     N 9287   2.317   3.559  16.040  0.4762  0.2683  0.7859
  623MPD2    H5 9288   2.248   3.597  16.104  0.1249  0.0551  0.5394
  623MPD2    N1 9289   1.905   3.369  15.942 -0.2737 -0.5551  0.5703
  623MPD2    H7 9290   1.886   3.426  16.024 -3.1068  0.3495 -0.6989
  624TMC3    C1 9291   2.650   3.495  16.336 -0.6110  0.2768 -0.0741
  624TMC3    C2 9292   2.549   3.462  16.428  0.7041 -0.4128  0.5853
  624TMC3    C3 9293   2.428   3.521  16.406 -0.8246  0.1841  0.0526
  624TMC3    C4 9294   2.620   3.564  16.223 -0.2112 -0.5693 -0.1055
  624TMC3    C5 9295   2.487   3.598  16.196 -0.3082  0.2439  0.0794
  624TMC3    C6 9296   2.387   3.574  16.287 -0.1174 -0.5273  0.1457
  624TMC3     C 9297   2.793   3.491  16.365 -0.0837 -0.3523  0.2097
  624TMC3     O 9298   2.855   3.597  16.341 -0.5328 -0.4643 -0.7659
  624TMC3     H 9299   2.567   3.412  16.522 -0.0885 -1.0635  0.3908
  624TMC3    H1 9300   2.689   3.587  16.143 -0.3390  0.3373  0.0538
  624TMC3    H2 9301   2.284   3.601  16.269  0.2140  0.8384  0.2456
  624TMC3    C7 9302   2.453   3.580  16.056 -0.7459 -0.2279 -0.0568
  624TMC3    C8 9303   2.327   3.487  16.503 -0.3717  0.0042  0.3289
  624TMC3    O1 9304   2.543   3.548  15.983  0.1941 -0.1379 -0.0265
  624TMC3    O2 9305   2.337   3.367  16.539 -0.0909  0.1106  0.2398
  625MPD2     C 9306   3.110   0.175   0.360  0.1218  0.2090 -0.0309
  625MPD2    C1 9307   3.075   0.292   0.411  0.0292 -0.0823 -0.5831
  625MPD2    C2 9308   3.149   0.341   0.520  0.3807 -0.7177  0.3121
  625MPD2    C3 9309   3.267   0.283   0.561 -0.2012 -0.1493  0.3094
  625MPD2    C4 9310   3.300   0.169   0.497 -0.7220 -0.2339 -0.6672
  625MPD2    C5 9311   3.221   0.111   0.396  0.8339 -0.0432 -0.7379
  625MPD2     H 9312   3.090   0.416   0.571  0.4734 -0.5319  0.1514
  625MPD2    H1 9313   3.396   0.129   0.525 -0.6403  0.7132  0.4200
  625MPD2    H2 9314   3.054   0.128   0.281 -0.1044 -0.4459  0.5252
  625MPD2    H3 9315   3.253   0.027   0.336  1.6510  0.5306 -1.1162
  625MPD2     N 9316   3.332   0.344   0.668 -0.2375 -0.0181 -0.3940
  625MPD2    H5 9317   3.287   0.426   0.707 -0.2612 -1.0152  1.7035
  625MPD2    N1 9318   2.954   0.360   0.381  0.1101  0.4495 -0.6871
  625MPD2    H7 9319   2.924   0.435   0.442 -0.6767 -1.1737  0.9337
  626TMC3    C1 9320   2.743   0.397   0.288 -0.1155 -0.4129 -0.1269
  626TMC3    C2 9321   2.675   0.430   0.179  0.0243  0.1765 -0.2320
  626TMC3    C3 9322   2.570   0.516   0.189  0.7456 -0.1911 -0.0923
  626TMC3    C4 9323   2.702   0.434   0.415 -0.0704  0.0501  0.0385
  626TMC3    C5 9324   2.585   0.501   0.426  0.2974  0.0885 -0.3994
  626TMC3    C6 9325   2.521   0.543   0.315 -0.1250 -0.6863 -0.3503
  626TMC3     C 9326   2.874   0.340   0.267 -0.2668 -0.1795 -0.4363
  626TMC3     O 9327   2.885   0.252   0.184  0.1276  0.2657  0.1645
  626TMC3     H 9328   2.720   0.403   0.084  0.1274  1.9842 -0.6959
  626TMC3    H1 9329   2.746   0.381   0.499 -1.6092  1.6267  1.8211
  626TMC3    H2 9330   2.428   0.598   0.315  1.8302  2.6545 -0.5318
  626TMC3    C7 9331   2.534   0.526   0.563  0.3481 -1.2986  0.2078
  626TMC3    C8 9332   2.513   0.576   0.070 -0.9924 -0.5824 -0.3901
  626TMC3    O1 9333   2.599   0.479   0.654  0.4090 -0.1965  0.0573
  626TMC3    O2 9334   2.537   0.523  17.705 -0.4992 -0.2895  0.9071
  627MPD2     C 9335   1.435   0.249  14.017 -0.2262 -0.4123  0.1747
  627MPD2    C1 9336   1.454   0.225  14.150 -0.0323 -0.2260  0.7608
  627MPD2    C2 9337   1.396   0.117  14.214 -0.0576  0.1124 -0.4604
  627MPD2    C3 9338   1.321   0.025  14.149  0.3663 -0.2395  0.2780
  627MPD2    C4 9339   1.298   0.050  14.018 -0.4236 -0.7499 -0.1801
  627MPD2    C5 9340   1.352   0.160  13.954  0.2794  0.3221 -0.4133
  627MPD2     H 9341   1.405   0.110  14.321 -3.4627  1.3917 -0.1181
  627MPD2    H1 9342   1.223   4.732  13.963 -1.1258  0.5103 -0.4922
  627MPD2    H2 9343   1.482   0.325  13.956 -0.1142 -0.2592  0.4539
  627MPD2    H3 9344   1.336   0.182  13.850  1.0489  1.3976 -0.3052
  627MPD2     N 9345   1.269   4.655  14.223 -0.1817  0.1337  0.1994
  627MPD2    H5 9346   1.281   4.661  14.324  1.4544  0.3431 -0.0024
  627MPD2    N1 9347   1.531   0.317  14.232 -0.2260 -0.0530  0.1525
  627MPD2    H7 9348   1.546   0.287  14.327  3.4284  0.1322 -0.3744
  628TMC3    C1 9349   1.709   0.467  14.269 -0.3424  0.3962  0.3096
  628TMC3    C2 9350   1.759   0.371  14.357  0.9710  0.3329  0.3858
  628TMC3    C3 9351   1.859   0.414  14.441 -0.0427  0.2273 -0.4723
  628TMC3    C4 9352   1.763   0.596  14.262 -0.5536  0.4156 -0.4500
  628TMC3    C5 9353   1.863   0.625  14.350 -0.6745  0.1291 -0.2600
  628TMC3    C6 9354   1.912   0.540  14.445 -0.1130 -0.2089 -0.1072
  628TMC3     C 9355   1.595   0.428  14.190 -0.6876 -0.0752  0.2884
  628TMC3     O 9356   1.570   0.498  14.093 -0.1198 -0.2719 -0.1554
  628TMC3     H 9357   1.733   0.266  14.347 -1.8391  1.1293 -0.8108
  628TMC3    H1 9358   1.739   0.663  14.180 -0.3542  0.0660 -0.8001
  628TMC3    H2 9359   2.011   0.555  14.485  0.3376 -0.9610 -0.9415
  628TMC3    C7 9360   1.947   0.742  14.328  0.1276  0.7942  0.1053
  628TMC3    C8 9361   1.929   0.303  14.491 -0.1230 -0.0236  0.0576
  628TMC3    O1 9362   2.057   0.734  14.379  0.0953 -0.6235 -0.3434
  628TMC3    O2 9363   2.010   0.240  14.424 -0.1398  0.8304 -0.0663
  629MPD2     C 9364   4.435   3.597  16.847 -0.4692 -0.3148  1.0017
  629MPD2    C1 9365   4.494   3.697  16.767  0.5160  0.3591  0.6046
  629MPD2    C2 9366   4.406   3.772  16.688 -0.7151  0.1106  0.4920
  629MPD2    C3 9367   4.269   3.750  16.686  0.2605 -0.4366  0.2705
  629MPD2    C4 9368   4.211   3.657  16.765  0.6676 -0.6782 -0.0200
  629MPD2    C5 9369   4.297   3.583  16.843  0.5856  0.1555  0.1559
  629MPD2     H 9370   4.447   3.851  16.625 -0.4981  0.4977  1.1211
  629MPD2    H1 9371   4.105   3.643  16.784  0.2947  1.0209 -0.7853
  629MPD2    H2 9372   4.497   3.551  16.923  2.1728 -0.9459 -1.5148
  629MPD2    H3 9373   4.248   3.512  16.908  0.1070  0.0607 -0.3015
  629MPD2     N 9374   4.186   3.814  16.592  0.1180  0.0537 -0.0150
  629MPD2    H5 9375   4.091   3.780  16.584  0.8498 -2.1278  0.7898
  629MPD2    N1 9376   4.630   3.717  16.770  0.0887  0.0088  0.2417
  629MPD2    H7 9377   4.686   3.649  16.821 -1.9135 -1.8497 -0.0474
  630TMC3    C1 9378   0.101   3.790  16.709 -0.6822 -0.2327 -0.4438
  630TMC3    C2 9379   0.171   3.851  16.606 -0.2003  0.2701  0.8983
  630TMC3    C3 9380   0.271   3.941  16.635  0.3691  0.1363  0.2622
  630TMC3    C4 9381   0.138   3.800  16.839  0.0162 -0.7873 -0.3162
  630TMC3    C5 9382   0.233   3.899  16.858  0.7109  0.5875 -0.2243
  630TMC3    C6 9383   0.304   3.969  16.760 -0.8158 -0.3684 -0.1826
  630TMC3     C 9384   4.697   3.792  16.680  0.9128 -0.6101 -0.0289
  630TMC3     O 9385   4.668   3.844  16.574 -0.1466  0.0092 -0.0500
  630TMC3     H 9386   0.147   3.840  16.501 -1.7376  0.5397  1.2166
  630TMC3    H1 9387   0.066   3.778  16.918 -0.5741  0.9745 -0.3514
  630TMC3    H2 9388   0.368   4.050  16.794  0.6012 -1.1814 -0.9193
  630TMC3    C7 9389   0.275   3.897  17.001 -0.1994 -0.3372 -0.0323
  630TMC3    C8 9390   0.284   4.063  16.551  0.3906  0.2167  0.3090
  630TMC3    O1 9391   0.211   3.828  17.080  0.3135  0.2014  0.1419
  630TMC3    O2 9392   0.389   4.127  16.567  0.1509 -0.1265  0.3572
  631MPD2     C 9393   3.456   4.341  14.678  0.2584  0.4319 -0.2698
  631MPD2    C1 9394   3.356   4.329  14.768  0.4746  0.5227  0.4117
  631MPD2    C2 9395   3.386   4.346  14.901 -0.2358 -0.4180 -0.0591
  631MPD2    C3 9396   3.518   4.371  14.939 -0.7494  0.5595  0.7138
  631MPD2    C4 9397   3.619   4.383  14.844 -0.7266  0.1092  0.1534
  631MPD2    C5 9398   3.586   4.366  14.711  0.2019 -0.5715  0.3799
  631MPD2     H 9399   3.319   4.344  14.986  2.1474 -1.2342  1.8075
  631MPD2    H1 9400   3.724   4.382  14.871 -0.8093 -0.1577  0.4609
  631MPD2    H2 9401   3.432   4.331  14.573  0.2624  0.8369 -0.3064
  631MPD2    H3 9402   3.656   4.384  14.630 -2.9204  0.6104 -2.0155
  631MPD2     N 9403   3.541   4.397  15.074  0.0352  0.2276  0.1111
  631MPD2    H5 9404   3.464   4.388  15.139  0.3504 -2.1286  0.1497
  631MPD2    N1 9405   3.230   4.309  14.716 -0.6548  0.4035  0.1433
  631MPD2    H7 9406   3.210   4.313  14.617 -1.7278 -0.4679  0.3246
  632TMC3    C1 9407   2.992   4.289  14.733 -0.2857 -0.1141  0.3625
  632TMC3    C2 9408   2.893   4.343  14.804 -0.0871  0.6186 -0.2716
  632TMC3    C3 9409   2.782   4.388  14.733 -0.1836  0.1498  0.4909
  632TMC3    C4 9410   2.994   4.291  14.601 -0.1806 -0.5715 -0.1274
  632TMC3    C5 9411   2.895   4.361  14.529  0.3828  0.0872  0.0466
  632TMC3    C6 9412   2.784   4.408  14.598  0.5218  0.9729  0.3735
  632TMC3     C 9413   3.120   4.291  14.801  0.4913  0.2026 -0.0528
  632TMC3     O 9414   3.118   4.276  14.921  0.0841 -0.3114  0.0492
  632TMC3     H 9415   2.885   4.314  14.908  0.5776  1.1720 -0.0646
  632TMC3    H1 9416   3.073   4.231  14.557  0.7825 -0.6353  1.6914
  632TMC3    H2 9417   2.696   4.457  14.557  0.9599  0.3081 -1.3568
  632TMC3    C7 9418   2.898   4.342  14.386 -0.9076  0.0357 -0.5801
  632TMC3    C8 9419   2.656   4.375  14.807 -0.2772 -0.1073  0.2467
  632TMC3    O1 9420   2.974   4.254  14.340  0.6114 -0.2272  0.1913
  632TMC3    O2 9421   2.670   4.362  14.928  0.2609 -0.0958 -0.3152
  633MPD2     C 9422   2.521   2.035  17.508 -0.5361  0.3924  0.4612
  633MPD2    C1 9423   2.585   1.950  17.419  0.3403  0.2131 -0.3903
  633MPD2    C2 9424   2.571   1.814  17.444  0.1141 -0.5989  0.0868
  633MPD2    C3 9425   2.508   1.762  17.556 -0.1839 -0.8490 -0.0927
  633MPD2    C4 9426   2.466   1.849  17.654  0.2213 -0.0336 -0.0336
  633MPD2    C5 9427   2.468   1.985  17.622 -0.2739 -0.1099  0.9796
  633MPD2     H 9428   2.613   1.751  17.366  2.4857  1.2737 -0.1486
  633MPD2    H1 9429   2.426   1.817   0.001  1.6273 -2.0135 -0.1028
  633MPD2    H2 9430   2.513   2.143  17.498  0.0497  0.2655 -1.2597
  633MPD2    H3 9431   2.428   2.052  17.697 -0.1486 -0.1118  1.0470
  633MPD2     N 9432   2.481   1.623  17.574  1.1690 -0.0006  0.0180
  633MPD2    H5 9433   2.436   1.590  17.659 -0.0238 -0.3704 -0.7625
  633MPD2    N1 9434   2.646   1.991  17.303 -0.0160 -0.0025  0.3477
  633MPD2    H7 9435   2.680   1.919  17.240  0.3019  1.3586 -1.0257
  634TMC3    C1 9436   2.725   2.134  17.134 -0.2458  0.1150 -0.1938
  634TMC3    C2 9437   2.815   2.048  17.090  0.4410  0.4284 -0.5101
  634TMC3    C3 9438   2.860   2.057  16.959  0.2113  1.1139  0.2882
  634TMC3    C4 9439   2.692   2.245  17.065 -0.1965  0.1807 -0.8336
  634TMC3    C5 9440   2.754   2.268  16.941  0.1851  0.1298  0.2719
  634TMC3    C6 9441   2.825   2.167  16.884  0.5573 -0.3904 -0.4240
  634TMC3     C 9442   2.668   2.123  17.268 -0.5771 -0.0919 -0.8306
  634TMC3     O 9443   2.652   2.228  17.333  0.3777  0.4336 -0.4353
  634TMC3     H 9444   2.848   1.973  17.160  0.0405  0.0797 -0.6972
  634TMC3    H1 9445   2.593   2.283  17.087 -0.3822 -0.5809 -0.3671
  634TMC3    H2 9446   2.843   2.173  16.777 -0.1373 -0.3558 -0.5353
  634TMC3    C7 9447   2.667   2.342  16.850 -0.3008  0.0004 -0.0628
  634TMC3    C8 9448   2.894   1.929  16.895  0.8572  0.3274 -0.1959
  634TMC3    O1 9449   2.670   2.316  16.734 -0.2661 -0.1456  0.0863
  634TMC3    O2 9450   2.905   1.838  16.974 -0.1095  0.0337 -0.1311
  635TMC3    C1 9451   3.150   3.404  17.363 -0.0255  0.4086 -0.7055
  635TMC3    C2 9452   3.250   3.425  17.273  0.5437 -0.8741 -0.3820
  635TMC3    C3 9453   3.257   3.348  17.164 -0.3045 -0.2036  0.3899
  635TMC3    C4 9454   3.036   3.334  17.330 -0.6068  0.1675 -0.0830
  635TMC3    C5 9455   3.042   3.257  17.215  0.9675 -0.6220 -0.4210
  635TMC3    C6 9456   3.156   3.264  17.127 -0.4401 -0.8159  0.0500
  635TMC3     C 9457   3.129   3.518  17.458  0.8849 -0.0433 -0.3769
  635TMC3     O 9458   3.148   3.633  17.420  0.3748 -0.3330  0.5529
  635TMC3     H 9459   3.323   3.501  17.297 -1.9680  1.4114  0.0172
  635TMC3    H1 9460   2.953   3.327  17.398  0.9837 -0.6645  1.7556
  635TMC3    H2 9461   3.160   3.213  17.031 -0.0598 -2.8976  1.1965
  635TMC3    C7 9462   2.919   3.189  17.175  0.5162 -0.1086 -0.7130
  635TMC3    C8 9463   3.374   3.336  17.080  0.2724 -0.0441  0.6567
  635TMC3    O1 9464   2.816   3.213  17.234 -0.4545 -0.2825  1.1675
  635TMC3    O2 9465   3.381   3.256  16.989  0.4152 -0.0751 -0.5019
  636MPD2     C 9466   3.892   1.992  15.757  0.6453 -0.0634  0.0977
  636MPD2    C1 9467   3.896   1.984  15.896  0.7788  0.4422 -0.0931
  636MPD2    C2 9468   3.951   1.868  15.956  0.3717 -1.1467 -0.7866
  636MPD2    C3 9469   3.998   1.766  15.881 -0.7695  0.1995 -0.4674
  636MPD2    C4 9470   3.998   1.775  15.739  0.0075 -0.1690 -0.2424
  636MPD2    C5 9471   3.939   1.886  15.681  0.3243  0.3859  0.0948
  636MPD2     H 9472   3.954   1.875  16.064 -3.2000  0.2886 -0.7944
  636MPD2    H1 9473   4.037   1.700  15.671  0.9092 -1.2049  1.4112
  636MPD2    H2 9474   3.842   2.077  15.711 -0.6674 -0.7354  0.2731
  636MPD2    H3 9475   3.935   1.897  15.573 -0.3490  0.6063  0.1417
  636MPD2     N 9476   4.080   1.671  15.949 -0.3890 -1.0047 -0.3236
  636MPD2    H5 9477   4.068   1.666  16.050  1.7673 -1.9437 -0.0926
  636MPD2    N1 9478   3.860   2.092  15.977  0.0566 -0.6393  0.4766
  636MPD2    H7 9479   3.900   2.098  16.070 -0.6057 -1.4779  0.8131
  637TMC3    C1 9480   4.255   1.515  15.976  0.0969  0.7251 -0.7645
  637TMC3    C2 9481   4.218   1.498  16.108  0.4886  0.0824 -0.5080
  637TMC3    C3 9482   4.307   1.443  16.199 -0.0523 -0.0747  0.4606
  637TMC3    C4 9483   4.380   1.478  15.931 -0.3594  0.0418  0.2194
  637TMC3    C5 9484   4.464   1.422  16.025  0.3314  0.3084  0.1155
  637TMC3    C6 9485   4.418   1.390  16.149 -0.5620 -0.1772 -0.2058
  637TMC3     C 9486   4.174   1.597  15.888 -0.0048  0.2439  0.4437
  637TMC3     O 9487   4.220   1.606  15.776  0.2454 -0.4130 -0.2528
  637TMC3     H 9488   4.118   1.512  16.147  0.1631 -0.2340 -1.2383
  637TMC3    H1 9489   4.418   1.517  15.837 -0.2456  1.4428  0.8453
  637TMC3    H2 9490   4.474   1.325  16.215  0.0412 -1.0235 -1.5587
  637TMC3    C7 9491   4.567   1.515  16.053  0.2712 -0.5707 -0.1708
  637TMC3    C8 9492   4.310   1.512  16.323 -0.1173  0.3247 -0.1037
  637TMC3    O1 9493   4.558   1.619  15.990  0.1119 -0.0739  0.1716
  637TMC3    O2 9494   4.224   1.592  16.337 -0.0444  0.2393 -0.6020
  638MPD2     C 9495   3.473   1.106  14.651  1.0840  0.4397 -0.3838
  638MPD2    C1 9496   3.472   0.988  14.576 -0.1500 -0.1340  0.5569
  638MPD2    C2 9497   3.459   0.869  14.639  0.3420 -0.2321 -0.3204
  638MPD2    C3 9498   3.460   0.850  14.774  0.1734  0.0965 -0.1646
  638MPD2    C4 9499   3.471   0.962  14.856  0.2738 -0.0918  0.6097
  638MPD2    C5 9500   3.464   1.086  14.791 -0.9820  0.4620 -0.5972
  638MPD2     H 9501   3.457   0.779  14.578  0.1248 -0.0523 -0.5745
  638MPD2    H1 9502   3.477   0.964  14.964 -0.8013  3.7105  0.5995
  638MPD2    H2 9503   3.474   1.205  14.608  1.3477  0.1672 -1.0136
  638MPD2    H3 9504   3.454   1.174  14.853 -2.8292 -0.8144  0.9147
  638MPD2     N 9505   3.452   0.727  14.832 -0.4376  0.0182 -0.0017
  638MPD2    H5 9506   3.421   0.647  14.777  3.0422 -1.7026  0.5523
  638MPD2    N1 9507   3.495   0.994  14.436  0.0076  0.4546  0.0951
  638MPD2    H7 9508   3.522   1.084  14.399  3.2086  0.7325  3.0917
  639TMC3    C1 9509   3.515   0.557  14.993 -0.5071  0.4079  0.6177
  639TMC3    C2 9510   3.483   0.478  14.889  0.0297  0.2244 -0.0202
  639TMC3    C3 9511   3.574   0.381  14.850  0.9202  1.0156 -0.5986
  639TMC3    C4 9512   3.622   0.520  15.071 -0.4413 -0.7036  0.1476
  639TMC3    C5 9513   3.703   0.414  15.034 -0.5534 -0.1052  0.0295
  639TMC3    C6 9514   3.691   0.358  14.910  0.0062 -0.8116 -0.0879
  639TMC3     C 9515   3.513   0.695  14.950 -0.0353 -0.0085  0.4431
  639TMC3     O 9516   3.597   0.767  15.009  0.0063  0.1051  0.1899
  639TMC3     H 9517   3.392   0.494  14.834 -0.9739 -2.8245  0.7382
  639TMC3    H1 9518   3.632   0.567  15.169 -3.6299 -1.8759  1.0229
  639TMC3    H2 9519   3.759   0.281  14.875  1.0431  0.8180 -1.6848
  639TMC3    C7 9520   3.805   0.369  15.129  0.0829 -0.0072  0.3669
  639TMC3    C8 9521   3.536   0.288  14.752 -0.2342 -0.3801 -0.3363
  639TMC3    O1 9522   3.767   0.355  15.244 -0.1755  0.0036 -0.5915
  639TMC3    O2 9523   3.617   0.232  14.684 -0.1061 -0.8727 -0.2168
  640MPD2     C 9524   4.623   4.051  10.373 -0.6009  0.1872 -0.3872
  640MPD2    C1 9525   4.678   4.140  10.279 -0.2599 -0.2067 -0.7224
  640MPD2    C2 9526   4.671   4.279  10.287 -0.5718 -0.2723 -0.6834
  640MPD2    C3 9527   4.597   4.333  10.394  0.7590  0.3780  0.2565
  640MPD2    C4 9528   4.529   4.246  10.470 -1.0245  1.3040 -0.5364
  640MPD2    C5 9529   4.551   4.103  10.471 -0.7126 -1.0269 -0.2748
  640MPD2     H 9530   4.703   4.346  10.208 -1.6683  1.8028  0.6299
  640MPD2    H1 9531   4.457   4.277  10.545 -0.4270  2.2900 -0.3797
  640MPD2    H2 9532   4.631   3.945  10.352 -2.3744 -0.0165 -0.0279
  640MPD2    H3 9533   4.490   4.040  10.534 -1.1973  0.0777  0.3663
  640MPD2     N 9534   4.564   4.465  10.403  0.9479  0.0320 -0.2271
  640MPD2    H5 9535   4.496   4.495  10.472  1.7959 -0.1576  0.6932
  640MPD2    N1 9536   0.003   4.071  10.170 -0.3424  0.0001 -0.0060
  640MPD2    H7 9537   4.725   3.970  10.171 -1.3423  0.1721  1.8237
  641TMC3    C1 9538   0.105   4.037   9.968 -0.2567  0.5502  0.5742
  641TMC3    C2 9539   0.163   3.916  10.012  0.7194  0.8920 -0.0758
  641TMC3    C3 9540   0.232   3.844   9.916  0.3982  0.0834  0.2253
  641TMC3    C4 9541   0.103   4.075   9.840  0.3137 -0.9069 -0.2807
  641TMC3    C5 9542   0.163   3.992   9.748 -0.0822  0.2539 -0.4827
  641TMC3    C6 9543   0.225   3.874   9.782  0.3197 -0.8465 -0.4453
  641TMC3     C 9544   0.056   4.136  10.060  0.0600  0.0666 -0.3110
  641TMC3     O 9545   0.096   4.251  10.044  0.7598 -0.0297 -0.4085
  641TMC3     H 9546   0.188   3.900  10.116 -1.0151  2.8116  0.6287
  641TMC3    H1 9547   0.051   4.166   9.810  0.4699 -0.7100  0.0449
  641TMC3    H2 9548   0.277   3.816   9.707 -1.5916 -1.9340 -0.9325
  641TMC3    C7 9549   0.215   4.050   9.623  0.4394 -0.0660  0.1816
  641TMC3    C8 9550   0.313   3.738   9.954 -0.1334  0.4876  0.2881
  641TMC3    O1 9551   0.319   4.007   9.575 -0.4457  0.0296 -0.0386
  641TMC3    O2 9552   0.374   3.686   9.864 -1.2533 -0.2995  0.0785
  642TMC3    C1 9553   1.216   0.571  11.768  0.1681 -0.8707 -0.1342
  642TMC3    C2 9554   1.312   0.596  11.674 -0.0537  0.1486  0.6029
  642TMC3    C3 9555   1.369   0.493  11.604  0.3085  0.4665  0.1085
  642TMC3    C4 9556   1.156   0.451  11.773 -0.0590 -0.2026  0.3660
  642TMC3    C5 9557   1.200   0.362  11.683  0.7144 -0.0584  0.4172
  642TMC3    C6 9558   1.310   0.377  11.598  0.0913 -0.2381 -0.1543
  642TMC3     C 9559   1.175   0.681  11.853  0.4873  0.3356  0.2186
  642TMC3     O 9560   1.189   0.791  11.807 -0.0312  0.4775 -0.4047
  642TMC3     H 9561   1.344   0.698  11.661  0.3545  0.0046  0.4876
  642TMC3    H1 9562   1.058   0.442  11.817  0.7928 -2.6359  1.7602
  642TMC3    H2 9563   1.345   0.310  11.520 -0.0714 -2.1645  1.4408
  642TMC3    C7 9564   1.144   0.227  11.697 -0.2992 -1.0048  0.0076
  642TMC3    C8 9565   1.506   0.505  11.560  0.0022  1.0626 -0.0303
  642TMC3    O1 9566   1.147   0.155  11.596  0.3649 -0.0852 -0.0466
  642TMC3    O2 9567   1.558   0.404  11.513  0.2650  0.2493  0.3687
  643TMC3    C1 9568   4.579   0.173   0.255  0.2001  0.4574  0.4611
  643TMC3    C2 9569   4.457   0.177   0.199 -0.0542  0.6624 -0.4971
  643TMC3    C3 9570   4.420   0.076   0.112 -0.1597  0.1113 -0.4673
  643TMC3    C4 9571   4.672   0.082   0.215  0.7550  0.5911  0.0427
  643TMC3    C5 9572   4.633   4.717   0.133  0.0285  0.2614  0.4076
  643TMC3    C6 9573   4.503   4.710   0.084  0.2191  0.4081 -0.4283
  643TMC3     C 9574   4.631   0.306   0.288  0.7823  0.3451 -0.4531
  643TMC3     O 9575   4.579   0.397   0.228  0.1389  0.3056 -0.3966
  643TMC3     H 9576   4.384   0.247   0.239  1.8554  2.7010 -0.6219
  643TMC3    H1 9577   0.038   0.092   0.245  0.8616  1.5685 -0.6322
  643TMC3    H2 9578   4.468   4.639   0.009  1.8949 -2.0168  1.0906
  643TMC3    C7 9579   0.008   4.700   0.038  0.3025 -0.4190 -1.1026
  643TMC3    C8 9580   4.348   0.122  17.738 -0.4078  0.0825 -0.1600
  643TMC3    O1 9581   0.102   0.039   0.045 -0.1233 -0.2651  0.4717
  643TMC3    O2 9582   4.318   0.044  17.646  0.3473 -0.5120 -0.1379
  644MPD2     C 9583   4.653   4.640   9.514 -0.4366 -0.3586  0.0660
  644MPD2    C1 9584   0.035   4.704   9.487 -0.2574  0.3528  0.5227
  644MPD2    C2 9585   0.033   0.091   9.424  0.2859 -0.5707 -0.4257
  644MPD2    C3 9586   4.649   0.157   9.398  0.0562 -0.1402  0.2022
  644MPD2    C4 9587   4.536   0.087   9.419 -0.1665  0.1781  0.2127
  644MPD2    C5 9588   4.533   4.698   9.473  0.7935  0.1765  0.0733
  644MPD2     H 9589   0.123   0.145   9.398  0.2886 -0.0743  0.5992
  644MPD2    H1 9590   4.442   0.138   9.397  0.4155  0.2021 -2.1746
  644MPD2    H2 9591   4.660   4.546   9.568 -1.1327 -0.2134  0.4144
  644MPD2    H3 9592   4.438   4.647   9.491  0.3703  1.8762  2.6536
  644MPD2     N 9593   4.665   0.288   9.337 -0.1099  0.1417 -0.6380
  644MPD2    H5 9594   0.021   0.321   9.316  0.2619 -0.1907  0.5535
  644MPD2    N1 9595   0.151   4.639   9.538  0.2038  0.2252  0.3621
  644MPD2    H7 9596   0.134   4.567   9.607 -1.1158 -0.6512 -0.8733
  645TMC3    C1 9597   4.618   0.495   9.262  0.1783 -0.1655 -0.4559
  645TMC3    C2 9598   4.733   0.497   9.190  0.6943 -0.4454 -0.5762
  645TMC3    C3 9599   0.055   0.614   9.153  0.3108 -0.4404  0.0397
  645TMC3    C4 9600   4.556   0.611   9.298  0.4469  0.3559  0.1956
  645TMC3    C5 9601   4.618   0.727   9.266 -0.2160  0.3062  0.2215
  645TMC3    C6 9602   4.736   0.733   9.188 -0.0687 -0.0168  0.0971
  645TMC3     C 9603   4.566   0.373   9.318 -0.2897  0.5850 -0.0830
  645TMC3     O 9604   4.444   0.366   9.349 -0.0355 -0.3366  0.2410
  645TMC3     H 9605   0.035   0.402   9.157  0.9303 -0.6271  0.2311
  645TMC3    H1 9606   4.461   0.608   9.349 -0.1502  3.4125 -0.7578
  645TMC3    H2 9607   0.036   0.832   9.168  0.0710 -0.1984 -0.5445
  645TMC3    C7 9608   4.538   0.849   9.280 -0.6398 -0.3179 -0.1185
  645TMC3    C8 9609   0.158   0.615   9.050 -0.3455  0.4959  0.4888
  645TMC3    O1 9610   4.419   0.837   9.316 -0.3295 -0.2159 -0.9367
  645TMC3    O2 9611   0.181   0.506   9.000 -0.2178  0.4819 -0.3229
  646MPD2     C 9612   4.110   4.284  14.351 -0.0640  0.2416  0.8779
  646MPD2    C1 9613   4.019   4.291  14.457  0.0161 -0.6780  0.6042
  646MPD2    C2 9614   3.881   4.316  14.428  0.1098 -0.2866  0.1496
  646MPD2    C3 9615   3.841   4.339  14.297  0.3827 -0.1314  0.2958
  646MPD2    C4 9616   3.941   4.330  14.198 -0.4970  1.3699 -0.7447
  646MPD2    C5 9617   4.071   4.303  14.225  0.0065 -0.2994 -0.3005
  646MPD2     H 9618   3.813   4.325  14.513 -2.6389 -0.7687 -1.9976
  646MPD2    H1 9619   3.926   4.365  14.097  3.0782  2.7450 -0.7935
  646MPD2    H2 9620   4.218   4.283  14.359 -0.0066 -1.1752 -0.1301
  646MPD2    H3 9621   4.136   4.286  14.140 -0.2362 -0.5422 -0.4390
  646MPD2     N 9622   3.702   4.367  14.266  0.5509 -0.0981 -0.0591
  646MPD2    H5 9623   3.638   4.367  14.346  0.1988  1.4133 -0.3301
  646MPD2    N1 9624   4.069   4.272  14.593 -0.1497 -0.1033  0.1946
  646MPD2    H7 9625   4.170   4.273  14.605 -0.0964 -2.4812  0.0203
  647TMC3    C1 9626   4.063   4.231  14.828  0.4246  0.2244 -0.6112
  647TMC3    C2 9627   3.988   4.221  14.947  0.5859  0.3190 -0.3952
  647TMC3    C3 9628   4.059   4.183  15.067 -0.0792  0.0182  0.4668
  647TMC3    C4 9629   4.202   4.229  14.834 -0.6318  0.1328 -0.6601
  647TMC3    C5 9630   4.264   4.220  14.958  0.2267 -0.9273  0.0045
  647TMC3    C6 9631   4.189   4.208  15.075 -0.5644 -0.1194  0.8496
  647TMC3     C 9632   3.987   4.259  14.703 -1.0557  0.5061  0.4213
  647TMC3     O 9633   3.867   4.255  14.718  0.2948  0.3726 -0.4752
  647TMC3     H 9634   3.880   4.215  14.940  0.8110 -0.2512 -3.1886
  647TMC3    H1 9635   4.266   4.224  14.746 -0.2155 -0.1999 -0.3422
  647TMC3    H2 9636   4.238   4.187  15.169  1.8274 -2.3643 -0.8697
  647TMC3    C7 9637   4.377   4.129  14.971  0.0504 -0.1359 -0.1154
  647TMC3    C8 9638   4.033   4.047  15.110 -0.4704 -0.3625  0.8244
  647TMC3    O1 9639   4.444   4.148  15.077  0.3641 -0.2227  0.7868
  647TMC3    O2 9640   4.121   3.989  15.165  0.4573  0.5181 -0.6300
  648TMC3    C1 9641   3.236   2.007  16.382  0.0981 -0.7056  0.1066
  648TMC3    C2 9642   3.332   1.917  16.366 -0.2956 -0.5068  0.6846
  648TMC3    C3 9643   3.355   1.859  16.241  0.1085  0.2837 -0.4587
  648TMC3    C4 9644   3.150   2.040  16.284 -0.5499 -0.5142  0.5327
  648TMC3    C5 9645   3.171   1.983  16.162 -0.4847  0.2974  0.0406
  648TMC3    C6 9646   3.269   1.884  16.143 -1.0422 -0.9958 -0.1511
  648TMC3     C 9647   3.222   2.071  16.510 -0.3726  0.4243 -0.0613
  648TMC3     O 9648   3.147   2.168  16.513 -0.5869 -0.3665  0.0091
  648TMC3     H 9649   3.400   1.890  16.446 -0.4339 -0.9609  0.6496
  648TMC3    H1 9650   3.072   2.113  16.302 -1.4345 -1.3237 -0.0222
  648TMC3    H2 9651   3.276   1.835  16.047  0.5518 -2.6286  0.7879
  648TMC3    C7 9652   3.083   2.015  16.051  0.2142 -0.8477  0.5060
  648TMC3    C8 9653   3.448   1.741  16.242  1.1772  0.1222  0.0576
  648TMC3    O1 9654   3.117   1.960  15.945 -0.1207  0.1975  0.6137
  648TMC3    O2 9655   3.472   1.688  16.352 -0.2579  0.6407 -0.0033
  649TMC3    C1 9656   2.494   2.701  12.859 -0.2801 -0.6950 -0.5861
  649TMC3    C2 9657   2.578   2.806  12.893 -0.3831 -0.0760 -0.8649
  649TMC3    C3 9658   2.625   2.806  13.023 -0.6231  0.0835  0.0881
  649TMC3    C4 9659   2.442   2.620  12.951  0.5781  0.3660 -0.7285
  649TMC3    C5 9660   2.492   2.629  13.077 -0.5809 -0.2524 -1.4608
  649TMC3    C6 9661   2.579   2.721  13.119 -0.5779  0.1714 -0.2950
  649TMC3     C 9662   2.390   2.735  12.759  0.1858  0.7393  0.1384
  649TMC3     O 9663   2.276   2.751  12.800 -0.5775 -0.5125 -0.1108
  649TMC3     H 9664   2.620   2.879  12.825  2.2582 -0.7482  0.0296
  649TMC3    H1 9665   2.350   2.564  12.935 -0.3112  1.1607  1.5661
  649TMC3    H2 9666   2.613   2.730  13.222 -0.3449  1.1778 -0.4703
  649TMC3    C7 9667   2.419   2.540  13.172  0.0365  0.6875  0.3510
  649TMC3    C8 9668   2.701   2.916  13.073  0.0816  0.0112  0.5292
  649TMC3    O1 9669   2.308   2.501  13.143  0.2046 -0.0050 -0.4631
  649TMC3    O2 9670   2.769   2.903  13.174 -0.2278 -0.0237  0.1965
  650TMC3    C1 9671   0.645   4.056  12.798 -0.2289 -0.0805 -0.6184
  650TMC3    C2 9672   0.692   4.187  12.797  0.1656 -0.2613  0.4764
  650TMC3    C3 9673   0.690   4.260  12.680  0.1970 -0.1473  0.6324
  650TMC3    C4 9674   0.585   4.006  12.686 -0.4519 -0.7933 -0.2851
  650TMC3    C5 9675   0.566   4.088  12.576  0.1052  0.4009  0.4228
  650TMC3    C6 9676   0.621   4.215  12.570  0.0095  0.2994  0.0448
  650TMC3     C 9677   0.660   3.983  12.922 -0.1780  0.1838  0.4445
  650TMC3     O 9678   0.702   4.054  13.012  0.0762  0.2230 -0.0424
  650TMC3     H 9679   0.727   4.235  12.888  2.3528  0.8853 -0.9662
  650TMC3    H1 9680   0.549   3.904  12.689  3.4154 -2.2023 -1.5089
  650TMC3    H2 9681   0.646   4.263  12.476 -0.3688  0.7280  0.1660
  650TMC3    C7 9682   0.479   4.045  12.469  0.0498 -0.0722  0.3403
  650TMC3    C8 9683   0.709   4.406  12.673 -0.8498  0.7731  0.3983
  650TMC3    O1 9684   0.446   3.929  12.482  0.1588 -0.3048  0.2949
  650TMC3    O2 9685   0.662   4.474  12.582 -0.2651  0.6264  0.4856
  651MPD2     C 9686   4.077   1.201  10.932  0.1815  0.5125 -0.0232
  651MPD2    C1 9687   4.028   1.295  10.851 -0.5307  0.2086 -0.5413
  651MPD2    C2 9688   4.115   1.365  10.773 -0.0180 -0.3717 -0.8600
  651MPD2    C3 9689   4.257   1.357  10.788 -0.1691  0.0925 -0.3956
  651MPD2    C4 9690   4.300   1.267  10.880 -0.4091 -0.7143  0.0132
  651MPD2    C5 9691   4.211   1.196  10.952  0.6114  0.2633  0.4345
  651MPD2     H 9692   4.069   1.413  10.687  0.8930  0.8135 -0.6954
  651MPD2    H1 9693   4.404   1.241  10.896 -0.2468  1.0147  1.8382
  651MPD2    H2 9694   4.024   1.124  10.987 -1.6180  0.6383 -1.5539
  651MPD2    H3 9695   4.262   1.127  11.019 -0.3139  0.1595  1.0223
  651MPD2     N 9696   4.337   1.426  10.697  0.1401  0.4521  0.3595
  651MPD2    H5 9697   4.295   1.472  10.617 -1.4807 -2.7621 -0.6760
  651MPD2    N1 9698   3.897   1.330  10.837  0.0607 -0.2040  0.3249
  651MPD2    H7 9699   3.880   1.412  10.781 -2.1172 -1.5588 -1.0264
  652TMC3    C1 9700   4.735   1.624  10.544 -0.0316 -0.7920 -0.2981
  652TMC3    C2 9701   4.665   1.515  10.592  0.3363 -0.2997 -0.3421
  652TMC3    C3 9702   4.530   1.525  10.608 -0.3482 -0.2735 -0.6238
  652TMC3    C4 9703   4.668   1.742  10.523  0.4331 -0.4211  0.0595
  652TMC3    C5 9704   4.546   1.747  10.567  0.7401 -0.0793 -0.7174
  652TMC3    C6 9705   4.468   1.639  10.590 -0.4304 -0.0570  0.3932
  652TMC3     C 9706   0.145   1.623  10.563  0.1403  0.4070  0.2947
  652TMC3     O 9707   0.193   1.533  10.629  0.3514  0.0894 -0.1468
  652TMC3     H 9708   4.712   1.417  10.595  0.5236 -0.2327 -0.8920
  652TMC3    H1 9709   4.713   1.828  10.474 -0.0307 -0.7898 -0.9981
  652TMC3    H2 9710   4.370   1.657  10.631 -1.3936 -0.1803 -1.8783
  652TMC3    C7 9711   4.461   1.868  10.538 -0.2318 -0.5976 -0.2476
  652TMC3    C8 9712   4.476   1.432  10.702  0.6820  0.0493  0.0335
  652TMC3    O1 9713   4.341   1.852  10.521 -0.0420  0.1139 -0.2056
  652TMC3    O2 9714   4.556   1.376  10.776  0.2517  0.2287 -0.0381
  653MPD2     C 9715   2.164   1.966  17.601 -0.5716 -0.2433  0.5407
  653MPD2    C1 9716   2.112   2.056  17.507 -0.0173 -0.6917  0.3958
  653MPD2    C2 9717   2.055   2.006  17.389  0.6493 -0.6764 -0.1192
  653MPD2    C3 9718   2.043   1.873  17.362  0.0444 -0.0354  0.5869
  653MPD2    C4 9719   2.105   1.786  17.453 -0.6589  0.0797 -0.5139
  653MPD2    C5 9720   2.166   1.833  17.563 -0.2185 -0.5660  0.4033
  653MPD2     H 9721   2.008   2.076  17.321  1.0212 -0.8975 -0.6048
  653MPD2    H1 9722   2.100   1.680  17.432  1.2194 -0.1645  0.2586
  653MPD2    H2 9723   2.198   1.996  17.699  1.8608  0.6345 -0.5664
  653MPD2    H3 9724   2.203   1.755  17.628 -0.1295 -0.9241 -0.0735
  653MPD2     N 9725   1.967   1.836  17.248  0.7064 -0.7738  0.1779
  653MPD2    H5 9726   1.921   1.916  17.206 -0.7597 -0.7998  1.7471
  653MPD2    N1 9727   2.119   2.199  17.529 -0.6671  0.6640  0.1410
  653MPD2    H7 9728   2.090   2.255  17.450 -2.7685 -0.1378  0.3461
  654TMC3    C1 9729   1.893   1.700  17.066 -0.1271  0.2604 -0.1533
  654TMC3    C2 9730   1.797   1.794  17.032 -0.2287 -0.3409 -0.5678
  654TMC3    C3 9731   1.751   1.793  16.899 -0.0766 -0.1063 -0.0224
  654TMC3    C4 9732   1.920   1.593  16.985 -0.0046  0.1142  0.1732
  654TMC3    C5 9733   1.880   1.599  16.857 -0.1563  0.5563 -0.2558
  654TMC3    C6 9734   1.801   1.696  16.809 -0.6909  0.7404 -0.3322
  654TMC3     C 9735   1.966   1.709  17.194 -0.1198 -0.4396 -0.2656
  654TMC3     O 9736   2.030   1.605  17.224  0.1615  0.4550  0.1090
  654TMC3     H 9737   1.754   1.851  17.113 -1.6404  0.8088 -2.1186
  654TMC3    H1 9738   2.011   1.536  16.998  0.9547  1.4930 -0.6202
  654TMC3    H2 9739   1.757   1.689  16.710 -1.4450  0.8219 -0.0089
  654TMC3    C7 9740   1.929   1.506  16.759  0.2733  0.3468  0.5456
  654TMC3    C8 9741   1.643   1.887  16.871  0.1758  0.5805  0.2450
  654TMC3    O1 9742   1.935   1.535  16.640 -0.2588  0.5388 -0.3533
  654TMC3    O2 9743   1.615   1.966  16.962  0.1563 -0.1700  0.1958
  655MPD2     C 9744   3.580   1.939  15.773  0.2912  0.4519  0.2368
  655MPD2    C1 9745   3.493   2.024  15.704  0.0021 -0.3713  0.0585
  655MPD2    C2 9746   3.475   2.009  15.565  0.3031  0.0807 -1.0170
  655MPD2    C3 9747   3.525   1.899  15.500  0.6714  0.0169  0.0822
  655MPD2    C4 9748   3.597   1.813  15.576 -0.2981 -0.3951 -0.1611
  655MPD2    C5 9749   3.628   1.831  15.708  0.7197  0.1026  0.2677
  655MPD2     H 9750   3.418   2.087  15.515  1.7529  2.7307  1.4390
  655MPD2    H1 9751   3.646   1.730  15.526  1.1633  0.6393 -0.4121
  655MPD2    H2 9752   3.592   1.955  15.880 -0.8401 -1.7627  0.7049
  655MPD2    H3 9753   3.692   1.753  15.747  2.5152  0.8133 -1.2694
  655MPD2     N 9754   3.504   1.863  15.367  0.7968 -0.0867 -0.7817
  655MPD2    H5 9755   3.549   1.782  15.328 -1.1880 -0.7379 -1.7268
  655MPD2    N1 9756   3.418   2.128  15.763 -0.1747 -0.1938  0.7557
  655MPD2    H7 9757   3.371   2.194  15.701  0.4402 -1.3581 -0.9307
  656TMC3    C1 9758   3.351   2.290  15.914 -0.4013 -0.1087  0.2841
  656TMC3    C2 9759   3.295   2.309  16.037  0.1192 -0.1782 -0.2310
  656TMC3    C3 9760   3.209   2.414  16.047 -0.5349  0.0113  0.9937
  656TMC3    C4 9761   3.339   2.382  15.813 -0.1840  0.0506 -0.3328
  656TMC3    C5 9762   3.252   2.485  15.832  0.0307 -0.4321 -0.3927
  656TMC3    C6 9763   3.190   2.511  15.954 -0.2221  0.4366 -0.8782
  656TMC3     C 9764   3.416   2.158  15.898 -0.2975 -0.3295 -0.3083
  656TMC3     O 9765   3.452   2.090  15.992 -0.1580 -0.7556  0.1155
  656TMC3     H 9766   3.312   2.241  16.121 -1.2260 -0.6619 -0.3513
  656TMC3    H1 9767   3.386   2.365  15.717  0.1195  0.1075 -0.1970
  656TMC3    H2 9768   3.146   2.604  15.986  0.3427 -0.0587  1.3156
  656TMC3    C7 9769   3.202   2.545  15.714  0.5662 -0.1071  0.0610
  656TMC3    C8 9770   3.120   2.404  16.157 -0.3489  0.2788  1.8272
  656TMC3    O1 9771   3.259   2.508  15.612 -0.3073  0.6421 -0.0658
  656TMC3    O2 9772   3.155   2.329  16.247 -0.5462  0.1979 -0.0059
  657TMC3    C1 9773   2.408   1.380  15.290  0.9185  0.5762 -0.7478
  657TMC3    C2 9774   2.478   1.471  15.370  0.1003  1.1201 -0.0526
  657TMC3    C3 9775   2.457   1.602  15.356 -0.6854 -0.4221  0.4565
  657TMC3    C4 9776   2.338   1.429  15.181  0.5564  0.2491 -0.0737
  657TMC3    C5 9777   2.316   1.563  15.176  0.0501  0.2618 -0.6002
  657TMC3    C6 9778   2.375   1.653  15.266 -0.1169 -0.6101 -0.0425
  657TMC3     C 9779   2.451   1.239  15.276  0.9354  0.4049  0.2704
  657TMC3     O 9780   2.369   1.170  15.214  0.3638 -0.3414  0.2841
  657TMC3     H 9781   2.514   1.442  15.468 -0.0486  2.0234  0.2685
  657TMC3    H1 9782   2.285   1.356  15.120  0.4519 -0.1104  0.4488
  657TMC3    H2 9783   2.375   1.760  15.250  1.0372 -0.2311  2.3891
  657TMC3    C7 9784   2.226   1.617  15.074 -0.2555 -1.4433  0.5529
  657TMC3    C8 9785   2.500   1.698  15.458 -0.5101  0.2557 -0.7332
  657TMC3    O1 9786   2.140   1.544  15.021  0.3224 -0.0680  0.4221
  657TMC3    O2 9787   2.421   1.786  15.481  0.5548 -1.0421  0.4456
  658MPD2     C 9788   3.910   2.178  14.956 -0.2802 -0.6126  0.4203
  658MPD2    C1 9789   3.810   2.131  14.872  0.3041  0.5077 -0.0052
  658MPD2    C2 9790   3.814   2.174  14.742  0.2419 -0.1327 -0.0039
  658MPD2    C3 9791   3.928   2.240  14.695 -0.7172 -0.6889  0.0698
  658MPD2    C4 9792   4.035   2.280  14.775 -0.4486  0.2258  0.1943
  658MPD2    C5 9793   4.024   2.251  14.910  0.3166 -0.1854  0.2130
  658MPD2     H 9794   3.742   2.150  14.664  0.4973  0.2287 -0.3539
  658MPD2    H1 9795   4.119   2.335  14.733 -2.2860 -0.3678 -4.2599
  658MPD2    H2 9796   3.920   2.151  15.061 -0.3080 -0.1170  0.5526
  658MPD2    H3 9797   4.105   2.274  14.978  0.2273  0.4658  0.0962
  658MPD2     N 9798   3.934   2.275  14.556  0.4859  0.6967  0.4625
  658MPD2    H5 9799   3.864   2.232  14.497  0.3748 -0.1411  1.2186
  658MPD2    N1 9800   3.708   2.039  14.927 -0.0076 -0.0752  0.0986
  658MPD2    H7 9801   3.707   2.024  15.028 -2.2205 -0.1751  0.0638
  659TMC3    C1 9802   3.489   1.928  14.933 -0.6320  0.2163  0.4031
  659TMC3    C2 9803   3.513   1.899  15.069 -0.4750  0.5915 -0.1128
  659TMC3    C3 9804   3.412   1.876  15.154 -0.4766 -0.4343  0.2337
  659TMC3    C4 9805   3.357   1.932  14.885 -0.6366 -0.6424 -0.6395
  659TMC3    C5 9806   3.255   1.912  14.976  0.1119  0.1024 -0.4145
  659TMC3    C6 9807   3.281   1.879  15.112 -0.1645  0.1454  0.5624
  659TMC3     C 9808   3.594   1.998  14.856 -0.1346  0.7503  0.8973
  659TMC3     O 9809   3.554   2.032  14.743 -0.0301  0.0134  0.6021
  659TMC3     H 9810   3.613   1.896  15.110  0.1199  1.6717 -1.4686
  659TMC3    H1 9811   3.333   1.970  14.786  1.5505 -2.1643 -1.7364
  659TMC3    H2 9812   3.208   1.866  15.190 -1.6025 -0.7338 -0.9259
  659TMC3    C7 9813   3.119   1.942  14.949  0.6949  0.3114  0.3566
  659TMC3    C8 9814   3.419   1.930  15.282 -0.4722 -0.3971  0.1126
  659TMC3    O1 9815   3.049   1.978  15.049  0.0131 -0.3334  0.4996
  659TMC3    O2 9816   3.368   2.044  15.290  0.0993 -0.1716 -0.4994
  660MPD2     C 9817   2.194   0.815  12.654  0.6148  0.8326 -0.2269
  660MPD2    C1 9818   2.160   0.685  12.612  0.2993 -0.0133  0.2096
  660MPD2    C2 9819   2.096   0.599  12.705 -0.2245  0.2569  0.2208
  660MPD2    C3 9820   2.076   0.644  12.833  0.0039 -0.1416 -0.3735
  660MPD2    C4 9821   2.101   0.778  12.866 -0.0869  0.5396 -0.7025
  660MPD2    C5 9822   2.163   0.859  12.777  0.6446  0.0932 -0.2405
  660MPD2     H 9823   2.077   0.495  12.682  2.3112 -0.9141  3.3529
  660MPD2    H1 9824   2.082   0.815  12.967  0.5033 -1.4073  0.1150
  660MPD2    H2 9825   2.238   0.881  12.581  0.0580 -2.0017 -3.1227
  660MPD2    H3 9826   2.190   0.959  12.808 -2.9383  0.7385  0.7762
  660MPD2     N 9827   2.006   0.573  12.935  0.0409  0.5479  0.7550
  660MPD2    H5 9828   1.962   0.625  13.010  1.4139  1.4853  0.9183
  660MPD2    N1 9829   2.182   0.659  12.474 -0.3555  0.1067 -0.4179
  660MPD2    H7 9830   2.220   0.733  12.417  2.0728 -1.5522 -0.9543
  661TMC3    C1 9831   2.173   0.531  12.270  1.3602  0.3203  0.2898
  661TMC3    C2 9832   2.188   0.648  12.201 -0.1210 -0.0979  0.0855
  661TMC3    C3 9833   2.197   0.642  12.063  0.0911  0.3987  0.0762
  661TMC3    C4 9834   2.147   0.417  12.207 -0.7346 -0.3807  0.4142
  661TMC3    C5 9835   2.145   0.422  12.073  0.4744 -0.5784 -0.4774
  661TMC3    C6 9836   2.179   0.525  11.998  0.0971 -0.7644 -0.7521
  661TMC3     C 9837   2.154   0.535  12.415 -0.4194  0.2641 -0.9857
  661TMC3     O 9838   2.108   0.433  12.469 -0.2422  0.0379  0.1102
  661TMC3     H 9839   2.205   0.745  12.247 -3.3630  0.9209 -0.9089
  661TMC3    H1 9840   2.112   0.331  12.261 -1.6468  0.2419  0.8148
  661TMC3    H2 9841   2.201   0.515  11.892  0.3602 -1.5111 -0.6281
  661TMC3    C7 9842   2.118   0.292  12.019 -0.3850  0.4303 -0.1618
  661TMC3    C8 9843   2.201   0.762  11.981  0.4962 -0.3448 -0.0944
  661TMC3    O1 9844   2.132   0.199  12.093  0.1083  0.5589 -0.2176
  661TMC3    O2 9845   2.228   0.752  11.860 -0.1322 -0.2098 -0.3425
  662MPD2     C 9846   1.661   1.272  16.918 -0.2221  0.1530  0.2671
  662MPD2    C1 9847   1.681   1.148  16.967 -0.4057  0.6548  0.2496
  662MPD2    C2 9848   1.658   1.108  17.097 -0.0311  0.4365  0.0959
  662MPD2    C3 9849   1.603   1.208  17.177 -0.2561 -1.3041 -0.2394
  662MPD2    C4 9850   1.577   1.334  17.129 -0.5967 -0.4018  0.0418
  662MPD2    C5 9851   1.598   1.365  16.997  0.2102  0.6760 -0.9403
  662MPD2     H 9852   1.678   1.007  17.130  0.1817  0.1491 -0.9013
  662MPD2    H1 9853   1.529   1.406  17.194  0.5628  0.1156  0.3225
  662MPD2    H2 9854   1.675   1.298  16.814 -2.1332 -0.9640 -0.2698
  662MPD2    H3 9855   1.555   1.456  16.955 -1.8366  0.6840  1.1423
  662MPD2     N 9856   1.564   1.180  17.315  0.7733 -0.5991  0.2783
  662MPD2    H5 9857   1.518   1.252  17.370 -0.4125 -0.8985 -0.3239
  662MPD2    N1 9858   1.734   1.049  16.881  0.4513 -0.2077  0.1899
  662MPD2    H7 9859   1.711   1.058  16.782  1.7450  1.2402  0.0338
  663TMC3    C1 9860   1.766   0.826  16.812  0.8852  0.9295 -0.1904
  663TMC3    C2 9861   1.694   0.715  16.856  0.2414 -0.2472 -0.2216
  663TMC3    C3 9862   1.727   0.585  16.814  0.5533  0.1775 -1.1362
  663TMC3    C4 9863   1.866   0.807  16.721 -0.2714  0.5692  0.0858
  663TMC3    C5 9864   1.901   0.681  16.685  0.6142  0.5836  0.4099
  663TMC3    C6 9865   1.840   0.570  16.733 -0.7783 -0.8161 -0.0201
  663TMC3     C 9866   1.789   0.928  16.915 -0.0339 -0.3328 -0.3311
  663TMC3     O 9867   1.827   0.897  17.025 -0.5535 -0.4992 -0.4705
  663TMC3     H 9868   1.645   0.722  16.952  1.6107 -0.1794  0.4701
  663TMC3    H1 9869   1.934   0.884  16.687 -0.8077  0.7006 -0.6949
  663TMC3    H2 9870   1.855   0.475  16.684 -0.4692 -0.7672 -0.0209
  663TMC3    C7 9871   2.010   0.665  16.598 -0.9976  0.4555 -0.5953
  663TMC3    C8 9872   1.726   0.476  16.908  0.2098 -0.3511 -0.1612
  663TMC3    O1 9873   2.037   0.746  16.513  0.4264 -0.0900 -0.4790
  663TMC3    O2 9874   1.797   0.385  16.869 -0.0067 -0.8005 -0.2417
  664MPD2     C 9875   4.591   3.712   0.278 -0.4253  0.2434  0.0596
  664MPD2    C1 9876   4.724   3.735   0.252 -0.1186  0.2588 -0.3550
  664MPD2    C2 9877   0.083   3.705   0.346  0.5907 -0.2691  0.4571
  664MPD2    C3 9878   0.048   3.680   0.480  0.3610 -0.5265 -0.6802
  664MPD2    C4 9879   4.652   3.653   0.507  0.2959 -0.3893  0.2534
  664MPD2    C5 9880   4.559   3.664   0.407  0.6314  0.0787  0.3705
  664MPD2     H 9881   0.188   3.712   0.319  0.1619  0.2309 -1.1083
  664MPD2    H1 9882   4.621   3.615   0.603  0.6511 -2.0252 -0.2743
  664MPD2    H2 9883   4.515   3.720   0.201 -2.6533  2.0572  2.4167
  664MPD2    H3 9884   4.458   3.626   0.420  0.9433 -0.7060  0.5137
  664MPD2     N 9885   0.152   3.685   0.577  0.4154  0.2225 -0.9459
  664MPD2    H5 9886   0.246   3.711   0.548  1.1359  1.0196  2.0985
  664MPD2    N1 9887   0.034   3.776   0.125  0.5439 -0.0255  0.9642
  664MPD2    H7 9888   0.133   3.773   0.105  0.6134 -0.4798  1.3765
  665TMC3    C1 9889   0.257   3.741   0.780 -0.2887 -0.4849  0.4224
  665TMC3    C2 9890   0.269   3.725   0.912 -0.1921 -0.4864 -0.5413
  665TMC3    C3 9891   0.359   3.800   0.983 -0.5222 -0.8113  0.1007
  665TMC3    C4 9892   0.354   3.812   0.712  0.0591 -0.6621 -0.4657
  665TMC3    C5 9893   0.435   3.896   0.781  0.1076 -0.0360 -0.1723
  665TMC3    C6 9894   0.441   3.888   0.920 -0.0648 -0.2949 -0.4828
  665TMC3     C 9895   0.139   3.693   0.715 -0.1430  0.7365 -0.6414
  665TMC3     O 9896   0.039   3.653   0.774 -0.0817  0.2514  0.3804
  665TMC3     H 9897   0.177   3.686   0.953 -0.3690  0.2559 -0.2260
  665TMC3    H1 9898   0.345   3.827   0.605 -0.9822  0.8081 -0.1784
  665TMC3    H2 9899   0.521   3.948   0.965  0.4922 -2.1137  0.9462
  665TMC3    C7 9900   0.503   3.999   0.714  0.5106  0.2529 -0.5532
  665TMC3    C8 9901   0.346   3.822   1.125 -0.0851  0.2330  0.1696
  665TMC3    O1 9902   0.548   3.980   0.598  0.1451 -0.2160  0.1305
  665TMC3    O2 9903   0.448   3.856   1.182 -0.2863  0.2023 -0.8096
  666TMC3    C1 9904   4.418   3.592   9.679 -0.0248 -0.1386  0.1008
  666TMC3    C2 9905   4.470   3.482   9.746 -0.5830 -0.0051  0.1672
  666TMC3    C3 9906   4.599   3.504   9.797  0.6269 -0.7262 -0.6247
  666TMC3    C4 9907   4.470   3.719   9.694 -0.2445  0.8353 -0.0719
  666TMC3    C5 9908   4.588   3.733   9.766  0.7669  0.4834 -0.8548
  666TMC3    C6 9909   4.664   3.624   9.802 -0.1817 -0.4381 -0.3926
  666TMC3     C 9910   4.285   3.578   9.631 -0.0369 -0.1510 -0.1808
  666TMC3     O 9911   4.247   3.655   9.552  0.0743 -0.1986 -0.3016
  666TMC3     H 9912   4.429   3.382   9.732 -1.1398  0.6276 -2.6014
  666TMC3    H1 9913   4.420   3.811   9.664  1.4887  1.9040  0.3007
  666TMC3    H2 9914   0.003   3.645   9.875 -1.6274 -1.0257  1.2987
  666TMC3    C7 9915   4.567   3.829   9.873 -0.5094  0.4326  0.0085
  666TMC3    C8 9916   4.665   3.391   9.858 -0.7970  0.3065  0.1362
  666TMC3    O1 9917   4.580   3.793   9.990 -0.0350 -0.7348 -0.0169
  666TMC3    O2 9918   4.597   3.293   9.878  0.1303  0.2858  0.0809
  667MPD2     C 9919   0.986   3.605  15.196  1.1721 -0.3256 -0.2259
  667MPD2    C1 9920   0.886   3.698  15.226  0.0887 -0.1377  0.0648
  667MPD2    C2 9921   0.768   3.644  15.279  0.0301  0.4637 -0.7888
  667MPD2    C3 9922   0.746   3.511  15.300  0.5446 -0.4428  0.2497
  667MPD2    C4 9923   0.851   3.424  15.272  0.9306 -0.0213 -0.3906
  667MPD2    C5 9924   0.966   3.469  15.216  0.4453  0.4941 -0.3107
  667MPD2     H 9925   0.696   3.720  15.305  0.1542  0.5407 -0.6676
  667MPD2    H1 9926   0.836   3.320  15.297  1.1766 -0.1447 -0.7635
  667MPD2    H2 9927   1.086   3.631  15.163  0.4259 -0.2119 -2.3568
  667MPD2    H3 9928   1.046   3.402  15.187 -0.0854 -1.1791  2.1226
  667MPD2     N 9929   0.615   3.458  15.318 -0.3011  0.6164  0.1529
  667MPD2    H5 9930   0.609   3.359  15.337  1.3294  0.4759  0.0150
  667MPD2    N1 9931   0.912   3.837  15.229 -1.0340  0.0888  0.0621
  667MPD2    H7 9932   0.827   3.885  15.258 -0.4165  2.1431 -1.5632
  668TMC3    C1 9933   1.034   4.037  15.225  0.0243  0.5444 -0.3820
  668TMC3    C2 9934   1.089   4.116  15.125  0.1860  0.1350  0.0156
  668TMC3    C3 9935   1.074   4.248  15.139  0.2371  0.1791 -0.2864
  668TMC3    C4 9936   0.972   4.096  15.333  0.0523 -0.5731 -0.3702
  668TMC3    C5 9937   0.941   4.231  15.327 -0.4953 -0.4721 -0.2340
  668TMC3    C6 9938   1.004   4.310  15.237  0.6620  0.8227  1.3023
  668TMC3     C 9939   1.033   3.895  15.202  0.5770 -1.0107 -0.2349
  668TMC3     O 9940   1.138   3.846  15.171 -0.1998 -0.0634  0.4515
  668TMC3     H 9941   1.114   4.070  15.030  0.1730 -1.6716  0.9016
  668TMC3    H1 9942   0.910   4.033  15.396 -0.0398 -0.6421 -0.5305
  668TMC3    H2 9943   0.980   4.415  15.230  0.5650  0.6147 -1.6087
  668TMC3    C7 9944   0.867   4.301  15.429  0.1647  0.1054  0.4097
  668TMC3    C8 9945   1.119   4.331  15.025  0.0348 -0.5683  1.3636
  668TMC3    O1 9946   0.826   4.412  15.410  0.0861 -0.2024 -0.2121
  668TMC3    O2 9947   1.064   4.436  15.005  0.1727  0.5519 -0.1803
  669TMC3    C1 9948   3.523   3.459  14.734 -0.5659 -0.3709  0.0813
  669TMC3    C2 9949   3.410   3.500  14.662 -0.0404 -0.1855 -0.0212
  669TMC3    C3 9950   3.437   3.571  14.550  0.8285 -0.2583  0.0684
  669TMC3    C4 9951   3.650   3.493  14.707 -0.4050  0.1108  1.0988
  669TMC3    C5 9952   3.669   3.570  14.590 -0.0234  1.0555  0.4999
  669TMC3    C6 9953   3.566   3.605  14.508 -0.4162  0.2426  0.3715
  669TMC3     C 9954   3.500   3.373  14.858  0.1029  0.3726  0.0686
  669TMC3     O 9955   3.390   3.371  14.904 -0.4633 -0.2741  0.4601
  669TMC3     H 9956   3.309   3.476  14.694 -0.4253  0.7036 -0.5726
  669TMC3    H1 9957   3.731   3.476  14.777 -0.5544 -0.0545  1.2294
  669TMC3    H2 9958   3.585   3.621  14.402 -0.8743  1.7970  0.5270
  669TMC3    C7 9959   3.804   3.611  14.533  0.2651  0.0128 -0.2129
  669TMC3    C8 9960   3.345   3.551  14.440  0.2937 -0.4209 -0.1962
  669TMC3    O1 9961   3.815   3.700  14.445 -0.2271 -0.4244 -0.8241
  669TMC3    O2 9962   3.279   3.447  14.463  0.1856 -0.5789  0.3660
  670MPD2     C 9963   2.221   1.264  12.807  0.0165  0.3478 -0.7213
  670MPD2    C1 9964   2.314   1.188  12.876  0.3682  0.6396  0.5627
  670MPD2    C2 9965   2.305   1.184  13.012 -0.4283 -0.3106  0.1548
  670MPD2    C3 9966   2.205   1.249  13.080 -0.1554  0.1916  0.1635
  670MPD2    C4 9967   2.113   1.319  13.010  0.8097 -0.3127  0.0813
  670MPD2    C5 9968   2.116   1.319  12.873  0.0804 -0.3194  0.0267
  670MPD2     H 9969   2.383   1.127  13.061  0.1568 -0.7039 -1.2425
  670MPD2    H1 9970   2.037   1.378  13.059  1.0168  1.4008 -1.6686
  670MPD2    H2 9971   2.220   1.280  12.700 -1.6321  1.4691 -0.5348
  670MPD2    H3 9972   2.043   1.379  12.820  0.7585  0.1736 -0.3612
  670MPD2     N 9973   2.204   1.234  13.220  0.0922 -0.1522 -0.1612
  670MPD2    H5 9974   2.286   1.190  13.260  0.7304  1.7187  0.5908
  670MPD2    N1 9975   2.428   1.119  12.823 -0.3985  0.4701 -0.4957
  670MPD2    H7 9976   2.495   1.080  12.889 -0.0054 -0.3772 -1.4008
  671TMC3    C1 9977   2.114   1.209  13.435 -0.4262  0.2240 -0.0439
  671TMC3    C2 9978   2.242   1.211  13.479  0.8781  0.1246  0.3789
  671TMC3    C3 9979   2.252   1.215  13.616  0.0896 -0.0236 -0.3097
  671TMC3    C4 9980   2.005   1.178  13.513  1.0664 -1.1478  0.2676
  671TMC3    C5 9981   2.021   1.177  13.650 -0.7726  0.4107  0.4191
  671TMC3    C6 9982   2.141   1.204  13.704 -0.4592  0.3376 -0.7377
  671TMC3     C 9983   2.091   1.247  13.295  0.1135  0.2179 -0.5967
  671TMC3     O 9984   1.979   1.283  13.263 -0.2322 -0.2678 -0.0823
  671TMC3     H 9985   2.328   1.241  13.419 -0.4953  0.2977 -1.5205
  671TMC3    H1 9986   1.909   1.173  13.464  0.2079  0.5191  1.7721
  671TMC3    H2 9987   2.146   1.226  13.810  0.2583  2.7087 -1.2722
  671TMC3    C7 9988   1.937   1.078  13.721  0.8084 -0.2345 -0.3797
  671TMC3    C8 9989   2.369   1.145  13.671 -0.4718 -0.3827  0.6167
  671TMC3    O1 9990   1.830   1.052  13.665 -0.5086 -0.2886 -0.3661
  671TMC3    O2 9991   2.404   1.061  13.590  1.1760  0.1100 -0.2366
  672MPD2     C 9992   1.694   1.396   1.130 -0.1290 -0.0249 -0.1172
  672MPD2    C1 9993   1.760   1.467   1.028  0.3082 -0.9586  0.1985
  672MPD2    C2 9994   1.846   1.575   1.067 -0.5296  0.7965  0.1114
  672MPD2    C3 9995   1.863   1.608   1.205 -0.0721  0.4036  0.9268
  672MPD2    C4 9996   1.794   1.537   1.296  0.1462  0.0920 -0.0657
  672MPD2    C5 9997   1.713   1.437   1.257  0.7643 -0.0428 -0.1960
  672MPD2     H 9998   1.890   1.637   0.991 -0.2523  2.3945  1.5783
  672MPD2    H1 9999   1.816   1.549   1.402  0.7961 -1.6209 -0.0050
  672MPD2    H210000   1.632   1.312   1.101 -1.0776  1.0397 -1.1617
  672MPD2    H310001   1.660   1.376   1.328 -0.6301  0.9019 -0.4251
  672MPD2     N10002   1.960   1.694   1.253 -0.4686 -0.2804  0.4362
  672MPD2    H510003   1.971   1.685   1.353  1.2479 -0.3988  0.2326
  672MPD2    N110004   1.747   1.443   0.893  0.1755 -0.1904  0.3827
  672MPD2    H710005   1.794   1.506   0.830  0.7564 -0.5085  0.4984
  673TMC3    C110006   1.718   1.322   0.700 -0.1764  0.6391  0.3957
  673TMC3    C210007   1.837   1.260   0.684 -0.0582 -0.1783 -0.0684
  673TMC3    C310008   1.902   1.278   0.564 -0.2538  0.6054  0.6922
  673TMC3    C410009   1.670   1.420   0.616 -0.1748 -0.0318  0.3925
  673TMC3    C510010   1.741   1.442   0.502 -0.5814  0.0808  0.3783
  673TMC3    C610011   1.856   1.372   0.475 -0.0380 -0.4018  0.0833
  673TMC3     C10012   1.681   1.334   0.839 -0.6807  0.0238  0.5136
  673TMC3     O10013   1.638   1.234   0.890 -0.4918  0.4396  0.4951
  673TMC3     H10014   1.872   1.178   0.745  1.6635  0.5492 -0.0698
  673TMC3    H110015   1.575   1.466   0.638 -0.4145 -0.4889  0.3248
  673TMC3    H210016   1.901   1.388   0.378 -0.6891 -0.7963 -0.2815
  673TMC3    C710017   1.681   1.495   0.384  0.4217 -0.0487 -0.1549
  673TMC3    C810018   2.020   1.196   0.523  0.3488 -0.1522 -0.1954
  673TMC3    O110019   1.681   1.425   0.283  0.4938  0.2321 -0.3742
  673TMC3    O210020   2.059   1.213   0.409  0.4212  0.0264  0.5098
  674MPD2     C10021   1.685   2.063  17.398 -0.1505 -0.3704  1.1781
  674MPD2    C110022   1.640   1.945  17.452 -0.0672  0.6914  1.0396
  674MPD2    C210023   1.508   1.928  17.486  0.3260  0.3401  0.2969
  674MPD2    C310024   1.421   2.037  17.476  0.4496  0.4401  0.1746
  674MPD2    C410025   1.469   2.156  17.427 -0.4655  0.4373 -0.2560
  674MPD2    C510026   1.599   2.169  17.390 -0.3334  0.6106  0.2316
  674MPD2     H10027   1.479   1.836  17.534 -1.0507  2.1811  3.0053
  674MPD2    H110028   1.413   2.248  17.420 -1.6858 -0.1815  1.5756
  674MPD2    H210029   1.787   2.078  17.364 -0.3132 -0.4361  0.6704
  674MPD2    H310030   1.634   2.265  17.355  1.6020 -0.3227 -0.3685
  674MPD2     N10031   1.295   2.010  17.540  0.6660 -0.0892  0.6169
  674MPD2    H510032   1.285   1.916  17.576 -2.2735 -0.6487 -1.7243
  674MPD2    N110033   1.740   1.853  17.471 -0.2762 -0.2910  0.3766
  674MPD2    H710034   1.836   1.885  17.458  0.1149 -1.6714 -0.1674
  675TMC3    C110035   1.818   1.640  17.569 -0.3285  0.4286 -0.4022
  675TMC3    C210036   1.776   1.506  17.573  0.0578  0.5813 -0.1856
  675TMC3    C310037   1.815   1.440  17.681  0.0958 -0.0124  0.2829
  675TMC3    C410038   1.881   1.710  17.668 -0.1596 -0.1243 -0.3691
  675TMC3    C510039   1.909   1.629   0.031  0.7147  0.2901  1.1810
  675TMC3    C610040   1.882   1.497   0.038  0.4526  0.1396  0.1562
  675TMC3     C10041   1.719   1.723  17.502 -0.2403 -0.4141 -1.1356
  675TMC3     O10042   1.615   1.667  17.477 -0.1201  0.1148 -0.0948
  675TMC3     H10043   1.709   1.461  17.501 -0.6010 -0.3948  1.0435
  675TMC3    H110044   1.896   1.817  17.657 -2.0422  0.0642 -1.2856
  675TMC3    H210045   1.924   1.429   0.111  1.9697 -0.5744 -1.3704
  675TMC3    C710046   1.945   1.687   0.164 -0.3443 -0.4623 -0.1053
  675TMC3    C810047   1.789   1.295  17.688  0.2750  0.7619  0.2883
  675TMC3    O110048   1.970   1.611   0.256 -0.2497  0.8283  0.5989
  675TMC3    O210049   1.800   1.230  17.582  0.2787 -0.1649  0.0721
  676MPD2     C10050   0.401   4.176  10.928  0.1461 -0.4001  0.0618
  676MPD2    C110051   0.370   4.090  11.033 -0.0398 -0.5269  0.2207
  676MPD2    C210052   0.392   3.952  11.016 -0.8967 -0.2597 -0.3318
  676MPD2    C310053   0.459   3.910  10.904  0.4584  1.1404  0.7887
  676MPD2    C410054   0.498   3.998  10.804 -0.6791  0.8739 -0.2092
  676MPD2    C510055   0.466   4.130  10.816  0.8477  0.3353  0.2072
  676MPD2     H10056   0.355   3.875  11.082  0.0871  0.2029  0.7753
  676MPD2    H110057   0.541   3.952  10.716  0.7724  2.5194 -0.3602
  676MPD2    H210058   0.394   4.285  10.925  0.2209 -0.3086  3.4185
  676MPD2    H310059   0.473   4.198  10.732 -3.1769 -1.6305 -1.7092
  676MPD2     N10060   0.488   3.773  10.879  0.4195  0.0253  0.4972
  676MPD2    H510061   0.506   3.750  10.782  0.5577 -2.8627  1.2216
  676MPD2    N110062   0.302   4.128  11.153 -0.2014 -0.3370  0.1319
  676MPD2    H710063   0.295   4.056  11.223  1.0221 -2.5558 -2.0197
  677TMC3    C110064   0.204   4.265  11.318 -0.1764 -0.0904 -0.3438
  677TMC3    C210065   0.120   4.165  11.361  0.2344  0.1546 -0.1753
  677TMC3    C310066   0.096   4.149  11.494  0.2846  0.4543  0.3128
  677TMC3    C410067   0.277   4.338  11.404 -0.4038  0.2256  0.7670
  677TMC3    C510068   0.256   4.315  11.541 -0.5420 -0.2339  0.9402
  677TMC3    C610069   0.161   4.226  11.582 -0.8155  0.1592 -0.0720
  677TMC3     C10070   0.262   4.254  11.186 -0.0182 -0.0415  0.1630
  677TMC3     O10071   0.250   4.349  11.106 -0.2837 -0.1185 -0.1596
  677TMC3     H10072   0.072   4.093  11.295  1.6213 -0.1426 -0.8451
  677TMC3    H110073   0.353   4.409  11.375 -0.9508 -0.0092 -1.2740
  677TMC3    H210074   0.152   4.200  11.686  2.6188 -0.4421  0.0661
  677TMC3    C710075   0.348   4.368  11.646  0.0668 -0.4789  0.5650
  677TMC3    C810076   0.036   4.023  11.532 -0.3903  0.2493 -0.0519
  677TMC3    O110077   0.314   4.329  11.755  0.1913  0.5168  0.3986
  677TMC3    O210078   4.680   3.994  11.461 -0.0711 -0.2031  0.0804
  678MPD2     C10079   1.706   0.654   1.220 -0.1281 -0.5833 -0.4619
  678MPD2    C110080   1.665   0.558   1.130 -0.1516 -0.5092 -0.8506
  678MPD2    C210081   1.530   0.544   1.103 -0.3645  0.2138  0.6870
  678MPD2    C310082   1.439   0.598   1.191 -0.4793  0.3413  0.7218
  678MPD2    C410083   1.482   0.688   1.290  0.1142 -0.8480 -0.0949
  678MPD2    C510084   1.616   0.717   1.296  0.0068 -1.0087 -0.1116
  678MPD2     H10085   1.490   0.484   1.023  1.2359  0.9548 -0.6824
  678MPD2    H110086   1.405   0.729   1.354 -0.0689 -1.8788  0.3512
  678MPD2    H210087   1.811   0.676   1.235 -0.9756  1.9730  1.6891
  678MPD2    H310088   1.646   0.788   1.373 -1.4696 -0.2894 -0.2019
  678MPD2     N10089   1.309   0.544   1.200 -0.0736  0.3157  0.0662
  678MPD2    H510090   1.274   0.499   1.116 -2.9188  2.6338  0.0265
  678MPD2    N110091   1.751   0.491   1.043  0.6113 -0.5543 -0.4130
  678MPD2    H710092   1.717   0.439   0.963  0.7110 -1.2946  0.0264
  679TMC3    C110093   2.130   0.289   0.861 -0.5406 -0.6811 -1.1320
  679TMC3    C210094   2.062   0.340   0.963  0.4254  0.3252 -0.2364
  679TMC3    C310095   1.955   0.417   0.931 -0.5658 -0.4206 -0.5927
  679TMC3    C410096   2.105   0.328   0.738 -0.5170 -0.4459  0.3005
  679TMC3    C510097   1.982   0.387   0.711 -0.2100 -0.2715  0.2276
  679TMC3    C610098   1.901   0.434   0.804  0.5737  0.1553 -1.0275
  679TMC3     C10099   2.190   0.159   0.875  0.3758  0.6359  0.0230
  679TMC3     O10100   2.286   0.140   0.801  0.1540  0.0367 -0.0611
  679TMC3     H10101   2.092   0.328   1.067 -0.0815 -1.8881 -0.3569
  679TMC3    H110102   2.168   0.298   0.655  1.2234 -0.5931  1.6561
  679TMC3    H210103   1.802   0.478   0.795  1.1024  1.6227  0.1903
  679TMC3    C710104   1.922   0.364   0.583  0.0695  0.0807 -0.7556
  679TMC3    C810105   1.887   0.482   1.052 -0.2541 -0.2615  0.0115
  679TMC3    O110106   1.822   0.434   0.569 -0.2981 -0.0022  0.9083
  679TMC3    O210107   1.953   0.496   1.156  0.0038 -0.3390 -0.9678
  680MPD2     C10108   1.680   2.866  13.607 -0.0346  0.1810  0.6443
  680MPD2    C110109   1.788   2.807  13.664  0.1587  0.5000  0.0340
  680MPD2    C210110   1.881   2.892  13.722 -0.5110  0.2078 -0.6162
  680MPD2    C310111   1.869   3.029  13.724 -0.3705  0.0216  0.0858
  680MPD2    C410112   1.749   3.087  13.675  0.4746 -1.0965  0.1681
  680MPD2    C510113   1.660   3.000  13.615 -0.3449  0.2250  0.1828
  680MPD2     H10114   1.966   2.852  13.777 -1.5576 -0.5071  0.4982
  680MPD2    H110115   1.727   3.192  13.663  1.2579 -0.9983 -0.4412
  680MPD2    H210116   1.607   2.806  13.554 -0.5807 -1.0684  2.7800
  680MPD2    H310117   1.569   3.041  13.572 -0.1288 -1.1017 -1.5230
  680MPD2     N10118   1.964   3.126  13.761 -0.6328  1.0161 -0.3828
  680MPD2    H510119   1.960   3.221  13.726  1.2681  1.2183 -0.0526
  680MPD2    N110120   1.814   2.668  13.666  0.2658  0.4123 -0.3188
  680MPD2    H710121   1.904   2.638  13.702  0.6282  1.0947 -0.6455
  681TMC3    C110122   1.775   2.438  13.650 -0.5764  0.0471  0.2976
  681TMC3    C210123   1.690   2.337  13.679  0.2954  0.4820 -0.4811
  681TMC3    C310124   1.739   2.219  13.723  0.1084  0.5136  1.3451
  681TMC3    C410125   1.908   2.411  13.634  0.4560  0.2756  0.0820
  681TMC3    C510126   1.956   2.290  13.672  0.1178 -0.9871  0.4047
  681TMC3    C610127   1.875   2.186  13.720  0.5911  0.3922 -0.1220
  681TMC3     C10128   1.721   2.571  13.628  1.0291 -0.5041  0.1621
  681TMC3     O10129   1.608   2.586  13.589  0.3338  0.4867  0.0254
  681TMC3     H10130   1.585   2.365  13.681  0.7205  2.0220  0.0456
  681TMC3    H110131   1.983   2.485  13.606  0.1666 -0.7613 -3.4210
  681TMC3    H210132   1.904   2.094  13.768  2.0110 -0.6086 -2.8973
  681TMC3    C710133   2.097   2.249  13.657  0.6975  0.2615 -0.3967
  681TMC3    C810134   1.668   2.166  13.836 -0.0636  0.1953  0.5721
  681TMC3    O110135   2.142   2.161  13.730  0.3741  0.4746  0.3307
  681TMC3    O210136   1.730   2.180  13.938 -0.2308  0.7974 -0.0976
  682MPD2     C10137   4.264   4.276  11.053  0.1718 -0.5887 -0.2169
  682MPD2    C110138   4.177   4.172  11.029 -0.3920 -0.2864 -0.2500
  682MPD2    C210139   4.122   4.094  11.131  0.3534 -0.2612 -0.2042
  682MPD2    C310140   4.167   4.125  11.263  0.7257  0.0668 -0.3500
  682MPD2    C410141   4.255   4.231  11.281 -0.6248 -0.7490  0.0195
  682MPD2    C510142   4.303   4.309  11.178  0.2079 -0.4852  0.5564
  682MPD2     H10143   4.054   4.013  11.107 -0.7845  1.2123 -1.9218
  682MPD2    H110144   4.299   4.241  11.380 -0.0125 -2.1639 -0.0974
  682MPD2    H210145   4.315   4.332  10.976  2.3616 -2.8886 -0.4547
  682MPD2    H310146   4.375   4.389  11.182 -0.3640  0.0562  0.0060
  682MPD2     N10147   4.128   4.058  11.376  0.1448 -0.3498  0.0185
  682MPD2    H510148   4.162   4.088  11.466  0.2974  0.7067 -0.3840
  682MPD2    N110149   4.139   4.132  10.897  0.2670  0.4675 -0.6120
  682MPD2    H710150   4.082   4.049  10.882  0.0098  0.8283 -1.6718
  683TMC3    C110151   4.016   3.996  11.727  0.3986 -0.4881 -0.1953
  683TMC3    C210152   4.035   3.872  11.779 -0.8318  0.3011  0.0667
  683TMC3    C310153   4.079   3.775  11.688  0.4764  0.0185  0.4530
  683TMC3    C410154   4.006   4.024  11.593  0.0491  0.2280  0.1188
  683TMC3    C510155   4.014   3.921  11.511  0.1063 -0.4573 -0.5095
  683TMC3    C610156   4.070   3.799  11.554  0.0711 -0.3292 -0.0507
  683TMC3     C10157   3.972   4.104  11.815  1.3474 -0.2067  0.9458
  683TMC3     O10158   3.987   4.218  11.765 -0.5260 -0.5552 -0.2352
  683TMC3     H10159   4.035   3.842  11.883  2.1214 -2.0123 -0.5791
  683TMC3    H110160   3.978   4.124  11.562  0.0980 -0.0535 -0.8440
  683TMC3    H210161   4.117   3.728  11.487  0.6704  0.7049 -0.7429
  683TMC3    C710162   4.047   3.953  11.373  0.0755 -0.2633 -0.0160
  683TMC3    C810163   4.175   3.679  11.734  0.1059 -0.1184  0.5379
  683TMC3    O110164   4.033   3.867  11.288  0.2372  0.0257  0.1174
  683TMC3    O210165   4.263   3.656  11.655  0.5762 -0.2859 -0.0821
  684MPD2     C10166   1.925   3.757  16.367  0.0176 -0.9936  0.3750
  684MPD2    C110167   1.859   3.784  16.246  0.2219 -0.1408 -0.2330
  684MPD2    C210168   1.865   3.896  16.175 -0.9102 -0.4640 -0.3620
  684MPD2    C310169   1.956   4.000  16.220 -0.4012 -0.4422 -0.4002
  684MPD2    C410170   2.024   3.977  16.336  0.0231 -0.3270 -0.3973
  684MPD2    C510171   2.011   3.859  16.405 -0.5022  0.1629 -0.1899
  684MPD2     H10172   1.807   3.910  16.084  1.7288  1.5490 -1.7582
  684MPD2    H110173   2.096   4.046  16.380 -2.2497  2.0959 -0.4909
  684MPD2    H210174   1.910   3.668  16.428 -1.6564 -1.2249 -0.3914
  684MPD2    H310175   2.070   3.847  16.495 -0.6527 -2.1868 -0.3978
  684MPD2     N10176   1.971   4.127  16.158 -0.0114 -0.0827  0.0892
  684MPD2    H510177   2.035   4.190  16.205  1.6393 -1.8063  0.1338
  684MPD2    N110178   1.768   3.692  16.201 -0.2370 -0.0120 -0.7922
  684MPD2    H710179   1.693   3.737  16.150 -1.2868 -1.4829 -0.5522
  685TMC3    C110180   1.673   3.479  16.150  0.0539 -0.4398  0.0006
  685TMC3    C210181   1.569   3.540  16.089  0.4843  0.0743  0.1828
  685TMC3    C310182   1.518   3.482  15.979  0.7781 -0.0580 -0.1509
  685TMC3    C410183   1.722   3.356  16.106  0.4061 -0.3345  0.9430
  685TMC3    C510184   1.684   3.307  15.985 -0.6871 -0.4887  0.0098
  685TMC3    C610185   1.573   3.368  15.928  0.3886 -0.0009 -0.8081
  685TMC3     C10186   1.775   3.557  16.221 -0.9677  0.0392  0.1192
  685TMC3     O10187   1.866   3.491  16.265  0.1149  0.2993  0.0363
  685TMC3     H10188   1.543   3.639  16.126 -0.6295 -0.0089 -0.4106
  685TMC3    H110189   1.798   3.302  16.160 -1.0316 -3.3804 -0.0711
  685TMC3    H210190   1.535   3.339  15.830  0.5708  0.5913 -1.0559
  685TMC3    C710191   1.805   3.279  15.902 -0.3578 -0.1187 -0.5906
  685TMC3    C810192   1.390   3.529  15.932  0.4549 -0.3593 -0.0879
  685TMC3    O110193   1.794   3.222  15.794 -0.0694 -0.6303  0.4258
  685TMC3    O210194   1.327   3.447  15.871  0.0306 -0.1033  0.2550
  686MPD2     C10195   2.893   4.267  15.524 -0.2522  0.2633 -0.7782
  686MPD2    C110196   2.985   4.173  15.561  0.3305 -0.4653 -0.2687
  686MPD2    C210197   3.118   4.202  15.561 -0.2859 -0.2318 -0.0832
  686MPD2    C310198   3.163   4.327  15.512  0.3890  0.5077 -0.6208
  686MPD2    C410199   3.071   4.426  15.479  0.7473 -0.1119  0.1789
  686MPD2    C510200   2.938   4.390  15.478  0.2825  0.3951 -0.3950
  686MPD2     H10201   3.195   4.133  15.595 -1.1830 -0.8599  0.6936
  686MPD2    H110202   3.088   4.530  15.455  0.5138  0.2062  1.4302
  686MPD2    H210203   2.787   4.247  15.512 -0.1293 -1.2930  0.7153
  686MPD2    H310204   2.866   4.469  15.459 -1.1758 -1.2551 -1.7279
  686MPD2     N10205   3.305   4.360  15.508 -0.7384  0.6441 -0.4061
  686MPD2    H510206   3.374   4.287  15.521 -0.3920  1.2335  1.0384
  686MPD2    N110207   2.933   4.045  15.589 -0.0530  0.1643  0.3697
  686MPD2    H710208   2.834   4.035  15.566  0.4340 -1.3488 -1.0759
  687TMC3    C110209   3.500   4.480  15.434 -1.1785 -0.0056  0.8883
  687TMC3    C210210   3.530   4.507  15.305  0.6848  0.1837  0.1678
  687TMC3    C310211   3.654   4.460  15.265 -0.8131  0.1724  0.1432
  687TMC3    C410212   3.581   4.417  15.521 -0.4639  0.4842  0.0960
  687TMC3    C510213   3.696   4.368  15.473  0.4970 -0.0043 -0.4210
  687TMC3    C610214   3.736   4.391  15.347 -0.0773 -0.0750  0.2835
  687TMC3     C10215   3.356   4.478  15.457 -0.5699 -0.3775 -0.7542
  687TMC3     O10216   3.298   4.576  15.404  0.4962 -0.7065  0.0239
  687TMC3     H10217   3.460   4.563  15.243 -0.4002 -0.0234  1.2064
  687TMC3    H110218   3.556   4.417  15.626  1.1335  0.5545  0.4774
  687TMC3    H210219   3.834   4.359  15.313  0.3109  0.5507  0.8020
  687TMC3    C710220   3.786   4.306  15.570  0.0629  0.4683 -0.1135
  687TMC3    C810221   3.661   4.426  15.130 -0.0328 -0.5962 -0.1163
  687TMC3    O110222   3.778   4.344  15.686 -0.4914 -0.2209 -0.3848
  687TMC3    O210223   3.769   4.393  15.085 -0.5584  0.2326  0.8694
  688MPD2     C10224   2.360   2.918  17.411 -1.0949 -0.5323  0.6014
  688MPD2    C110225   2.367   2.782  17.386 -0.0806 -0.0425 -0.2060
  688MPD2    C210226   2.490   2.741  17.329 -0.2103  0.3793  0.1580
  688MPD2    C310227   2.599   2.820  17.317 -0.3523  0.6311 -0.6431
  688MPD2    C410228   2.577   2.963  17.331 -0.5001 -0.6419  0.3522
  688MPD2    C510229   2.459   3.007  17.383 -0.3394 -0.4510 -0.0872
  688MPD2     H10230   2.503   2.634  17.324 -0.0107  0.3425  1.5616
  688MPD2    H110231   2.640   3.045  17.300 -0.1365 -1.7745 -1.9372
  688MPD2    H210232   2.274   2.964  17.458 -2.7861 -0.7989 -2.2167
  688MPD2    H310233   2.440   3.111  17.408 -0.7528 -0.3350 -0.8602
  688MPD2     N10234   2.723   2.776  17.264 -0.1274  0.4726 -0.1831
  688MPD2    H510235   2.794   2.846  17.280  0.3314  0.2662 -1.3152
  688MPD2    N110236   2.268   2.693  17.425 -0.5574 -0.4119  0.7115
  688MPD2    H710237   2.300   2.597  17.429 -0.0614 -0.3019 -0.7760
  689TMC3    C110238   2.083   2.605  17.537 -0.2428  0.6483 -0.1693
  689TMC3    C210239   2.002   2.647  17.639  1.7982 -0.2614 -0.6474
  689TMC3    C310240   1.990   2.564  17.745 -0.1722  0.0699 -0.5255
  689TMC3    C410241   2.145   2.482  17.535  0.3159  0.4001  0.5060
  689TMC3    C510242   2.118   2.403  17.644 -0.4115 -0.4180  0.6092
  689TMC3    C610243   2.048   2.442   0.006  0.2074  0.9993 -0.0885
  689TMC3     C10244   2.143   2.726  17.474  0.3158  0.4462 -0.1150
  689TMC3     O10245   2.082   2.833  17.465  0.4052 -0.4360  0.0110
  689TMC3     H10246   1.976   2.752  17.641 -0.3106 -0.7746 -0.6757
  689TMC3    H110247   2.189   2.437  17.447  1.5319 -1.0847  1.8492
  689TMC3    H210248   2.048   2.382   0.096 -0.3428 -2.6059 -2.5190
  689TMC3    C710249   2.151   2.259  17.646 -0.0874  0.6387 -0.2355
  689TMC3    C810250   1.997   2.628   0.127 -0.2523 -0.6779  0.3777
  689TMC3    O110251   2.172   2.218   0.011 -0.0944  0.0909 -0.3153
  689TMC3    O210252   2.081   2.583   0.207  0.1083  0.1232 -0.0565
  690MPD2     C10253   4.718   4.668  15.931  0.3507 -0.4590  1.0143
  690MPD2    C110254   4.691   4.635  15.809  0.4851 -0.1575 -0.1735
  690MPD2    C210255   0.030   4.687  15.703 -0.5830  0.4617  0.3798
  690MPD2    C310256   0.140   0.028  15.726 -0.5380  0.0752 -0.1458
  690MPD2    C410257   0.164   0.057  15.856 -0.4332 -0.2354 -0.4106
  690MPD2    C510258   0.081   0.015  15.961  0.1405  0.3652  0.0559
  690MPD2     H10259   0.001   4.673  15.599 -0.3676  1.2861  0.2124
  690MPD2    H110260   0.240   0.128  15.886  0.5553 -1.9107  1.0752
  690MPD2    H210261   4.661   4.628  16.014  0.4967 -1.2764  0.7266
  690MPD2    H310262   0.100   0.033  16.067 -1.2400  2.0673  0.0032
  690MPD2     N10263   0.214   0.085  15.612  0.5631  0.1649  0.3582
  690MPD2    H510264   0.188   0.056  15.518  1.6418 -1.2488  0.4887
  690MPD2    N110265   4.587   4.544  15.787  0.1227  0.0976  0.2728
  690MPD2    H710266   4.567   4.543  15.687  1.0530 -0.1661  0.0866
  691TMC3    C110267   4.452   4.360  15.818 -0.0448  0.0484  0.3124
  691TMC3    C210268   4.376   4.409  15.711  0.0349 -0.5775  0.4185
  691TMC3    C310269   4.312   4.315  15.633  0.3868 -0.1078 -0.0217
  691TMC3    C410270   4.451   4.225  15.851  0.1119  0.4526 -0.0216
  691TMC3    C510271   4.387   4.141  15.767  0.2400  0.5243  0.0480
  691TMC3    C610272   4.320   4.178  15.651 -0.3616  0.2785 -0.2924
  691TMC3     C10273   4.552   4.445  15.877  0.1794 -0.5104 -0.0902
  691TMC3     O10274   4.599   4.411  15.988  0.5653 -0.2254  0.0768
  691TMC3     H10275   4.372   4.515  15.690 -0.1268 -0.6847 -0.0919
  691TMC3    H110276   4.502   4.181  15.936 -0.7631  0.3824  0.4662
  691TMC3    H210277   4.258   4.114  15.588 -0.8550 -0.4578  0.9363
  691TMC3    C710278   4.428   4.003  15.775  0.5856  0.2225 -0.3980
  691TMC3    C810279   4.221   4.353  15.527  0.1697 -0.7919  0.7675
  691TMC3    O110280   4.491   3.977  15.877  0.3520 -0.2052  0.3780
  691TMC3    O210281   4.224   4.299  15.418 -0.4198 -0.5018  0.8038
  692TMC3    C110282   1.392   0.724  15.682  0.2753  0.0912  0.5266
  692TMC3    C210283   1.509   0.768  15.740 -0.7408  0.3438 -0.5314
  692TMC3    C310284   1.583   0.675  15.807  0.7947 -0.6434  0.6323
  692TMC3    C410285   1.346   0.596  15.695 -0.4633  0.1989 -0.3234
  692TMC3    C510286   1.417   0.514  15.773  0.1040  1.3317  0.2204
  692TMC3    C610287   1.545   0.545  15.819 -1.1532  0.0956  0.0154
  692TMC3     C10288   1.295   0.826  15.634  0.4249 -0.0320  0.5101
  692TMC3     O10289   1.172   0.808  15.631  0.6569 -0.0837 -0.2954
  692TMC3     H10290   1.558   0.857  15.703  2.9785 -1.3349  0.3869
  692TMC3    H110291   1.259   0.563  15.639 -1.5024  0.9022  0.8858
  692TMC3    H210292   1.577   0.482  15.901 -0.3048 -0.7887 -0.9891
  692TMC3    C710293   1.366   0.375  15.769 -0.2876 -0.4729  0.0058
  692TMC3    C810294   1.637   0.723  15.933  0.7253 -0.1595 -0.3248
  692TMC3    O110295   1.269   0.348  15.699 -0.1481 -0.1180 -0.2453
  692TMC3    O210296   1.666   0.648  16.031 -0.1787 -0.0835 -0.8483
  693MPD2     C10297   1.525   3.178  10.653  0.1431 -0.4623  0.3343
  693MPD2    C110298   1.494   3.042  10.649 -0.1926  0.4266 -0.4324
  693MPD2    C210299   1.600   2.948  10.650 -0.4556 -0.0526  0.5998
  693MPD2    C310300   1.732   2.987  10.647 -0.0394  0.7596  0.1670
  693MPD2    C410301   1.750   3.120  10.620  0.4113 -0.0682  0.0282
  693MPD2    C510302   1.651   3.218  10.629 -0.1266  0.3285 -1.1492
  693MPD2     H10303   1.585   2.841  10.652  0.5235 -0.1691  1.2980
  693MPD2    H110304   1.848   3.167  10.623  0.4805 -0.0627 -3.3660
  693MPD2    H210305   1.450   3.255  10.639  1.2159  0.2930 -1.2459
  693MPD2    H310306   1.682   3.320  10.611  1.8605 -0.1377 -0.4189
  693MPD2     N10307   1.849   2.903  10.665 -0.5302  0.1122  0.1556
  693MPD2    H510308   1.941   2.945  10.652 -0.3707 -0.1164  0.5644
  693MPD2    N110309   1.354   3.005  10.662 -0.7073  0.0258 -0.3258
  693MPD2    H710310   1.288   3.080  10.681 -0.8845  0.1417 -1.4506
  694TMC3    C110311   1.175   2.874  10.702  0.1420  0.2492 -0.2619
  694TMC3    C210312   1.098   2.798  10.625 -0.2619 -0.4527 -0.1039
  694TMC3    C310313   0.987   2.743  10.682  0.3882  0.1372  0.4725
  694TMC3    C410314   1.140   2.916  10.827 -0.1197 -0.8917 -0.1308
  694TMC3    C510315   1.028   2.864  10.887 -0.1699  0.3124 -0.0029
  694TMC3    C610316   0.950   2.780  10.810 -0.1817  0.3844 -0.3935
  694TMC3     C10317   1.312   2.877  10.666  0.0256  0.1984  0.5925
  694TMC3     O10318   1.365   2.778  10.628  0.4475  0.0236  0.2295
  694TMC3     H10319   1.134   2.782  10.524  0.0232 -1.6765  0.1904
  694TMC3    H110320   1.203   2.991  10.872  2.9427 -1.8590 -2.7945
  694TMC3    H210321   0.854   2.739  10.838  0.4146  0.3370  1.5421
  694TMC3    C710322   0.994   2.905  11.020 -0.0949  0.1281 -0.7598
  694TMC3    C810323   0.919   2.636  10.609 -0.7108  0.5717  0.4988
  694TMC3    O110324   1.038   3.007  11.073 -0.0749 -0.5290  0.3319
  694TMC3    O210325   0.831   2.579  10.670  0.2032  0.1967 -0.1408
  695MPD2     C10326   2.116   0.129  13.464 -0.2838  0.1070  0.1882
  695MPD2    C110327   2.121   0.219  13.569 -0.1748 -0.0405 -0.1134
  695MPD2    C210328   2.002   0.272  13.607 -0.1319  1.0417  0.1153
  695MPD2    C310329   1.884   0.244  13.544  0.1436 -0.0068 -0.3505
  695MPD2    C410330   1.879   0.156  13.439  0.4681  0.9069 -0.1836
  695MPD2    C510331   1.996   0.089  13.414  0.0744 -0.2397  0.4097
  695MPD2     H10332   2.001   0.343  13.688 -0.9560  1.9952 -0.7301
  695MPD2    H110333   1.788   0.111  13.402  3.1095 -0.6717 -4.7951
  695MPD2    H210334   2.201   0.065  13.440  0.0425  0.5950  0.0409
  695MPD2    H310335   1.983   0.011  13.341  1.7467  0.8812 -1.0869
  695MPD2     N10336   1.765   0.304  13.594  0.2380 -0.8329  0.2484
  695MPD2    H510337   1.776   0.377  13.664  0.3615 -0.2246 -0.3980
  695MPD2    N110338   2.246   0.257  13.628  0.2297 -0.2127 -0.2919
  695MPD2    H710339   2.235   0.313  13.711 -0.5055  1.1035 -1.2670
  696TMC3    C110340   1.552   0.389  13.620 -0.7798  0.1613  0.9142
  696TMC3    C210341   1.594   0.443  13.737  0.3064 -0.4281  0.6967
  696TMC3    C310342   1.529   0.544  13.793  0.0182  0.3817  0.4663
  696TMC3    C410343   1.447   0.434  13.551 -0.7020 -0.2587  0.1622
  696TMC3    C510344   1.384   0.540  13.607 -0.1415 -0.0734  0.0539
  696TMC3    C610345   1.422   0.599  13.727  0.1421  0.2227 -0.6499
  696TMC3     C10346   1.634   0.294  13.548 -0.9776 -0.2333  0.0699
  696TMC3     O10347   1.586   0.218  13.465 -0.7324 -0.3230 -0.5444
  696TMC3     H10348   1.669   0.397  13.801 -1.3737 -1.0868  2.1790
  696TMC3    H110349   1.420   0.392  13.454 -0.0105  1.7464 -0.9005
  696TMC3    H210350   1.368   0.684  13.767 -0.2885 -0.9326  1.2500
  696TMC3    C710351   1.356   0.642  13.501 -0.5114  0.0242 -0.3530
  696TMC3    C810352   1.614   0.649  13.837 -0.1302 -0.2583 -0.3639
  696TMC3    O110353   1.259   0.630  13.424 -0.0647  0.4057 -0.0775
  696TMC3    O210354   1.575   0.764  13.811 -0.2137  0.1503  0.0863
  697MPD2     C10355   1.348   2.291  15.637 -0.6907  0.6446  0.1751
  697MPD2    C110356   1.414   2.265  15.518 -0.2268 -0.0587 -0.1381
  697MPD2    C210357   1.422   2.364  15.425  0.4705 -0.1799  0.5305
  697MPD2    C310358   1.368   2.492  15.447  0.2086 -0.3294 -0.0766
  697MPD2    C410359   1.300   2.518  15.562 -0.6705  0.3017 -0.1886
  697MPD2    C510360   1.291   2.417  15.656  0.6415  0.2203 -0.7628
  697MPD2     H10361   1.471   2.343  15.331  2.7714 -1.9381  2.1131
  697MPD2    H110362   1.251   2.613  15.578  0.8122  1.1997 -1.0073
  697MPD2    H210363   1.319   2.211  15.704 -0.7395  0.8563  0.4078
  697MPD2    H310364   1.232   2.430  15.746  3.1244 -3.1218  1.3654
  697MPD2     N10365   1.376   2.588  15.339  0.6486 -0.0327 -0.1473
  697MPD2    H510366   1.429   2.554  15.260  0.3685 -0.3099 -0.2152
  697MPD2    N110367   1.459   2.134  15.491 -0.0797  0.1341 -0.5891
  697MPD2    H710368   1.447   2.067  15.566  3.8469  1.5872  1.3476
  698TMC3    C110369   1.350   2.780  15.209  0.1879  0.1020 -0.1918
  698TMC3    C210370   1.412   2.904  15.218  0.4849  0.0828  0.8390
  698TMC3    C310371   1.491   2.945  15.117 -0.1571 -0.3334 -0.1221
  698TMC3    C410372   1.376   2.697  15.101  0.1079  0.0701  0.1409
  698TMC3    C510373   1.453   2.753  14.996  0.2641  0.0367 -0.3687
  698TMC3    C610374   1.508   2.876  15.001  1.2177  0.6574 -0.1191
  698TMC3     C10375   1.337   2.721  15.339  0.4657  0.0378  0.3262
  698TMC3     O10376   1.296   2.790  15.432 -0.1192 -0.3006  0.0540
  698TMC3     H10377   1.399   2.967  15.305 -1.7437 -1.1452  1.3789
  698TMC3    H110378   1.317   2.607  15.084 -1.1833  0.8712  0.3443
  698TMC3    H210379   1.568   2.912  14.918  0.8195 -1.6971 -1.4275
  698TMC3    C710380   1.433   2.676  14.870  0.5705  0.2383  0.2677
  698TMC3    C810381   1.531   3.084  15.126 -0.4687 -0.4186  0.4054
  698TMC3    O110382   1.337   2.598  14.854  0.4661  0.2317 -0.9054
  698TMC3    O210383   1.462   3.151  15.200 -0.2836  0.0957 -0.3932
  699TMC3    C110384   1.877   0.393  13.033  0.4770 -0.1571 -0.1739
  699TMC3    C210385   1.850   0.261  13.052  0.5656  0.2634 -0.1228
  699TMC3    C310386   1.724   0.216  13.076 -0.0528  0.4017  1.0835
  699TMC3    C410387   1.764   0.483  13.039 -0.3463 -0.0665  0.2633
  699TMC3    C510388   1.634   0.432  13.071  0.3243 -0.0779  0.6669
  699TMC3    C610389   1.615   0.299  13.079 -0.8000  0.3407 -0.3855
  699TMC3     C10390   1.990   0.437  12.947 -0.3693  0.3436  0.0600
  699TMC3     O10391   2.029   0.350  12.869 -0.0244 -0.0313  0.2244
  699TMC3     H10392   1.934   0.193  13.051 -1.4014 -2.1756  1.6169
  699TMC3    H110393   1.769   0.584  13.000 -0.0746 -0.9247 -1.9123
  699TMC3    H210394   1.517   0.260  13.103 -0.9943  0.4545 -0.9998
  699TMC3    C710395   1.520   0.523  13.075  0.3196 -0.4608  0.3130
  699TMC3    C810396   1.709   0.083  13.125  0.0896 -0.2893 -0.6643
  699TMC3    O110397   1.533   0.642  13.109  0.4572 -0.2760 -0.3013
  699TMC3    O210398   1.602   0.072  13.187  0.6736  0.3670  0.1349
  700TMC3    C110399   0.812   3.651  17.090  0.9560 -0.1808  0.2431
  700TMC3    C210400   0.814   3.514  17.072 -0.3625 -0.5049  0.7172
  700TMC3    C310401   0.917   3.438  17.125 -0.0056  0.1835  0.0655
  700TMC3    C410402   0.914   3.709  17.166 -0.2267  0.5554 -0.1967
  700TMC3    C510403   1.019   3.630  17.205  0.0577  0.3570  0.1402
  700TMC3    C610404   1.024   3.491  17.185 -0.4266  0.2786  0.2702
  700TMC3     C10405   0.768   3.729  16.978  0.7526 -0.6619 -0.2412
  700TMC3     O10406   0.680   3.685  16.902 -0.5756  0.2192  0.6154
  700TMC3     H10407   0.735   3.478  17.006 -0.0535 -1.0731  0.6530
  700TMC3    H110408   0.894   3.809  17.204  0.3113  0.7769 -0.4952
  700TMC3    H210409   1.098   3.429  17.235  0.7408  0.1155 -1.6552
  700TMC3    C710410   1.136   3.701  17.250 -0.2437  0.1951 -0.0528
  700TMC3    C810411   0.911   3.296  17.107  0.6722  0.3319 -0.5100
  700TMC3    O110412   1.107   3.819  17.275 -0.2415  0.1145  0.8886
  700TMC3    O210413   1.015   3.236  17.118  0.4657  0.7028  0.3892
  701TMC3    C110414   0.324   2.186  15.218  0.4613 -0.7477 -0.0868
  701TMC3    C210415   0.304   2.175  15.084 -0.4264 -0.3178  0.1341
  701TMC3    C310416   0.415   2.186  15.003  0.4935  0.0712  0.0452
  701TMC3    C410417   0.443   2.209  15.275  0.0402  0.2939  0.0164
  701TMC3    C510418   0.549   2.224  15.191 -0.1142 -0.3451 -0.1318
  701TMC3    C610419   0.539   2.222  15.052  0.4209 -0.2736 -0.1228
  701TMC3     C10420   0.204   2.213  15.295 -0.4134  0.1474  0.0519
  701TMC3     O10421   0.109   2.252  15.232 -0.7573 -0.4898  0.0454
  701TMC3     H10422   0.204   2.166  15.045 -0.8514  0.3463  1.0784
  701TMC3    H110423   0.451   2.229  15.381 -2.4111  0.0791  0.2320
  701TMC3    H210424   0.625   2.231  14.987  0.8647 -0.1058  0.4918
  701TMC3    C710425   0.665   2.283  15.253  0.6681  0.3591 -0.6338
  701TMC3    C810426   0.388   2.174  14.863 -0.3119  0.0876  0.2214
  701TMC3    O110427   0.729   2.369  15.196  0.0981 -0.0446 -0.0920
  701TMC3    O210428   0.475   2.224  14.793  0.1269 -0.0705 -0.1630
  702MPD2     C10429   0.823   3.357  10.423  0.1255  0.0017 -0.2878
  702MPD2    C110430   0.767   3.476  10.463  0.6057 -0.2659  0.6337
  702MPD2    C210431   0.806   3.590  10.400  1.0283  0.3958 -0.6609
  702MPD2    C310432   0.909   3.594  10.305  0.3207 -0.5044 -0.1373
  702MPD2    C410433   0.974   3.473  10.276 -0.1052  0.0631  0.2960
  702MPD2    C510434   0.922   3.364  10.338 -0.0898 -0.0292 -0.8322
  702MPD2     H10435   0.750   3.673  10.441 -1.1296 -2.0596  1.3568
  702MPD2    H110436   1.060   3.465  10.211 -0.7715  0.1598 -0.5941
  702MPD2    H210437   0.796   3.262  10.467 -0.1852  0.6864  0.9889
  702MPD2    H310438   0.973   3.270  10.320 -0.5603  0.0182 -2.3774
  702MPD2     N10439   0.965   3.714  10.266 -0.3883  0.1206  0.0184
  702MPD2    H510440   0.910   3.795  10.292 -0.8293 -0.6166  1.3401
  702MPD2    N110441   0.670   3.479  10.573 -0.8397 -0.1716 -0.3390
  702MPD2    H710442   0.621   3.565  10.594 -3.7984 -1.7972 -0.5167
  703TMC3    C110443   1.133   3.864  10.195  0.0926 -0.1660  0.3977
  703TMC3    C210444   1.040   3.962  10.185  0.4244  0.1607 -0.2915
  703TMC3    C310445   1.083   4.087  10.148  0.1031  0.3150 -0.5610
  703TMC3    C410446   1.269   3.889  10.161  0.0510 -0.1071  0.0802
  703TMC3    C510447   1.301   4.018  10.136 -0.2137  0.6654  0.2483
  703TMC3    C610448   1.215   4.121  10.136  0.3132 -1.1836 -0.0179
  703TMC3     C10449   1.093   3.729  10.209  0.4225  0.1197  0.2321
  703TMC3     O10450   1.177   3.648  10.180 -0.2746 -0.1707  0.2040
  703TMC3     H10451   0.941   3.943  10.224 -0.0049  0.4012 -1.2647
  703TMC3    H110452   1.348   3.816  10.176 -0.2364 -0.2972  0.6453
  703TMC3    H210453   1.256   4.220  10.115  0.5392 -1.0628  1.0267
  703TMC3    C710454   1.434   4.045  10.078 -0.3498  0.5036  0.6761
  703TMC3    C810455   0.982   4.187  10.117  0.4086 -0.3878 -0.5713
  703TMC3    O110456   1.497   4.147  10.113  0.1075  0.5612  0.3084
  703TMC3    O210457   1.017   4.284  10.052 -0.0376 -0.1157 -0.4447
  704TMC3    C110458   3.054   1.869  12.619 -0.4834  0.8771  0.1578
  704TMC3    C210459   3.172   1.929  12.580 -0.1715  0.4372  0.6320
  704TMC3    C310460   3.299   1.863  12.615  0.1827  0.0626  0.2707
  704TMC3    C410461   3.045   1.757  12.695  0.0518  0.6216  0.9304
  704TMC3    C510462   3.161   1.687  12.713  0.3458 -1.0578 -1.4946
  704TMC3    C610463   3.283   1.737  12.677  0.3631  0.3255 -0.0091
  704TMC3     C10464   2.930   1.896  12.547  0.4676  0.8079  0.1789
  704TMC3     O10465   2.825   1.856  12.593 -0.1067 -0.1135  0.3461
  704TMC3     H10466   3.168   2.020  12.521 -1.6256  0.4383  0.7375
  704TMC3    H110467   2.950   1.738  12.744 -1.4243  1.3213 -1.6711
  704TMC3    H210468   3.361   1.664  12.693  0.5599  0.3473 -0.8907
  704TMC3    C710469   3.150   1.546  12.676 -0.9252 -1.1478  0.4404
  704TMC3    C810470   3.403   1.890  12.510  0.2090  0.7332 -0.0692
  704TMC3    O110471   3.241   1.491  12.616 -0.0130  0.2309  0.3632
  704TMC3    O210472   3.372   1.979  12.434  0.1028 -0.0057  0.3635
  705MPD2     C10473   1.691   0.398  16.460 -0.2480 -0.0334  0.4980
  705MPD2    C110474   1.668   0.514  16.382 -0.0428 -0.3033 -0.0984
  705MPD2    C210475   1.560   0.593  16.402 -0.2390  0.3574 -0.1087
  705MPD2    C310476   1.464   0.548  16.490  0.3585  0.2281 -0.4222
  705MPD2    C410477   1.483   0.432  16.570  0.1487 -0.4659  0.0385
  705MPD2    C510478   1.603   0.359  16.558  0.6465  0.4657 -0.4157
  705MPD2     H10479   1.525   0.676  16.342 -0.0917  0.7366  0.3228
  705MPD2    H110480   1.412   0.399  16.645  0.5842 -0.3741  0.4938
  705MPD2    H210481   1.783   0.341  16.451 -0.1838  0.2583 -0.5878
  705MPD2    H310482   1.624   0.275  16.624  0.4986  1.1491  0.5076
  705MPD2     N10483   1.348   0.624  16.503 -0.3319 -0.1052  0.1794
  705MPD2    H510484   1.276   0.584  16.562 -2.7359  2.0120 -1.3332
  705MPD2    N110485   1.763   0.538  16.279  0.9282  0.4007 -0.3683
  705MPD2    H710486   1.748   0.611  16.210  1.6581  2.1340  1.2953
  706TMC3    C110487   2.150   0.535  16.004  0.1340  0.0833  0.0337
  706TMC3    C210488   2.143   0.662  15.969 -0.0650 -0.0729 -0.3703
  706TMC3    C310489   2.029   0.724  16.012 -1.3021 -0.5114 -0.3828
  706TMC3    C410490   2.066   0.476  16.096  0.2207  0.5794 -0.2314
  706TMC3    C510491   1.956   0.538  16.144  0.1851 -1.0262 -0.8080
  706TMC3    C610492   1.943   0.675  16.110  0.9026 -0.3536 -0.2646
  706TMC3     C10493   2.206   0.448  15.893  1.0763 -0.0800  0.2654
  706TMC3     O10494   2.295   0.490  15.822  0.4667 -0.7797  0.0730
  706TMC3     H10495   2.204   0.716  15.898  1.3847  0.9042  1.6172
  706TMC3    H110496   2.093   0.377  16.132 -0.3275  0.2760 -0.6684
  706TMC3    H210497   1.865   0.738  16.153  0.9161 -0.8771  0.5354
  706TMC3    C710498   1.888   0.474  16.256  0.2738 -0.1958  0.3193
  706TMC3    C810499   2.016   0.853  15.951  0.0010 -0.6091 -0.2874
  706TMC3    O110500   1.943   0.372  16.295 -0.3609  0.1270 -0.1647
  706TMC3    O210501   2.069   0.871  15.842 -0.7901 -0.4729  0.2292
  707TMC3    C110502   0.092   0.219   1.876  0.0484  0.4971 -0.0617
  707TMC3    C210503   0.169   0.168   1.977  0.4229  0.3397  0.5915
  707TMC3    C310504   0.119   0.167   2.104 -0.6721 -0.5919 -0.1755
  707TMC3    C410505   4.709   0.275   1.898  0.1525  0.2754 -0.3401
  707TMC3    C510506   4.663   0.270   2.028 -0.0129  0.4573  0.2704
  707TMC3    C610507   4.735   0.231   2.133 -0.1563  0.1976  0.6297
  707TMC3     C10508   0.113   0.143   1.751 -0.5836 -0.1482  0.6791
  707TMC3     O10509   0.201   0.058   1.754  0.4071 -0.5065 -0.1944
  707TMC3     H10510   0.267   0.126   1.961 -0.8263 -3.0380  1.8494
  707TMC3    H110511   4.656   0.329   1.820  0.1586  1.0323  0.1722
  707TMC3    H210512   4.684   0.222   2.227  0.0700 -1.2239  0.6231
  707TMC3    C710513   4.575   0.379   2.065 -0.0497 -0.2076  0.2958
  707TMC3    C810514   0.186   0.097   2.208  0.0573 -0.4833 -0.1932
  707TMC3    O110515   4.595   0.444   2.171 -0.4276 -0.2204  0.4540
  707TMC3    O210516   0.190   0.153   2.318 -0.1329  0.2501  0.0694
  708MPD2     C10517   0.715   2.889  14.560 -0.1741 -0.0276  0.2913
  708MPD2    C110518   0.593   2.945  14.579  0.0516 -0.4518  0.3490
  708MPD2    C210519   0.572   3.037  14.677 -1.2033 -0.4157  0.6139
  708MPD2    C310520   0.680   3.089  14.738 -0.9301 -0.2782  0.5136
  708MPD2    C410521   0.805   3.031  14.732  0.2683  0.6172  0.1732
  708MPD2    C510522   0.818   2.928  14.640  0.8229 -0.3811  0.0955
  708MPD2     H10523   0.471   3.065  14.703 -0.7282 -0.4324  2.5178
  708MPD2    H110524   0.886   3.052  14.801 -0.3191  1.8215  0.4879
  708MPD2    H210525   0.729   2.796  14.505  0.3975 -0.0446  0.4641
  708MPD2    H310526   0.906   2.865  14.639  0.7699 -0.4448 -0.5238
  708MPD2     N10527   0.649   3.193  14.827  0.2001 -0.0843 -0.3552
  708MPD2    H510528   0.550   3.216  14.829 -0.2980 -2.2247  0.0323
  708MPD2    N110529   0.492   2.901  14.483  0.6279  0.8347 -0.4343
  708MPD2    H710530   0.518   2.834  14.412  0.5962 -0.9964  1.2812
  709TMC3    C110531   0.277   2.907  14.365  0.1529  0.2978  0.6312
  709TMC3    C210532   0.353   2.882  14.257 -0.3451 -0.4350  0.2528
  709TMC3    C310533   0.320   2.925  14.131 -0.2453 -0.1947 -0.6001
  709TMC3    C410534   0.170   2.983  14.349  0.3442  0.7195  0.5158
  709TMC3    C510535   0.144   3.042  14.233  0.5834 -0.1989 -0.0306
  709TMC3    C610536   0.217   3.016  14.123  0.8175 -0.2126  0.1162
  709TMC3     C10537   0.360   2.949  14.481 -0.0588 -0.4971  0.1434
  709TMC3     O10538   0.293   3.011  14.564 -0.2176 -0.0849 -0.1932
  709TMC3     H10539   0.420   2.797  14.251 -0.8700 -0.8110 -0.2908
  709TMC3    H110540   0.087   2.996  14.417  1.2837  0.7430  1.6533
  709TMC3    H210541   0.158   3.040  14.035  0.9443  3.4093  1.0139
  709TMC3    C710542   0.151   3.186  14.244  0.0912  0.5290 -0.2882
  709TMC3    C810543   0.325   2.823  14.022  0.0754 -0.6811  1.1102
  709TMC3    O110544   0.153   3.266  14.151  0.1635  0.1788 -0.0211
  709TMC3    O210545   0.298   2.708  14.058 -0.1152 -0.1941 -0.4450
  710TMC3    C110546   1.266   0.523   0.070  0.2157 -0.5994  0.1658
  710TMC3    C210547   1.275   0.498  17.681  0.1608 -0.8814 -0.1746
  710TMC3    C310548   1.392   0.443  17.640 -0.1707  0.9566 -0.6274
  710TMC3    C410549   1.351   0.464   0.158 -0.4977 -0.5235 -0.1382
  710TMC3    C510550   1.471   0.414   0.110  0.2475  0.5938 -0.2212
  710TMC3    C610551   1.490   0.403  17.725 -0.1184 -0.1751 -0.7643
  710TMC3     C10552   1.132   0.540   0.122 -0.2312  0.1924  1.0642
  710TMC3     O10553   1.043   0.520   0.041  0.4198  0.0625  0.1898
  710TMC3     H10554   1.196   0.514  17.609  1.3849  1.5939 -0.9768
  710TMC3    H110555   1.335   0.455   0.265  2.0396 -0.0019  0.2974
  710TMC3    H210556   1.591   0.376  17.696  0.6345  2.6938 -0.8037
  710TMC3    C710557   1.563   0.366   0.206 -0.1656  0.1607  0.0373
  710TMC3    C810558   1.423   0.445  17.496  0.6499  0.5226  0.3216
  710TMC3    O110559   1.568   0.428   0.311 -0.0172  0.9556 -0.7890
  710TMC3    O210560   1.385   0.536  17.430  0.3679  0.0104  0.2568
  711TMC3    C110561   1.517   0.854  14.503 -0.1359 -0.1514 -0.3717
  711TMC3    C210562   1.440   0.958  14.534  0.8366 -0.2387  0.0136
  711TMC3    C310563   1.503   1.078  14.567  0.2187  0.1120 -0.0866
  711TMC3    C410564   1.655   0.863  14.513  0.1210 -0.3232  0.3776
  711TMC3    C510565   1.714   0.985  14.525 -0.7532 -0.5070 -0.3186
  711TMC3    C610566   1.638   1.095  14.562  0.0269 -0.2551  0.1112
  711TMC3     C10567   1.453   0.733  14.491  0.5394 -0.0029 -0.5426
  711TMC3     O10568   1.351   0.734  14.423  0.2212  0.0905  0.1438
  711TMC3     H10569   1.335   0.943  14.556  0.6960  1.8297  0.7923
  711TMC3    H110570   1.707   0.770  14.492 -0.5593 -0.6067 -0.0740
  711TMC3    H210571   1.679   1.189  14.595  0.5721 -0.5531  0.2762
  711TMC3    C710572   1.833   0.975  14.607 -0.5349 -0.0886 -0.5534
  711TMC3    C810573   1.434   1.142  14.673 -0.3885 -0.6905 -0.1233
  711TMC3    O110574   1.845   0.864  14.658  0.3107  0.1544 -0.0085
  711TMC3    O210575   1.315   1.161  14.659 -0.0699 -0.0024  0.8611
  712MPD2     C10576   2.701   1.798  13.827  0.5351 -0.1642 -0.2394
  712MPD2    C110577   2.611   1.897  13.855 -0.4381 -0.3886 -0.1966
  712MPD2    C210578   2.662   2.023  13.888  0.4665  0.5484  0.4231
  712MPD2    C310579   2.796   2.053  13.906  1.0107  0.8396 -0.4445
  712MPD2    C410580   2.879   1.953  13.876  0.1224 -0.4464 -0.1194
  712MPD2    C510581   2.838   1.825  13.844 -0.4725 -0.1351  0.6972
  712MPD2     H10582   2.588   2.101  13.904  1.1990  0.9069  1.9789
  712MPD2    H110583   2.985   1.970  13.885  0.1577 -1.8063  2.0637
  712MPD2    H210584   2.667   1.697  13.806 -0.6300  0.7750 -2.8691
  712MPD2    H310585   2.907   1.744  13.825  0.0500  1.3628 -3.9965
  712MPD2     N10586   2.845   2.184  13.937  0.2644  0.1250  0.0677
  712MPD2    H510587   2.946   2.188  13.944  0.3242 -0.3429 -0.4898
  712MPD2    N110588   2.478   1.889  13.853 -0.4939  0.6104  0.6729
  712MPD2    H710589   2.426   1.976  13.854 -3.2115 -0.9920 -1.5375
  713TMC3    C110590   2.840   2.412  14.017 -0.4949  1.0843 -0.0001
  713TMC3    C210591   2.971   2.402  14.046  0.0611 -0.4298  0.1578
  713TMC3    C310592   3.026   2.505  14.114 -0.0635  0.1926 -0.3936
  713TMC3    C410593   2.761   2.512  14.072  0.8969 -0.6622  0.1816
  713TMC3    C510594   2.831   2.621  14.115 -0.1542  0.0602  0.0756
  713TMC3    C610595   2.958   2.620  14.151 -0.0603 -0.4251  0.6386
  713TMC3     C10596   2.765   2.295  13.962  0.3240 -0.2209  0.5156
  713TMC3     O10597   2.645   2.303  13.991 -0.6607 -0.0317  0.4508
  713TMC3     H10598   3.035   2.331  13.994  0.8380  1.3829 -1.3477
  713TMC3    H110599   2.655   2.514  14.046  1.4055  0.3701 -1.7327
  713TMC3    H210600   3.012   2.711  14.175 -0.3955  0.0203 -0.2770
  713TMC3    C710601   2.768   2.750  14.092 -0.3460  0.9985 -0.2001
  713TMC3    C810602   3.173   2.527  14.096  0.5180 -0.3255  0.2909
  713TMC3    O110603   2.831   2.846  14.142  0.0632 -0.3018  0.0795
  713TMC3    O210604   3.212   2.642  14.089 -0.0547  0.0535 -0.6754
  714MPD2     C10605   0.179   1.457   1.612 -0.2165 -0.0169  0.2511
  714MPD2    C110606   0.177   1.367   1.507 -0.3447 -0.7530 -0.0191
  714MPD2    C210607   0.094   1.390   1.392  0.2127  0.4166 -0.9589
  714MPD2    C310608   0.009   1.497   1.391 -0.0990  0.4660 -0.0590
  714MPD2    C410609   0.008   1.585   1.497 -0.3095 -0.2629  0.7170
  714MPD2    C510610   0.086   1.559   1.604  0.3429  0.4014  0.0299
  714MPD2     H10611   0.096   1.313   1.315 -1.1896 -2.2325  1.6802
  714MPD2    H110612   4.681   1.672   1.507 -3.1855 -2.0682 -1.9914
  714MPD2    H210613   0.235   1.456   1.705 -3.1540  0.7253  2.0207
  714MPD2    H310614   0.078   1.625   1.689  1.2252  0.5235  0.0191
  714MPD2     N10615   4.663   1.518   1.281  0.1449  0.1666  0.5499
  714MPD2    H510616   4.660   1.444   1.212 -2.3673  1.0428 -0.2856
  714MPD2    N110617   0.288   1.276   1.497 -0.2980  0.1245  0.2621
  714MPD2    H710618   0.362   1.266   1.565  0.9829 -0.6505 -1.2659
  715TMC3    C110619   0.464   1.163   1.391 -0.6234 -0.4378 -0.0245
  715TMC3    C210620   0.503   1.067   1.302  0.4217  0.1580 -0.1056
  715TMC3    C310621   0.642   1.039   1.298  0.5760 -0.3838 -0.0916
  715TMC3    C410622   0.552   1.224   1.470 -0.4838  0.2581  0.1159
  715TMC3    C510623   0.677   1.170   1.487  0.4020  0.8076  0.1984
  715TMC3    C610624   0.728   1.085   1.390  0.5344  0.3394 -0.3511
  715TMC3     C10625   0.325   1.206   1.387 -0.1130 -0.3553  0.4566
  715TMC3     O10626   0.263   1.157   1.293 -0.1081  0.5803  0.5492
  715TMC3     H10627   0.443   1.035   1.218  0.1632 -2.1618  0.9844
  715TMC3    H110628   0.527   1.314   1.525 -2.3495  0.1746 -0.6099
  715TMC3    H210629   0.829   1.047   1.398  1.1944  2.0902 -0.4779
  715TMC3    C710630   0.775   1.252   1.552 -0.2815  0.6986 -0.1433
  715TMC3    C810631   0.691   0.942   1.199  0.7728  0.0739  0.3864
  715TMC3    O110632   0.885   1.254   1.495  0.2309  0.2464  0.1511
  715TMC3    O210633   0.603   0.903   1.117  0.2857  0.2362  0.0129
  716MPD2     C10634   0.273   3.489  10.224 -0.5977  0.4868 -0.2000
  716MPD2    C110635   0.343   3.568  10.131  0.0264 -0.1478  0.1962
  716MPD2    C210636   0.467   3.527  10.093  0.2801  0.3867 -0.2107
  716MPD2    C310637   0.525   3.416  10.151  0.2928  0.5546  0.2448
  716MPD2    C410638   0.457   3.343  10.249 -1.0771  0.5144 -0.0181
  716MPD2    C510639   0.332   3.386  10.289 -0.1721  0.3725  0.0121
  716MPD2     H10640   0.520   3.586  10.019  1.6287 -1.8215 -1.0072
  716MPD2    H110641   0.504   3.255  10.292 -0.2037  1.1299  0.2722
  716MPD2    H210642   0.174   3.527  10.248 -0.6710  0.5914 -0.6626
  716MPD2    H310643   0.289   3.332  10.372 -0.3369  1.0926  0.3967
  716MPD2     N10644   0.644   3.376  10.091  0.2485  0.2910  0.2849
  716MPD2    H510645   0.696   3.454  10.052 -1.5805  1.5923  0.4328
  716MPD2    N110646   0.278   3.683  10.073  0.3797  0.0862  0.3405
  716MPD2    H710647   0.189   3.706  10.115  1.0573 -0.6462  2.1694
  717TMC3    C110648   0.798   3.242   9.982 -0.2859 -0.0575  0.6520
  717TMC3    C210649   0.769   3.317   9.874  0.0185  0.7620  0.4463
  717TMC3    C310650   0.767   3.254   9.750 -0.3506 -0.0316  0.8931
  717TMC3    C410651   0.842   3.114   9.976  0.1800  0.2729 -0.1121
  717TMC3    C510652   0.830   3.054   9.853 -0.0545 -0.5878 -0.3507
  717TMC3    C610653   0.798   3.122   9.740 -0.3899 -0.1923  0.4663
  717TMC3     C10654   0.696   3.247  10.082 -0.1025  0.1733  0.4146
  717TMC3     O10655   0.651   3.142  10.121 -0.1083 -0.2067 -0.3134
  717TMC3     H10656   0.728   3.417   9.878  0.4951  0.9757  0.0025
  717TMC3    H110657   0.858   3.056  10.066 -1.9004  1.4337  0.9961
  717TMC3    H210658   0.788   3.078   9.641  0.6278 -0.3960  0.4554
  717TMC3    C710659   0.815   2.914   9.862 -0.0878 -0.6129  0.0159
  717TMC3    C810660   0.697   3.328   9.642 -0.3746 -0.4190 -0.5651
  717TMC3    O110661   0.848   2.855   9.961 -0.4409  0.2438  0.0361
  717TMC3    O210662   0.632   3.426   9.682  0.0544 -0.0006 -0.1310
  718MPD2     C10663   4.494   1.957  13.087  0.1146  0.0513 -0.6473
  718MPD2    C110664   4.423   2.075  13.075  0.4051 -0.7689 -0.0022
  718MPD2    C210665   4.286   2.076  13.071  0.0437  0.5892 -0.2109
  718MPD2    C310666   4.218   1.961  13.079  0.7091 -0.5670  0.1061
  718MPD2    C410667   4.286   1.844  13.114 -0.1221 -0.6534 -0.0498
  718MPD2    C510668   4.421   1.844  13.104 -0.5481 -0.5899  0.0205
  718MPD2     H10669   4.230   2.167  13.053  0.0761  1.1280  2.3036
  718MPD2    H110670   4.241   1.746  13.123  0.1828 -0.9230 -1.4883
  718MPD2    H210671   4.602   1.954  13.096  0.1987 -0.6429 -1.9790
  718MPD2    H310672   4.474   1.750  13.107  1.3626  0.4385 -1.2161
  718MPD2     N10673   4.082   1.977  13.052  0.1603 -0.2396 -0.3187
  718MPD2    H510674   4.060   2.071  13.023  2.0197  0.3170  0.0895
  718MPD2    N110675   4.486   2.197  13.077  0.4282 -0.2994 -0.4021
  718MPD2    H710676   4.423   2.276  13.067  0.4839 -0.3589 -1.1856
  719TMC3    C110677   4.625   2.355  12.987 -0.1638 -0.6406 -0.5466
  719TMC3    C210678   4.542   2.448  13.042  0.1820  0.3941 -1.0488
  719TMC3    C310679   4.484   2.539  12.956  0.4477  0.1750  0.1901
  719TMC3    C410680   4.674   2.360  12.861  0.4608 -0.1263 -0.4212
  719TMC3    C510681   4.616   2.446  12.779 -0.6359 -0.3665  0.5395
  719TMC3    C610682   4.527   2.534  12.830 -0.6254  0.4507 -0.1377
  719TMC3     C10683   4.616   2.226  13.039 -0.0631 -0.3701  0.5886
  719TMC3     O10684   4.705   2.142  13.011  0.1777  0.1971  0.3777
  719TMC3     H10685   4.520   2.450  13.148 -0.5068  0.8122 -1.2011
  719TMC3    H110686   0.015   2.296  12.823 -0.1569 -2.2575  1.8517
  719TMC3    H210687   4.486   2.600  12.755 -2.6921  0.2670  0.8484
  719TMC3    C710688   4.652   2.458  12.637  0.1592 -0.2264  0.6499
  719TMC3    C810689   4.342   2.516  12.970  0.1044 -0.0934  0.2540
  719TMC3    O110690   4.627   2.565  12.576  0.5311  0.1104  0.3429
  719TMC3    O210691   4.311   2.425  13.046  0.4824 -0.6290 -0.2914
  720MPD2     C10692   2.501   3.787  13.135 -0.6334  0.6134  0.2324
  720MPD2    C110693   2.516   3.916  13.137  0.2688  0.5324  0.4016
  720MPD2    C210694   2.621   3.974  13.205 -0.1355  0.0365 -0.0213
  720MPD2    C310695   2.701   3.895  13.294 -0.1096 -0.7147 -0.9164
  720MPD2    C410696   2.670   3.761  13.309 -0.5668  0.1168  0.2183
  720MPD2    C510697   2.568   3.711  13.229 -0.6146  0.1185  0.0685
  720MPD2     H10698   2.629   4.081  13.196 -2.9618  0.5482  3.3686
  720MPD2    H110699   2.715   3.699  13.385 -0.9375 -1.9761 -1.2737
  720MPD2    H210700   2.427   3.735  13.075  2.0970 -1.1094 -1.6227
  720MPD2    H310701   2.545   3.607  13.249  2.0446 -0.4237  0.3423
  720MPD2     N10702   2.798   3.965  13.367 -0.4568  0.5172 -0.1589
  720MPD2    H510703   2.796   4.066  13.366 -2.5935  0.4395 -2.3813
  720MPD2    N110704   2.443   4.001  13.046  0.4552  0.5728 -0.3967
  720MPD2    H710705   2.474   4.097  13.039 -0.1463  0.8096  0.1395
  721TMC3    C110706   2.975   4.018  13.509  0.9919  0.1299 -0.0445
  721TMC3    C210707   2.906   4.117  13.574 -0.6651  0.0783 -0.9045
  721TMC3    C310708   2.962   4.196  13.663  0.2242  0.0475 -0.1790
  721TMC3    C410709   3.103   3.990  13.544 -0.1793 -0.1813  0.1024
  721TMC3    C510710   3.166   4.075  13.632  0.8157 -0.1544 -0.3265
  721TMC3    C610711   3.095   4.176  13.695  0.3510 -0.8407  0.2192
  721TMC3     C10712   2.896   3.914  13.444  0.4475  0.2879 -0.3921
  721TMC3     O10713   2.926   3.798  13.461  0.2420 -0.3799 -0.2558
  721TMC3     H10714   2.799   4.129  13.556 -0.5044  0.5995 -1.5217
  721TMC3    H110715   3.154   3.904  13.504 -0.7137  0.3804 -1.7765
  721TMC3    H210716   3.143   4.244  13.766 -0.0539  0.2484 -0.5477
  721TMC3    C710717   3.291   4.046  13.701  0.2453 -1.2610  0.1715
  721TMC3    C810718   2.883   4.307  13.725  0.1836  0.0435  0.1951
  721TMC3    O110719   3.373   3.982  13.635 -0.2451  0.5795  0.0710
  721TMC3    O210720   2.806   4.375  13.657 -0.0182  0.5938  0.5569
  722MPD2     C10721   1.810   2.421  13.201 -0.1446  0.5512  0.9161
  722MPD2    C110722   1.764   2.543  13.243 -0.0732 -0.3778  0.2428
  722MPD2    C210723   1.628   2.575  13.215 -0.1549 -0.6657  0.1948
  722MPD2    C310724   1.542   2.493  13.143 -0.5384  0.4515 -0.9366
  722MPD2    C410725   1.597   2.377  13.098  1.1682  0.2374  0.2360
  722MPD2    C510726   1.723   2.341  13.127 -0.2510 -0.5139 -1.3535
  722MPD2     H10727   1.586   2.671  13.241  2.0225  0.5939 -0.9334
  722MPD2    H110728   1.545   2.301  13.041  2.1881 -1.4410  1.5121
  722MPD2    H210729   1.912   2.387  13.206  0.6741  2.8254 -0.4928
  722MPD2    H310730   1.762   2.250  13.083 -0.9193 -0.5270 -1.9141
  722MPD2     N10731   1.403   2.521  13.136  0.0587  0.3354 -0.3810
  722MPD2    H510732   1.363   2.596  13.191 -1.7841  0.0849 -1.3894
  722MPD2    N110733   1.846   2.643  13.304  0.0709  0.7695 -0.2051
  722MPD2    H710734   1.800   2.733  13.309 -1.0659  0.1175  1.0504
  723TMC3    C110735   1.174   2.454  13.129  0.0011 -0.9770 -0.6676
  723TMC3    C210736   1.090   2.347  13.115  1.4090 -0.2854 -0.0760
  723TMC3    C310737   0.967   2.353  13.171  0.4648 -0.0589 -0.4301
  723TMC3    C410738   1.142   2.567  13.211  0.1387  0.6174 -0.2189
  723TMC3    C510739   1.019   2.559  13.273  0.1602  0.7966  0.0468
  723TMC3    C610740   0.928   2.455  13.253 -0.7748  0.7007 -0.1795
  723TMC3     C10741   1.308   2.434  13.082 -0.2100  0.1595  0.5981
  723TMC3     O10742   1.328   2.342  13.002 -0.5183 -0.3948  0.5429
  723TMC3     H10743   1.131   2.253  13.081  1.8120 -0.7950  1.7978
  723TMC3    H110744   1.197   2.656  13.237 -0.7718  1.4880 -1.2969
  723TMC3    H210745   0.824   2.459  13.280 -1.3422  0.8454 -2.3924
  723TMC3    C710746   0.972   2.669  13.363 -0.2332  0.2199  0.0018
  723TMC3    C810747   0.873   2.244  13.141  0.1688 -0.1428 -0.5817
  723TMC3    O110748   1.020   2.777  13.335 -0.3461  0.1843 -0.3585
  723TMC3    O210749   0.773   2.225  13.210  0.0975 -0.2544  0.0327
  724TMC3    C110750   2.326   0.791   9.918  0.7342  0.2163  0.8473
  724TMC3    C210751   2.247   0.849   9.820  0.9467 -0.2869 -0.6110
  724TMC3    C310752   2.293   0.973   9.780  0.2850 -0.1006  0.7571
  724TMC3    C410753   2.445   0.842   9.966  0.0864 -0.0840 -0.3707
  724TMC3    C510754   2.476   0.970   9.939 -0.3090  0.6070  0.5889
  724TMC3    C610755   2.400   1.038   9.845  0.7578  0.4353 -0.1992
  724TMC3     C10756   2.277   0.666   9.965  0.4442 -0.4899 -0.0147
  724TMC3     O10757   2.164   0.637   9.928  0.3712 -0.0098  0.9232
  724TMC3     H10758   2.177   0.796   9.756  0.2394 -0.2664  0.1414
  724TMC3    H110759   2.489   0.797  10.054  2.3279  1.9676 -0.4246
  724TMC3    H210760   2.429   1.141   9.828  1.8909  0.5160  2.2011
  724TMC3    C710761   2.554   1.060  10.034  0.5930 -0.3101 -0.0652
  724TMC3    C810762   2.217   1.045   9.685 -0.4236 -0.1399  0.2944
  724TMC3    O110763   2.551   1.180  10.018 -0.3135 -0.2168  0.9130
  724TMC3    O210764   2.125   0.980   9.638  0.1869 -0.1970  0.2735
  725TMC3    C110765   3.126   0.168  12.912  0.3275 -0.0985  0.5744
  725TMC3    C210766   3.147   0.128  12.785  0.8230 -0.0260 -0.8021
  725TMC3    C310767   3.075   0.027  12.729  0.9366  0.1971  0.0661
  725TMC3    C410768   3.032   0.114  12.992 -0.2540  0.7623 -0.1620
  725TMC3    C510769   2.970   0.002  12.939  0.2616 -0.7668 -0.4426
  725TMC3    C610770   2.987   4.695  12.814  0.1602  0.1917  0.4517
  725TMC3     C10771   3.255   0.184  12.974 -0.5129 -0.9221 -0.2565
  725TMC3     O10772   3.351   0.230  12.914  0.5856  0.6820 -0.0847
  725TMC3     H10773   3.212   0.188  12.722  1.6091 -2.4924 -2.3760
  725TMC3    H110774   3.013   0.148  13.093  0.3553 -2.5927  1.0765
  725TMC3    H210775   2.923   4.620  12.770  2.1337 -1.0014 -0.3930
  725TMC3    C710776   2.956   4.632  13.040  0.0159 -0.4161 -0.2645
  725TMC3    C810777   3.123   4.691  12.618 -0.2785 -0.6817  0.7001
  725TMC3    O110778   2.954   4.665  13.160  0.7180 -0.7727  0.1820
  725TMC3    O210779   3.098   4.571  12.628  0.2209 -0.5487 -0.2716
  726MPD2     C10780   1.867   0.990  10.366  0.3192 -0.1736  0.3905
  726MPD2    C110781   1.764   1.085  10.367 -0.1009 -0.7532 -0.9159
  726MPD2    C210782   1.634   1.037  10.388 -0.4111 -0.4688 -0.3992
  726MPD2    C310783   1.612   0.904  10.418  0.1905 -0.1416 -0.2128
  726MPD2    C410784   1.720   0.809  10.416  0.1709  1.1841  0.3625
  726MPD2    C510785   1.850   0.861  10.405  0.0332  0.1707  0.1452
  726MPD2     H10786   1.562   1.118  10.378  0.0861  0.0938  0.4880
  726MPD2    H110787   1.703   0.702  10.427  1.0716  0.8492 -1.4106
  726MPD2    H210788   1.967   1.029  10.358  0.6109 -0.7264  1.3762
  726MPD2    H310789   1.927   0.786  10.407 -0.3589 -0.3985 -4.5457
  726MPD2     N10790   1.486   0.862  10.453  0.6013 -0.1361  0.4183
  726MPD2    H510791   1.479   0.764  10.476  0.3531 -0.5790 -1.5188
  726MPD2    N110792   1.780   1.226  10.332 -0.1716 -0.1581 -0.1425
  726MPD2    H710793   1.694   1.277  10.314  1.5133  1.4996 -3.3425
  727TMC3    C110794   1.891   1.437  10.287 -0.1977 -0.3088 -0.1749
  727TMC3    C210795   1.982   1.531  10.330 -0.6591  0.0458 -0.4687
  727TMC3    C310796   1.964   1.662  10.308  0.1127 -0.7737  0.1913
  727TMC3    C410797   1.780   1.469  10.214 -0.3471  0.5719  0.0657
  727TMC3    C510798   1.773   1.601  10.175 -0.2576 -0.2050 -0.2333
  727TMC3    C610799   1.861   1.702  10.230 -0.5193 -0.5221  0.8744
  727TMC3     C10800   1.904   1.294  10.328  0.1078  0.0297 -0.2083
  727TMC3     O10801   2.014   1.258  10.370  0.2746  0.2217  0.2133
  727TMC3     H10802   2.067   1.494  10.387 -0.5239 -0.8867 -1.2637
  727TMC3    H110803   1.712   1.402  10.162  0.3953 -1.1031  1.2656
  727TMC3    H210804   1.824   1.804  10.223  2.6368  0.6443  1.4134
  727TMC3    C710805   1.655   1.661  10.118  0.1338 -0.5016 -0.6264
  727TMC3    C810806   2.040   1.752  10.397 -0.5571 -0.1059 -0.0587
  727TMC3    O110807   1.653   1.781  10.102  0.0883  0.0860  0.4846
  727TMC3    O210808   2.093   1.701  10.495  0.2421  0.3722  0.0574
  728TMC3    C110809   0.420   0.167  15.518  0.1695  0.2618  0.2093
  728TMC3    C210810   0.490   0.286  15.516  0.1857 -0.7774 -1.1611
  728TMC3    C310811   0.536   0.344  15.400 -0.1740  0.2351  0.2518
  728TMC3    C410812   0.381   0.108  15.403 -0.2043  0.1175  1.0375
  728TMC3    C510813   0.431   0.163  15.292 -0.3618 -0.3859 -0.0378
  728TMC3    C610814   0.498   0.286  15.287  0.0083 -0.8057  0.7148
  728TMC3     C10815   0.332   0.156  15.632 -0.1911  0.0294 -0.7065
  728TMC3     O10816   0.381   0.202  15.733  0.2152 -0.7552  0.5091
  728TMC3     H10817   0.493   0.352  15.602 -1.5275 -1.2364 -0.7514
  728TMC3    H110818   0.318   0.020  15.407 -1.0448  0.7000  0.6207
  728TMC3    H210819   0.501   0.333  15.189 -0.8660  0.6023  1.3536
  728TMC3    C710820   0.367   0.132  15.169 -0.2222 -0.7797  0.6011
  728TMC3    C810821   0.590   0.480  15.404 -0.8589  0.1691 -0.0616
  728TMC3    O110822   0.256   0.083  15.171 -0.3049 -0.1566  0.2802
  728TMC3    O210823   0.603   0.519  15.522  0.6469  0.3895  0.6223
  729MPD2     C10824   2.634   1.111  16.800 -0.2801 -0.1760  0.0007
  729MPD2    C110825   2.726   1.092  16.899  0.2392 -0.0426 -1.0199
  729MPD2    C210826   2.687   1.095  17.035  0.3173 -0.4518 -0.4690
  729MPD2    C310827   2.552   1.120  17.063  0.3120  0.4410  0.1281
  729MPD2    C410828   2.458   1.138  16.964 -0.8969 -0.3174 -0.0963
  729MPD2    C510829   2.503   1.129  16.839 -0.7132 -0.1524  0.1195
  729MPD2     H10830   2.757   1.086  17.117 -1.0329 -2.4554  0.4760
  729MPD2    H110831   2.356   1.169  16.980 -1.0962 -0.4644 -1.1116
  729MPD2    H210832   2.659   1.104  16.695 -0.7513 -0.7350 -0.0773
  729MPD2    H310833   2.433   1.153  16.759 -1.6094  0.3548  1.0571
  729MPD2     N10834   2.506   1.148  17.198  0.1792  0.4511 -0.1109
  729MPD2    H510835   2.413   1.189  17.203  0.7399  1.7562 -0.1870
  729MPD2    N110836   2.860   1.082  16.859  0.4189 -0.1171  0.2798
  729MPD2    H710837   2.877   1.093  16.760  0.2331 -1.9066  0.0512
  730TMC3    C110838   2.515   1.171  17.436  0.4421 -0.4774 -0.1937
  730TMC3    C210839   2.566   1.122  17.552 -0.0097  0.8813 -0.4257
  730TMC3    C310840   2.559   1.203  17.665  0.4773 -0.0145  0.8944
  730TMC3    C410841   2.472   1.304  17.429 -0.1628 -0.0325  0.1271
  730TMC3    C510842   2.493   1.391  17.528 -0.2702  0.0019 -0.0137
  730TMC3    C610843   2.529   1.334  17.650  0.0425  0.1322 -0.4510
  730TMC3     C10844   2.572   1.114  17.312 -0.6943  0.0986  0.1870
  730TMC3     O10845   2.669   1.041  17.329  0.2188  0.7020 -0.0493
  730TMC3     H10846   2.583   1.015  17.550  0.6820  1.0029 -0.8966
  730TMC3    H110847   2.444   1.343  17.332 -2.2838 -2.1391 -0.1110
  730TMC3    H210848   2.551   1.395  17.737  0.0575  0.1593 -0.4737
  730TMC3    C710849   2.525   1.528  17.488  0.3281 -0.1758  0.3438
  730TMC3    C810850   2.673   1.181   0.004 -0.2153  0.0165 -0.4960
  730TMC3    O110851   2.580   1.539  17.379 -0.0218 -0.2818  0.0583
  730TMC3    O210852   2.687   1.241   0.105  0.0696  0.2862  0.0679
  731MPD2     C10853   3.255   4.220  12.047  0.2091  0.3065 -1.3693
  731MPD2    C110854   3.240   4.091  12.002 -0.0823  0.1599 -0.1927
  731MPD2    C210855   3.122   4.020  12.015  0.5592  0.3814  0.1519
  731MPD2    C310856   3.021   4.073  12.081 -0.0587  0.4107  0.1292
  731MPD2    C410857   3.021   4.212  12.121  0.6492 -0.0589 -0.1771
  731MPD2    C510858   3.148   4.279  12.108 -0.4524  0.5308 -0.5354
  731MPD2     H10859   3.118   3.916  11.983 -3.7455  0.1808  1.4391
  731MPD2    H110860   2.940   4.259  12.176  0.8166  0.4707 -0.3903
  731MPD2    H210861   3.345   4.277  12.027  1.2575 -0.8893 -0.0588
  731MPD2    H310862   3.162   4.379  12.147 -1.7998  0.5844 -0.2025
  731MPD2     N10863   2.907   3.991  12.096 -0.0051  0.4808  0.2162
  731MPD2    H510864   2.912   3.910  12.035 -0.5417  0.6939 -0.1159
  731MPD2    N110865   3.353   4.036  11.927 -0.5732  0.4243 -0.6881
  731MPD2    H710866   3.437   4.093  11.936  0.2977 -0.7030 -1.7001
  732TMC3    C110867   3.463   3.902  11.783 -0.9124 -0.1751  0.0448
  732TMC3    C210868   3.466   3.843  11.663  0.1507 -0.2697 -0.4214
  732TMC3    C310869   3.577   3.763  11.634 -0.3042  0.6778 -0.5895
  732TMC3    C410870   3.566   3.883  11.874 -0.6970  0.3601 -0.1991
  732TMC3    C510871   3.670   3.798  11.844  0.0322  0.1575  0.2936
  732TMC3    C610872   3.677   3.734  11.726 -1.2203 -0.2688 -1.0842
  732TMC3     C10873   3.334   3.949  11.823  0.4104  0.3508 -0.2484
  732TMC3     O10874   3.237   3.887  11.783  0.6190 -0.2385 -0.0091
  732TMC3     H10875   3.393   3.857  11.584 -2.8690  1.8636  2.7434
  732TMC3    H110876   3.568   3.938  11.967  0.3430 -1.5808  0.9474
  732TMC3    H210877   3.748   3.655  11.705 -0.1605 -0.2565  2.3955
  732TMC3    C710878   3.763   3.744  11.947 -0.4846  0.0408 -0.4329
  732TMC3    C810879   3.548   3.647  11.550 -0.1259 -0.4767 -0.2014
  732TMC3    O110880   3.854   3.668  11.920  0.0410  0.0244 -0.3584
  732TMC3    O210881   3.635   3.571  11.509  1.0199 -0.3774  0.4682
  733TMC3    C110882   3.677   1.901  12.851 -0.3286 -0.1140 -0.3184
  733TMC3    C210883   3.779   1.851  12.918 -0.2790 -0.2638 -0.8132
  733TMC3    C310884   3.861   1.939  12.990  0.1164 -0.2490 -0.2043
  733TMC3    C410885   3.657   2.035  12.834 -0.1514  0.1448  0.3110
  733TMC3    C510886   3.743   2.112  12.907 -0.3579  0.4198 -0.1855
  733TMC3    C610887   3.847   2.072  12.985 -0.0310 -0.3215  0.5142
  733TMC3     C10888   3.553   1.824  12.853  0.5021 -0.5498 -0.7602
  733TMC3     O10889   3.568   1.708  12.829 -0.1187 -0.2547  0.4414
  733TMC3     H10890   3.794   1.745  12.932  1.9765 -0.0343 -1.3809
  733TMC3    H110891   3.579   2.077  12.773 -0.9965 -2.2895 -0.2773
  733TMC3    H210892   3.888   2.137  13.062  0.0031  0.5040 -0.2080
  733TMC3    C710893   3.764   2.247  12.852  0.0831 -0.8225 -0.2054
  733TMC3    C810894   3.989   1.881  13.034 -0.1167 -0.6700 -0.6931
  733TMC3    O110895   3.704   2.269  12.750 -0.2972  0.4856 -0.2459
  733TMC3    O210896   4.005   1.762  13.023 -0.9490  0.4853  0.1545
  734MPD2     C10897   1.634   4.083  11.941  0.2588 -0.3171  0.0821
  734MPD2    C110898   1.514   4.088  11.872 -0.6282  0.1103 -0.1041
  734MPD2    C210899   1.500   4.164  11.758  0.1263  0.0016  0.0306
  734MPD2    C310900   1.608   4.230  11.707 -0.2103  0.1504 -0.0785
  734MPD2    C410901   1.731   4.211  11.762  0.3701 -0.1316 -0.2523
  734MPD2    C510902   1.740   4.149  11.884 -0.7260 -0.6543  0.1252
  734MPD2     H10903   1.403   4.178  11.712  0.0466 -0.2391  0.1278
  734MPD2    H110904   1.821   4.261  11.729  0.1934  0.8856  0.8055
  734MPD2    H210905   1.646   4.036  12.038  2.6297  2.3673  1.0861
  734MPD2    H310906   1.836   4.136  11.931 -0.9013  0.0458  0.6802
  734MPD2     N10907   1.580   4.318  11.601 -0.1043  0.4849 -0.3326
  734MPD2    H510908   1.483   4.318  11.573  0.1027 -1.2504 -1.0349
  734MPD2    N110909   1.403   4.021  11.934  0.3366 -0.0330 -0.1602
  734MPD2    H710910   1.427   3.969  12.017  1.3872  0.1611 -0.3386
  735TMC3    C110911   1.179   3.923  11.936  0.4645 -0.8760 -0.7196
  735TMC3    C210912   1.072   3.924  11.852 -0.0996 -0.2981  0.4596
  735TMC3    C310913   1.052   3.814  11.768 -0.0875  0.1483  0.4165
  735TMC3    C410914   1.244   3.801  11.958 -0.6048  0.2204  0.4114
  735TMC3    C510915   1.225   3.696  11.872 -0.3209  0.3918  0.3749
  735TMC3    C610916   1.122   3.701  11.782  0.6505 -0.4891  0.2779
  735TMC3     C10917   1.272   4.033  11.895  0.4172 -0.3672 -0.7277
  735TMC3     O10918   1.226   4.115  11.818  0.2630  0.3168 -0.0275
  735TMC3     H10919   1.017   4.017  11.840  0.1816 -0.0440  1.1715
  735TMC3    H110920   1.328   3.798  12.027 -0.7823  0.1991  0.6296
  735TMC3    H210921   1.100   3.620  11.714  1.0486 -0.4023  0.0434
  735TMC3    C710922   1.346   3.632  11.839  0.3954  0.4516 -0.0125
  735TMC3    C810923   1.020   3.848  11.630  0.1266 -0.3558  0.3762
  735TMC3    O110924   1.439   3.705  11.858 -0.1963  0.2830 -0.0738
  735TMC3    O210925   0.980   3.762  11.554 -0.3443  0.6106 -0.1612
  736MPD2     C10926   1.409   3.299  11.680 -0.5448  0.2928  0.7507
  736MPD2    C110927   1.434   3.421  11.742 -0.2033  0.3413  0.2307
  736MPD2    C210928   1.561   3.462  11.767  0.2208 -0.2455  0.3911
  736MPD2    C310929   1.672   3.392  11.735  1.1993  0.2987 -0.4379
  736MPD2    C410930   1.644   3.269  11.670  0.0006 -0.7114 -0.5785
  736MPD2    C510931   1.520   3.232  11.636 -0.3998  0.0110 -0.4316
  736MPD2     H10932   1.582   3.554  11.822  1.3534 -0.4103  0.2301
  736MPD2    H110933   1.723   3.197  11.655  1.4454  0.9710 -1.1280
  736MPD2    H210934   1.309   3.262  11.663 -1.2682  1.4132  2.6345
  736MPD2    H310935   1.505   3.140  11.580  2.8826 -0.5901 -0.3310
  736MPD2     N10936   1.805   3.421  11.769  0.8637 -0.3704  0.1782
  736MPD2    H510937   1.880   3.355  11.748  0.4038 -1.0907  0.8439
  736MPD2    N110938   1.326   3.503  11.789 -0.7610 -0.3826  0.0206
  736MPD2    H710939   1.228   3.474  11.789 -0.5675 -1.0362 -2.8190
  737TMC3    C110940   1.984   3.578  11.801  0.5265  0.5343  0.5151
  737TMC3    C210941   2.017   3.712  11.807 -0.5817 -0.1507 -0.1353
  737TMC3    C310942   2.123   3.762  11.730  0.0835 -0.0596 -0.3191
  737TMC3    C410943   2.069   3.485  11.743 -0.1529  0.2950  0.2728
  737TMC3    C510944   2.183   3.533  11.684  0.1931  0.3299 -0.6572
  737TMC3    C610945   2.200   3.671  11.658 -0.0821 -0.5441  0.2161
  737TMC3     C10946   1.848   3.540  11.835  0.8479  0.1880 -0.3646
  737TMC3     O10947   1.776   3.611  11.903  0.3989  0.5665  0.3470
  737TMC3     H10948   1.939   3.777  11.843 -0.7439 -0.2641 -0.2854
  737TMC3    H110949   2.049   3.379  11.752  0.9234  0.0418 -0.2924
  737TMC3    H210950   2.262   3.699  11.574 -1.8986  0.4945 -0.7918
  737TMC3    C710951   2.286   3.444  11.631 -0.0245  0.4727 -0.9497
  737TMC3    C810952   2.095   3.899  11.661  0.0677  0.3271 -0.4066
  737TMC3    O110953   2.265   3.324  11.645  0.2189  0.3890 -0.3436
  737TMC3    O210954   1.994   3.962  11.693 -0.1493 -0.0476 -0.1357
  738MPD2     C10955   1.673   3.352  15.161  0.4736  0.6124  0.2319
  738MPD2    C110956   1.713   3.241  15.089  0.4240  0.4592 -0.2641
  738MPD2    C210957   1.844   3.250  15.046  0.3860 -0.3777 -0.2731
  738MPD2    C310958   1.933   3.356  15.062  0.4181  0.1109 -0.0062
  738MPD2    C410959   1.884   3.460  15.139  0.5108  0.2334 -0.1224
  738MPD2    C510960   1.753   3.457  15.177  0.7710  0.4652 -0.1819
  738MPD2     H10961   1.881   3.156  15.006  1.0988 -0.2987  0.1995
  738MPD2    H110962   1.948   3.541  15.173  0.3143  1.2076 -2.0435
  738MPD2    H210963   1.583   3.346  15.222 -0.3876 -0.6533 -1.1524
  738MPD2    H310964   1.722   3.534  15.246  2.1904  0.6721  0.2151
  738MPD2     N10965   2.068   3.363  15.016  0.0192  1.0137  0.4123
  738MPD2    H510966   2.123   3.444  15.043  3.2065 -0.4257 -1.9234
  738MPD2    N110967   1.649   3.120  15.067  0.6197  0.3489 -0.2808
  738MPD2    H710968   1.703   3.051  15.017  0.0316 -0.0983 -0.3008
  739TMC3    C110969   2.264   3.298  14.920 -0.6553  0.3518  0.8456
  739TMC3    C210970   2.295   3.285  14.791 -0.4403 -0.7000  0.1009
  739TMC3    C310971   2.424   3.321  14.759 -0.4457 -0.2216  0.5364
  739TMC3    C410972   2.345   3.351  15.015  0.0337 -0.2663  0.4308
  739TMC3    C510973   2.468   3.390  14.975  0.2262 -0.1252 -0.2362
  739TMC3    C610974   2.512   3.368  14.852  0.1112 -0.1452 -0.1395
  739TMC3     C10975   2.131   3.257  14.953  0.6846 -0.5083 -0.3221
  739TMC3     O10976   2.082   3.164  14.888  0.5922  0.2328  0.2115
  739TMC3     H10977   2.219   3.247  14.724 -2.2660  1.4712  0.9251
  739TMC3    H110978   2.311   3.372  15.116  0.2469 -0.8236  0.6194
  739TMC3    H210979   2.617   3.380  14.828  0.6971  0.6133  2.7379
  739TMC3    C710980   2.556   3.436  15.086 -0.5258  0.7790 -0.3931
  739TMC3    C810981   2.454   3.344  14.621  0.4756 -1.1926  0.0906
  739TMC3    O110982   2.513   3.432  15.199 -0.3110 -0.5154 -0.3732
  739TMC3    O210983   2.394   3.265  14.547  0.7126 -0.2439  0.2551
  740TMC3    C110984   2.113   4.487  14.163  0.1247  0.1917  0.5112
  740TMC3    C210985   2.198   4.476  14.270 -0.6003  0.1244  0.3107
  740TMC3    C310986   2.333   4.449  14.244 -0.1373  0.5440 -0.7193
  740TMC3    C410987   2.151   4.480  14.034  0.1636 -0.2111  1.2457
  740TMC3    C510988   2.287   4.470  14.013 -0.2959  0.0681 -0.0452
  740TMC3    C610989   2.375   4.456  14.115  0.0986  0.4921 -1.0681
  740TMC3     C10990   1.981   4.553  14.185  0.0509 -0.0268  0.1804
  740TMC3     O10991   1.950   4.646  14.113 -0.5023  0.0855 -0.5908
  740TMC3     H10992   2.154   4.480  14.369 -1.8285  0.6895 -0.2720
  740TMC3    H110993   2.080   4.488  13.952 -0.7477 -1.5812  1.9022
  740TMC3    H210994   2.476   4.427  14.088  0.4270  1.5371 -0.9692
  740TMC3    C710995   2.316   4.401  13.892 -0.2547 -0.6042 -0.1878
  740TMC3    C810996   2.413   4.508  14.351 -0.0771  0.5456  0.2584
  740TMC3    O110997   2.360   4.286  13.894  0.1583  0.0476 -0.1549
  740TMC3    O210998   2.501   4.439  14.401 -0.7757  0.2873  0.5881
  741TMC3    C110999   2.096   3.476  14.303  0.3170 -0.8311  0.6719
  741TMC3    C211000   1.983   3.400  14.268 -0.3628  0.3349 -0.7248
  741TMC3    C311001   1.887   3.383  14.370 -0.3482 -0.3025  0.4655
  741TMC3    C411002   2.114   3.529  14.433 -0.1696  0.4928  0.1273
  741TMC3    C511003   2.021   3.501  14.524  0.3790  0.3324  0.2344
  741TMC3    C611004   1.907   3.426  14.499 -0.2578  0.5928 -0.0759
  741TMC3     C11005   2.142   3.548  14.189 -0.4843  0.3201 -0.0978
  741TMC3     O11006   2.101   3.506  14.084 -0.0840  0.3527  0.4721
  741TMC3     H11007   1.960   3.362  14.170 -1.5916 -2.2749  0.5610
  741TMC3    H111008   2.200   3.589  14.462 -0.7170  0.2699  2.2354
  741TMC3    H211009   1.843   3.387  14.577 -0.3531 -1.1940 -1.0292
  741TMC3    C711010   2.030   3.578  14.649  0.2342  1.0218  0.7232
  741TMC3    C811011   1.764   3.323  14.334 -0.0866  0.4899 -0.2209
  741TMC3    O111012   2.142   3.599  14.695 -0.0266 -0.2704 -0.4049
  741TMC3    O211013   1.666   3.364  14.397  0.0329 -0.1934 -0.3296
  742TMC3    C111014   1.908   2.569  15.040  0.3220  0.0131 -0.4119
  742TMC3    C211015   1.837   2.488  14.949 -0.5940 -0.1339 -0.4915
  742TMC3    C311016   1.908   2.419  14.854  0.0876  0.0691  0.9455
  742TMC3    C411017   2.044   2.582  15.046  0.8388 -0.1884 -1.3776
  742TMC3    C511018   2.108   2.499  14.956  0.1546  0.3969 -0.3063
  742TMC3    C611019   2.046   2.418  14.864 -0.1112  0.1241  0.2396
  742TMC3     C11020   1.826   2.641  15.132 -0.6289  0.5134  0.0459
  742TMC3     O11021   1.720   2.591  15.153 -0.2039 -0.1124 -0.1557
  742TMC3     H11022   1.730   2.505  14.945 -0.9860 -2.2703  0.9078
  742TMC3    H111023   2.090   2.639  15.126 -0.2270 -0.9601 -0.2041
  742TMC3    H211024   2.105   2.343  14.812 -1.3091 -0.2905 -0.4998
  742TMC3    C711025   2.233   2.444  15.002  0.0321 -0.3037 -0.3578
  742TMC3    C811026   1.846   2.326  14.767  0.4818 -0.3081  0.5891
  742TMC3    O111027   2.282   2.350  14.939  0.0657  0.1868  0.5454
  742TMC3    O211028   1.902   2.289  14.664 -0.2048  0.5142  0.2446
  743MPD2     C11029   1.077   4.289   1.989  0.0375  0.4763  0.0781
  743MPD2    C111030   1.026   4.191   1.910 -0.4718  0.4873 -1.0810
  743MPD2    C211031   1.106   4.115   1.820  0.4612  0.1884  0.7490
  743MPD2    C311032   1.239   4.154   1.824 -0.1166  0.2714  0.6717
  743MPD2    C411033   1.295   4.265   1.897  0.0861 -0.5215 -0.6339
  743MPD2    C511034   1.209   4.325   1.983 -0.2108 -0.1807  0.3331
  743MPD2     H11035   1.077   4.026   1.765  2.6720  0.4331 -0.8095
  743MPD2    H111036   1.400   4.290   1.887 -0.7793  1.6094 -4.5218
  743MPD2    H211037   1.013   4.338   2.061 -0.6953 -0.7115  0.2307
  743MPD2    H311038   1.245   4.397   2.056  0.4251 -0.3789  0.2111
  743MPD2     N11039   1.328   4.069   1.752  0.4359  0.2847 -0.7707
  743MPD2    H511040   1.288   3.994   1.697  3.5460 -1.4031 -0.7764
  743MPD2    N111041   0.886   4.163   1.915  0.6978  0.9688  0.0622
  743MPD2    H711042   0.822   4.234   1.948 -0.1624 -0.9292  2.4684
  744TMC3    C111043   0.679   4.053   1.871  0.0410  0.3046  0.8237
  744TMC3    C211044   0.609   4.143   1.948  0.5735 -0.2585 -0.1482
  744TMC3    C311045   0.477   4.160   1.919  0.5613  0.2220  0.2191
  744TMC3    C411046   0.622   3.983   1.776  0.6911  0.1467 -0.6221
  744TMC3    C511047   0.489   3.998   1.753  0.0105 -0.2264  0.0797
  744TMC3    C611048   0.412   4.089   1.828  0.0579  0.3596 -0.0617
  744TMC3     C11049   0.821   4.044   1.877 -0.0843 -0.4025  0.2413
  744TMC3     O11050   0.874   3.945   1.824  0.0012 -0.4865 -0.3588
  744TMC3     H11051   0.649   4.202   2.030  1.3027 -0.2331 -0.5168
  744TMC3    H111052   0.669   3.912   1.709 -0.4870 -0.9095 -0.3400
  744TMC3    H211053   0.305   4.105   1.821  0.1716  1.0787 -0.1151
  744TMC3    C711054   0.432   3.940   1.634 -0.6303  0.4181  0.6188
  744TMC3    C811055   0.404   4.261   1.989 -0.3182 -1.0399  0.2880
  744TMC3    O111056   0.511   3.889   1.555 -0.6265 -0.1501 -0.1448
  744TMC3    O211057   0.332   4.328   1.917 -0.1254 -0.4478  0.5688
  745TMC3    C111058   2.272   1.791  13.793 -0.5108  0.0978 -0.0707
  745TMC3    C211059   2.163   1.769  13.885 -0.2643  0.4277 -0.4458
  745TMC3    C311060   2.038   1.804  13.844 -0.1905 -0.7843  0.1733
  745TMC3    C411061   2.252   1.842  13.670 -0.2727 -0.3501  0.0179
  745TMC3    C511062   2.118   1.873  13.636  0.0765 -0.0514  0.2087
  745TMC3    C611063   2.014   1.854  13.721 -0.0382 -1.0264  1.1717
  745TMC3     C11064   2.406   1.769  13.835 -0.2962  0.5332  0.7204
  745TMC3     O11065   2.432   1.659  13.876  0.0918 -0.0500 -0.0274
  745TMC3     H11066   2.171   1.737  13.988  1.9168  1.1705 -0.3781
  745TMC3    H111067   2.331   1.856  13.598 -0.9747  2.8265 -0.1278
  745TMC3    H211068   1.918   1.897  13.697  1.2905  1.2018 -0.1093
  745TMC3    C711069   2.083   1.934  13.507 -0.2940  0.0572 -0.0021
  745TMC3    C811070   1.934   1.843  13.940  0.2965 -0.0337 -0.5376
  745TMC3    O111071   1.967   1.920  13.471 -0.3332 -0.3555 -0.3263
  745TMC3    O211072   1.818   1.844  13.904  0.0508  0.4475 -0.2059
  746TMC3    C111073   0.479   3.541  10.910 -0.9568  0.2284 -0.2329
  746TMC3    C211074   0.545   3.521  10.799 -0.0333 -0.1145  0.0485
  746TMC3    C311075   0.513   3.411  10.724 -0.6200 -0.5786 -0.7438
  746TMC3    C411076   0.400   3.446  10.966  0.3985  0.1958 -0.1269
  746TMC3    C511077   0.379   3.332  10.893 -0.5248 -0.1273 -0.4154
  746TMC3    C611078   0.437   3.313  10.765  0.3927  0.2745  0.8498
  746TMC3     C11079   0.477   3.672  10.973  0.2235 -0.2031 -0.9658
  746TMC3     O11080   0.460   3.675  11.092  0.6803  0.2980 -0.0634
  746TMC3     H11081   0.624   3.591  10.772 -0.3653 -0.1129 -0.9192
  746TMC3    H111082   0.334   3.470  11.049  0.7498 -1.4007  0.6053
  746TMC3    H211083   0.408   3.232  10.699 -0.5831 -0.0541  1.6829
  746TMC3    C711084   0.271   3.247  10.927  0.1941  0.1318  0.9729
  746TMC3    C811085   0.615   3.367  10.628  0.6236  0.2891 -0.9529
  746TMC3    O111086   0.237   3.163  10.843 -0.1397  0.2629 -0.1779
  746TMC3    O211087   0.629   3.248  10.602  0.8292 -0.5964  1.0988
  747TMC3    C111088   2.948   3.738  10.905  0.0688 -0.9222 -0.1113
  747TMC3    C211089   2.858   3.644  10.943  0.1044  0.8890  0.6358
  747TMC3    C311090   2.858   3.629  11.078 -0.7466 -0.2997 -0.1645
  747TMC3    C411091   3.053   3.783  10.977  0.0157  0.3186 -0.1788
  747TMC3    C511092   3.056   3.752  11.109  0.2736  0.6362  0.1772
  747TMC3    C611093   2.961   3.669  11.157 -0.1603  0.3857  0.0930
  747TMC3     C11094   2.948   3.808  10.779 -0.0253  0.3810  0.7025
  747TMC3     O11095   3.018   3.906  10.755 -0.4252  0.1570  0.3669
  747TMC3     H11096   2.779   3.613  10.875  1.5833  0.3160 -0.8208
  747TMC3    H111097   3.121   3.862  10.948  1.3437 -0.4087  0.8900
  747TMC3    H211098   2.957   3.654  11.264  0.1724 -2.3660 -0.2879
  747TMC3    C711099   3.157   3.807  11.204  0.2548 -0.3493 -0.3887
  747TMC3    C811100   2.788   3.514  11.127  0.3945 -0.5158 -0.7093
  747TMC3    O111101   3.123   3.836  11.317 -0.1021 -0.6784  0.9863
  747TMC3    O211102   2.757   3.423  11.052 -0.2200  0.0230  0.1100
  748MPD2     C11103   3.727   0.508   1.584  0.3050 -0.5967  0.4412
  748MPD2    C111104   3.815   0.428   1.514 -0.6803 -0.7074 -0.2938
  748MPD2    C211105   3.949   0.461   1.509 -0.0998 -0.0152 -0.1926
  748MPD2    C311106   3.997   0.576   1.558  0.1059  0.0309  0.0888
  748MPD2    C411107   3.914   0.659   1.631  0.2114 -0.1513  0.2786
  748MPD2    C511108   3.780   0.620   1.649 -0.0172  0.7246  0.7545
  748MPD2     H11109   4.017   0.399   1.452 -0.6894 -2.1147  1.3672
  748MPD2    H111110   3.959   0.745   1.680  0.3146 -0.5319  0.8521
  748MPD2    H211111   3.621   0.489   1.589 -0.0425  1.3320  0.4916
  748MPD2    H311112   3.710   0.691   1.691 -2.5248  0.8545 -3.7661
  748MPD2     N11113   4.131   0.612   1.541 -0.0383  0.3971  0.2195
  748MPD2    H511114   4.191   0.542   1.497  0.0677 -0.7787  2.2717
  748MPD2    N111115   3.765   0.315   1.440  0.4705 -0.0850 -0.2005
  748MPD2    H711116   3.664   0.309   1.429  0.4193 -0.3342  0.3907
  749TMC3    C111117   4.327   0.730   1.531 -0.0155 -0.0324  0.1633
  749TMC3    C211118   4.397   0.624   1.583  0.1352  0.1261  0.9582
  749TMC3    C311119   4.515   0.604   1.511  0.5149 -1.0466  0.2345
  749TMC3    C411120   4.363   0.799   1.416  0.3817 -0.1303  0.6345
  749TMC3    C511121   4.469   0.765   1.345  0.1650 -0.2502 -0.3320
  749TMC3    C611122   4.553   0.670   1.401 -0.4372  0.4704 -0.5087
  749TMC3     C11123   4.193   0.737   1.553 -0.5219  0.5157  0.4361
  749TMC3     O11124   4.143   0.847   1.577  0.3762 -0.3840 -0.7079
  749TMC3     H11125   4.382   0.594   1.686 -1.5351  0.4153  0.8002
  749TMC3    H111126   4.296   0.875   1.377  1.9045  1.1060  0.4443
  749TMC3    H211127   4.644   0.647   1.346 -1.0569  2.0796 -2.2337
  749TMC3    C711128   4.494   0.830   1.220 -0.2078  0.1699 -0.3362
  749TMC3    C811129   4.628   0.540   1.586 -0.7776  0.1762  0.0354
  749TMC3    O111130   4.475   0.956   1.222  0.0689  0.2042 -0.5380
  749TMC3    O211131   4.625   0.540   1.709  0.0831 -0.3755 -0.0671
  750MPD2     C11132   0.930   0.817  11.268  0.2414  0.9154 -0.1501
  750MPD2    C111133   0.806   0.794  11.313 -0.2106  0.2793  0.1963
  750MPD2    C211134   0.716   0.739  11.223 -0.1166  0.3529  0.2067
  750MPD2    C311135   0.750   0.702  11.097 -0.1667  0.3186 -0.1572
  750MPD2    C411136   0.877   0.725  11.051  0.4612 -0.6273 -0.0048
  750MPD2    C511137   0.962   0.785  11.139  0.7464 -0.2938  0.3647
  750MPD2     H11138   0.622   0.707  11.268 -0.4472 -0.2017 -0.8968
  750MPD2    H111139   0.911   0.705  10.950  0.5626  0.5017 -0.1984
  750MPD2    H211140   1.010   0.864  11.324  1.4430 -1.5386  0.2090
  750MPD2    H311141   1.062   0.794  11.098  0.4541  1.7914  0.0776
  750MPD2     N11142   0.667   0.628  11.002  0.2861  0.6398 -0.3291
  750MPD2    H511143   0.699   0.622  10.905 -0.4673 -1.3441 -0.4427
  750MPD2    N111144   0.773   0.841  11.442 -0.1113  0.4341 -0.2720
  750MPD2    H711145   0.841   0.897  11.491 -1.1488  0.6288  0.9264
  751TMC3    C111146   0.473   0.491  10.934  0.1821 -0.3469 -0.5365
  751TMC3    C211147   0.335   0.472  10.944 -0.2186 -0.1480  0.1381
  751TMC3    C311148   0.272   0.413  10.836 -0.4200 -0.0827  0.2743
  751TMC3    C411149   0.533   0.469  10.814  0.4644 -0.2334 -0.2710
  751TMC3    C511150   0.472   0.410  10.712 -0.7901 -1.1304  0.6853
  751TMC3    C611151   0.343   0.384  10.720 -0.4175  0.1760  0.1321
  751TMC3     C11152   0.547   0.566  11.033  0.6700  0.8319 -0.0912
  751TMC3     O11153   0.482   0.572  11.137  0.0731  0.5163  0.9328
  751TMC3     H11154   0.274   0.489  11.032 -1.5892  0.1902 -0.8768
  751TMC3    H111155   0.641   0.470  10.804  0.4660  3.0537  0.2478
  751TMC3    H211156   0.289   0.342  10.635 -2.0005  1.2661  0.5823
  751TMC3    C711157   0.551   0.344  10.605  0.4180 -0.2365  0.4260
  751TMC3    C811158   0.147   0.359  10.868 -0.2744  0.5216  0.4773
  751TMC3    O111159   0.643   0.412  10.557 -0.1698  0.0635  0.3978
  751TMC3    O211160   0.059   0.415  10.930  0.1895  0.5513 -0.1905
  752TMC3    C111161   3.707   0.403  17.152  0.2357  0.6079 -0.3964
  752TMC3    C211162   3.689   0.322  17.048  0.5489 -0.3116 -0.2658
  752TMC3    C311163   3.642   0.194  17.064  0.4293  0.0216  0.7425
  752TMC3    C411164   3.689   0.364  17.279 -0.2549 -0.1930  0.0559
  752TMC3    C511165   3.644   0.235  17.291 -0.3706  0.5019 -0.2424
  752TMC3    C611166   3.628   0.144  17.187  0.0509 -0.6579  0.4634
  752TMC3     C11167   3.779   0.524  17.124 -0.4224  0.2201  0.0922
  752TMC3     O11168   3.875   0.514  17.046 -0.1445 -0.0465  0.0989
  752TMC3     H11169   3.688   0.366  16.949  1.8504 -1.8285 -0.9505
  752TMC3    H111170   3.734   0.420  17.360 -0.3313 -2.3390  1.5815
  752TMC3    H211171   3.595   0.043  17.208  1.2799 -1.2339 -0.3626
  752TMC3    C711172   3.667   0.175  17.420 -0.2255 -0.0606  0.0636
  752TMC3    C811173   3.640   0.093  16.957  0.1514  0.2369  0.1595
  752TMC3    O111174   3.707   0.057  17.425  0.1686 -0.2382  0.9396
  752TMC3    O211175   3.629   4.711  16.989 -0.8084  0.7318 -0.4161
  753TMC3    C111176   0.904   1.963  13.409 -0.4559 -0.0077 -0.1406
  753TMC3    C211177   0.856   1.911  13.527  0.1080 -0.6565 -0.1782
  753TMC3    C311178   0.822   1.781  13.518 -0.3533  0.6698 -0.3704
  753TMC3    C411179   0.914   1.893  13.291  0.6023 -0.2681 -0.1992
  753TMC3    C511180   0.878   1.763  13.297 -0.0756  0.3235 -0.1895
  753TMC3    C611181   0.822   1.711  13.404 -0.7653  0.4329 -0.2497
  753TMC3     C11182   0.982   2.080  13.432 -0.0612 -0.7121  0.6441
  753TMC3     O11183   0.936   2.176  13.497 -0.2512  0.0861  0.1145
  753TMC3     H11184   0.875   1.944  13.629 -0.3156  3.3443 -1.4127
  753TMC3    H111185   0.968   1.932  13.206 -0.7636 -1.7746 -1.7584
  753TMC3    H211186   0.789   1.607  13.404 -0.0023  0.1935  1.0745
  753TMC3    C711187   0.879   1.686  13.174 -0.1859 -0.1906  0.0398
  753TMC3    C811188   0.882   1.692  13.619  0.1912  0.0326 -0.4931
  753TMC3    O111189   0.985   1.681  13.112  0.3248  0.2063 -0.2886
  753TMC3    O211190   0.942   1.593  13.574 -0.1264  0.3719 -0.2888
  754MPD2     C11191   4.406   0.095  12.550 -0.2957 -1.0335 -0.2575
  754MPD2    C111192   4.359   4.725  12.619  0.2050  0.5012  0.4436
  754MPD2    C211193   4.263   0.003  12.718 -0.2364  0.0746  0.4455
  754MPD2    C311194   4.214   0.134  12.751 -0.2721 -0.3389  0.2068
  754MPD2    C411195   4.256   0.241  12.677 -0.3052  0.1911  0.3992
  754MPD2    C511196   4.349   0.218  12.577  0.7150 -0.5878 -1.0501
  754MPD2     H11197   4.216   4.657  12.768  0.2136 -1.2460 -1.3197
  754MPD2    H111198   4.218   0.342  12.693  1.9137  1.0026  0.4580
  754MPD2    H211199   4.483   0.091  12.473  0.8454  0.2448  0.8059
  754MPD2    H311200   4.386   0.302  12.519 -1.6945  0.7372 -0.6492
  754MPD2     N11201   4.128   0.159  12.864 -0.2384 -0.0836 -0.1876
  754MPD2    H511202   4.092   0.253  12.879  2.1478  0.7597  0.2615
  754MPD2    N111203   4.425   4.604  12.585 -0.3501  0.5454  0.1765
  754MPD2    H711204   4.469   4.601  12.494  0.1365 -0.7687  0.4425
  755MPD2     C11205   3.859   0.911  13.081  0.0152 -0.1408  0.2216
  755MPD2    C111206   3.908   0.871  13.202 -0.8314  0.0992 -0.3229
  755MPD2    C211207   3.975   0.746  13.211  0.0220 -0.1512 -0.1170
  755MPD2    C311208   3.955   0.645  13.112 -0.5192 -0.3105 -0.4256
  755MPD2    C411209   3.893   0.688  12.998 -0.2246  0.5656 -0.3801
  755MPD2    C511210   3.858   0.820  12.978  0.0422  0.3785  0.0287
  755MPD2     H11211   4.012   0.718  13.309 -0.3266  2.6877  0.8121
  755MPD2    H111212   3.887   0.628  12.908  2.2181  0.7130 -0.6523
  755MPD2    H211213   3.818   1.009  13.057  1.0290  0.1106 -0.4827
  755MPD2    H311214   3.806   0.856  12.890 -1.5215  3.9651  2.4327
  755MPD2     N11215   3.998   0.513  13.119  0.2892 -0.1405 -0.8772
  755MPD2    H511216   3.985   0.461  13.032 -2.5595 -1.1992  0.1668
  755MPD2    N111217   3.916   0.952  13.314  0.4987  0.7461 -0.3131
  755MPD2    H711218   3.964   0.906  13.391  1.2129  1.7915 -0.1279
  756MPD2     C11219   4.455   1.814   9.851  0.3058  0.1160  0.2637
  756MPD2    C111220   4.414   1.693   9.900 -0.1718  0.4593  0.6333
  756MPD2    C211221   4.284   1.655   9.888  0.2049 -0.2004 -0.0689
  756MPD2    C311222   4.190   1.741   9.834  0.3062 -0.5267  0.0019
  756MPD2    C411223   4.234   1.856   9.777  0.6458 -0.9381 -0.0518
  756MPD2    C511224   4.366   1.889   9.780  0.7705 -0.9880 -0.1920
  756MPD2     H11225   4.251   1.561   9.931 -1.6236 -0.6593 -2.4896
  756MPD2    H111226   4.170   1.917   9.716 -0.9012 -1.9844  0.5283
  756MPD2    H211227   4.559   1.845   9.849  0.2163  0.4549  0.8935
  756MPD2    H311228   4.394   1.986   9.742  2.0764 -0.9627  0.8432
  756MPD2     N11229   4.059   1.701   9.850  0.2070  0.5544 -0.2899
  756MPD2    H511230   4.046   1.613   9.900 -0.7577 -0.2290 -1.9115
  756MPD2    N111231   4.496   1.598   9.961  0.2296 -0.2038 -0.2345
  756MPD2    H711232   4.448   1.512   9.983  1.0783 -0.8343 -0.8535
  757MPD2     C11233   3.874   0.902   9.773 -0.4315  0.0374  0.2822
  757MPD2    C111234   3.974   0.984   9.730 -0.0267 -1.0283 -0.0900
  757MPD2    C211235   3.953   1.123   9.728 -0.7687  0.0334  0.4817
  757MPD2    C311236   3.835   1.179   9.766 -0.2970  0.5467 -0.1301
  757MPD2    C411237   3.734   1.093   9.813  0.2685  0.3519  0.6458
  757MPD2    C511238   3.755   0.956   9.818 -1.1967 -0.3337  0.7640
  757MPD2     H11239   4.018   1.197   9.682 -0.4526  0.0837  1.0049
  757MPD2    H111240   3.638   1.127   9.850 -0.6245 -1.1469 -0.2790
  757MPD2    H211241   3.884   0.794   9.779 -0.4598 -0.0621 -1.3712
  757MPD2    H311242   3.679   0.891   9.859 -1.9257  0.3232  0.4592
  757MPD2     N11243   3.817   1.318   9.757  0.0548  0.1454  0.0524
  757MPD2    H511244   3.898   1.369   9.726 -0.2467  0.2353 -0.5927
  757MPD2    N111245   4.096   0.931   9.684  0.1812  0.0037 -0.0361
  757MPD2    H711246   4.095   0.837   9.645  2.1627  0.5021 -1.2939
  758MPD2     C11247   3.891   0.492  16.082 -0.6810 -0.6503 -0.2678
  758MPD2    C111248   4.034   0.494  16.076 -0.4925 -0.0481 -0.1305
  758MPD2    C211249   4.108   0.559  16.170  0.3547 -0.0144 -0.3181
  758MPD2    C311250   4.045   0.640  16.262 -0.2246 -0.1395 -0.4647
  758MPD2    C411251   3.907   0.650  16.261 -0.5113  0.1974  0.6494
  758MPD2    C511252   3.834   0.582  16.165 -0.1007  0.6386 -0.3057
  758MPD2     H11253   4.216   0.564  16.159  0.6085  3.1136  3.6546
  758MPD2    H111254   3.858   0.713  16.334 -0.7807 -0.9900  1.5050
  758MPD2    H211255   3.835   0.430  16.013 -0.3815  1.3200 -2.2883
  758MPD2    H311256   3.726   0.588  16.165 -0.2440 -2.2177  0.6956
  758MPD2     N11257   4.113   0.711  16.362 -0.0142  0.3885  0.3094
  758MPD2    H511258   4.053   0.750  16.434 -0.7798 -3.5989  1.8257
  758MPD2    N111259   4.090   0.395  15.994 -0.2232  0.2790  0.7214
  758MPD2    H711260   4.035   0.321  15.952 -2.0584  2.2326 -0.2917
  759MPD2     C11261   3.205   4.135   9.626  0.6908 -0.1501 -0.3683
  759MPD2    C111262   3.231   4.041   9.728 -0.0650 -0.7954  0.1281
  759MPD2    C211263   3.362   3.992   9.728 -0.5007 -0.5019 -0.5049
  759MPD2    C311264   3.461   4.032   9.635 -0.4726 -0.1846 -0.0069
  759MPD2    C411265   3.412   4.104   9.529 -0.9991  1.5155 -0.3181
  759MPD2    C511266   3.293   4.165   9.530 -0.4842 -0.7242 -0.4529
  759MPD2     H11267   3.386   3.926   9.810  2.2107  1.0947 -0.0211
  759MPD2    H111268   3.469   4.133   9.442  1.0320  0.1395  0.5769
  759MPD2    H211269   3.108   4.184   9.629  1.2961  1.0319 -0.0841
  759MPD2    H311270   3.268   4.230   9.447  0.4897 -1.7825 -1.5783
  759MPD2     N11271   3.592   3.987   9.623 -0.0132  0.2416  0.7060
  759MPD2    H511272   3.638   4.032   9.544 -0.0237 -0.5442  0.2467
  759MPD2    N111273   3.137   4.004   9.824  1.0111 -0.0076  0.1104
  759MPD2    H711274   3.180   3.949   9.898 -1.7276  1.1648  2.5635
  760MPD2     C11275   3.218   0.947  11.677  0.6170 -0.2355 -0.4843
  760MPD2    C111276   3.320   0.876  11.621  0.1396 -0.8835 -0.3703
  760MPD2    C211277   3.313   0.733  11.622  0.4022  0.0548 -0.2733
  760MPD2    C311278   3.207   0.666  11.684  0.3525 -1.0447  0.4244
  760MPD2    C411279   3.115   0.741  11.754  0.1789  0.0882 -0.6500
  760MPD2    C511280   3.116   0.875  11.747 -0.1351  0.6870  0.1381
  760MPD2     H11281   3.383   0.671  11.567  0.3575  1.7607 -2.2779
  760MPD2    H111282   3.031   0.701  11.809  0.4055 -0.0363 -0.3932
  760MPD2    H211283   3.205   1.053  11.663 -0.7982 -0.1176  1.6230
  760MPD2    H311284   3.032   0.930  11.789  0.2565  2.3883 -1.3085
  760MPD2     N11285   3.194   0.521  11.693 -0.0376 -0.3099  0.0498
  760MPD2    H511286   3.127   0.486  11.760 -1.3624 -0.7091 -1.4812
  760MPD2    N111287   3.434   0.938  11.565 -0.1365  0.3689  0.1645
  760MPD2    H711288   3.501   0.869  11.533  1.6089  1.1480  2.1107
  761MPD2     C11289   4.615   4.660  10.859 -0.3658  0.6518  0.2532
  761MPD2    C111290   4.735   4.646  10.789  0.0184  0.9477  0.0319
  761MPD2    C211291   0.087   0.009  10.797 -0.1769 -0.2398 -0.2861
  761MPD2    C311292   0.067   0.122  10.863  0.2544 -0.0556  0.3151
  761MPD2    C411293   4.684   0.146  10.928  0.0614 -0.0010 -0.9496
  761MPD2    C511294   4.598   0.039  10.932 -0.4213 -0.2064  0.0188
  761MPD2     H11295   0.178   4.731  10.740 -1.3312 -1.8307 -1.6937
  761MPD2    H111296   4.658   0.240  10.976 -1.8385 -1.1131  0.1853
  761MPD2    H211297   4.531   4.593  10.872  0.2216  0.3691  2.6112
  761MPD2    H311298   4.511   0.055  10.995 -1.2518  1.3340 -1.5200
  761MPD2     N11299   0.164   0.224  10.840  0.0324 -0.2814 -0.0527
  761MPD2    H511300   0.247   0.198  10.789 -0.9655  0.0906 -1.8697
  761MPD2    N111301   0.020   4.526  10.721 -0.2458  0.2911 -0.1990
  761MPD2    H711302   4.689   4.454  10.741 -0.6424  0.7347  0.0451
  762MPD2     C11303   0.514   4.388  10.135  0.9047 -0.1318  0.0492
  762MPD2    C111304   0.518   4.296  10.235  0.0808 -0.0639 -0.2479
  762MPD2    C211305   0.635   4.231  10.254  0.0180 -0.5524 -0.2050
  762MPD2    C311306   0.749   4.252  10.173  0.2539 -0.2089  0.6405
  762MPD2    C411307   0.737   4.347  10.081 -0.1848 -0.4365  0.3362
  762MPD2    C511308   0.626   4.421  10.068 -0.3610 -0.3047  0.3052
  762MPD2     H11309   0.643   4.156  10.333  0.7092 -1.3826 -1.0672
  762MPD2    H111310   0.813   4.369  10.007 -1.4458 -1.2261 -1.1910
  762MPD2    H211311   0.419   4.435  10.113  0.3708 -1.3654 -0.2963
  762MPD2    H311312   0.631   4.495   9.989  1.1793 -0.8712 -0.1112
  762MPD2     N11313   0.862   4.170  10.187 -0.0728  0.0718  0.6195
  762MPD2    H511314   0.860   4.088  10.247 -0.9377 -2.0457 -2.2960
  762MPD2    N111315   0.408   4.276  10.322  0.4837  0.2108 -0.1277
  762MPD2    H711316   0.328   4.331  10.294  0.4505  0.3987  0.3351
  763MPD2     C11317   1.205   0.592  16.027 -0.3546 -0.1306 -0.5408
  763MPD2    C111318   1.116   0.661  15.953 -0.0306 -0.1750  0.4446
  763MPD2    C211319   1.094   0.792  15.978 -0.0162  0.6229  0.2147
  763MPD2    C311320   1.183   0.866  16.054 -0.4472 -0.3448 -0.0866
  763MPD2    C411321   1.295   0.801  16.103 -0.0624 -0.2962 -0.5280
  763MPD2    C511322   1.302   0.661  16.099 -0.5670 -0.2473 -0.1508
  763MPD2     H11323   1.020   0.842  15.915  0.3129  1.1705  0.2654
  763MPD2    H111324   1.371   0.856  16.157  0.6200 -1.1869 -0.5735
  763MPD2    H211325   1.229   0.488  16.010 -0.4970 -0.4932  1.4005
  763MPD2    H311326   1.400   0.617  16.116  0.5726  3.5532  3.0864
  763MPD2     N11327   1.167   1.008  16.085  0.5577 -0.6747 -0.1337
  763MPD2    H511328   1.255   1.058  16.090  1.1630 -1.5797 -1.7681
  763MPD2    N111329   1.032   0.593  15.863  0.0211 -0.4495 -0.2874
  763MPD2    H711330   0.980   0.646  15.793  0.9210  2.1719  1.0442
  764MPD2     C11331   3.468   2.389  17.449  0.1557 -0.1550 -0.3512
  764MPD2    C111332   3.538   2.305  17.370 -0.0626 -0.7751  0.5126
  764MPD2    C211333   3.628   2.220  17.424  0.2770  0.6084  0.3211
  764MPD2    C311334   3.646   2.214  17.556 -0.0683  0.3366 -0.2685
  764MPD2    C411335   3.581   2.308  17.635  0.0681  0.6595  0.5851
  764MPD2    C511336   3.486   2.388  17.582 -0.5949 -0.0284  0.8934
  764MPD2     H11337   3.693   2.151  17.370  0.6043  0.3994  0.9801
  764MPD2    H111338   3.576   2.294  17.742  1.1371  1.1837  0.7071
  764MPD2    H211339   3.389   2.451  17.408 -0.9991  0.9200  3.4555
  764MPD2    H311340   3.417   2.442  17.646 -1.2511 -1.8002  1.6758
  764MPD2     N11341   3.731   2.118  17.618 -0.6851  0.1486  0.2726
  764MPD2    H511342   3.763   2.044  17.557  0.5053  2.6516 -2.1755
  764MPD2    N111343   3.534   2.323  17.228  0.0455 -0.7613 -0.3020
  764MPD2    H711344   3.598   2.264  17.175  1.6386  1.2330 -0.5877
  765MPD2     C11345   3.880   4.692  15.332  0.3236  0.3346 -0.0876
  765MPD2    C111346   3.916   4.735  15.459  0.0878 -0.4020 -0.4297
  765MPD2    C211347   3.994   4.655  15.535 -0.3302  0.9277  0.1633
  765MPD2    C311348   4.061   4.544  15.482  0.1847  0.5287  0.4496
  765MPD2    C411349   4.046   4.517  15.347 -0.9782  0.0318 -0.4633
  765MPD2    C511350   3.953   4.594  15.275  0.1903  0.0220  0.0448
  765MPD2     H11351   4.012   4.672  15.641 -0.2924 -0.3146  0.3562
  765MPD2    H111352   4.102   4.440  15.295  1.1508  0.7723  0.7532
  765MPD2    H211353   3.804   0.012  15.279 -0.0842 -0.6732 -0.6023
  765MPD2    H311354   3.950   4.573  15.169  2.1398 -1.0770  0.2014
  765MPD2     N11355   4.145   4.465  15.566 -0.2811  0.3713  0.0148
  765MPD2    H511356   4.153   4.497  15.662  0.8599  0.8141 -0.2360
  765MPD2    N111357   3.843   0.106  15.515 -0.2047 -0.4229  0.2495
  765MPD2    H711358   3.754   0.131  15.474  0.6965  2.6624  0.1316
  766MPD2     C11359   3.352   0.103  15.198 -0.0885  0.0640  0.4010
  766MPD2    C111360   3.485   0.141  15.211  0.5091  0.2503  0.4748
  766MPD2    C211361   3.576   0.097  15.109  0.2106 -0.0380  0.1744
  766MPD2    C311362   3.532   0.032  14.993 -0.3001 -0.2022  0.3176
  766MPD2    C411363   3.395   0.005  14.983  0.2596  0.0862 -0.6717
  766MPD2    C511364   3.312   0.029  15.087 -0.2587 -0.1389  0.0993
  766MPD2     H11365   3.678   0.131  15.120 -0.3076  1.0182  1.9016
  766MPD2    H111366   3.354   4.688  14.899  0.1069 -0.4391 -0.2564
  766MPD2    H211367   3.271   0.118  15.269 -0.2227 -1.3981  0.5600
  766MPD2    H311368   3.213   4.722  15.082 -0.0032 -0.7534  0.5430
  766MPD2     N11369   3.619   4.717  14.893 -0.1242 -0.1020 -0.0779
  766MPD2    H511370   3.576   4.657  14.823 -1.9875  0.1505  0.8510
  766MPD2    N111371   3.543   0.219  15.318 -0.6318  0.7881 -0.1419
  766MPD2    H711372   3.635   0.260  15.310 -0.4203  0.0504 -1.4146
  767MPD2     C11373   3.194   0.159  14.742  1.1679  0.3083  0.2880
  767MPD2    C111374   3.320   0.165  14.701  0.4649 -0.3744  0.0225
  767MPD2    C211375   3.369   0.080  14.602  0.6831  0.4226 -0.1363
  767MPD2    C311376   3.277   4.731  14.537  0.8916  0.0078  0.5941
  767MPD2    C411377   3.147   4.722  14.585  0.2039 -0.9148 -0.1368
  767MPD2    C511378   3.113   0.058  14.693 -0.1746  0.0226  0.9574
  767MPD2     H11379   3.471   0.090  14.565  1.1997  1.8132  1.6811
  767MPD2    H111380   3.068   4.659  14.545 -0.4121  0.0047 -0.3580
  767MPD2    H211381   3.152   0.228  14.814  0.2398 -0.8889  0.8864
  767MPD2    H311382   3.011   0.052  14.729 -0.7457  0.1119 -0.6426
  767MPD2     N11383   3.331   4.641  14.436  0.3769  0.3749  0.1044
  767MPD2    H511384   3.429   4.643  14.408 -0.1304  0.4473 -1.6549
  767MPD2    N111385   3.406   0.259  14.767  0.2179  0.2311 -0.2341
  767MPD2    H711386   3.356   0.316  14.834  2.0033  2.1806 -0.5668
  768MPD2     C11387   4.691   3.093  10.402 -0.1684  0.3764 -0.6115
  768MPD2    C111388   4.673   2.991  10.495  0.4756  0.0763 -0.5094
  768MPD2    C211389   0.044   2.927  10.547 -0.0084 -0.3966 -0.1811
  768MPD2    C311390   0.178   2.969  10.524  0.0753  0.3015  0.1619
  768MPD2    C411391   0.188   3.071  10.438  0.4359  0.1806 -0.3053
  768MPD2    C511392   0.080   3.134  10.378 -0.1159 -0.6655  0.3992
  768MPD2     H11393   0.024   2.854  10.625  2.4290  1.6215  2.3405
  768MPD2    H111394   0.290   3.100  10.417  0.3331  2.5117  2.3821
  768MPD2    H211395   4.615   3.152  10.353 -0.8923  0.8325  1.0830
  768MPD2    H311396   0.098   3.224  10.319 -0.5781 -0.7614  0.1142
  768MPD2     N11397   0.286   2.914  10.587  0.3240 -0.2695  0.3471
  768MPD2    H511398   0.376   2.956  10.568  1.0757 -2.3437 -0.6794
  768MPD2    N111399   4.548   2.951  10.543  0.3907  0.0569 -0.8481
  768MPD2    H711400   4.541   2.870  10.605 -0.3301 -0.6424 -1.8299
  769MPD2     C11401   0.162   1.951  14.470 -0.4922  0.5645  0.1737
  769MPD2    C111402   0.111   1.896  14.582  0.2741 -0.0526  0.1567
  769MPD2    C211403   0.134   1.966  14.699 -0.0507 -0.8588  1.0254
  769MPD2    C311404   0.231   2.070  14.705  0.2462  0.9341  0.0251
  769MPD2    C411405   0.290   2.112  14.588  0.0045  0.0355  0.4204
  769MPD2    C511406   0.242   2.062  14.468  0.3186  0.2327  0.1513
  769MPD2     H11407   0.085   1.947  14.794 -0.7763 -1.1387  0.5956
  769MPD2    H111408   0.366   2.189  14.584 -0.2243  0.2116 -0.5660
  769MPD2    H211409   0.140   1.906  14.374 -2.0113 -1.5062  1.4797
  769MPD2    H311410   0.275   2.105  14.374  0.6156 -0.3957 -0.0292
  769MPD2     N11411   0.281   2.098  14.831 -0.1943  0.4474  0.4182
  769MPD2    H511412   0.236   2.064  14.915 -0.2990 -1.2811 -0.3312
  769MPD2    N111413   0.037   1.780  14.578  0.3330 -0.7324  0.5283
  769MPD2    H711414   0.025   1.734  14.489 -0.7081 -2.4113  1.5230
  770MPD2     C11415   4.399   0.878  15.096 -0.0679  0.2548 -0.6916
  770MPD2    C111416   4.502   0.858  15.011 -0.5766 -0.1189 -0.4566
  770MPD2    C211417   4.540   0.964  14.930  0.0267  0.1547  0.3659
  770MPD2    C311418   4.492   1.094  14.946  0.8738 -0.1811 -0.3712
  770MPD2    C411419   4.398   1.111  15.051 -0.0525  0.2188 -0.0197
  770MPD2    C511420   4.352   1.003  15.124 -0.2102  0.3582  0.2289
  770MPD2     H11421   4.603   0.942  14.845 -1.9626  2.0718 -1.6037
  770MPD2    H111422   4.356   1.210  15.066  0.9512  0.8858 -1.5424
  770MPD2    H211423   4.341   0.796  15.136 -0.5435  1.6146  1.3659
  770MPD2    H311424   4.277   1.016  15.201 -2.3698 -0.3885 -1.7486
  770MPD2     N11425   4.524   1.189  14.845  0.2421  0.3345 -0.1396
  770MPD2    H511426   4.577   1.162  14.763 -0.0752 -2.9242  0.7479
  770MPD2    N111427   4.549   0.728  14.998 -0.2182 -0.2302 -0.3790
  770MPD2    H711428   4.518   0.659  15.065  0.8738  1.1976  1.5863
  771MPD2     C11429   1.484   3.814  13.980  0.8589 -0.3475 -0.7091
  771MPD2    C111430   1.401   3.881  13.891 -0.0181  0.1821 -0.3992
  771MPD2    C211431   1.299   3.804  13.833  0.6739 -0.0753  0.4225
  771MPD2    C311432   1.281   3.672  13.856  0.3623  0.1032 -0.5892
  771MPD2    C411433   1.366   3.608  13.942 -0.3669  0.2351  0.0166
  771MPD2    C511434   1.464   3.680  14.009  0.3775  0.6592  1.2102
  771MPD2     H11435   1.237   3.860  13.764 -0.4323 -0.9956  0.6610
  771MPD2    H111436   1.361   3.502  13.965 -0.0419  0.4280  0.9864
  771MPD2    H211437   1.557   3.866  14.041 -0.8365  0.7210  0.4446
  771MPD2    H311438   1.525   3.633  14.084  1.0104 -3.4038 -1.8680
  771MPD2     N11439   1.177   3.606  13.785 -0.1381  0.6053 -0.0507
  771MPD2    H511440   1.111   3.672  13.745  0.0973  1.1872  0.5259
  771MPD2    N111441   1.410   4.017  13.858 -0.4102 -0.2861  0.1075
  771MPD2    H711442   1.345   4.056  13.790 -0.9341 -0.4096  0.5368
  772MPD2     C11443   0.963   4.560  13.664  0.1333  0.5680  0.8470
  772MPD2    C111444   1.021   4.485  13.767 -0.6141 -0.1555 -0.6630
  772MPD2    C211445   0.945   4.432  13.871  0.5360 -0.3613 -0.3539
  772MPD2    C311446   0.806   4.447  13.868 -0.1051 -0.3954  0.2182
  772MPD2    C411447   0.748   4.514  13.760  0.4359  0.0529 -0.2327
  772MPD2    C511448   0.829   4.574  13.662  1.5137  0.5692  0.0153
  772MPD2     H11449   0.996   4.380  13.951 -0.1420 -1.4954 -0.6556
  772MPD2    H111450   0.642   4.529  13.746  0.8635  1.7598 -1.5950
  772MPD2    H211451   1.020   4.603  13.582  0.4055  0.3175  0.9025
  772MPD2    H311452   0.780   4.609  13.572  1.8110  0.7165 -0.0887
  772MPD2     N11453   0.721   4.385  13.963  1.1626  0.9366 -0.7979
  772MPD2    H511454   0.621   4.393  13.946  1.2719  2.4738 -0.6963
  772MPD2    N111455   1.162   4.461  13.776 -0.4170  0.8961 -0.5126
  772MPD2    H711456   1.195   4.420  13.863  0.6658  1.3532 -0.7159
  773MPD2     C11457   0.234   0.852   0.115 -0.7773  0.0398 -0.7450
  773MPD2    C111458   0.165   0.763   0.039  0.6771 -0.8199 -0.4510
  773MPD2    C211459   0.197   0.626   0.046 -0.8967 -0.2137  0.0553
  773MPD2    C311460   0.293   0.584   0.134  0.3735  0.0896  0.7340
  773MPD2    C411461   0.355   0.675   0.210  0.3407  0.1678 -0.3242
  773MPD2    C511462   0.331   0.813   0.203 -0.1839  0.1475 -0.3685
  773MPD2     H11463   0.147   0.554  17.731 -2.4207  0.3912  0.5594
  773MPD2    H111464   0.430   0.648   0.284 -0.7392  0.1924  0.7928
  773MPD2    H211465   0.210   0.957   0.100  0.1061  0.1980 -1.0721
  773MPD2    H311466   0.388   0.891   0.251 -0.0354 -0.3339  0.2306
  773MPD2     N11467   0.318   0.440   0.146 -0.3339  0.0367 -0.3502
  773MPD2    H511468   0.242   0.381   0.113 -0.0407  0.5186 -1.8964
  773MPD2    N111469   0.086   0.811  17.678 -0.5714  0.4154 -0.6328
  773MPD2    H711470   0.065   0.738  17.611  2.0523 -1.2687  0.3675
  774MPD2     C11471   3.954   3.997  13.383  0.2383  0.0025 -0.2715
  774MPD2    C111472   4.040   4.082  13.436  0.1110 -0.8570  0.1463
  774MPD2    C211473   4.109   4.173  13.358  0.9832  0.2529  0.6202
  774MPD2    C311474   4.102   4.167  13.216 -0.1251 -0.2837 -0.0912
  774MPD2    C411475   4.021   4.062  13.168 -0.3564 -0.0285  0.2308
  774MPD2    C511476   3.942   3.985  13.250  0.0697  0.4969 -0.0801
  774MPD2     H11477   4.165   4.256  13.400  2.8165 -1.5078  1.6924
  774MPD2    H111478   4.004   4.057  13.061 -2.4127  2.0512  0.4497
  774MPD2    H211479   3.899   3.916  13.430  1.3446 -0.4805  0.2019
  774MPD2    H311480   3.872   3.912  13.210 -1.2286  0.9850  1.3067
  774MPD2     N11481   4.181   4.252  13.138  0.0017 -0.5546  0.7143
  774MPD2    H511482   4.228   4.324  13.193  0.1002 -0.5819  0.6667
  774MPD2    N111483   4.051   4.072  13.578  0.6217 -0.5587  0.0220
  774MPD2    H711484   3.986   4.003  13.614 -1.6729  1.0684 -1.0160
  775MPD2     C11485   0.811   1.375  15.382  0.4108 -0.4807  0.0349
  775MPD2    C111486   0.824   1.481  15.459 -0.5190 -0.1352  0.1480
  775MPD2    C211487   0.930   1.574  15.439  0.3773 -0.8652  0.4720
  775MPD2    C311488   1.017   1.555  15.332 -0.5792 -0.0965  0.3920
  775MPD2    C411489   1.004   1.436  15.260 -0.1748 -0.6597  0.1347
  775MPD2    C511490   0.904   1.346  15.283  0.2624 -0.8116  0.5017
  775MPD2     H11491   0.947   1.657  15.507 -3.3257  0.8550 -0.6774
  775MPD2    H111492   1.078   1.412  15.184 -0.1346 -2.1959  0.6407
  775MPD2    H211493   0.727   1.308  15.394 -0.6314  0.8084  0.0593
  775MPD2    H311494   0.903   1.260  15.216  1.1248  0.4109 -1.0876
  775MPD2     N11495   1.136   1.631  15.297  0.3586 -0.0860 -0.2047
  775MPD2    H511496   1.182   1.621  15.207 -2.1087 -2.5250 -1.1740
  775MPD2    N111497   0.721   1.495  15.550  0.5412 -0.3769  0.0998
  775MPD2    H711498   0.651   1.422  15.560 -0.2536  0.4475  0.5364
  776MPD2     C11499   0.387   1.356  11.956  0.0659  0.2388  0.9484
  776MPD2    C111500   0.469   1.331  11.849  0.1204 -0.1696 -0.3230
  776MPD2    C211501   0.494   1.425  11.742 -0.4323  0.2695 -0.3204
  776MPD2    C311502   0.422   1.544  11.748 -0.1665 -0.0361 -0.1611
  776MPD2    C411503   0.334   1.562  11.853 -0.3361  0.0139  0.0666
  776MPD2    C511504   0.320   1.478  11.959 -0.4837  0.1822  0.6154
  776MPD2     H11505   0.574   1.404  11.672  0.7675  0.3874  1.0189
  776MPD2    H111506   0.288   1.660  11.859  0.2331  0.4926 -3.3120
  776MPD2    H211507   0.370   1.281  12.032  3.3749  0.6596  2.1067
  776MPD2    H311508   0.255   1.498  12.044 -0.2260  1.0376  0.6054
  776MPD2     N11509   0.442   1.649  11.656  0.3007 -0.1444  0.1667
  776MPD2    H511510   0.400   1.736  11.686  2.7706  1.2759 -0.4870
  776MPD2    N111511   0.533   1.201  11.853 -0.0065  0.0127 -0.0957
  776MPD2    H711512   0.481   1.133  11.907 -0.0974  1.0596  1.1229
  777MPD2     C11513   0.623   4.496   0.659 -0.6151 -0.8425 -0.8860
  777MPD2    C111514   0.557   4.487   0.779  0.2614  0.1277 -1.1845
  777MPD2    C211515   0.501   4.366   0.813  0.2472  1.0621 -0.1598
  777MPD2    C311516   0.526   4.251   0.730  0.0747  0.5506  0.1393
  777MPD2    C411517   0.576   4.271   0.604 -0.3420  0.2980  0.4132
  777MPD2    C511518   0.617   4.399   0.569 -1.1410  0.1775  0.0761
  777MPD2     H11519   0.456   4.348   0.910 -0.0123  3.5825  0.1938
  777MPD2    H111520   0.578   4.202   0.519  2.0712 -0.1742  0.8669
  777MPD2    H211521   0.668   4.587   0.620 -0.7646  0.7096  2.5271
  777MPD2    H311522   0.659   4.418   0.471  0.2904  0.7826  0.8068
  777MPD2     N11523   0.491   4.116   0.778  0.3049  0.0523  0.3046
  777MPD2    H511524   0.426   4.115   0.856  0.4729 -0.2223  0.4426
  777MPD2    N111525   0.569   4.589   0.877  0.2604 -0.4164  0.1008
  777MPD2    H711526   0.634   4.667   0.871  0.1566 -0.4515 -1.3464
  778MPD2     C11527   1.273   4.484  14.814 -0.3721 -0.2068  0.1715
  778MPD2    C111528   1.288   4.354  14.846  0.6208 -0.0570 -0.4068
  778MPD2    C211529   1.367   4.282  14.760  0.6978  1.1534  0.3670
  778MPD2    C311530   1.411   4.346  14.640 -0.3434 -0.8067 -0.3256
  778MPD2    C411531   1.387   4.484  14.608  0.2822  0.1025  0.2184
  778MPD2    C511532   1.314   4.549  14.699 -0.1879 -0.5505  0.4120
  778MPD2     H11533   1.379   4.178  14.785  0.6913  0.9623 -0.4214
  778MPD2    H111534   1.422   4.530  14.516  0.2314  0.3143  0.3046
  778MPD2    H211535   1.214   4.555  14.871  1.6148  1.7539 -0.2255
  778MPD2    H311536   1.293   4.653  14.677  1.6579 -0.0503  0.9481
  778MPD2     N11537   1.473   4.273  14.540  0.2241  0.2788  0.3210
  778MPD2    H511538   1.482   4.314  14.448 -1.3065  2.6339  1.2280
  778MPD2    N111539   1.220   4.282  14.951  0.1933  0.3617 -0.0930
  778MPD2    H711540   1.250   4.186  14.963 -1.6177 -0.1009  0.6977
  779MPD2     C11541   0.722   2.552  14.146  0.3889 -0.3407  0.8966
  779MPD2    C111542   0.840   2.592  14.205  0.1553  0.0552  0.4695
  779MPD2    C211543   0.884   2.724  14.204 -0.1819  0.1941  0.3905
  779MPD2    C311544   0.805   2.824  14.143 -1.0640  0.1837 -0.8228
  779MPD2    C411545   0.687   2.780  14.079 -0.3060 -0.2276 -0.0514
  779MPD2    C511546   0.644   2.649  14.091  0.0833  0.0007  0.1469
  779MPD2     H11547   0.978   2.749  14.252  0.1783 -3.5112  1.5991
  779MPD2    H111548   0.621   2.842  14.021  1.6216 -0.7761 -2.8627
  779MPD2    H211549   0.680   2.452  14.149  1.4093 -0.8034 -0.2911
  779MPD2    H311550   0.547   2.616  14.055  1.0081 -2.2651 -0.2918
  779MPD2     N11551   0.859   2.957  14.140  0.1911  0.1705 -0.4991
  779MPD2    H511552   0.938   2.961  14.204  0.8044  0.6111 -1.2869
  779MPD2    N111553   0.927   2.498  14.266 -0.2312  0.0669 -0.0431
  779MPD2    H711554   1.011   2.538  14.307 -0.2332 -0.1458  0.1746
  780MPD2     C11555   0.727   3.649   0.803 -0.2758 -0.1113  0.1789
  780MPD2    C111556   0.649   3.567   0.722 -0.3746 -0.6746  0.3647
  780MPD2    C211557   0.683   3.565   0.590  0.1086  0.6753  0.3339
  780MPD2    C311558   0.796   3.632   0.545 -0.4734  0.4359  0.0612
  780MPD2    C411559   0.881   3.704   0.635 -0.6110 -0.3660 -0.6122
  780MPD2    C511560   0.846   3.702   0.760  0.1719  0.4514 -0.1684
  780MPD2     H11561   0.632   3.493   0.527 -1.4480  2.9849 -1.0553
  780MPD2    H111562   0.975   3.744   0.599  0.6683 -2.7111  0.1118
  780MPD2    H211563   0.706   3.663   0.909  0.7859 -0.1423  0.3854
  780MPD2    H311564   0.916   3.738   0.835 -0.4077  2.2894 -0.4943
  780MPD2     N11565   0.846   3.610   0.411  0.2520 -0.3117 -0.6683
  780MPD2    H511566   0.795   3.543   0.353 -1.8442 -0.1956  1.0725
  780MPD2    N111567   0.534   3.485   0.766  0.4110 -0.3539  0.1621
  780MPD2    H711568   0.523   3.477   0.867 -1.2470 -1.5249 -0.1149
  781MPD2     C11569   2.865   4.573  11.646  0.2408 -0.1087  0.0573
  781MPD2    C111570   2.919   4.553  11.772  0.5015  0.3049 -0.5556
  781MPD2    C211571   3.065   4.543  11.782  0.3859  0.0972  0.0658
  781MPD2    C311572   3.137   4.524  11.663  0.2303  0.1241  0.0662
  781MPD2    C411573   3.080   4.533  11.540  0.4835  0.4271 -0.1183
  781MPD2    C511574   2.943   4.569  11.533  0.3736  0.1858 -0.1183
  781MPD2     H11575   3.109   4.526  11.879 -0.9716 -0.2465  0.6262
  781MPD2    H111576   3.139   4.529  11.450 -0.8968  0.6529 -1.0341
  781MPD2    H211577   2.762   4.594  11.619  0.0247 -2.2352 -0.7847
  781MPD2    H311578   2.893   4.582  11.438 -1.4254 -1.3578  0.6197
  781MPD2     N11579   3.273   4.483  11.658 -0.4086 -0.5943  0.4631
  781MPD2    H511580   3.306   4.468  11.564 -0.9463  0.8809  0.0430
  781MPD2    N111581   2.845   4.545  11.888 -0.3792 -0.3895  0.2754
  781MPD2    H711582   2.888   4.528  11.978 -0.2965  0.1310  0.3349
  782MPD2     C11583   0.959   0.722   9.902  0.3276 -0.1399 -0.7056
  782MPD2    C111584   0.951   0.631  10.004  0.1969  0.4171  0.3376
  782MPD2    C211585   0.928   0.674  10.135  0.2550  0.0254  0.2240
  782MPD2    C311586   0.927   0.810  10.159  0.1361  0.3976  0.4714
  782MPD2    C411587   0.945   0.899  10.056 -0.6153 -0.0022 -0.1682
  782MPD2    C511588   0.958   0.853   9.926  0.2668 -0.7133 -0.4769
  782MPD2     H11589   0.934   0.602  10.216  1.1933  1.9658  1.8923
  782MPD2    H111590   0.951   1.007  10.066  1.1862 -0.2138  0.9786
  782MPD2    H211591   0.954   0.686   9.800 -0.9118 -0.8143 -0.4081
  782MPD2    H311592   0.965   0.927   9.847 -2.0532 -1.0460 -0.9933
  782MPD2     N11593   0.939   0.864  10.288 -0.3630 -0.3441 -0.1108
  782MPD2    H511594   0.967   0.961  10.296  1.1489 -0.5958 -2.3595
  782MPD2    N111595   0.964   0.491   9.990  0.3049  0.0515  0.0456
  782MPD2    H711596   0.943   0.430  10.068 -0.4570  2.0637  1.4008
  783MPD2     C11597   0.537   4.727  10.504 -0.5973 -0.6294 -0.3157
  783MPD2    C111598   0.587   0.116  10.499 -0.1414 -0.5561  0.1934
  783MPD2    C211599   0.674   0.143  10.397  0.4856 -0.0316  0.5356
  783MPD2    C311600   0.715   0.058  10.301  0.4230  0.3777 -0.4620
  783MPD2    C411601   0.671   4.663  10.310  0.6505  0.3462 -0.0376
  783MPD2    C511602   0.585   4.635  10.410  0.1793  0.2271 -0.0161
  783MPD2     H11603   0.710   0.245  10.390 -1.7341  0.7327  0.0721
  783MPD2    H111604   0.706   4.578  10.252  0.5228 -0.1435  0.5997
  783MPD2    H211605   0.468   4.691  10.580  1.0023 -0.2220  1.3277
  783MPD2    H311606   0.547   4.534  10.411 -1.6700  0.8942 -1.8951
  783MPD2     N11607   0.815   0.098  10.210  0.3810  0.4411 -0.2633
  783MPD2    H511608   0.844   0.196  10.204 -2.2380  1.2683  0.5917
  783MPD2    N111609   0.524   0.210  10.584  0.1495  0.1389  1.1353
  783MPD2    H711610   0.461   0.173  10.654 -1.4659 -0.2187 -0.4889
  784MPD2     C11611   2.451   0.967   0.648  0.0572 -0.2736 -0.3031
  784MPD2    C111612   2.383   0.996   0.763  0.3443 -0.3602  0.2955
  784MPD2    C211613   2.251   1.048   0.762  0.5479  0.1913 -0.6173
  784MPD2    C311614   2.201   1.074   0.638 -0.1101 -0.3341  0.0165
  784MPD2    C411615   2.268   1.039   0.522  0.0440  0.7364 -0.3340
  784MPD2    C511616   2.391   0.979   0.528 -0.5205 -0.2485 -0.1239
  784MPD2     H11617   2.194   1.058   0.853  0.6587  1.2292 -0.6615
  784MPD2    H111618   2.223   1.056   0.425  0.9047  3.4210 -0.2725
  784MPD2    H211619   2.552   0.928   0.653  0.0522 -0.1990  0.4175
  784MPD2    H311620   2.443   0.958   0.436  1.9631  2.2300  0.6928
  784MPD2     N11621   2.072   1.137   0.634 -0.5199  0.0608 -0.0737
  784MPD2    H511622   2.023   1.166   0.718 -0.3239 -0.5116  0.2379
  784MPD2    N111623   2.452   0.989   0.888 -0.5800 -0.6274  1.1739
  784MPD2    H711624   2.390   1.002   0.968 -0.3670  0.2183  1.2071
  785MPD2     C11625   3.810   4.493  11.093 -0.1457 -0.5492  0.6549
  785MPD2    C111626   3.677   4.505  11.084  0.2798  0.7513  0.1540
  785MPD2    C211627   3.596   4.394  11.045  0.0055 -0.6314  0.3831
  785MPD2    C311628   3.663   4.273  11.032 -0.9300 -0.3376  0.6347
  785MPD2    C411629   3.798   4.266  11.062  0.1279 -0.4902  0.3284
  785MPD2    C511630   3.872   4.375  11.099 -0.0192  0.2312  0.7159
  785MPD2     H11631   3.495   4.410  11.007  0.7085 -1.5497 -1.8650
  785MPD2    H111632   3.848   4.171  11.067  0.7025 -0.0789  2.3092
  785MPD2    H211633   3.873   4.579  11.116 -0.5899 -0.1757  0.4886
  785MPD2    H311634   3.972   4.360  11.138  1.3902 -0.0131 -3.0259
  785MPD2     N11635   3.586   4.168  10.973 -0.4590 -0.4463 -0.2784
  785MPD2    H511636   3.487   4.189  10.968 -0.4111  0.0098  0.6159
  785MPD2    N111637   3.623   4.640  11.083 -0.1865 -0.2092  0.0753
  785MPD2    H711638   3.694   4.711  11.070  0.9556 -1.0461  1.8141
  786MPD2     C11639   1.501   1.952  14.704  0.2734  0.3289 -0.7212
  786MPD2    C111640   1.605   1.987  14.616 -0.2362 -0.2283  1.0654
  786MPD2    C211641   1.688   2.089  14.645  0.2153 -0.2824 -0.2497
  786MPD2    C311642   1.656   2.170  14.761  0.4196  0.1880 -0.0207
  786MPD2    C411643   1.562   2.121  14.855 -0.0369 -1.0171 -0.2458
  786MPD2    C511644   1.494   2.008  14.824 -0.5953  0.0921 -0.4577
  786MPD2     H11645   1.778   2.103  14.587  0.8003  0.1405  0.7628
  786MPD2    H111646   1.543   2.162  14.954 -1.8464  3.3646 -2.4401
  786MPD2    H211647   1.442   1.861  14.711  0.0491  0.5626  0.4716
  786MPD2    H311648   1.423   1.970  14.897  0.7252 -2.1656 -0.3212
  786MPD2     N11649   1.734   2.275  14.812  0.2966 -1.0061  0.5783
  786MPD2    H511650   1.716   2.302  14.909 -0.1891 -1.7231  0.6879
  786MPD2    N111651   1.636   1.907  14.502 -0.2555 -0.3242 -0.3722
  786MPD2    H711652   1.720   1.922  14.446 -0.4475  0.2340 -0.5178
  787MPD2     C11653   2.163   1.463  14.445  0.0106  0.2433 -0.7019
  787MPD2    C111654   2.126   1.532  14.330 -0.0226 -0.6665 -0.4563
  787MPD2    C211655   2.214   1.538  14.224 -0.3218  0.7927 -0.3142
  787MPD2    C311656   2.340   1.475  14.231 -0.1897  0.1327  0.0887
  787MPD2    C411657   2.379   1.405  14.341  1.0348  0.0505 -0.2349
  787MPD2    C511658   2.290   1.408  14.451  0.5699 -0.0577  0.4012
  787MPD2     H11659   2.179   1.578  14.130  0.8898  1.0528 -0.6638
  787MPD2    H111660   2.474   1.357  14.365  0.3323  0.7109  3.8510
  787MPD2    H211661   2.102   1.473  14.534  0.4922 -0.7683 -0.2548
  787MPD2    H311662   2.325   1.356  14.539  1.7934  0.5698  0.2822
  787MPD2     N11663   2.432   1.519  14.133 -0.2199 -0.2242  0.5241
  787MPD2    H511664   2.404   1.581  14.058  0.3481 -0.3715  0.1860
  787MPD2    N111665   1.995   1.588  14.324 -0.4255 -0.2822 -1.0809
  787MPD2    H711666   1.956   1.607  14.415 -0.4989 -0.9068 -0.9829
  788MPD2     C11667   3.408   0.957   1.112 -0.1768  0.3704  0.0121
  788MPD2    C111668   3.527   0.948   1.045 -0.2984  0.2731 -0.5880
  788MPD2    C211669   3.622   1.048   1.046  0.0781  0.8899  0.4077
  788MPD2    C311670   3.598   1.160   1.121 -0.3499  0.8811  0.5485
  788MPD2    C411671   3.474   1.174   1.185 -0.3870 -0.1692 -0.1363
  788MPD2    C511672   3.379   1.070   1.190 -0.2036 -0.0578  0.6487
  788MPD2     H11673   3.719   1.031   1.001 -1.0388 -0.7442 -1.3633
  788MPD2    H111674   3.455   1.263   1.243 -1.9510 -0.2626 -0.5279
  788MPD2    H211675   3.332   0.880   1.114  0.6973 -0.4811  0.4053
  788MPD2    H311676   3.295   1.064   1.257  0.1620 -0.6740  1.0552
  788MPD2     N11677   3.685   1.272   1.125  0.5033  0.5516 -0.0856
  788MPD2    H511678   3.665   1.343   1.195  2.2620 -0.2455  1.2227
  788MPD2    N111679   3.564   0.832   0.979 -0.4065 -0.1036 -0.2478
  788MPD2    H711680   3.663   0.810   0.967 -1.0873 -2.5816 -1.3661
  789MPD2     C11681   4.142   0.426  16.629  0.6149  0.3661 -0.6243
  789MPD2    C111682   4.021   0.384  16.578 -0.1466 -0.3847  0.6742
  789MPD2    C211683   3.910   0.461  16.598  0.5562  0.6944  0.0808
  789MPD2    C311684   3.914   0.568  16.686  0.3349 -0.2555  0.1815
  789MPD2    C411685   4.029   0.585  16.769  0.0306 -0.5622  0.4333
  789MPD2    C511686   4.144   0.530  16.725 -0.7545 -0.0211 -0.3458
  789MPD2     H11687   3.818   0.440  16.545  0.2982 -0.2359  0.8890
  789MPD2    H111688   4.026   0.651  16.856 -2.9698 -0.0904 -0.0505
  789MPD2    H211689   4.237   0.379  16.605  1.7861  2.4475 -0.0828
  789MPD2    H311690   4.244   0.551  16.763 -0.1481  1.3337 -2.6655
  789MPD2     N11691   3.806   0.647  16.706  0.3048  0.1756  0.5213
  789MPD2    H511692   3.808   0.721  16.775  1.3350 -0.6156  1.3409
  789MPD2    N111693   4.014   0.281  16.477 -0.0644 -0.3727 -0.0009
  789MPD2    H711694   3.922   0.267  16.436  0.2065 -2.2070  0.0209
  790MPD2     C11695   0.026   1.658  13.435  0.3255 -1.0122 -0.1023
  790MPD2    C111696   0.104   1.541  13.419 -0.0132  0.0165 -0.4986
  790MPD2    C211697   0.114   1.479  13.302  0.2660  0.3399  0.0390
  790MPD2    C311698   0.055   1.529  13.189 -0.8748 -0.5154  0.4237
  790MPD2    C411699   4.713   1.643  13.206 -0.7502  0.2577  0.1352
  790MPD2    C511700   4.699   1.707  13.327  0.7516  0.1290  0.2240
  790MPD2     H11701   0.177   1.392  13.288 -0.0088  0.3810 -1.4856
  790MPD2    H111702   4.646   1.680  13.129 -0.9788  2.8928  1.5904
  790MPD2    H211703   0.024   1.706  13.532 -0.7253 -1.1428 -0.0559
  790MPD2    H311704   4.622   1.782  13.338  0.4973 -0.2665  1.1416
  790MPD2     N11705   0.072   1.459  13.066  0.1285 -0.0358 -0.3469
  790MPD2    H511706   0.111   1.365  13.073  0.5628  0.1628 -0.0902
  790MPD2    N111707   0.150   1.491  13.545  0.1437 -0.2714  0.4914
  790MPD2    H711708   0.111   1.538  13.625  1.2479  0.4669  0.5998
  791MPD2     C11709   4.351   1.699  12.501 -0.2738 -0.0976 -0.3463
  791MPD2    C111710   4.426   1.590  12.466  0.6868  0.1474  0.1814
  791MPD2    C211711   4.392   1.531  12.344 -0.1261 -0.9735  0.4886
  791MPD2    C311712   4.299   1.584  12.252  0.2585  0.4551 -0.2934
  791MPD2    C411713   4.231   1.693  12.293  0.1437 -0.5078 -0.6590
  791MPD2    C511714   4.257   1.752  12.414 -0.3141 -0.9028  0.5273
  791MPD2     H11715   4.438   1.441  12.305 -0.0278 -0.8856  0.4026
  791MPD2    H111716   4.156   1.743  12.233 -1.2517 -0.5802  1.0184
  791MPD2    H211717   4.377   1.754  12.591 -2.3800 -3.2436  2.1811
  791MPD2    H311718   4.201   1.844  12.431  0.0403 -0.3326 -1.3950
  791MPD2     N11719   4.271   1.514  12.126 -0.3192 -0.9121 -0.2572
  791MPD2    H511720   4.322   1.430  12.102  1.3409 -0.4156  1.5913
  791MPD2    N111721   4.526   1.546  12.551 -0.0077  0.7001 -0.6340
  791MPD2    H711722   4.539   1.598  12.638  0.2210 -1.9822  0.9425
  792MPD2     C11723   0.521   1.190  11.420  0.0523  0.4089 -0.5119
  792MPD2    C111724   0.538   1.226  11.290 -0.2843  0.2319  0.4935
  792MPD2    C211725   0.489   1.139  11.191  0.5709  0.3892  0.9351
  792MPD2    C311726   0.423   1.019  11.228 -0.2342 -0.0816  0.2770
  792MPD2    C411727   0.408   0.993  11.355  0.4687 -0.9083 -0.0948
  792MPD2    C511728   0.454   1.078  11.453 -0.1165  0.5399  0.6037
  792MPD2     H11729   0.508   1.174  11.090 -2.3899 -0.3175  0.1599
  792MPD2    H111730   0.358   0.902  11.387  0.1831 -0.0228  1.9468
  792MPD2    H211731   0.551   1.261  11.497 -0.9354  1.3767 -1.0174
  792MPD2    H311732   0.428   1.063  11.557  2.4724  1.0254  1.3121
  792MPD2     N11733   0.376   0.926  11.137 -0.1055 -0.4753 -0.6779
  792MPD2    H511734   0.326   0.845  11.172 -0.7550 -0.5515 -1.7804
  792MPD2    N111735   0.613   1.344  11.256  0.1660  0.1477  0.0437
  792MPD2    H711736   0.667   1.390  11.329 -0.9401  1.1992  0.1936
  793MPD2     C11737   4.473   1.138  10.525 -0.0086  0.2321 -0.1976
  793MPD2    C111738   4.595   1.129  10.471  0.6286 -0.5134 -0.1719
  793MPD2    C211739   4.679   1.037  10.532 -0.1405  0.2336  0.3385
  793MPD2    C311740   4.654   0.969  10.646 -0.3390 -0.1392 -0.0245
  793MPD2    C411741   4.524   0.973  10.695  0.7484 -0.4276  0.5505
  793MPD2    C511742   4.435   1.059  10.633  0.9553  1.2410  0.4525
  793MPD2     H11743   0.044   1.045  10.500 -0.6373 -2.6943 -2.0170
  793MPD2    H111744   4.492   0.919  10.783 -1.3465  0.5551  0.4056
  793MPD2    H211745   4.398   1.205  10.485  0.4470  0.6293 -0.3851
  793MPD2    H311746   4.343   1.074  10.689  0.9208  1.4620  0.3374
  793MPD2     N11747   0.020   0.895  10.701  1.0528 -0.1679  1.0589
  793MPD2    H511748   0.107   0.906  10.651 -0.7272 -1.0886 -2.2690
  793MPD2    N111749   4.643   1.198  10.362 -0.6312 -0.1416  0.0746
  793MPD2    H711750   0.006   1.205  10.354 -0.5747  1.9025  2.6241
  794MPD2     C11751   4.443   1.492  17.306 -0.5400  0.1327 -0.2903
  794MPD2    C111752   4.446   1.383  17.215 -0.8059 -0.1092 -0.8856
  794MPD2    C211753   4.378   1.402  17.093  0.0048 -0.0632 -0.6145
  794MPD2    C311754   4.318   1.520  17.056  0.0076 -0.1476  0.1782
  794MPD2    C411755   4.322   1.621  17.146 -0.2705  0.6544 -0.6944
  794MPD2    C511756   4.383   1.607  17.269  0.2998  0.3674  0.1648
  794MPD2     H11757   4.394   1.327  17.017 -1.0179 -0.9707  0.0529
  794MPD2    H111758   4.286   1.721  17.126  1.7892  1.3680 -0.8393
  794MPD2    H211759   4.495   1.499  17.400  1.1821 -1.5789 -1.1262
  794MPD2    H311760   4.392   1.687  17.341 -0.1230 -0.5707  1.2534
  794MPD2     N11761   4.265   1.549  16.928  0.0710 -0.1762 -0.3407
  794MPD2    H511762   4.209   1.634  16.925  0.0856 -0.1210  1.2593
  794MPD2    N111763   4.507   1.258  17.245  0.1612 -0.2605  0.5437
  794MPD2    H711764   4.508   1.179  17.182  2.5078 -0.1151  0.3772
  795MPD2     C11765   2.542   3.072  13.755  0.0545 -0.4592 -0.4340
  795MPD2    C111766   2.473   2.954  13.751  0.3615 -0.2204  0.7738
  795MPD2    C211767   2.509   2.852  13.840 -0.2153  0.0946  0.1239
  795MPD2    C311768   2.612   2.862  13.934 -0.0243  0.2803  0.1519
  795MPD2    C411769   2.673   2.984  13.944  0.3454 -0.1606 -0.2288
  795MPD2    C511770   2.649   3.087  13.852 -0.1422 -0.1834  0.3136
  795MPD2     H11771   2.461   2.756  13.827 -1.5267  0.5162  1.8338
  795MPD2    H111772   2.741   3.003  14.026  1.3972 -1.2449 -0.8343
  795MPD2    H211773   2.512   3.159  13.698  1.7218  0.5187  0.1768
  795MPD2    H311774   2.707   3.176  13.871  1.6294 -0.6955 -2.7591
  795MPD2     N11775   2.662   2.752  14.005 -0.6053 -0.1464  0.4093
  795MPD2    H511776   2.626   2.663  13.970 -3.3732  1.0245  0.3009
  795MPD2    N111777   2.378   2.939  13.642 -0.3984  0.1109  0.3142
  795MPD2    H711778   2.358   3.014  13.577 -0.7497 -1.2105 -1.1171
  796MPD2     C11779   1.406   4.614  15.868 -0.2283 -0.4588 -0.1547
  796MPD2    C111780   1.517   4.674  15.914  0.1774  0.4039  0.1286
  796MPD2    C211781   1.522   0.073  15.914 -0.2505 -0.2167  0.5793
  796MPD2    C311782   1.422   0.152  15.856  0.6428  0.1362 -1.2895
  796MPD2    C411783   1.309   0.087  15.808 -0.7589  0.4034  0.5092
  796MPD2    C511784   1.302   4.688  15.818 -0.1837  0.4075  0.1102
  796MPD2     H11785   1.603   0.126  15.964 -1.3846  2.2110 -0.1810
  796MPD2    H111786   1.226   0.136  15.758 -1.1577 -0.4007  0.3850
  796MPD2    H211787   1.398   4.506  15.874 -1.0096 -0.4425 -0.9645
  796MPD2    H311788   1.209   4.637  15.793 -1.0872  2.0644  0.1230
  796MPD2     N11789   1.441   0.289  15.840 -0.0321  0.2258  0.0571
  796MPD2    H511790   1.531   0.322  15.873  0.0663  0.1657 -0.1530
  796MPD2    N111791   1.638   4.595  15.949  0.2624 -0.1754  0.0331
  796MPD2    H711792   1.630   4.494  15.942  3.1344 -0.5160  1.5788
  797MPD2     C11793   3.054   4.380  16.747  0.2346  1.0929 -0.7194
  797MPD2    C111794   3.122   4.492  16.708  0.1274  0.2310 -0.2289
  797MPD2    C211795   3.122   4.519  16.574 -0.1128 -0.0338  0.4051
  797MPD2    C311796   3.052   4.445  16.482  0.2689 -0.7051  0.4656
  797MPD2    C411797   2.989   4.333  16.523 -0.1316  0.5220 -0.2692
  797MPD2    C511798   2.991   4.301  16.651  0.0167  0.3129  0.1958
  797MPD2     H11799   3.176   4.605  16.538  1.7630 -0.8620  1.2269
  797MPD2    H111800   2.940   4.261  16.460  0.1160 -0.4884  0.6847
  797MPD2    H211801   3.041   4.357  16.852 -4.0398  2.3404 -0.9759
  797MPD2    H311802   2.947   4.206  16.680 -0.0949  0.9142  1.9860
  797MPD2     N11803   3.071   4.470  16.353  0.0306  0.0713 -0.0505
  797MPD2    H511804   3.126   4.549  16.322  1.2630 -0.9793 -0.5444
  797MPD2    N111805   3.177   4.597  16.789  0.9296 -0.2660  0.9133
  797MPD2    H711806   3.212   4.682  16.746  0.0031  1.5089  3.6976
  798MPD2     C11807   3.398   0.331  16.266  0.7355 -0.2330 -0.3044
  798MPD2    C111808   3.321   0.223  16.306 -0.4713  0.0426  0.3526
  798MPD2    C211809   3.292   0.202  16.441 -0.1448  0.7211 -0.2055
  798MPD2    C311810   3.349   0.291  16.533 -0.6341  0.1427  0.3053
  798MPD2    C411811   3.431   0.389  16.491  0.1636 -0.6214 -0.2402
  798MPD2    C511812   3.454   0.417  16.355 -0.2539 -0.4351 -0.3226
  798MPD2     H11813   3.243   0.119  16.492  0.5116  0.7054  0.3949
  798MPD2    H111814   3.467   0.461  16.564  0.6887 -0.3658 -0.7485
  798MPD2    H211815   3.402   0.354  16.160  0.4235 -0.3445 -0.3398
  798MPD2    H311816   3.514   0.502  16.326 -0.0126 -0.3415  0.4505
  798MPD2     N11817   3.317   0.250  16.664  0.0857  0.2710  0.5692
  798MPD2    H511818   3.237   0.188  16.676 -0.6488  0.9788 -0.6016
  798MPD2    N111819   3.269   0.148  16.202 -0.7365 -0.0335  0.0844
  798MPD2    H711820   3.287   0.178  16.107  1.2586  0.5709  0.6534
  799MPD2     C11821   2.074   1.005  14.291 -0.0427 -0.8429  0.7534
  799MPD2    C111822   1.951   0.971  14.233 -0.0771  0.2357 -0.3480
  799MPD2    C211823   1.902   1.062  14.146  0.0760  0.7878  0.5635
  799MPD2    C311824   1.962   1.184  14.112 -0.4421 -0.0097  0.3191
  799MPD2    C411825   2.081   1.210  14.173  0.2072  0.3059  0.8917
  799MPD2    C511826   2.140   1.123  14.258 -0.2883  0.3287 -0.2511
  799MPD2     H11827   1.810   1.027  14.099  1.6415 -3.9731  1.0639
  799MPD2    H111828   2.129   1.304  14.149 -1.2903  1.6722  3.2195
  799MPD2    H211829   2.126   0.941  14.360  0.3180 -0.0741  1.1991
  799MPD2    H311830   2.233   1.143  14.310 -0.7735  1.6995  0.1189
  799MPD2     N11831   1.897   1.279  14.038 -0.4890 -0.1288  0.4887
  799MPD2    H511832   1.939   1.372  14.042 -0.4262 -0.1207 -0.4417
  799MPD2    N111833   1.889   0.845  14.254 -0.2415  0.3935 -0.4782
  799MPD2    H711834   1.795   0.846  14.217 -0.3786 -0.4297 -0.1668
  800MPD2     C11835   1.850   2.160  14.352 -0.2875 -0.2034  0.4963
  800MPD2    C111836   1.982   2.124  14.340 -0.1489  0.0638 -1.0746
  800MPD2    C211837   2.022   2.037  14.241  0.0501 -0.2630  0.1769
  800MPD2    C311838   1.936   1.993  14.143 -0.0787 -0.3943 -0.2424
  800MPD2    C411839   1.801   2.008  14.166 -0.0179 -0.4097 -0.3878
  800MPD2    C511840   1.766   2.099  14.265 -0.0101  0.1252 -0.6073
  800MPD2     H11841   2.127   2.024  14.219  0.4209  3.6727 -0.3880
  800MPD2    H111842   1.727   1.970  14.097 -1.7276  1.1971  0.5876
  800MPD2    H211843   1.826   2.244  14.417  1.7157  0.0234  0.9333
  800MPD2    H311844   1.660   2.106  14.286  0.6054  1.0083  2.0965
  800MPD2     N11845   1.995   1.914  14.038 -0.1009 -0.3374 -0.4743
  800MPD2    H511846   2.095   1.922  14.021 -0.2137  0.1276 -0.9124
  800MPD2    N111847   2.073   2.181  14.436 -0.1078 -0.3890 -0.0256
  800MPD2    H711848   2.034   2.252  14.498  1.0083  0.5015 -0.3284
  801MPD2     C11849   2.115   2.877  14.593  0.4647  0.3108 -0.1785
  801MPD2    C111850   2.078   2.766  14.512  0.0920 -0.0736  0.1874
  801MPD2    C211851   1.951   2.771  14.456  0.5786 -0.0669 -0.0054
  801MPD2    C311852   1.877   2.884  14.466 -0.0301 -0.4828  0.8369
  801MPD2    C411853   1.919   2.993  14.533  0.0207  0.0961 -0.0265
  801MPD2    C511854   2.042   2.988  14.598 -0.7113  0.6719 -0.3792
  801MPD2     H11855   1.914   2.692  14.392 -0.2252  0.9531 -0.8138
  801MPD2    H111856   1.855   3.079  14.546  0.7367  0.6951 -0.4903
  801MPD2    H211857   2.214   2.890  14.635 -0.8984 -0.5018  3.2959
  801MPD2    H311858   2.090   3.077  14.638  0.2577  0.0583 -0.1885
  801MPD2     N11859   1.746   2.896  14.408 -0.2204  0.5102  0.4860
  801MPD2    H511860   1.689   2.977  14.429 -1.8731 -0.2763 -0.9975
  801MPD2    N111861   2.153   2.650  14.508 -0.1078  0.4559  0.1687
  801MPD2    H711862   2.128   2.578  14.441 -0.1926 -0.6799  1.4207
  802MPD2     C11863   2.223   4.554   0.264 -0.1629 -0.2420  0.5368
  802MPD2    C111864   2.143   4.444   0.225  0.3369  0.1826  1.0513
  802MPD2    C211865   2.190   4.358   0.129 -0.3286  0.4523 -0.1082
  802MPD2    C311866   2.313   4.372   0.074 -0.5035  0.2948  0.1860
  802MPD2    C411867   2.391   4.479   0.112  0.1559 -0.1727 -0.4291
  802MPD2    C511868   2.344   4.566   0.212  0.2319  0.6920 -0.2235
  802MPD2     H11869   2.124   4.282   0.089 -0.4246  0.4717  0.0120
  802MPD2    H111870   2.490   4.482   0.069  1.7271 -0.4638  3.0963
  802MPD2    H211871   2.205   4.615   0.351  0.9566  1.7714 -0.6464
  802MPD2    H311872   2.410   4.642   0.253  1.4225 -0.5883  0.2167
  802MPD2     N11873   2.342   4.282  17.722 -0.3809 -0.0891 -0.1630
  802MPD2    H511874   2.286   4.198  17.717  3.0917 -2.3883 -0.7342
  802MPD2    N111875   2.016   4.416   0.288  0.4555 -0.7724 -0.8365
  802MPD2    H711876   1.960   4.343   0.245 -1.0337 -1.8139  2.8515
  803MPD2     C11877   3.350   1.994  11.567 -0.2028 -0.0800 -0.0651
  803MPD2    C111878   3.419   1.923  11.663 -0.2180  0.0902  0.0397
  803MPD2    C211879   3.360   1.813  11.718  0.4430 -0.7647  0.3625
  803MPD2    C311880   3.232   1.775  11.681 -0.8529  0.4222  0.9258
  803MPD2    C411881   3.162   1.858  11.596  0.5896  0.0558 -0.0777
  803MPD2    C511882   3.216   1.976  11.552  0.2201  0.3596  0.2270
  803MPD2     H11883   3.413   1.756  11.794  1.1941 -1.7373 -0.8877
  803MPD2    H111884   3.057   1.850  11.567  0.2168 -0.9375  1.5965
  803MPD2    H211885   3.401   2.076  11.519 -1.9985  1.9836  1.5230
  803MPD2    H311886   3.155   2.041  11.491 -2.7562 -2.4249  0.2440
  803MPD2     N11887   3.168   1.656  11.731  0.4562 -0.1494  0.2036
  803MPD2    H511888   3.071   1.635  11.710 -0.0858  3.5788 -1.0423
  803MPD2    N111889   3.548   1.947  11.712 -0.8843  0.5072 -0.0598
  803MPD2    H711890   3.588   1.896  11.790 -0.5644 -1.7839 -1.7121
  804MPD2     C11891   2.164   3.065  16.867 -0.3085 -0.2280  0.3769
  804MPD2    C111892   2.182   3.044  17.004  0.0348 -0.1004 -0.2894
  804MPD2    C211893   2.266   3.134  17.078  0.2513 -0.2471 -0.4865
  804MPD2    C311894   2.333   3.234  17.004  0.8465  0.0027 -0.4150
  804MPD2    C411895   2.312   3.242  16.864  0.1245  0.1661  0.1801
  804MPD2    C511896   2.233   3.157  16.796 -0.3951 -0.3208  0.2556
  804MPD2     H11897   2.281   3.124  17.185 -2.0845  0.7135 -0.0769
  804MPD2    H111898   2.360   3.316  16.802 -1.2999  0.9404  0.0054
  804MPD2    H211899   2.107   2.987  16.818 -2.1618  1.0750  0.4542
  804MPD2    H311900   2.223   3.151  16.688 -0.6359  0.4551  0.2336
  804MPD2     N11901   2.427   3.317  17.071 -0.1131 -0.4067 -0.2631
  804MPD2    H511902   2.428   3.306  17.172 -1.9019 -4.1885 -0.6391
  804MPD2    N111903   2.112   2.939  17.076 -0.0225 -0.1344 -0.1681
  804MPD2    H711904   2.135   2.950  17.175  0.5376 -1.5123 -0.1458
  805MPD2     C11905   1.367   1.247  14.944  0.7270  0.4121  0.7712
  805MPD2    C111906   1.495   1.227  14.903 -0.1827  0.3124 -0.1343
  805MPD2    C211907   1.603   1.258  14.981 -0.6199 -0.4849 -0.0023
  805MPD2    C311908   1.586   1.315  15.100  0.5263  0.5464  0.1109
  805MPD2    C411909   1.456   1.327  15.148  0.3972 -0.4782  0.4623
  805MPD2    C511910   1.351   1.297  15.070  0.1663 -0.3166  1.0443
  805MPD2     H11911   1.700   1.234  14.937 -1.0479 -0.5539 -0.8999
  805MPD2    H111912   1.438   1.386  15.238 -2.6743  0.1690 -0.5753
  805MPD2    H211913   1.283   1.252  14.877  1.7910  2.5763 -0.4250
  805MPD2    H311914   1.253   1.338  15.096 -0.5583 -1.5882  0.2773
  805MPD2     N11915   1.701   1.349  15.169 -0.2514  0.5943  0.4142
  805MPD2    H511916   1.792   1.337  15.124 -1.4596 -0.4637 -1.7343
  805MPD2    N111917   1.522   1.173  14.773 -0.0916 -0.0272  0.3064
  805MPD2    H711918   1.619   1.141  14.771 -0.0917  0.0596 -1.3852
  806MPD2     C11919   1.846   0.882   0.233 -0.3606 -0.0111  0.3048
  806MPD2    C111920   1.789   0.979   0.312  0.6539  0.5499 -0.3758
  806MPD2    C211921   1.758   1.101   0.259  0.2825 -0.4513  0.0180
  806MPD2    C311922   1.778   1.126   0.121  0.2022  0.8694  0.5294
  806MPD2    C411923   1.795   1.019   0.042  0.1954  0.1870 -0.0545
  806MPD2    C511924   1.838   0.904   0.099 -0.0109 -0.0806  0.3245
  806MPD2     H11925   1.726   1.178   0.327  2.2473  0.7528 -0.4508
  806MPD2    H111926   1.780   1.016  17.683 -1.9915  1.8790  0.2076
  806MPD2    H211927   1.894   0.792   0.271  0.9718 -0.1050 -1.6067
  806MPD2    H311928   1.853   0.820   0.032  0.4198  1.7447 -1.8438
  806MPD2     N11929   1.761   1.253   0.069  0.8575 -0.2161 -0.0125
  806MPD2    H511930   1.742   1.329   0.133  2.2467 -0.8233  1.1320
  806MPD2    N111931   1.771   0.946   0.449 -0.6079 -0.9064  0.2454
  806MPD2    H711932   1.809   0.860   0.487  0.6735 -0.0606  0.9126
  807MPD2     C11933   1.279   1.063   1.165  0.2449 -0.3077 -0.1914
  807MPD2    C111934   1.413   1.059   1.182 -0.5207 -0.5814 -0.2365
  807MPD2    C211935   1.468   1.122   1.286 -0.4949  0.1040  0.8351
  807MPD2    C311936   1.394   1.191   1.383  0.5242  0.6320 -0.2471
  807MPD2    C411937   1.254   1.197   1.372 -0.0750 -0.0397  1.0879
  807MPD2    C511938   1.204   1.130   1.261 -0.5207 -0.6775 -0.2491
  807MPD2     H11939   1.576   1.121   1.293 -0.4909  0.0628  0.7775
  807MPD2    H111940   1.187   1.250   1.438  0.6107  1.4827  0.5656
  807MPD2    H211941   1.231   1.027   1.074 -1.1029  1.5632 -0.2153
  807MPD2    H311942   1.097   1.135   1.246 -0.4414 -0.1001 -0.6062
  807MPD2     N11943   1.475   1.243   1.487  0.1986 -0.2831 -0.4715
  807MPD2    H511944   1.574   1.221   1.497  0.2136  0.6608  1.4534
  807MPD2    N111945   1.509   1.009   1.080 -0.2174  0.1339  0.2010
  807MPD2    H711946   1.610   1.020   1.082 -0.1986 -0.5965  3.7713
  808MPD2     C11947   2.600   2.303   9.957 -0.0593 -0.2860 -0.6504
  808MPD2    C111948   2.546   2.328   9.834 -0.2189  0.0066 -0.4849
  808MPD2    C211949   2.563   2.457   9.782 -0.0697 -0.3295  0.3795
  808MPD2    C311950   2.649   2.548   9.834 -0.5151 -0.0041 -1.0870
  808MPD2    C411951   2.697   2.530   9.960  0.3344  0.0266  0.1234
  808MPD2    C511952   2.667   2.406  10.022 -0.1364  0.1207 -0.1889
  808MPD2     H11953   2.513   2.489   9.691  1.2134 -2.9577 -1.2509
  808MPD2    H111954   2.765   2.606   9.996  0.9818  0.8207 -2.7417
  808MPD2    H211955   2.613   2.206  10.005  2.5595  0.9383  1.1633
  808MPD2    H311956   2.713   2.390  10.119  1.3243  1.3386 -0.6954
  808MPD2     N11957   2.680   2.673   9.769  0.1115  0.2270  0.3734
  808MPD2    H511958   2.735   2.742   9.820  2.2167 -0.3021 -1.2213
  808MPD2    N111959   2.477   2.227   9.757 -0.1506 -0.4397  0.6301
  808MPD2    H711960   2.432   2.254   9.670 -0.2664 -0.1491  0.7785
  809MPD2     C11961   3.241   2.658   9.036  0.0505  0.4940 -0.1401
  809MPD2    C111962   3.273   2.685   9.166  0.1766  0.1020  0.2695
  809MPD2    C211963   3.183   2.749   9.250 -0.7471  0.3517 -0.5005
  809MPD2    C311964   3.057   2.789   9.205  0.1085 -0.3499 -0.1323
  809MPD2    C411965   3.023   2.767   9.077  0.0326  0.2911  0.3401
  809MPD2    C511966   3.115   2.705   8.991 -0.2882  0.0972  0.8530
  809MPD2     H11967   3.211   2.772   9.352  1.6684 -0.9661 -0.8584
  809MPD2    H111968   2.926   2.794   9.037  1.1916  0.9734 -1.9602
  809MPD2    H211969   3.310   2.596   8.980 -0.0232  0.8284 -0.6009
  809MPD2    H311970   3.083   2.679   8.891 -0.5032  0.4044  0.8428
  809MPD2     N11971   2.967   2.854   9.286 -0.0875 -0.3753  0.1813
  809MPD2    H511972   2.874   2.867   9.248  0.9795  0.5388 -2.1436
  809MPD2    N111973   3.393   2.645   9.228 -0.6456  0.0435 -0.5655
  809MPD2    H711974   3.394   2.675   9.325 -1.4928 -1.6260 -0.0388
  810MPD2     C11975   2.565   1.310  10.775 -0.3380  0.0548  0.3866
  810MPD2    C111976   2.523   1.401  10.681 -0.0405  0.0544 -0.0793
  810MPD2    C211977   2.531   1.537  10.713 -0.3657  0.5927  0.0376
  810MPD2    C311978   2.590   1.573  10.830 -0.7341 -0.2509 -0.3589
  810MPD2    C411979   2.631   1.477  10.923  0.3004  0.5121  0.0495
  810MPD2    C511980   2.618   1.349  10.895 -0.2510  0.1543 -0.0769
  810MPD2     H11981   2.479   1.610  10.651 -1.6878 -0.4289 -0.0695
  810MPD2    H111982   2.655   1.504  11.025 -2.1248  0.7065  0.5784
  810MPD2    H211983   2.559   1.205  10.751 -0.6008  0.7263 -2.4531
  810MPD2    H311984   2.649   1.279  10.972  0.0633  1.2076  0.7710
  810MPD2     N11985   2.596   1.712  10.848  0.5385  0.0490  0.2267
  810MPD2    H511986   2.561   1.769  10.772  3.6015  0.4482 -0.9097
  810MPD2    N111987   2.462   1.343  10.561 -0.1948  0.2478  0.1813
  810MPD2    H711988   2.467   1.242  10.551 -2.1434  0.1835 -0.1775
  811MPD2     C11989   1.854   1.339   9.904 -1.0309 -0.2420  0.3950
  811MPD2    C111990   1.974   1.406   9.920  0.3872 -1.0046 -0.0672
  811MPD2    C211991   1.994   1.527   9.866  0.3880  0.5424  0.8406
  811MPD2    C311992   1.888   1.591   9.807  0.1607 -0.5936  0.2341
  811MPD2    C411993   1.768   1.521   9.779  0.3845 -0.9048 -0.2970
  811MPD2    C511994   1.754   1.399   9.841  0.0119 -0.7181  0.8181
  811MPD2     H11995   2.089   1.578   9.871  0.6868  0.2264 -1.5743
  811MPD2    H111996   1.679   1.567   9.738  0.1013 -1.3801 -0.2079
  811MPD2    H211997   1.833   1.241   9.944  0.7441 -0.0623  1.7434
  811MPD2    H311998   1.657   1.356   9.818  0.6816 -2.6604  1.6823
  811MPD2     N11999   1.902   1.734   9.767  0.5694  0.2063 -0.1546
  811MPD2    H512000   1.994   1.774   9.774  1.1908 -0.8969 -1.9404
  811MPD2    N112001   2.073   1.347  10.012 -0.5145  0.0777 -0.2473
  811MPD2    H712002   2.053   1.255  10.051  0.2919  1.4464  3.3406
  812MPD2     C12003   1.293   1.322  12.121  0.1554  0.0762 -0.3270
  812MPD2    C112004   1.174   1.338  12.196 -0.1187  0.1131  0.4739
  812MPD2    C212005   1.124   1.239  12.277  0.2688  0.0676  0.2703
  812MPD2    C312006   1.187   1.120  12.268  0.2654 -0.0506  0.0950
  812MPD2    C412007   1.296   1.092  12.185  0.4483  0.3976 -0.2797
  812MPD2    C512008   1.350   1.200  12.114 -0.2419  0.5579 -0.0757
  812MPD2     H12009   1.035   1.242  12.338  1.8265  1.7479  2.4189
  812MPD2    H112010   1.353   1.001  12.174 -0.1284 -0.0717  0.6868
  812MPD2    H212011   1.335   1.406  12.067  1.4581  1.5825  3.0637
  812MPD2    H312012   1.448   1.187  12.070 -0.1775 -0.5104  0.3912
  812MPD2     N12013   1.132   1.019  12.358 -0.4417  0.0711  0.3356
  812MPD2    H512014   1.070   1.058  12.428  1.2436  0.4816  1.5703
  812MPD2    N112015   1.120   1.468  12.196 -0.0976 -0.2859  0.3281
  812MPD2    H712016   1.166   1.532  12.133  0.0343 -0.6973  0.0095
  813MPD2     C12017   4.504   3.198  12.931 -0.3796 -0.3029  0.3997
  813MPD2    C112018   4.577   3.263  13.033  0.2877 -0.1633  0.2951
  813MPD2    C212019   4.527   3.375  13.095  0.4960  0.6384 -0.4761
  813MPD2    C312020   4.403   3.425  13.062 -0.0693 -0.5040  0.3034
  813MPD2    C412021   4.325   3.348  12.980 -0.0112 -0.1560 -0.0762
  813MPD2    C512022   4.382   3.243  12.908 -0.3003  0.1817 -0.0735
  813MPD2     H12023   4.599   3.432  13.152 -1.1222  0.5532  1.6331
  813MPD2    H112024   4.220   3.370  12.963 -0.7501 -1.0371  3.2525
  813MPD2    H212025   4.548   3.118  12.873  0.0754 -0.2193  0.6232
  813MPD2    H312026   4.324   3.188  12.835  0.3399 -0.8956  0.2172
  813MPD2     N12027   4.354   3.531  13.129 -0.1552 -0.5464  0.0517
  813MPD2    H512028   4.414   3.574  13.199 -0.3320 -2.4504  1.3838
  813MPD2    N112029   4.711   3.217  13.059  0.2190  0.2941  0.7136
  813MPD2    H712030   0.029   3.286  13.109  1.0226  0.3546 -0.2665
  814MPD2     C12031   0.994   4.562  11.969 -0.4548  0.5155  0.2992
  814MPD2    C112032   0.989   4.585  11.834 -0.4029 -0.0413  0.0922
  814MPD2    C212033   1.029   4.704  11.787 -0.7933  0.1997 -0.0715
  814MPD2    C312034   1.056   0.071  11.870  0.3277  0.3875 -0.1182
  814MPD2    C412035   1.047   0.054  12.005  0.0230 -0.4379 -0.3430
  814MPD2    C512036   1.010   4.671  12.052  0.4947  0.2815 -0.0418
  814MPD2     H12037   1.032   4.717  11.680 -1.1618 -1.0492 -0.2362
  814MPD2    H112038   1.063   0.130  12.081  0.9102 -0.6519 -0.3275
  814MPD2    H212039   0.979   4.462  12.009  1.3651  0.8316  1.7637
  814MPD2    H312040   1.006   4.655  12.159 -1.5107 -3.5826 -0.7153
  814MPD2     N12041   1.110   0.197  11.827 -0.5047 -0.3380  0.5020
  814MPD2    H512042   1.121   0.273  11.893  2.2877  1.9054 -2.5507
  814MPD2    N112043   0.952   4.504  11.719  0.2652 -0.1203 -0.0599
  814MPD2    H712044   0.950   4.547  11.627  1.2290 -0.1828 -0.1097
  815MPD2     C12045   0.859   2.991  11.924  0.2140 -0.5413 -0.4425
  815MPD2    C112046   0.862   2.878  11.841 -0.5770  0.7314  0.1540
  815MPD2    C212047   0.755   2.787  11.844  0.4053  0.0018 -0.1071
  815MPD2    C312048   0.634   2.822  11.905 -0.6043  0.0193 -0.1112
  815MPD2    C412049   0.627   2.938  11.979 -0.1750 -0.4192  0.5137
  815MPD2    C512050   0.740   3.018  11.986 -0.2604 -0.6197 -0.0247
  815MPD2     H12051   0.761   2.685  11.810 -0.9499 -0.2039  0.2877
  815MPD2    H112052   0.531   2.972  12.016  0.3681  1.4293  0.2103
  815MPD2    H212053   0.943   3.057  11.938  2.1404 -2.6804 -2.0555
  815MPD2    H312054   0.734   3.109  12.045 -0.9469 -1.1883  0.7809
  815MPD2     N12055   0.519   2.739  11.892 -0.7975 -0.6012  0.2664
  815MPD2    H512056   0.524   2.662  11.825  1.2621 -0.0231 -0.2373
  815MPD2    N112057   0.986   2.845  11.778 -0.6079  0.3302 -0.3093
  815MPD2    H712058   0.982   2.754  11.733 -1.7322 -0.7049  1.8953
  816MPD2     C12059   0.622   3.065  17.067 -0.3082 -0.4924  0.9315
  816MPD2    C112060   0.755   3.105  17.061 -0.3611  0.5706  0.3036
  816MPD2    C212061   0.853   3.004  17.046 -0.7047 -0.6749  0.2807
  816MPD2    C312062   0.816   2.873  17.046 -0.5734  0.1245 -0.1098
  816MPD2    C412063   0.683   2.833  17.062  0.3756  0.0986 -0.7903
  816MPD2    C512064   0.586   2.930  17.069 -0.2694  0.0932  0.4791
  816MPD2     H12065   0.959   3.024  17.040 -0.7522  0.3823  3.1698
  816MPD2    H112066   0.650   2.731  17.074 -0.0932  0.1614 -1.5372
  816MPD2    H212067   0.546   3.141  17.083  2.0733  2.3075 -0.9348
  816MPD2    H312068   0.488   2.899  17.104 -1.5554  2.2067 -1.2000
  816MPD2     N12069   0.919   2.778  17.007 -1.1849 -0.4432 -0.6390
  816MPD2    H512070   1.003   2.815  16.962 -1.9640  1.9605 -0.1208
  816MPD2    N112071   0.785   3.242  17.094 -0.0016  0.7890 -0.1792
  816MPD2    H712072   0.706   3.304  17.108 -0.1989  0.6198 -0.5561
  817MPD2     C12073   0.614   3.886   9.991  0.0323  0.4373  0.0797
  817MPD2    C112074   0.685   3.917   9.881  0.1368 -0.5220  1.1010
  817MPD2    C212075   0.664   4.028   9.808  0.0129  0.3270 -0.1959
  817MPD2    C312076   0.566   4.112   9.846  0.1818 -0.9074 -0.2084
  817MPD2    C412077   0.490   4.082   9.953  0.2488  0.1432 -0.2521
  817MPD2    C512078   0.512   3.970  10.024  0.3610 -0.2375  0.3517
  817MPD2     H12079   0.711   4.050   9.712 -0.6011  1.7621 -0.1630
  817MPD2    H112080   0.413   4.145   9.998  2.0148  2.1607 -0.0433
  817MPD2    H212081   0.625   3.801  10.057 -1.8119  1.4854  1.7220
  817MPD2    H312082   0.444   3.971  10.108 -1.8687 -0.3275 -1.4543
  817MPD2     N12083   0.548   4.235   9.769  0.0286 -0.0399 -0.1286
  817MPD2    H512084   0.613   4.250   9.693 -0.9586 -1.5374 -1.2535
  817MPD2    N112085   0.791   3.834   9.846 -0.0128  0.4582  0.2497
  817MPD2    H712086   0.835   3.859   9.757 -0.6976 -0.0008 -0.2192
  818MPD2     C12087   4.391   4.254  10.081 -0.3294  0.4219 -0.0873
  818MPD2    C112088   4.367   4.132  10.122 -0.0386  0.1388 -0.1879
  818MPD2    C212089   4.423   4.032  10.037 -0.1298  0.3578  0.3233
  818MPD2    C312090   4.472   4.054   9.911 -0.3845  0.8969 -0.4896
  818MPD2    C412091   4.469   4.185   9.868  0.3717 -0.4512 -0.0978
  818MPD2    C512092   4.427   4.283   9.957 -0.1780  0.6685  0.6690
  818MPD2     H12093   4.415   3.927  10.064  0.1421  0.0485 -0.8018
  818MPD2    H112094   4.491   4.213   9.766  1.2059 -1.1396 -0.1078
  818MPD2    H212095   4.364   4.348  10.128  0.7260 -0.5119  2.3755
  818MPD2    H312096   4.413   4.382   9.918 -1.1192  0.8308  1.4316
  818MPD2     N12097   4.525   3.953   9.828 -0.7979  0.3240 -0.4960
  818MPD2    H512098   4.535   3.974   9.729 -1.2059  3.5936  0.1491
  818MPD2    N112099   4.312   4.093  10.248  0.6026 -0.6356 -0.7319
  818MPD2    H712100   4.321   3.994  10.266 -0.3559 -0.0887  2.6551
  819MPD2     C12101   2.257   1.344  15.565 -0.2741  0.4662  0.3073
  819MPD2    C112102   2.292   1.211  15.591 -0.1580  0.2071  0.6304
  819MPD2    C212103   2.382   1.185  15.687  0.3067  0.0127 -0.4483
  819MPD2    C312104   2.434   1.285  15.774 -0.2890  0.4658 -0.3248
  819MPD2    C412105   2.401   1.417  15.747  0.1706 -0.0592 -0.5762
  819MPD2    C512106   2.310   1.445  15.648  1.0622 -0.0595  1.0528
  819MPD2     H12107   2.396   1.081  15.716 -3.1411  0.1849  1.9005
  819MPD2    H112108   2.444   1.501  15.799  1.0567 -0.6057 -0.4222
  819MPD2    H212109   2.201   1.365  15.475 -0.1826  3.4932  0.9429
  819MPD2    H312110   2.290   1.549  15.628  2.0328 -0.0052  0.3808
  819MPD2     N12111   2.516   1.242  15.877  0.1794  0.4265 -0.5128
  819MPD2    H512112   2.507   1.140  15.875  3.7108  0.1345 -1.1768
  819MPD2    N112113   2.235   1.107  15.512 -0.1471 -0.0361 -0.2215
  819MPD2    H712114   2.174   1.138  15.437  0.1864 -1.9892 -1.3115
  820MPD2     C12115   2.073   1.223  14.710  0.0816  0.5198  0.7286
  820MPD2    C112116   1.999   1.110  14.725 -0.1091  0.2424  0.6328
  820MPD2    C212117   2.016   1.029  14.833  0.2914  0.2262 -0.1860
  820MPD2    C312118   2.114   1.055  14.922  0.3841  1.0053  0.3821
  820MPD2    C412119   2.202   1.160  14.901  0.8400  0.3621 -0.0254
  820MPD2    C512120   2.177   1.249  14.795  0.1369 -0.4646 -0.5908
  820MPD2     H12121   1.952   0.942  14.844 -2.4173  2.3415  0.6266
  820MPD2    H112122   2.279   1.186  14.971  0.2601  2.2053 -0.0853
  820MPD2    H212123   2.047   1.288  14.627 -2.0805  1.1853  1.9269
  820MPD2    H312124   2.241   1.336  14.785 -0.4612 -0.0825 -1.0498
  820MPD2     N12125   2.130   0.978  15.035 -0.1205 -0.1706  1.0665
  820MPD2    H512126   2.211   1.000  15.093 -0.8974  0.3131  1.9632
  820MPD2    N112127   1.898   1.094  14.628  0.4382 -0.4395  0.0230
  820MPD2    H712128   1.880   1.170  14.563  3.1347  0.4631  0.3175
  821MPD2     C12129   2.067   2.097  13.267 -0.1386  0.0448  0.2424
  821MPD2    C112130   2.184   2.053  13.325 -0.6261  0.0210  0.8170
  821MPD2    C212131   2.309   2.078  13.269 -0.6673 -0.1632 -0.2418
  821MPD2    C312132   2.319   2.150  13.145 -0.4807  0.8002  0.0384
  821MPD2    C412133   2.202   2.196  13.090  0.3766  0.7265  0.7907
  821MPD2    C512134   2.081   2.166  13.155 -0.0338  0.0179 -0.7267
  821MPD2     H12135   2.398   2.077  13.331 -1.5482 -0.6491  1.0074
  821MPD2    H112136   2.202   2.265  13.006 -2.3858 -1.8172 -1.3158
  821MPD2    H212137   1.969   2.096  13.314  0.0818  0.9074  0.7321
  821MPD2    H312138   1.990   2.212  13.117  0.7520 -0.7968 -3.5895
  821MPD2     N12139   2.443   2.166  13.079  0.0031  0.0865  0.8445
  821MPD2    H512140   2.441   2.229  13.000 -1.3535 -2.0346 -0.7948
  821MPD2    N112141   2.190   1.981  13.443 -0.0500  0.9162  0.3300
  821MPD2    H712142   2.283   1.955  13.472  0.1046  0.0950 -0.9007
  822MPD2     C12143   2.984   2.221  15.858  0.2013 -0.1717 -0.0798
  822MPD2    C112144   2.922   2.191  15.979  0.2082 -0.4428  0.1578
  822MPD2    C212145   2.815   2.260  16.017  0.1857 -0.2829 -0.5808
  822MPD2    C312146   2.768   2.369  15.946  0.0652  0.0174  0.2930
  822MPD2    C412147   2.829   2.401  15.825  1.4649  1.1090  0.4920
  822MPD2    C512148   2.929   2.322  15.782  0.6535 -0.0211 -0.0622
  822MPD2     H12149   2.765   2.244  16.112 -1.0866  0.4073 -1.1372
  822MPD2    H112150   2.789   2.481  15.763  3.0280  1.0438 -0.6051
  822MPD2    H212151   3.075   2.185  15.810 -0.2304 -4.2232  2.2364
  822MPD2    H312152   2.982   2.355  15.693 -0.6133  1.3690 -0.2914
  822MPD2     N12153   2.668   2.446  16.004  0.1105  0.6122 -0.3008
  822MPD2    H512154   2.616   2.402  16.079  0.2103  0.3404 -0.3898
  822MPD2    N112155   2.983   2.103  16.074  0.7852 -0.1002  0.3746
  822MPD2    H712156   2.948   2.112  16.169  0.6296  0.9319  0.2241
  823MPD2     C12157   2.378   2.767  16.737  0.5531  0.2522 -0.3245
  823MPD2    C112158   2.417   2.661  16.656  0.1174  0.1164 -0.3229
  823MPD2    C212159   2.485   2.549  16.708  0.1527  0.8556  0.0639
  823MPD2    C312160   2.515   2.548  16.844  0.0131 -0.0149  0.4119
  823MPD2    C412161   2.478   2.651  16.926 -0.1608  0.3215  0.4105
  823MPD2    C512162   2.407   2.755  16.871  0.6005  0.2502  0.0606
  823MPD2     H12163   2.507   2.463  16.646 -1.0116  0.5913  0.0181
  823MPD2    H112164   2.498   2.653  17.033  0.3919  1.9931  0.2854
  823MPD2    H212165   2.313   2.847  16.704  1.2490  0.1297 -2.0006
  823MPD2    H312166   2.385   2.833  16.943 -2.0560 -0.3536 -0.0836
  823MPD2     N12167   2.596   2.441  16.915 -0.0894  0.0002 -0.0524
  823MPD2    H512168   2.609   2.455  17.015 -0.8441  0.6479 -0.0425
  823MPD2    N112169   2.401   2.682  16.518  0.1168  0.3594 -0.0764
  823MPD2    H712170   2.374   2.776  16.491  0.6209  0.3616 -0.5675
  824MPD2     C12171   3.663   1.546  16.165 -0.5572 -0.1776 -0.2838
  824MPD2    C112172   3.578   1.606  16.076  0.0628  0.1489 -0.2646
  824MPD2    C212173   3.608   1.581  15.943  0.2891 -0.5768 -0.6943
  824MPD2    C312174   3.710   1.493  15.904 -0.6372 -0.3995 -0.1232
  824MPD2    C412175   3.790   1.433  15.994  0.1408  0.2015  0.3402
  824MPD2    C512176   3.771   1.472  16.125 -0.4068  0.5072 -0.0766
  824MPD2     H12177   3.540   1.621  15.870 -0.5813 -0.2709  0.2786
  824MPD2    H112178   3.860   1.355  15.967  0.5923 -0.2174  2.7287
  824MPD2    H212179   3.646   1.558  16.272 -2.3446  0.6504 -0.6639
  824MPD2    H312180   3.848   1.447  16.197 -0.8134  0.2585  0.2733
  824MPD2     N12181   3.735   1.474  15.763 -0.4157 -0.0158  0.3686
  824MPD2    H512182   3.686   1.532  15.696 -0.5101 -1.2060 -0.6053
  824MPD2    N112183   3.482   1.701  16.111 -0.2115 -0.6271 -0.0600
  824MPD2    H712184   3.425   1.748  16.042 -0.8290  1.9582  2.2191
  825MPD2     C12185   4.216   1.791  15.143  0.0649 -0.4847  0.1977
  825MPD2    C112186   4.115   1.794  15.234 -0.0801  0.6404 -0.2041
  825MPD2    C212187   4.061   1.919  15.261 -0.1693  0.4554  0.2914
  825MPD2    C312188   4.126   2.035  15.225  0.0040 -0.5477  0.7422
  825MPD2    C412189   4.225   2.030  15.139 -0.3089  0.1086 -0.5915
  825MPD2    C512190   4.271   1.908  15.101 -0.7542  0.0477  0.1376
  825MPD2     H12191   3.977   1.931  15.329  0.2971 -1.2194  1.1702
  825MPD2    H112192   4.270   2.122  15.102 -0.9739  1.0933  1.0470
  825MPD2    H212193   4.258   1.695  15.113  1.3997  0.2796 -0.3840
  825MPD2    H312194   4.358   1.909  15.036  0.3539 -1.9870  1.5852
  825MPD2     N12195   4.086   2.167  15.266  0.2130  0.2226 -0.5012
  825MPD2    H512196   4.141   2.241  15.223 -0.4909  1.6090  0.9756
  825MPD2    N112197   4.069   1.671  15.291  0.0796  0.4646 -0.0834
  825MPD2    H712198   4.127   1.589  15.281 -0.2024  0.2942 -0.3258
  826MPD2     C12199   4.343   1.014  13.420 -0.2098  0.2751  0.2181
  826MPD2    C112200   4.258   1.049  13.316  0.2696 -0.3713 -0.4904
  826MPD2    C212201   4.163   1.152  13.326 -0.2383 -0.0352 -1.0519
  826MPD2    C312202   4.170   1.220  13.444 -0.3664 -0.8445 -0.6017
  826MPD2    C412203   4.245   1.178  13.546  0.0677 -0.4707  0.4422
  826MPD2    C512204   4.321   1.068  13.544 -0.5472 -0.1034 -0.4349
  826MPD2     H12205   4.087   1.170  13.251  0.0908  0.0268 -1.3712
  826MPD2    H112206   4.232   1.221  13.645 -3.9025 -0.0981 -0.2457
  826MPD2    H212207   4.414   0.933  13.423  0.8696  1.2463  1.2694
  826MPD2    H312208   4.361   1.027  13.636  0.4152  0.0492 -0.7849
  826MPD2     N12209   4.091   1.333  13.473  0.3501  0.1175 -0.1337
  826MPD2    H512210   4.092   1.377  13.565  1.0358  0.6599 -0.3986
  826MPD2    N112211   4.270   0.963  13.204  0.0044  0.1031 -0.5503
  826MPD2    H712212   4.335   0.885  13.212 -1.4183 -1.1477 -1.2124
  827MPD2     C12213   0.288   2.411   9.914 -0.0281  0.0642  0.6096
  827MPD2    C112214   0.189   2.374   9.998  0.4598  0.6882 -0.5389
  827MPD2    C212215   0.068   2.451  10.000  0.0379  0.8126 -0.0593
  827MPD2    C312216   0.054   2.558   9.916 -0.3184  0.5411  0.6731
  827MPD2    C412217   0.164   2.608   9.844  0.8503  0.1216 -0.4015
  827MPD2    C512218   0.274   2.525   9.837 -0.4880  0.2096 -0.0179
  827MPD2     H12219   4.728   2.406  10.060  1.6521 -0.8700  0.7726
  827MPD2    H112220   0.159   2.695   9.779 -2.0792 -1.4863 -2.2977
  827MPD2    H212221   0.383   2.359   9.904  0.0617  0.5466 -1.1048
  827MPD2    H312222   0.356   2.544   9.768  1.2444 -0.4700  1.8654
  827MPD2     N12223   4.664   2.629   9.929  0.0031 -0.6717 -0.3857
  827MPD2    H512224   4.602   2.600  10.004  0.4574  0.2583  0.3567
  827MPD2    N112225   0.226   2.269  10.082 -0.6892  0.0405 -0.3059
  827MPD2    H712226   0.324   2.243  10.071 -0.6287 -0.0493  0.4238
  828MPD2     C12227   3.118   2.281  12.681  0.2719 -0.3370 -0.2699
  828MPD2    C112228   3.147   2.291  12.550 -0.3255 -0.1060 -0.2376
  828MPD2    C212229   3.277   2.278  12.504 -0.2981 -0.2640 -0.3810
  828MPD2    C312230   3.383   2.249  12.589  0.4722 -0.2095 -0.3764
  828MPD2    C412231   3.350   2.233  12.726  0.0415 -0.0332  0.0245
  828MPD2    C512232   3.222   2.251  12.763  0.2118  0.0183  0.4157
  828MPD2     H12233   3.295   2.278  12.397 -2.7059  0.8923 -0.7886
  828MPD2    H112234   3.419   2.205  12.805  0.2430 -0.0838 -0.1714
  828MPD2    H212235   3.019   2.288  12.724  0.0591  0.0927 -0.8272
  828MPD2    H312236   3.209   2.253  12.871  1.3436 -0.7141  0.5645
  828MPD2     N12237   3.517   2.239  12.548 -0.3555  0.2435  0.5023
  828MPD2    H512238   3.588   2.244  12.620  0.8575 -0.0245 -0.6700
  828MPD2    N112239   3.044   2.313  12.454 -0.0978  0.5502 -1.1242
  828MPD2    H712240   3.071   2.331  12.358  0.6623  1.4044 -0.7525
  829MPD2     C12241   3.255   2.736  11.757  0.0052  0.2123 -0.5836
  829MPD2    C112242   3.117   2.735  11.741 -0.0942  0.1603  0.9253
  829MPD2    C212243   3.041   2.653  11.823  0.3507 -0.0430  0.4046
  829MPD2    C312244   3.100   2.581  11.933  0.4862  0.2661  0.1257
  829MPD2    C412245   3.234   2.605  11.964  0.6086  0.0786 -0.3174
  829MPD2    C512246   3.309   2.674  11.870 -0.0399 -0.2225 -0.5563
  829MPD2     H12247   2.935   2.649  11.804  0.3756  2.6883 -0.2807
  829MPD2    H112248   3.293   2.556  12.041 -0.4683 -0.4826  0.1460
  829MPD2    H212249   3.316   2.796  11.691 -0.6720 -0.2214 -1.6068
  829MPD2    H312250   3.417   2.684  11.870  0.0031 -0.7890  0.4731
  829MPD2     N12251   3.023   2.504  12.020 -0.6424 -0.2380 -0.0207
  829MPD2    H512252   3.068   2.444  12.088  1.6609  2.9453  1.2746
  829MPD2    N112253   3.061   2.819  11.641  0.0935  0.4609  0.5774
  829MPD2    H712254   3.120   2.864  11.571 -0.5573  0.2147 -0.1321
  830MPD2     C12255   2.937   0.776  16.375 -0.0824  0.7755 -0.1800
  830MPD2    C112256   2.862   0.817  16.268  0.8214  0.7051  0.6676
  830MPD2    C212257   2.929   0.865  16.162  0.9906  0.3758 -0.5647
  830MPD2    C312258   3.068   0.885  16.164  0.2832 -0.2190  0.0571
  830MPD2    C412259   3.145   0.855  16.278  0.2392  0.9033  0.3178
  830MPD2    C512260   3.073   0.802  16.384  0.4315  0.2401 -0.2074
  830MPD2     H12261   2.871   0.886  16.072 -1.6636  0.6725  1.2211
  830MPD2    H112262   3.250   0.876  16.294  0.6320  0.5722 -1.8672
  830MPD2    H212263   2.883   0.728  16.456 -0.5570  2.0035  0.2338
  830MPD2    H312264   3.130   0.769  16.470 -0.8315  0.2348  0.6293
  830MPD2     N12265   3.145   0.929  16.049 -0.6562 -0.0127 -0.1718
  830MPD2    H512266   3.244   0.951  16.050 -0.7910  0.5166  1.1961
  830MPD2    N112267   2.718   0.807  16.275 -0.0326  0.1555 -0.7014
  830MPD2    H712268   2.680   0.719  16.307  2.0532  0.1137  1.7084
  831MPD2     C12269   2.858   2.611  16.302 -0.2066 -0.9090  0.1772
  831MPD2    C112270   2.919   2.494  16.254 -0.3526  0.1616  0.2133
  831MPD2    C212271   2.885   2.375  16.312 -0.0026 -0.0013  0.1276
  831MPD2    C312272   2.790   2.365  16.405  0.1136 -0.3392 -0.0453
  831MPD2    C412273   2.737   2.474  16.460 -0.5883  0.2700  0.1559
  831MPD2    C512274   2.768   2.598  16.408  0.1451 -0.1884 -0.3370
  831MPD2     H12275   2.935   2.286  16.275  0.3760  0.1520  0.2701
  831MPD2    H112276   2.662   2.463  16.538  0.1378 -0.0296  0.8127
  831MPD2    H212277   2.883   2.711  16.267 -0.3727 -0.9139  0.0457
  831MPD2    H312278   2.724   2.690  16.446  0.9836 -1.0285  2.6644
  831MPD2     N12279   2.739   2.237  16.452 -0.4216  0.4146 -0.0633
  831MPD2    H512280   2.659   2.251  16.513 -0.1616 -0.2539  0.4280
  831MPD2    N112281   3.017   2.499  16.161 -0.1120 -0.2339  0.2134
  831MPD2    H712282   3.008   2.574  16.092 -1.4747 -0.1676  0.4589
  832MPD2     C12283   1.970   4.272  17.122 -0.0223  0.0389 -0.3181
  832MPD2    C112284   1.984   4.337  17.000  0.0176 -0.3059  0.0856
  832MPD2    C212285   1.873   4.333  16.919  0.2346 -0.3052 -0.8339
  832MPD2    C312286   1.748   4.283  16.968 -0.1916 -0.2546  0.3707
  832MPD2    C412287   1.737   4.235  17.094 -0.7611  0.8071 -0.6829
  832MPD2    C512288   1.852   4.223  17.170  0.2368  0.1686 -0.2869
  832MPD2     H12289   1.878   4.395  16.830 -0.7301  1.5271  0.3960
  832MPD2    H112290   1.645   4.203  17.141 -0.5286 -0.5770 -1.1620
  832MPD2    H212291   2.064   4.264  17.176  0.9085  1.8239 -1.6696
  832MPD2    H312292   1.844   4.183  17.271  0.6510 -1.9607 -1.1105
  832MPD2     N12293   1.629   4.271  16.894 -0.2106 -0.0349 -0.2402
  832MPD2    H512294   1.547   4.236  16.943  1.3095 -1.3590  1.3428
  832MPD2    N112295   2.105   4.399  16.958 -0.0435  0.0549  0.2119
  832MPD2    H712296   2.178   4.394  17.027 -1.4710  0.0520  1.7292
  833MPD2     C12297   3.670   0.456  12.856  0.3237  0.5267 -0.2922
  833MPD2    C112298   3.674   0.521  12.740 -0.0819  0.1775 -0.3623
  833MPD2    C212299   3.730   0.451  12.632 -0.4752  0.3851 -0.8155
  833MPD2    C312300   3.768   0.319  12.645 -0.0865  0.4903 -0.2151
  833MPD2    C412301   3.745   0.256  12.762 -1.0228 -0.3023 -0.0500
  833MPD2    C512302   3.700   0.326  12.866  0.6287  0.5418  0.1681
  833MPD2     H12303   3.751   0.497  12.536  3.6682  0.1735 -0.0111
  833MPD2    H112304   3.778   0.155  12.783  0.6112  0.4958  1.2215
  833MPD2    H212305   3.635   0.513  12.942  1.9110  1.1738 -0.0819
  833MPD2    H312306   3.700   0.283  12.965 -2.5051  1.3387  0.5277
  833MPD2     N12307   3.831   0.242  12.542  0.3104 -0.3421 -0.3768
  833MPD2    H512308   3.850   0.144  12.560  0.9242 -0.2876 -0.7367
  833MPD2    N112309   3.617   0.642  12.716  0.3242  0.5954 -0.7004
  833MPD2    H712310   3.614   0.672  12.619  1.1936  1.3626 -0.4908
  834MPD2     C12311   3.887   4.072  12.177 -0.1429 -0.9817 -0.3589
  834MPD2    C112312   3.905   4.136  12.057  0.1945  0.0590 -0.3616
  834MPD2    C212313   3.883   4.273  12.048 -0.1191  0.4122  0.0607
  834MPD2    C312314   3.838   4.341  12.156 -0.5329 -0.2121  0.2150
  834MPD2    C412315   3.797   4.272  12.270  0.7048  1.0188  0.4994
  834MPD2    C512316   3.824   4.134  12.283  1.2389  0.1656  0.2753
  834MPD2     H12317   3.905   4.323  11.955 -1.9617  0.1173 -0.5327
  834MPD2    H112318   3.757   4.321  12.358 -1.1115 -1.1189  0.8815
  834MPD2    H212319   3.900   3.966  12.193  0.0345 -1.0784 -1.1355
  834MPD2    H312320   3.793   4.088  12.377  1.1737 -2.1395 -0.8575
  834MPD2     N12321   3.831   4.484  12.138 -0.3580 -0.0322  0.3289
  834MPD2    H512322   3.852   4.537  12.054  1.6310 -0.3705  0.6095
  834MPD2    N112323   3.949   4.060  11.945 -0.2612  0.2634 -0.3901
  834MPD2    H712324   3.957   3.962  11.969  2.6127  0.0821 -2.1191
  835MPD2     C12325   4.208   2.417  11.357  0.2597  0.6883  0.1673
  835MPD2    C112326   4.105   2.509  11.347  0.3580  0.0925  0.0536
  835MPD2    C212327   4.058   2.581  11.452  0.7300 -0.5862 -0.4138
  835MPD2    C312328   4.100   2.559  11.579 -0.0610 -0.9634 -0.4449
  835MPD2    C412329   4.196   2.458  11.595 -0.9824 -0.6203  0.3013
  835MPD2    C512330   4.256   2.399  11.487 -0.0640 -0.4770  0.2236
  835MPD2     H12331   3.997   2.668  11.428  1.9927  0.4738  0.2216
  835MPD2    H112332   4.244   2.440  11.691 -2.1328  0.7564  1.1286
  835MPD2    H212333   4.260   2.372  11.273 -1.4218 -2.5155  0.8501
  835MPD2    H312334   4.343   2.333  11.491 -1.1863 -1.8451  2.1096
  835MPD2     N12335   4.060   2.635  11.695 -0.0911  0.1797  0.3470
  835MPD2    H512336   4.116   2.613  11.776  0.5213 -0.1858 -0.1703
  835MPD2    N112337   4.042   2.535  11.226  0.6626 -0.0645 -0.1067
  835MPD2    H712338   3.974   2.610  11.224  0.7979  0.0467 -0.5233
  836MPD2     C12339   3.442   3.151  11.771  0.6255  0.4493  0.6228
  836MPD2    C112340   3.457   3.052  11.862  0.1208 -0.1145  0.1051
  836MPD2    C212341   3.351   3.001  11.940 -0.7760 -0.7527  0.0109
  836MPD2    C312342   3.223   3.048  11.919  0.0930  0.3628 -0.4037
  836MPD2    C412343   3.205   3.155  11.834  0.1632 -0.1240  0.1466
  836MPD2    C512344   3.313   3.204  11.758  0.0778  0.4502  0.6087
  836MPD2     H12345   3.361   2.910  12.000 -1.7689 -1.2386 -0.5575
  836MPD2    H112346   3.104   3.190  11.817 -0.2261 -1.0113  0.6297
  836MPD2    H212347   3.525   3.193  11.716  3.0784 -1.9871  2.4711
  836MPD2    H312348   3.297   3.292  11.697  0.1653 -1.3376 -2.0329
  836MPD2     N12349   3.106   3.004  11.982 -0.2478 -0.6045 -0.0957
  836MPD2    H512350   3.014   3.042  11.961  1.3872  3.5208  0.2324
  836MPD2    N112351   3.591   3.007  11.875  0.3842 -0.0187 -0.6657
  836MPD2    H712352   3.658   3.030  11.802 -0.3148  0.5535 -1.1243
  837MPD2     C12353   2.214   2.361  10.020  0.0724  0.0062  0.0814
  837MPD2    C112354   2.076   2.349  10.012 -0.6424  0.2404  0.0254
  837MPD2    C212355   2.003   2.445  10.077  0.0505 -0.0504 -0.1304
  837MPD2    C312356   2.061   2.550  10.149  0.0300  0.0268 -0.1115
  837MPD2    C412357   2.196   2.555  10.162  0.3525  0.3599  0.2631
  837MPD2    C512358   2.270   2.461  10.098  0.0393  0.8560  0.4149
  837MPD2     H12359   1.895   2.447  10.065  0.0231 -3.9513 -0.4539
  837MPD2    H112360   2.244   2.644  10.203  0.9632 -0.1315  0.6139
  837MPD2    H212361   2.285   2.298   9.969  0.9418  1.3218 -0.3384
  837MPD2    H312362   2.377   2.479  10.088  0.6639 -2.7936  0.3645
  837MPD2     N12363   1.968   2.645  10.196  0.8047  0.2085  0.7712
  837MPD2    H512364   1.871   2.620  10.182  0.9859  1.8528 -3.2588
  837MPD2    N112365   2.013   2.265   9.934  0.2337 -0.5308 -0.7767
  837MPD2    H712366   1.915   2.289   9.925 -0.0879 -1.0764  1.2801
  838MPD2     C12367   0.303   0.075  11.218  0.1924  0.3395  0.1177
  838MPD2    C112368   0.365   0.121  11.334 -0.4141  0.5347 -0.3007
  838MPD2    C212369   0.329   0.076  11.463 -0.8677  0.5133  0.1032
  838MPD2    C312370   0.220   0.002  11.480  0.3325  0.7482  0.3057
  838MPD2    C412371   0.153   4.709  11.365  0.0632  0.4898 -0.2465
  838MPD2    C512372   0.194   0.006  11.238 -0.1167  0.1750 -0.4816
  838MPD2     H12373   0.382   0.126  11.544  2.5276  0.2649 -1.9544
  838MPD2    H112374   0.058   4.656  11.360 -0.5747  1.4854  1.5360
  838MPD2    H212375   0.337   0.108  11.120  3.2803 -1.1443  0.6585
  838MPD2    H312376   0.129   4.713  11.156 -2.6938  1.0120  1.2304
  838MPD2     N12377   0.165   4.721  11.604  0.0158  0.5726 -0.2986
  838MPD2    H512378   0.210   0.028  11.683  1.0223  0.4375 -0.7974
  838MPD2    N112379   0.482   0.192  11.342  0.4131 -0.2063  0.3173
  838MPD2    H712380   0.515   0.212  11.436  1.7512 -1.0415  0.0249
  839MPD2     C12381   0.483   4.584  11.828  0.0500 -0.7174 -0.1524
  839MPD2    C112382   0.505   4.557  11.689  1.0155  0.2188  0.6366
  839MPD2    C212383   0.596   4.646  11.623 -0.1211 -0.3403 -0.4026
  839MPD2    C312384   0.658   0.011  11.691 -0.5073  0.2768 -0.0768
  839MPD2    C412385   0.637   0.031  11.824  0.1424 -0.4825 -0.2753
  839MPD2    C512386   0.562   4.679  11.891  0.3106  0.2568 -0.5168
  839MPD2     H12387   0.612   4.635  11.517  2.5178  0.4630 -0.0800
  839MPD2    H112388   0.679   0.115  11.878 -2.2689  1.3039 -1.1929
  839MPD2    H212389   0.423   4.514  11.886  0.9292 -2.3602 -1.2410
  839MPD2    H312390   0.552   4.685  11.999 -1.2275  2.9239 -0.8087
  839MPD2     N12391   0.739   0.104  11.628  0.1381  0.0810  0.5819
  839MPD2    H512392   0.744   0.196  11.671  0.9136 -0.3297  1.3726
  839MPD2    N112393   0.426   4.474  11.609  0.1821 -0.0659 -0.3670
  839MPD2    H712394   0.433   4.485  11.508 -3.0968  0.4658 -0.5361
  840MPD2     C12395   0.757   2.422  10.172 -0.6121 -0.2291 -0.0981
  840MPD2    C112396   0.738   2.380  10.305 -0.2420  0.4535 -0.5341
  840MPD2    C212397   0.811   2.432  10.408  0.0842 -0.3561  0.1033
  840MPD2    C312398   0.893   2.546  10.381  0.1296 -0.4503 -0.2659
  840MPD2    C412399   0.908   2.590  10.245 -0.4879  0.3191  0.2097
  840MPD2    C512400   0.842   2.526  10.148 -0.7865 -0.6767 -0.2785
  840MPD2     H12401   0.796   2.394  10.508  0.0188 -0.6357 -0.0151
  840MPD2    H112402   0.974   2.667  10.207  0.8789 -0.8280  0.3009
  840MPD2    H212403   0.712   2.380  10.083 -1.1964  1.0211 -0.3828
  840MPD2    H312404   0.875   2.537  10.045 -1.3612  1.2967 -0.2419
  840MPD2     N12405   0.953   2.624  10.478 -0.8259 -0.0607 -0.1462
  840MPD2    H512406   1.023   2.689  10.442  1.2525  0.1231  4.2658
  840MPD2    N112407   0.625   2.304  10.329 -0.4064  0.6626  0.0446
  840MPD2    H712408   0.588   2.273  10.239 -1.4435 -1.3414  1.1515
  841MPD2     C12409   4.535   3.246  14.726 -0.8900  0.0974  0.6932
  841MPD2    C112410   4.519   3.162  14.836  1.1442  0.6464  0.2759
  841MPD2    C212411   4.605   3.178  14.943 -0.1886  0.0228 -0.3806
  841MPD2    C312412   4.698   3.287  14.951 -0.1087 -0.0017 -0.0404
  841MPD2    C412413   4.707   3.374  14.841  0.1642  0.2437 -0.6807
  841MPD2    C512414   4.623   3.349  14.737 -0.1149  0.0219 -0.0486
  841MPD2     H12415   4.600   3.098  15.016 -1.2802 -1.4692 -2.1036
  841MPD2    H112416   0.030   3.464  14.844 -0.7210  0.8425 -0.6938
  841MPD2    H212417   4.493   3.230  14.628  0.0344  1.8289  0.0100
  841MPD2    H312418   4.644   3.402  14.645 -0.0220 -0.6045 -0.3964
  841MPD2     N12419   0.044   3.288  15.065  0.3108 -0.2959  0.6823
  841MPD2    H512420   0.030   3.217  15.135  2.2041 -0.9731  0.3765
  841MPD2    N112421   4.447   3.040  14.833  0.3839  0.4258 -0.1915
  841MPD2    H712422   4.445   2.970  14.907  0.2852  0.3781 -0.2391
  842MPD2     C12423   0.591   4.032  17.112  0.1985 -0.0055 -0.6802
  842MPD2    C112424   0.473   3.970  17.128  0.1191  0.3633  0.0292
  842MPD2    C212425   0.431   3.919  17.249  0.0800 -0.0848 -0.2119
  842MPD2    C312426   0.503   3.959  17.362 -0.5620 -0.0964 -0.8222
  842MPD2    C412427   0.624   4.029  17.342 -0.6547 -0.1157 -0.0403
  842MPD2    C512428   0.669   4.059  17.219  0.3503  0.5207 -0.2198
  842MPD2     H12429   0.330   3.885  17.267 -0.8399  2.0415 -1.5319
  842MPD2    H112430   0.691   4.047  17.425 -1.7444  1.5817  0.4529
  842MPD2    H212431   0.620   4.061  17.012  0.0028  0.9127 -0.4745
  842MPD2    H312432   0.766   4.104  17.207  1.0051 -0.5988  0.8800
  842MPD2     N12433   0.449   3.970  17.492 -0.2161 -0.1721  0.2846
  842MPD2    H512434   0.483   4.044  17.552 -3.3222  1.6426 -0.1926
  842MPD2    N112435   0.397   3.962  17.011  0.4010 -0.1631 -0.3199
  842MPD2    H712436   0.429   4.008  16.926  1.6406  1.0284  0.7818
  843MPD2     C12437   2.833   0.653  17.684  0.0131  0.1032 -0.0546
  843MPD2    C112438   2.919   0.550  17.724  0.1496 -0.1161 -0.4302
  843MPD2    C212439   3.009   0.571   0.075 -0.1751  0.4063  0.4268
  843MPD2    C312440   3.000   0.686   0.149 -0.0003 -0.0937  1.2924
  843MPD2    C412441   2.898   0.777   0.131  0.1631 -0.0626 -0.4027
  843MPD2    C512442   2.820   0.767   0.019  0.1336 -0.5604  0.2960
  843MPD2     H12443   3.080   0.496   0.106 -0.1471  1.3408  2.6424
  843MPD2    H112444   2.880   0.861   0.198 -0.7126 -0.3317 -0.2943
  843MPD2    H212445   2.743   0.645  17.623  0.9425 -2.3608 -1.0662
  843MPD2    H312446   2.742   0.842   0.003  0.6145  0.0155  0.6666
  843MPD2     N12447   3.096   0.716   0.254 -0.3614  0.1639  0.5638
  843MPD2    H512448   3.063   0.784   0.321 -1.0477 -0.0694  0.4600
  843MPD2    N112449   2.916   0.418  17.675 -0.0604  0.4726 -0.4446
  843MPD2    H712450   2.988   0.354  17.706 -1.7429 -0.3328  1.8050
  844MPD2     C12451   1.336   3.773  16.925 -0.3355  0.4456  0.5654
  844MPD2    C112452   1.323   3.781  16.788  0.3293  0.6052  0.7189
  844MPD2    C212453   1.420   3.852  16.727  0.7118  0.0756  0.3222
  844MPD2    C312454   1.529   3.902  16.799  0.6944  0.9231 -0.2322
  844MPD2    C412455   1.533   3.888  16.931 -0.4777 -0.3143 -0.6094
  844MPD2    C512456   1.430   3.833  16.998  0.0317  0.3192  0.7224
  844MPD2     H12457   1.412   3.872  16.620 -3.1382  0.4286  0.7056
  844MPD2    H112458   1.621   3.909  16.990 -0.6789 -0.6713 -0.1877
  844MPD2    H212459   1.271   3.717  16.991  0.6021 -1.3669 -0.0411
  844MPD2    H312460   1.426   3.827  17.106  2.0989  0.1373  0.7956
  844MPD2     N12461   1.654   3.956  16.749  0.1453 -0.6927  0.4257
  844MPD2    H512462   1.722   3.975  16.822 -0.7573  0.2616  1.0193
  844MPD2    N112463   1.213   3.731  16.714  0.1096 -0.5905  0.2532
  844MPD2    H712464   1.204   3.756  16.616 -1.7679  3.3304  1.4351
  845MPD2     C12465   1.579   0.045  16.349 -0.4501 -0.7965 -0.0383
  845MPD2    C112466   1.563   4.727  16.474 -1.2208  1.0548 -0.0307
  845MPD2    C212467   1.645   4.622  16.516 -1.0841  0.1455 -0.0187
  845MPD2    C312468   1.732   4.568  16.426 -0.0175 -0.2071  0.9414
  845MPD2    C412469   1.773   4.645  16.321  0.0847 -0.4110 -0.2771
  845MPD2    C512470   1.689   0.007  16.279  0.2508  0.8299 -0.1932
  845MPD2     H12471   1.621   4.564  16.605  1.6135 -0.6240  0.1947
  845MPD2    H112472   1.856   4.611  16.261  1.0827  1.9992 -0.2834
  845MPD2    H212473   1.524   0.136  16.328 -1.2349 -1.4934 -0.9760
  845MPD2    H312474   1.706   0.049  16.180 -1.4196 -0.1750 -0.9181
  845MPD2     N12475   1.789   4.446  16.464  0.3488  0.2916  0.3438
  845MPD2    H512476   1.750   4.404  16.548  1.9583  1.6056  1.7321
  845MPD2    N112477   1.464   0.052  16.552  0.0162  0.4407 -0.3086
  845MPD2    H712478   1.410   0.130  16.516 -0.9132  0.0062  0.1434
  846MPD2     C12479   2.406   4.409  13.393  0.4461 -0.4097  0.7873
  846MPD2    C112480   2.436   4.532  13.450  0.0536 -0.3262  0.4379
  846MPD2    C212481   2.399   4.561  13.575 -0.1530  0.3898 -0.4289
  846MPD2    C312482   2.340   4.468  13.659  0.6949 -0.0453  0.2661
  846MPD2    C412483   2.314   4.341  13.604 -0.2160 -0.0063 -0.4573
  846MPD2    C512484   2.348   4.315  13.476 -0.2142 -0.2252 -0.3898
  846MPD2     H12485   2.432   4.657  13.615  1.2039 -0.1144 -0.3493
  846MPD2    H112486   2.263   4.268  13.665 -0.2760 -0.9705 -1.6618
  846MPD2    H212487   2.436   4.368  13.297 -1.6764  0.4125 -0.2245
  846MPD2    H312488   2.330   4.216  13.437 -0.2752 -0.8293  1.1687
  846MPD2     N12489   2.314   4.497  13.795  0.5663  0.3404  0.5019
  846MPD2    H512490   2.304   4.590  13.837  2.4766  2.1013 -2.9434
  846MPD2    N112491   2.481   4.637  13.372  0.3157  0.0090  0.3598
  846MPD2    H712492   2.478   4.732  13.409 -0.4530 -0.1086  0.6031
  847MPD2     C12493   2.823   0.786  15.149  0.1063  0.5223  0.0942
  847MPD2    C112494   2.915   0.878  15.121 -0.7982  0.2264  0.1853
  847MPD2    C212495   3.051   0.857  15.140  0.3621  0.4625  0.0182
  847MPD2    C312496   3.099   0.744  15.213  0.3986 -0.1491 -0.2716
  847MPD2    C412497   3.002   0.649  15.237 -0.6300 -0.8218 -0.1962
  847MPD2    C512498   2.869   0.668  15.207  0.0336  0.2197 -0.2283
  847MPD2     H12499   3.120   0.932  15.105 -0.8051  1.7315  0.4487
  847MPD2    H112500   3.023   0.554  15.284  1.3136  0.4452  1.5398
  847MPD2    H212501   2.717   0.800  15.131  0.5187  1.8187 -1.2606
  847MPD2    H312502   2.800   0.590  15.236  0.3533  0.2312  0.5594
  847MPD2     N12503   3.233   0.722  15.254 -0.2389  0.0169  0.3660
  847MPD2    H512504   3.259   0.638  15.305 -3.1235 -0.4503  1.0563
  847MPD2    N112505   2.871   0.996  15.060 -0.4076  0.8358 -0.3313
  847MPD2    H712506   2.940   1.056  15.016  2.1627 -1.9735 -0.1944
  848MPD2     C12507   1.246   4.658  16.232 -0.0678  0.2906 -0.3451
  848MPD2    C112508   1.158   4.607  16.331  0.1793 -0.0055 -0.0066
  848MPD2    C212509   1.024   4.634  16.308  0.2207  0.5068 -0.0511
  848MPD2    C312510   0.978   4.711  16.200 -0.4988 -0.1488 -0.0127
  848MPD2    C412511   1.076   0.025  16.110 -0.3683 -0.6095  0.4255
  848MPD2    C512512   1.213   4.736  16.128  0.4237 -0.1921  0.4401
  848MPD2     H12513   0.956   4.598  16.385  1.5168 -1.8036  0.0053
  848MPD2    H112514   1.048   0.086  16.026 -2.0149 -2.0690 -0.0769
  848MPD2    H212515   1.353   4.653  16.253 -0.3012  1.8949  1.2104
  848MPD2    H312516   1.291   0.036  16.063  2.0547 -0.2584  2.3775
  848MPD2     N12517   0.841   0.005  16.179 -0.3315  0.4204  0.4807
  848MPD2    H512518   0.826   0.075  16.106  0.2978  0.4023  0.3350
  848MPD2    N112519   1.195   4.522  16.439  0.3280  0.3934  0.1359
  848MPD2    H712520   1.129   4.512  16.515  0.5244 -1.0503  0.1048
  849MPD2     C12521   0.129   3.452  14.370  0.0579 -0.5019  0.4010
  849MPD2    C112522   0.175   3.339  14.440 -0.4405  0.0183 -0.3716
  849MPD2    C212523   0.215   3.344  14.578 -0.5299 -0.7755  0.9260
  849MPD2    C312524   0.233   3.465  14.636  0.1817 -0.2617 -0.2265
  849MPD2    C412525   0.198   3.576  14.563 -1.3198  0.0195 -0.5133
  849MPD2    C512526   0.138   3.570  14.437  0.4311  0.0089 -0.6726
  849MPD2     H12527   0.257   3.258  14.628  0.7255 -0.1926  0.8882
  849MPD2    H112528   0.197   3.678  14.600 -0.3098 -0.5147  0.9600
  849MPD2    H212529   0.085   3.447  14.271  1.1481  0.0397 -0.1188
  849MPD2    H312530   0.094   3.662  14.400 -1.9475 -0.8905 -0.0663
  849MPD2     N12531   0.290   3.477  14.763 -1.2191  0.0214  0.7310
  849MPD2    H512532   0.305   3.571  14.798  1.2016  0.3514 -1.2273
  849MPD2    N112533   0.167   3.210  14.380 -0.1190  0.1237 -0.7230
  849MPD2    H712534   0.190   3.124  14.429  3.1267  3.0112  2.8253
  850MPD2     C12535   2.688   1.955  14.705 -0.1474  0.0859 -0.3127
  850MPD2    C112536   2.727   1.893  14.814  0.4684 -0.0104  0.4220
  850MPD2    C212537   2.857   1.886  14.849 -0.5122  0.4243 -0.1321
  850MPD2    C312538   2.957   1.948  14.773  1.0295 -1.1528 -0.3569
  850MPD2    C412539   2.922   2.000  14.653  0.9209 -0.8887  0.9084
  850MPD2    C512540   2.788   2.000  14.617  0.4103 -0.4653 -0.5832
  850MPD2     H12541   2.885   1.820  14.930 -0.8613  0.0693 -0.3015
  850MPD2    H112542   3.001   2.032  14.587 -0.0929 -0.7448 -0.2464
  850MPD2    H212543   2.585   1.949  14.671 -0.1120 -2.2798 -0.0057
  850MPD2    H312544   2.775   2.034  14.515 -1.1536 -0.4022 -0.3658
  850MPD2     N12545   3.087   1.952  14.816 -0.4655 -0.2154  0.6206
  850MPD2    H512546   3.153   1.958  14.738 -1.8972  1.9066 -0.4389
  850MPD2    N112547   2.620   1.825  14.882  0.6736 -0.1984 -0.1054
  850MPD2    H712548   2.540   1.810  14.821  1.7392  0.7881 -1.7352
  851MPD2     C12549   3.182   1.780  15.603 -0.5107 -1.0022  0.1289
  851MPD2    C112550   3.108   1.694  15.521  0.1898 -0.1846 -0.2879
  851MPD2    C212551   3.121   1.558  15.546  0.3626  0.0302 -0.8575
  851MPD2    C312552   3.215   1.507  15.634 -0.9451  0.2219  0.7684
  851MPD2    C412553   3.289   1.595  15.709  0.3259  0.2707  0.2077
  851MPD2    C512554   3.270   1.731  15.695  0.9406  0.5401  0.5433
  851MPD2     H12555   3.057   1.484  15.499 -0.9982  1.8063 -1.7703
  851MPD2    H112556   3.361   1.561  15.783 -1.4640 -2.3590  0.7405
  851MPD2    H212557   3.176   1.886  15.583 -0.5670 -0.9387  0.4980
  851MPD2    H312558   3.330   1.805  15.746  1.5593  1.4915 -1.5443
  851MPD2     N12559   3.231   1.366  15.631 -0.6770 -0.2390  0.5276
  851MPD2    H512560   3.166   1.310  15.577  0.5492 -1.9801  0.8716
  851MPD2    N112561   3.023   1.753  15.426  0.3412 -0.4242  0.3131
  851MPD2    H712562   3.037   1.851  15.401  0.7592 -0.2206  1.3104
  852MPD2     C12563   3.777   3.914  10.266  0.0411 -0.2215  0.4509
  852MPD2    C112564   3.766   4.009  10.368  0.0135  0.3333 -0.4259
  852MPD2    C212565   3.839   4.126  10.356 -0.2387 -0.8174 -0.0759
  852MPD2    C312566   3.906   4.167  10.243 -0.6248 -0.3972  0.4345
  852MPD2    C412567   3.904   4.071  10.144  0.7981 -0.4808  0.0574
  852MPD2    C512568   3.853   3.946  10.162  0.4721 -0.4731 -0.2105
  852MPD2     H12569   3.818   4.193  10.439 -3.1020 -0.9983 -0.6608
  852MPD2    H112570   3.960   4.070  10.050  0.0314 -1.8451 -0.3855
  852MPD2    H212571   3.744   3.812  10.280  0.5513 -0.5636 -0.7694
  852MPD2    H312572   3.871   3.873  10.085  1.0533 -1.3202  0.7372
  852MPD2     N12573   3.949   4.301  10.235 -0.2211  0.8955 -0.1509
  852MPD2    H512574   3.950   4.355  10.321 -1.5715  2.4665 -1.1197
  852MPD2    N112575   3.688   3.985  10.482  0.4724 -0.6910 -0.0993
  852MPD2    H712576   3.694   4.053  10.557 -2.8998 -0.3880 -0.0962
  853MPD2     C12577   4.664   3.519  12.158 -0.3535  0.4281  0.1111
  853MPD2    C112578   4.658   3.639  12.088 -0.3301  0.2431 -0.7499
  853MPD2    C212579   4.693   3.627  11.955 -0.7220 -0.4298 -0.2304
  853MPD2    C312580   0.004   3.512  11.899 -0.4431 -0.9211 -0.9315
  853MPD2    C412581   0.025   3.400  11.976  0.6342  0.1541 -1.1247
  853MPD2    C512582   4.710   3.403  12.105 -0.8237  0.0223 -0.4284
  853MPD2     H12583   4.682   3.717  11.894  1.8383  1.5061  2.1601
  853MPD2    H112584   0.077   3.317  11.931 -1.2062 -1.7994  0.2779
  853MPD2    H212585   4.640   3.522  12.264 -1.0573  2.1822 -0.0992
  853MPD2    H312586   4.711   3.310  12.161  1.7521  0.7317  0.6918
  853MPD2     N12587   0.041   3.502  11.763 -0.1870  0.0360 -0.2961
  853MPD2    H512588   0.099   3.421  11.743  1.5266  1.3315 -0.6504
  853MPD2    N112589   4.621   3.763  12.150  0.2116 -0.8001  0.4520
  853MPD2    H712590   4.591   3.749  12.245 -1.7678 -0.8640 -0.1973
  854MPD2     C12591   1.780   3.283  12.128 -0.4881 -0.1867 -0.2564
  854MPD2    C112592   1.761   3.353  12.248 -0.0269 -0.9351 -0.5282
  854MPD2    C212593   1.859   3.348  12.344 -0.2339  0.3260 -0.4596
  854MPD2    C312594   1.983   3.288  12.324  0.0527  0.7766  0.5303
  854MPD2    C412595   2.004   3.231  12.200  0.3373  0.0990  0.4113
  854MPD2    C512596   1.904   3.233  12.100  0.2106  0.6481  0.0932
  854MPD2     H12597   1.821   3.379  12.441 -0.5094 -1.9060  0.1509
  854MPD2    H112598   2.098   3.185  12.170 -1.0641 -1.9613 -0.8072
  854MPD2    H212599   1.695   3.272  12.062  1.0766 -0.7392 -2.1974
  854MPD2    H312600   1.912   3.179  12.006 -4.0913  0.3950 -0.1676
  854MPD2     N12601   2.086   3.272  12.420 -0.0220 -0.1189 -0.4500
  854MPD2    H512602   2.163   3.214  12.388  0.2240 -0.6118  1.0746
  854MPD2    N112603   1.632   3.408  12.272  0.0822 -0.3952  0.4740
  854MPD2    H712604   1.555   3.382  12.212  0.7824 -0.2974 -0.4541
  855MPD2     C12605   2.186   3.646  13.403  1.1997 -0.0072 -0.1647
  855MPD2    C112606   2.244   3.521  13.403 -0.1037  0.1238  0.4240
  855MPD2    C212607   2.261   3.453  13.279  0.1836  1.0756 -0.5989
  855MPD2    C312608   2.212   3.510  13.158  0.7662  0.5247 -0.5026
  855MPD2    C412609   2.158   3.641  13.160 -0.5524 -0.1940 -0.2899
  855MPD2    C512610   2.149   3.699  13.282  0.2907  0.1232 -0.2965
  855MPD2     H12611   2.307   3.354  13.274 -0.8972  0.5092  0.6589
  855MPD2    H112612   2.118   3.695  13.074 -1.7578  2.3148  1.8468
  855MPD2    H212613   2.158   3.698  13.494 -0.7636 -4.6950  1.9244
  855MPD2    H312614   2.110   3.800  13.284  1.2652  0.5181 -1.0752
  855MPD2     N12615   2.229   3.448  13.034 -0.2290  0.0252 -0.7020
  855MPD2    H512616   2.190   3.508  12.962 -0.5049  0.8988  0.1800
  855MPD2    N112617   2.268   3.448  13.520 -0.1247  0.1207 -0.2210
  855MPD2    H712618   2.293   3.350  13.512  0.5311  0.3137 -0.5875
  856MPD2     C12619   3.834   4.663  13.903  0.4059 -0.0030  0.3173
  856MPD2    C112620   3.888   0.042  13.930 -0.1579  0.0107  0.4242
  856MPD2    C212621   3.831   0.159  13.879  0.0192  0.0614 -0.2335
  856MPD2    C312622   3.717   0.147  13.800 -1.0582 -0.3008  0.6335
  856MPD2    C412623   3.654   0.027  13.786 -0.4578  0.6187  0.0761
  856MPD2    C512624   3.717   4.655  13.827 -0.6689  1.2049  0.4820
  856MPD2     H12625   3.862   0.253  13.922 -0.5820  0.3223 -0.3799
  856MPD2    H112626   3.555   0.010  13.745 -0.5355  0.3785  0.3644
  856MPD2    H212627   3.865   4.569  13.947 -0.2316 -1.1334 -1.6427
  856MPD2    H312628   3.678   4.555  13.811  0.7194  0.4738  1.6955
  856MPD2     N12629   3.653   0.260  13.748 -0.3887 -0.6658  0.1515
  856MPD2    H512630   3.555   0.254  13.722  0.1137  1.4884 -2.2723
  856MPD2    N112631   3.994   0.064  14.023 -0.6325 -0.0384  0.4025
  856MPD2    H712632   4.016   0.160  14.047 -2.0394  0.1598  0.8961
  857MPD2     C12633   0.687   1.849  12.888  0.4458  0.4161  0.0473
  857MPD2    C112634   0.812   1.874  12.840  0.7367  0.2984  0.4261
  857MPD2    C212635   0.886   1.979  12.892  0.8173 -0.2841  0.7478
  857MPD2    C312636   0.833   2.056  12.987  0.3008  0.4889  0.4130
  857MPD2    C412637   0.701   2.030  13.031 -0.0617 -0.0520 -0.3375
  857MPD2    C512638   0.635   1.923  12.989 -0.1150  0.0662  0.1004
  857MPD2     H12639   0.989   1.998  12.862  0.6936  0.8592  1.0474
  857MPD2    H112640   0.651   2.090  13.106 -0.8968 -0.6396 -0.4254
  857MPD2    H212641   0.631   1.768  12.842  1.5809  0.6241 -1.6937
  857MPD2    H312642   0.536   1.913  13.032 -1.0711  1.0108 -1.8883
  857MPD2     N12643   0.910   2.166  13.031  0.2932  0.4042  0.0072
  857MPD2    H512644   0.993   2.193  12.979  0.0001 -1.0483 -1.2060
  857MPD2    N112645   0.880   1.779  12.761  0.2512 -0.0041 -0.4952
  857MPD2    H712646   0.843   1.684  12.757 -0.2136  0.1655 -0.2348
  858MPD2     C12647   0.929   1.727  16.458 -0.6464  0.5989 -0.3784
  858MPD2    C112648   1.033   1.643  16.458  0.1132 -0.0839  0.3391
  858MPD2    C212649   1.132   1.641  16.549 -0.4400  0.4834 -0.5755
  858MPD2    C312650   1.124   1.739  16.651  0.3909  0.6623 -0.3505
  858MPD2    C412651   1.024   1.840  16.648 -0.4520 -0.0360 -0.6951
  858MPD2    C512652   0.928   1.834  16.548 -0.2489 -0.8875  0.2198
  858MPD2     H12653   1.219   1.576  16.545 -1.9571 -1.5504 -0.9878
  858MPD2    H112654   1.014   1.918  16.722  1.5985 -0.3320 -0.1129
  858MPD2    H212655   0.855   1.725  16.379 -0.7335  1.2292 -0.3154
  858MPD2    H312656   0.846   1.904  16.539 -1.5839 -2.0974  2.8325
  858MPD2     N12657   1.205   1.744  16.765 -0.0716  0.0698 -0.3862
  858MPD2    H512658   1.196   1.826  16.824 -2.7042 -0.9897  0.7123
  858MPD2    N112659   1.028   1.548  16.350  0.9402  0.3055  0.5084
  858MPD2    H712660   0.957   1.566  16.279  0.1501 -1.5077  0.8569
  859MPD2     C12661   4.734   3.441  15.989 -0.2252 -0.5835 -0.2897
  859MPD2    C112662   0.041   3.373  15.875 -0.0122 -0.9250 -0.6205
  859MPD2    C212663   0.052   3.236  15.876  0.3771 -0.8043  0.0325
  859MPD2    C312664   0.078   3.173  16.001  0.8202  0.5769 -0.0439
  859MPD2    C412665   0.046   3.247  16.117  0.1567 -0.2734 -0.1551
  859MPD2    C512666   4.737   3.375  16.110  0.2541 -0.2564 -0.6303
  859MPD2     H12667   0.096   3.198  15.784 -1.7101  1.7517 -2.0336
  859MPD2    H112668   0.049   3.202  16.215  0.3152 -0.7435 -0.3758
  859MPD2    H212669   4.691   3.540  15.983 -2.5842 -1.4088  3.2768
  859MPD2    H312670   4.689   3.429  16.190  0.4325  0.7845 -1.2280
  859MPD2     N12671   0.135   3.041  16.004  0.3577  0.6765 -0.9154
  859MPD2    H512672   0.146   3.007  15.909 -1.5099  0.6014 -1.1088
  859MPD2    N112673   0.047   3.453  15.760  0.4994 -0.1563 -0.2405
  859MPD2    H712674   0.049   3.554  15.774  1.4005 -0.3989  1.4136
  860MPD2     C12675   3.377   3.413  11.441 -0.0750  0.2635  0.0080
  860MPD2    C112676   3.327   3.528  11.506 -0.4909 -0.3588 -0.4472
  860MPD2    C212677   3.196   3.540  11.533  0.4247 -0.5400 -0.1382
  860MPD2    C312678   3.112   3.435  11.501  1.1004 -0.6311 -1.2709
  860MPD2    C412679   3.149   3.334  11.430 -0.1900  0.3765 -0.3429
  860MPD2    C512680   3.283   3.320  11.399  0.9148  0.0025 -0.5053
  860MPD2     H12681   3.171   3.633  11.582 -3.0460 -0.8625 -1.3076
  860MPD2    H112682   3.093   3.245  11.406 -0.8854  0.3631  1.3798
  860MPD2    H212683   3.480   3.403  11.408 -0.8458 -0.1051 -2.3284
  860MPD2    H312684   3.320   3.233  11.346  0.5305  1.1665 -2.6844
  860MPD2     N12685   2.978   3.445  11.542  0.3836  0.0095  0.5479
  860MPD2    H512686   2.949   3.533  11.582 -0.4516  1.2980 -2.8698
  860MPD2    N112687   3.413   3.628  11.568 -0.0179  0.1480 -0.5801
  860MPD2    H712688   3.367   3.703  11.617  0.0392 -0.0793 -0.1821
  861MPD2     C12689   1.728   1.873  11.048 -0.0763 -0.3787  0.5302
  861MPD2    C112690   1.626   1.906  11.127  0.5170  0.6314 -0.5388
  861MPD2    C212691   1.510   1.969  11.073  0.0770  0.0475 -0.0142
  861MPD2    C312692   1.501   1.986  10.935 -0.0870 -0.7606  0.4771
  861MPD2    C412693   1.607   1.944  10.860 -0.0166 -0.3004  0.6967
  861MPD2    C512694   1.718   1.893  10.917  1.2014 -0.1044  0.6131
  861MPD2     H12695   1.437   2.012  11.141  1.4977  1.7880  0.4131
  861MPD2    H112696   1.611   1.957  10.753  3.0872 -2.1150  0.6071
  861MPD2    H212697   1.824   1.848  11.092  0.9030  2.5300  0.0510
  861MPD2    H312698   1.798   1.862  10.851  1.2923 -2.0576  1.6500
  861MPD2     N12699   1.406   2.070  10.864  0.3931 -0.0601 -0.1263
  861MPD2    H512700   1.423   2.093  10.767 -3.9259 -0.5707 -1.0187
  861MPD2    N112701   1.625   1.887  11.266  0.2826 -0.3561  0.6210
  861MPD2    H712702   1.531   1.870  11.300  0.2595  1.7255  1.6231
  862MPD2     C12703   1.091   2.288  10.259  0.0930  0.0276  0.1914
  862MPD2    C112704   1.077   2.214  10.374  0.5743 -0.3293 -0.2162
  862MPD2    C212705   1.015   2.090  10.373 -0.9473 -0.4335 -0.3330
  862MPD2    C312706   0.971   2.033  10.255 -0.2754 -0.2135 -0.6328
  862MPD2    C412707   0.975   2.110  10.136  1.3682  0.3180 -0.1090
  862MPD2    C512708   1.047   2.230  10.142 -0.0553  0.0297 -0.6003
  862MPD2     H12709   1.010   2.042  10.470  1.7408  0.5623  0.3094
  862MPD2    H112710   0.956   2.057  10.044  1.6735  0.5352 -0.2972
  862MPD2    H212711   1.142   2.384  10.256 -0.5307  0.3318 -0.6597
  862MPD2    H312712   1.072   2.291  10.057  1.8108 -0.7938 -0.6455
  862MPD2     N12713   0.942   1.894  10.243  0.1513  0.2287 -0.0838
  862MPD2    H512714   0.926   1.859  10.150 -0.5618  2.0721 -0.6481
  862MPD2    N112715   1.130   2.252  10.498  0.5450 -0.0161 -0.4164
  862MPD2    H712716   1.105   2.183  10.569  2.9330  0.7022  1.1141
  863MPD2     C12717   0.133   0.805  16.598 -0.3905 -0.7102  0.1068
  863MPD2    C112718   0.040   0.763  16.693 -0.0103 -0.1484  0.1801
  863MPD2    C212719   0.081   0.699  16.810 -1.1288 -0.3138 -0.1772
  863MPD2    C312720   0.219   0.670  16.818  0.1818  0.7137  0.2135
  863MPD2    C412721   0.311   0.711  16.726  0.3177 -0.5224  0.3089
  863MPD2    C512722   0.267   0.781  16.619  0.3165 -0.6213 -0.2454
  863MPD2     H12723   0.015   0.673  16.892 -0.1445  3.4833  1.8245
  863MPD2    H112724   0.418   0.696  16.734  0.7246  0.6726 -2.6763
  863MPD2    H212725   0.103   0.856  16.506  1.5208 -0.9061 -0.6167
  863MPD2    H312726   0.341   0.803  16.543  0.6527 -2.6559 -0.5108
  863MPD2     N12727   0.276   0.606  16.933  0.4290 -0.4877 -0.2695
  863MPD2    H512728   0.377   0.606  16.949  0.2219  0.2585  1.1149
  863MPD2    N112729   4.638   0.778  16.660  0.6805 -0.2460  0.5722
  863MPD2    H712730   4.619   0.792  16.561  1.2774 -1.0181  0.3562
  864MPD2     C12731   0.894   1.882  17.015 -0.7403 -0.0168  0.2081
  864MPD2    C112732   0.799   1.862  16.917 -0.9476 -0.5720  0.3953
  864MPD2    C212733   0.761   1.970  16.826 -0.0624  0.7116  0.6248
  864MPD2    C312734   0.846   2.080  16.820 -0.5095  1.0892 -0.2442
  864MPD2    C412735   0.945   2.092  16.913 -0.1155  0.6894  0.2605
  864MPD2    C512736   0.959   2.004  17.021 -0.1419  0.7569  0.2780
  864MPD2     H12737   0.683   1.959  16.751  0.3603 -0.4923  0.3603
  864MPD2    H112738   1.025   2.163  16.898  2.1702 -1.6641  1.3268
  864MPD2    H212739   0.913   1.813  17.096  0.8768 -1.3506 -1.3059
  864MPD2    H312740   1.051   2.014  17.078  0.7660  0.3742 -1.1120
  864MPD2     N12741   0.842   2.176  16.719 -0.2087  0.5299  0.0294
  864MPD2    H512742   0.926   2.234  16.719 -0.1030  0.3784  0.5832
  864MPD2    N112743   0.725   1.739  16.916  0.0874 -1.0784 -0.0343
  864MPD2    H712744   0.748   1.671  16.988  1.0355 -0.3398  0.3553
  865MPD2     C12745   0.167   2.069  16.064 -0.1923 -0.1852  0.4643
  865MPD2    C112746   0.290   2.038  16.007 -0.1429 -1.2718  0.6745
  865MPD2    C212747   0.398   2.106  16.066  0.2258 -0.1442  0.5634
  865MPD2    C312748   0.389   2.199  16.166 -0.5031 -0.4928 -0.4615
  865MPD2    C412749   0.265   2.225  16.221  0.6181 -0.3836  0.5492
  865MPD2    C512750   0.158   2.156  16.167  0.1718 -0.6440 -0.0889
  865MPD2     H12751   0.494   2.073  16.029 -0.2507  0.1438 -0.9605
  865MPD2    H112752   0.258   2.298  16.301  0.2279 -0.0244  0.1804
  865MPD2    H212753   0.078   2.015  16.031 -0.5171 -0.4106  1.7243
  865MPD2    H312754   0.059   2.174  16.207 -0.4927  1.5553 -2.6778
  865MPD2     N12755   0.502   2.264  16.229  0.3584 -0.4243  0.2624
  865MPD2    H512756   0.490   2.312  16.318 -1.0528 -2.4844  1.1988
  865MPD2    N112757   0.300   1.939  15.908  0.0343 -0.3861 -0.0927
  865MPD2    H712758   0.217   1.884  15.891  0.5303 -1.0723 -0.2643
  866MPD2     C12759   2.248   2.198  11.716 -0.7043 -0.6937  0.7139
  866MPD2    C112760   2.254   2.138  11.588  0.0644  0.1376  0.3039
  866MPD2    C212761   2.142   2.159  11.508  0.2946  0.0079 -0.4098
  866MPD2    C312762   2.035   2.235  11.546  0.1101  0.4970 -0.6043
  866MPD2    C412763   2.027   2.275  11.678  0.5691  0.1065  0.2854
  866MPD2    C512764   2.134   2.259  11.765 -0.0058  0.0277 -0.5718
  866MPD2     H12765   2.137   2.101  11.417 -0.4578 -1.3128  0.4773
  866MPD2    H112766   1.948   2.329  11.729  0.7740  1.0640 -0.4005
  866MPD2    H212767   2.330   2.183  11.784  1.1373 -0.8413 -1.5446
  866MPD2    H312768   2.120   2.293  11.866 -1.1083  0.9954 -1.0452
  866MPD2     N12769   1.924   2.258  11.463 -0.4142  0.1343 -0.3744
  866MPD2    H512770   1.845   2.308  11.501 -0.1613 -1.8318  2.6969
  866MPD2    N112771   2.361   2.051  11.556 -0.1249  0.5937 -0.2271
  866MPD2    H712772   2.439   2.051  11.621  0.4076  1.0291 -0.8622
  867MPD2     C12773   3.744   1.902  16.365  0.0578  0.8844 -0.2206
  867MPD2    C112774   3.771   1.885  16.498  0.1731 -0.7137  0.2347
  867MPD2    C212775   3.709   1.962  16.591  0.9956  0.0693  0.0643
  867MPD2    C312776   3.634   2.066  16.543 -0.0877  0.0879 -0.1904
  867MPD2    C412777   3.621   2.097  16.410  0.1796  1.3819  0.2892
  867MPD2    C512778   3.678   2.007  16.321  0.3089  0.3211  0.6054
  867MPD2     H12779   3.719   1.951  16.698  1.1581 -3.4964 -0.3074
  867MPD2    H112780   3.560   2.174  16.365 -1.2031  0.0858 -0.0781
  867MPD2    H212781   3.786   1.834  16.291 -2.5395  0.8653 -1.6648
  867MPD2    H312782   3.660   2.018  16.215  0.5306 -0.5096  0.4846
  867MPD2     N12783   3.585   2.171  16.623  0.2790  0.3427 -0.1511
  867MPD2    H512784   3.530   2.244  16.581 -0.1087  1.1685  1.7808
  867MPD2    N112785   3.860   1.784  16.535  0.3831  0.2196  0.3680
  867MPD2    H712786   3.899   1.730  16.458 -0.1183 -0.4209  0.5589
  868MPD2     C12787   1.176   0.437  12.954  0.0907  0.1592 -0.2854
  868MPD2    C112788   1.270   0.496  13.042  0.4468 -0.4396  0.9023
  868MPD2    C212789   1.228   0.596  13.126  0.3454 -0.8786 -0.2531
  868MPD2    C312790   1.087   0.621  13.147  0.1573 -0.0354 -0.8181
  868MPD2    C412791   1.002   0.546  13.063 -0.0967  0.1216  0.3112
  868MPD2    C512792   1.048   0.458  12.970  0.5817  0.1770 -0.5568
  868MPD2     H12793   1.298   0.639  13.197 -0.6973  1.1301 -0.4414
  868MPD2    H112794   0.895   0.556  13.075 -0.0016  0.2558  1.0414
  868MPD2    H212795   1.198   0.364  12.877 -1.3180 -1.5786  0.9662
  868MPD2    H312796   0.984   0.401  12.903 -1.6856  1.2140  0.7053
  868MPD2     N12797   1.040   0.693  13.260  0.4847 -0.3383  0.3780
  868MPD2    H512798   1.106   0.731  13.327 -0.3769  1.4931  0.2075
  868MPD2    N112799   1.403   0.462  13.023  0.7853  0.1855 -0.2543
  868MPD2    H712800   1.414   0.379  12.965 -2.3267 -0.8045  0.5337
  869MPD2     C12801   2.218   3.522   0.268  0.0140 -0.5655  0.2003
  869MPD2    C112802   2.129   3.626   0.291  0.9794 -0.4474 -0.0025
  869MPD2    C212803   2.176   3.752   0.318 -0.1851  0.2476 -0.1768
  869MPD2    C312804   2.311   3.776   0.336  0.0161 -0.8817  0.6210
  869MPD2    C412805   2.395   3.670   0.333 -0.3747 -0.6603  0.4167
  869MPD2    C512806   2.353   3.542   0.291  0.6731  0.0048 -0.5155
  869MPD2     H12807   2.109   3.836   0.320  0.5985  0.8311  1.6446
  869MPD2    H112808   2.500   3.697   0.335 -0.4969 -0.0723 -0.5764
  869MPD2    H212809   2.180   3.422   0.249 -1.0346 -0.3898  1.3768
  869MPD2    H312810   2.430   3.467   0.277  0.8544 -0.2857  2.1136
  869MPD2     N12811   2.361   3.908   0.361 -0.0795 -0.5498  0.5827
  869MPD2    H512812   2.461   3.915   0.368 -0.2293  0.7166  1.2888
  869MPD2    N112813   1.992   3.588   0.282 -0.4683 -0.6605 -0.0051
  869MPD2    H712814   1.983   3.488   0.267  1.2272 -0.8643  0.3764
  870MPD2     C12815   2.276   3.149   1.464 -0.2276  0.4494 -0.1718
  870MPD2    C112816   2.209   3.036   1.423  0.1987  0.5758  0.3080
  870MPD2    C212817   2.086   3.056   1.355  0.8423 -0.0936  0.0332
  870MPD2    C312818   2.031   3.175   1.323  0.4723 -0.4098 -0.3608
  870MPD2    C412819   2.103   3.286   1.360  0.1090 -0.0361  0.7624
  870MPD2    C512820   2.219   3.267   1.432 -0.2954 -0.2774 -0.2902
  870MPD2     H12821   2.033   2.976   1.303  0.2183  1.0135 -1.0352
  870MPD2    H112822   2.079   3.387   1.329  1.0446 -0.5551 -1.6137
  870MPD2    H212823   2.375   3.147   1.507  0.2884 -0.0708 -1.4239
  870MPD2    H312824   2.278   3.356   1.452  0.6846 -0.1920 -3.5780
  870MPD2     N12825   1.914   3.176   1.244 -0.0303  0.2226  0.4277
  870MPD2    H512826   1.854   3.095   1.236  0.3026 -0.1801  1.8878
  870MPD2    N112827   2.266   2.905   1.432 -0.1793  0.4703  0.0972
  870MPD2    H712828   2.363   2.896   1.462  0.1620  2.9644 -0.2059
  871MPD2     C12829   2.976   1.864  16.547 -0.6262 -0.4362  0.9247
  871MPD2    C112830   2.940   1.832  16.677 -0.1325 -0.2104  0.4587
  871MPD2    C212831   2.953   1.699  16.717 -0.0025  0.2731  0.2688
  871MPD2    C312832   3.023   1.604  16.641  0.2828  0.2350  0.4846
  871MPD2    C412833   3.058   1.639  16.511 -0.6962 -0.1025 -0.6269
  871MPD2    C512834   3.041   1.772  16.466  0.5735  0.4766  0.2654
  871MPD2     H12835   2.919   1.689  16.820 -1.4536  0.5159 -0.1787
  871MPD2    H112836   3.123   1.573  16.455  1.6498  0.8773  0.9294
  871MPD2    H212837   2.956   1.964  16.509  0.5068 -0.2313  0.8576
  871MPD2    H312838   3.077   1.803  16.368  2.6719 -2.0397  0.2215
  871MPD2     N12839   3.063   1.486  16.707 -0.1055 -0.4329 -0.0426
  871MPD2    H512840   3.026   1.467  16.800  0.0239 -1.8743 -0.2932
  871MPD2    N112841   2.907   1.944  16.761  0.4771  0.9047 -0.5904
  871MPD2    H712842   2.930   2.037  16.727  2.9362  1.1087  1.6435
  872MPD2     C12843   3.580   4.057  14.128 -0.1750  0.4483 -0.8072
  872MPD2    C112844   3.617   4.035  13.994  0.0458  0.3764 -0.8195
  872MPD2    C212845   3.519   4.033  13.896 -0.0435  0.4299 -0.5396
  872MPD2    C312846   3.385   4.049  13.931 -0.4985 -0.1232  0.2493
  872MPD2    C412847   3.348   4.059  14.062  0.1484  0.0583  0.2889
  872MPD2    C512848   3.447   4.066  14.160 -0.3772 -1.0254  0.1881
  872MPD2     H12849   3.551   4.052  13.794  3.1914 -1.4371  0.1211
  872MPD2    H112850   3.244   4.069  14.091  0.0730 -0.5250  0.2148
  872MPD2    H212851   3.657   4.069  14.202 -1.4430  1.6320  0.3114
  872MPD2    H312852   3.414   4.095  14.259 -0.1509 -1.6290  0.4394
  872MPD2     N12853   3.284   4.072  13.837 -0.4747 -0.1647  0.7720
  872MPD2    H512854   3.196   4.109  13.872 -1.5389 -3.2155  1.2992
  872MPD2    N112855   3.756   4.015  13.952  0.6632 -0.1035 -0.4347
  872MPD2    H712856   3.762   4.016  13.851 -0.5252  0.4805 -0.5014
  873MPD2     C12857   1.274   0.114   0.799 -0.8122 -0.1429  0.2834
  873MPD2    C112858   1.154   0.103   0.864  0.0386  0.4624 -0.1434
  873MPD2    C212859   1.077   4.723   0.858 -0.7946 -0.0921 -0.6360
  873MPD2    C312860   1.131   4.622   0.770  0.1051 -0.4929 -0.4985
  873MPD2    C412861   1.237   4.649   0.693  0.0185 -0.1902  0.5432
  873MPD2    C512862   1.322   0.013   0.724  0.3404 -0.5190  0.0626
  873MPD2     H12863   0.983   4.707   0.909 -0.7030 -0.1618 -0.4897
  873MPD2    H112864   1.276   4.580   0.620  0.0139  0.0739  0.2901
  873MPD2    H212865   1.337   0.200   0.815 -0.3368 -0.5840  0.7479
  873MPD2    H312866   1.418   0.021   0.673  0.7031  0.6892  0.9423
  873MPD2     N12867   1.070   4.495   0.755 -0.6390 -0.7877 -0.3039
  873MPD2    H512868   1.111   4.431   0.689  0.3359 -1.4982  0.9890
  873MPD2    N112869   1.116   0.214   0.942  0.3021  0.5649  0.0946
  873MPD2    H712870   1.182   0.290   0.955 -0.9149  1.8512 -1.2114
  874MPD2     C12871   0.042   4.195  16.320  0.0388 -0.3651  0.0927
  874MPD2    C112872   0.156   4.193  16.399  0.7503  0.0575  0.0429
  874MPD2    C212873   0.252   4.296  16.378 -0.7674  0.1367  0.1597
  874MPD2    C312874   0.219   4.411  16.306  0.0262  0.7247 -0.0330
  874MPD2    C412875   0.106   4.411  16.224  0.2267 -1.1797 -0.0704
  874MPD2    C512876   0.022   4.299  16.236  0.1079  0.8797 -0.4190
  874MPD2     H12877   0.355   4.281  16.405 -0.5621  1.5227  0.1666
  874MPD2    H112878   0.087   4.496  16.160  0.7433  1.6839  3.5491
  874MPD2    H212879   4.715   4.108  16.317 -1.7466  1.0618 -2.3346
  874MPD2    H312880   4.670   4.293  16.176  1.2650 -0.4583 -2.0374
  874MPD2     N12881   0.309   4.521  16.312  0.1278 -0.5022 -0.2548
  874MPD2    H512882   0.404   4.505  16.347  1.3342  1.3360 -2.7395
  874MPD2    N112883   0.171   4.080  16.479 -0.7094  0.1074  0.4254
  874MPD2    H712884   0.092   4.015  16.486 -1.1747  0.6679  0.3987
  875MPD2     C12885   1.622   2.459  14.459  0.1391 -0.4156  0.1025
  875MPD2    C112886   1.483   2.473  14.492  0.0652  0.2347  0.2373
  875MPD2    C212887   1.459   2.546  14.606  0.0007 -0.1237 -0.5411
  875MPD2    C312888   1.565   2.608  14.673  0.3758  0.0605 -0.7371
  875MPD2    C412889   1.695   2.605  14.630 -0.5271  0.2734 -0.1715
  875MPD2    C512890   1.722   2.530  14.521 -0.4039  0.4400  0.3099
  875MPD2     H12891   1.358   2.564  14.640  1.0603 -1.0050  3.1246
  875MPD2    H112892   1.769   2.667  14.680 -1.4415  1.0478  0.2268
  875MPD2    H212893   1.659   2.390  14.384 -0.7694 -2.2316  1.3224
  875MPD2    H312894   1.823   2.512  14.485 -0.8742  0.7589 -1.1683
  875MPD2     N12895   1.545   2.685  14.791 -0.2514  0.0300  0.3979
  875MPD2    H512896   1.621   2.744  14.822  0.3501 -0.0721 -0.8604
  875MPD2    N112897   1.372   2.412  14.428  0.0499 -1.4504 -0.1608
  875MPD2    H712898   1.278   2.440  14.454  0.1163 -3.0721  1.7662
  876MPD2     C12899   4.589   3.882  16.178 -0.4625 -0.4229 -0.6821
  876MPD2    C112900   4.727   3.884  16.151 -0.3659  0.1599  0.6792
  876MPD2    C212901   0.070   3.783  16.196 -0.1754 -1.2276  0.0121
  876MPD2    C312902   0.024   3.681  16.277 -0.0386 -0.5137  0.2957
  876MPD2    C412903   4.629   3.685  16.310 -0.1946  0.1979  0.2156
  876MPD2    C512904   4.544   3.781  16.265 -0.5338  0.2449  0.5031
  876MPD2     H12905   0.177   3.797  16.184  0.1635 -2.3941  1.6129
  876MPD2    H112906   4.585   3.613  16.377  1.9027 -1.3557 -0.0881
  876MPD2    H212907   4.519   3.960  16.149  1.0403  0.5844 -1.6047
  876MPD2    H312908   4.442   3.790  16.301 -0.6865 -0.2226  0.1904
  876MPD2     N12909   0.115   3.586  16.327  0.4024 -0.4160 -0.3352
  876MPD2    H512910   0.212   3.594  16.298 -0.4685 -0.6699 -3.3812
  876MPD2    N112911   0.041   3.993  16.071 -0.4190 -0.5122  0.0408
  876MPD2    H712912   4.713   4.060  16.033  0.6062 -0.1152 -1.0214
  877MPD2     C12913   4.713   4.376  15.422 -0.5064 -0.0287 -0.3647
  877MPD2    C112914   0.098   4.407  15.468 -1.2852  0.1681 -0.5866
  877MPD2    C212915   0.204   4.445  15.381 -0.1705 -0.6414 -0.5816
  877MPD2    C312916   0.179   4.458  15.241 -0.4543 -0.4465  0.1117
  877MPD2    C412917   0.053   4.422  15.198 -0.4605 -0.0381 -0.2632
  877MPD2    C512918   4.689   4.375  15.286  0.3702  0.1480 -0.2326
  877MPD2     H12919   0.302   4.469  15.418 -1.3575  1.7772  0.9616
  877MPD2    H112920   0.027   4.411  15.094  1.5104 -1.6442 -0.5759
  877MPD2    H212921   4.634   4.350  15.492  0.6982 -2.3600  0.1128
  877MPD2    H312922   4.594   4.342  15.245  0.0952  1.0498 -0.3185
  877MPD2     N12923   0.272   4.500  15.143  0.0315  0.5446 -0.1710
  877MPD2    H512924   0.241   4.479  15.049 -0.2095 -0.8638  0.2201
  877MPD2    N112925   0.142   4.381  15.600  0.3270  0.2786 -0.3241
  877MPD2    H712926   0.239   4.402  15.622  0.2138  0.6872 -0.2233
  878MPD2     C12927   0.310   2.703  13.509 -0.1849  0.1885  0.2706
  878MPD2    C112928   0.311   2.844  13.527 -1.0042 -0.4580 -0.1120
  878MPD2    C212929   0.313   2.891  13.658 -0.9332  0.1729 -0.6458
  878MPD2    C312930   0.312   2.807  13.769  0.5272 -0.4902  0.0802
  878MPD2    C412931   0.318   2.674  13.751 -0.1213 -0.0480  0.3046
  878MPD2    C512932   0.317   2.624  13.620 -0.4451 -0.3240  0.0852
  878MPD2     H12933   0.292   2.996  13.679  1.2679  0.6013 -0.6315
  878MPD2    H112934   0.318   2.602  13.832 -1.1318  0.4279  0.7318
  878MPD2    H212935   0.308   2.661  13.409 -1.7031  1.1497 -0.1095
  878MPD2    H312936   0.323   2.516  13.610 -0.5626 -0.5530  2.5345
  878MPD2     N12937   0.315   2.877  13.893 -0.5159  0.2853  0.2033
  878MPD2    H512938   0.320   2.979  13.896  0.2425  0.2960 -1.2455
  878MPD2    N112939   0.309   2.923  13.405 -0.8432  0.4735  0.2650
  878MPD2    H712940   0.304   2.881  13.313 -1.9898  2.1504 -0.4416
  879MPD2     C12941   0.413   0.355  16.743 -0.2928  0.4407 -0.2810
  879MPD2    C112942   0.471   0.233  16.764 -0.5555 -0.8836  0.0713
  879MPD2    C212943   0.405   0.116  16.728 -0.4739 -0.2335  0.4234
  879MPD2    C312944   0.286   0.110  16.663  0.1432 -0.3587 -0.8003
  879MPD2    C412945   0.224   0.236  16.646 -0.3620  0.6769  0.0223
  879MPD2    C512946   0.286   0.351  16.690  0.5013 -1.1582  0.3623
  879MPD2     H12947   0.450   0.020  16.750 -1.2604 -0.9091 -0.9269
  879MPD2    H112948   0.129   0.241  16.594  0.1171  0.8475 -0.8225
  879MPD2    H212949   0.462   0.444  16.778  0.8757  0.4217 -1.8583
  879MPD2    H312950   0.245   0.450  16.676  3.5419 -0.0078 -0.3985
  879MPD2     N12951   0.208   4.734  16.637 -0.1675 -0.1805 -0.4282
  879MPD2    H512952   0.116   0.015  16.598 -0.6675 -1.9650 -0.0852
  879MPD2    N112953   0.589   0.231  16.828  0.0706  0.1364 -0.1540
  879MPD2    H712954   0.629   0.323  16.844  0.0783  0.2459 -0.8008
  880MPD2     C12955   1.507   1.882   0.120  0.9790 -0.2568 -0.4909
  880MPD2    C112956   1.548   1.932   0.243  0.3230  0.0076  0.3323
  880MPD2    C212957   1.590   1.843   0.343  0.1283  1.1551 -0.8369
  880MPD2    C312958   1.597   1.706   0.311 -0.0475 -0.1179  0.3769
  880MPD2    C412959   1.568   1.670   0.184  0.9274 -0.8287  0.1815
  880MPD2    C512960   1.530   1.753   0.085 -0.3192  0.0540 -0.1443
  880MPD2     H12961   1.606   1.877   0.445 -0.3587  2.3507 -1.1536
  880MPD2    H112962   1.568   1.566   0.154  1.9399 -1.2021  1.4716
  880MPD2    H212963   1.486   1.953   0.040 -1.7890 -0.4283  0.0692
  880MPD2    H312964   1.499   1.707  17.741 -1.8813  0.4648  0.1778
  880MPD2     N12965   1.630   1.617   0.412 -0.5022 -0.0540 -0.0305
  880MPD2    H512966   1.641   1.654   0.506 -0.0177  1.2960 -0.6108
  880MPD2    N112967   1.542   2.074   0.266 -0.2182  0.4814  0.4659
  880MPD2    H712968   1.526   2.139   0.189  1.9067 -1.3710 -1.5472
  881MPD2     C12969   1.615   2.920  17.527 -0.1281  0.0893 -0.0395
  881MPD2    C112970   1.659   2.792  17.509  0.0243 -0.0608  0.1753
  881MPD2    C212971   1.651   2.705  17.620  0.9469  0.3790 -0.3459
  881MPD2    C312972   1.593   2.739  17.738  0.4200 -0.7043 -0.1698
  881MPD2    C412973   1.541   2.868   0.001 -0.3122  0.0786 -0.4884
  881MPD2    C512974   1.555   2.955  17.645 -0.3778 -0.3053  0.1665
  881MPD2     H12975   1.703   2.611  17.615 -1.6805 -1.1562  1.4175
  881MPD2    H112976   1.489   2.902   0.090  2.4864  1.7754  0.5137
  881MPD2    H212977   1.616   2.995  17.449 -1.4281  2.5614  2.3256
  881MPD2    H312978   1.522   3.058  17.654 -0.0646 -0.1921  0.0193
  881MPD2     N12979   1.577   2.652   0.105  0.2666  0.0345 -0.1636
  881MPD2    H512980   1.521   2.690   0.180  0.8372 -0.2339  0.3901
  881MPD2    N112981   1.741   2.763  17.395  0.4775 -0.4363 -0.5408
  881MPD2    H712982   1.760   2.837  17.329  1.8122 -0.8115 -0.5710
  882MPD2     C12983   0.589   4.093  14.605 -0.5067  0.9665 -0.0464
  882MPD2    C112984   0.503   4.201  14.610  0.5024 -0.8391  0.7011
  882MPD2    C212985   0.375   4.193  14.548 -0.6411  0.5560 -0.8787
  882MPD2    C312986   0.327   4.069  14.500 -0.1106  0.2542  0.0720
  882MPD2    C412987   0.422   3.972  14.479 -0.1622 -0.9252  0.3052
  882MPD2    C512988   0.546   3.982  14.537  0.1253 -0.2730  0.5773
  882MPD2     H12989   0.305   4.275  14.553  0.5345  1.4971  0.5349
  882MPD2    H112990   0.395   3.879  14.431  0.6570 -2.5192  2.9413
  882MPD2    H212991   0.690   4.092  14.644 -0.8396 -0.1386  0.7727
  882MPD2    H312992   0.616   3.901  14.523 -0.1189 -0.3108 -0.4238
  882MPD2     N12993   0.192   4.063  14.462 -0.8908  1.0249  0.2830
  882MPD2    H512994   0.136   4.134  14.509  0.5264 -0.1657  3.7943
  882MPD2    N112995   0.554   4.312  14.682  0.1001 -0.2307  0.0626
  882MPD2    H712996   0.650   4.319  14.716  0.2100  0.6622 -0.4317
  883MPD2     C12997   2.489   3.983  15.817  0.1056  0.1953 -0.2045
  883MPD2    C112998   2.541   4.101  15.762 -0.4389  0.1112  0.0910
  883MPD2    C212999   2.667   4.151  15.794  0.6595  0.3112  0.6768
  883MPD2    C313000   2.742   4.084  15.892  0.1527  0.5504 -0.3818
  883MPD2    C413001   2.682   3.970  15.952 -0.6168 -0.3147  0.0396
  883MPD2    C513002   2.563   3.919  15.911 -0.1824 -0.6013 -0.4989
  883MPD2     H13003   2.701   4.243  15.749 -0.6094 -0.0233 -0.9461
  883MPD2    H113004   2.727   3.909  16.029 -2.3900 -1.3139  0.2876
  883MPD2    H213005   2.397   3.936  15.782  0.1944 -0.1069 -0.0327
  883MPD2    H313006   2.524   3.824  15.949 -1.6764 -0.8387 -2.6070
  883MPD2     N13007   2.878   4.116  15.916 -0.1756 -0.1967 -0.5012
  883MPD2    H513008   2.926   4.176  15.849 -0.9984  2.6093  1.4187
  883MPD2    N113009   2.458   4.177  15.674 -0.1062 -0.1334 -0.2831
  883MPD2    H713010   2.500   4.263  15.640 -2.4033  0.8452 -0.5975
  884MPD2     C13011   4.278   0.221  15.237  0.2503 -0.1794  0.3716
  884MPD2    C113012   4.274   0.266  15.099 -0.3658 -0.3270 -0.0580
  884MPD2    C213013   4.158   0.319  15.057  0.0677  0.2701 -0.1514
  884MPD2    C313014   4.044   0.316  15.133 -0.3530 -0.0193 -0.1529
  884MPD2    C413015   4.045   0.271  15.263 -0.2178 -0.6405 -0.8850
  884MPD2    C513016   4.165   0.218  15.308 -0.2431 -0.9804 -0.2476
  884MPD2     H13017   4.165   0.359  14.956 -1.6336 -1.8016 -1.1063
  884MPD2    H113018   3.956   0.258  15.323  0.6992 -0.8971  0.4365
  884MPD2    H213019   4.371   0.187  15.281  0.4639 -0.2182 -0.1133
  884MPD2    H313020   4.169   0.168  15.404 -2.5483 -2.3530 -0.8449
  884MPD2     N13021   3.927   0.357  15.074 -0.3802  0.4238 -0.2038
  884MPD2    H513022   3.928   0.382  14.976  0.6079 -2.6589 -0.9824
  884MPD2    N113023   4.393   0.289  15.024  0.2921 -0.0026 -0.3324
  884MPD2    H713024   4.374   0.340  14.938 -0.0565  1.9800  0.9379
  885MPD2     C13025   2.336   0.889   0.018 -0.7226  0.6802  0.2881
  885MPD2    C113026   2.401   0.775  17.732  0.2136 -0.4607 -0.2511
  885MPD2    C213027   2.405   0.748  17.596  0.5916 -0.0236  0.5031
  885MPD2    C313028   2.351   0.840  17.508 -0.1401 -0.0599 -0.4833
  885MPD2    C413029   2.283   0.951  17.552 -0.1229 -0.1889 -0.8431
  885MPD2    C513030   2.283   0.977  17.682 -0.7944 -0.3070 -0.3924
  885MPD2     H13031   2.456   0.661  17.556  0.6825 -0.3968  1.4483
  885MPD2    H113032   2.232   1.011  17.477 -0.0796 -0.3600 -1.0092
  885MPD2    H213033   2.327   0.929   0.119  1.4847 -0.0709  0.7832
  885MPD2    H313034   2.241   1.070  17.718 -0.3173  0.4766 -1.8738
  885MPD2     N13035   2.374   0.817  17.369  0.2549  0.7230 -0.0326
  885MPD2    H513036   2.446   0.749  17.345  1.9214  1.9910  1.3712
  885MPD2    N113037   2.454   0.695   0.086 -0.0326 -0.3170 -0.0518
  885MPD2    H713038   2.454   0.735   0.179 -1.6174  1.2107 -0.6982
  886MPD2     C13039   3.855   3.577  15.011  0.5661 -0.0148 -0.1386
  886MPD2    C113040   3.980   3.625  15.037 -0.2995 -0.1482 -0.7642
  886MPD2    C213041   4.001   3.759  15.043  0.5012 -0.2482  0.2532
  886MPD2    C313042   3.902   3.851  15.029 -0.0788  0.1076  0.6651
  886MPD2    C413043   3.773   3.800  15.011  0.0639  0.1373 -0.0676
  886MPD2    C513044   3.753   3.664  15.012  0.5606 -0.2135  0.6134
  886MPD2     H13045   4.101   3.794  15.065 -0.2198  1.0173  1.4785
  886MPD2    H113046   3.686   3.864  15.022 -0.8756 -1.2994  0.8665
  886MPD2    H213047   3.829   3.472  15.024 -0.4117  0.4574  1.7243
  886MPD2    H313048   3.650   3.630  15.006  0.7716 -0.0974 -3.6418
  886MPD2     N13049   3.923   3.993  15.042 -0.4933  0.3858 -0.1031
  886MPD2    H513050   3.843   4.052  15.020 -2.4717 -2.2355  0.1443
  886MPD2    N113051   4.088   3.544  15.048  0.6620  0.1098 -0.0852
  886MPD2    H713052   4.179   3.578  15.075  1.2533 -0.1228 -1.7764
  887MPD2     C13053   4.433   3.514  15.664  0.0278  1.0731  0.0446
  887MPD2    C113054   4.403   3.587  15.546  0.2304 -0.7977  0.1909
  887MPD2    C213055   4.395   3.721  15.550  0.1845  0.3957 -0.3077
  887MPD2    C313056   4.408   3.783  15.674 -0.5619  0.1830 -0.6661
  887MPD2    C413057   4.439   3.714  15.788 -0.0652 -0.2171  0.6850
  887MPD2    C513058   4.439   3.579  15.783 -0.3899  0.4830  0.0533
  887MPD2     H13059   4.369   3.783  15.466  0.1216 -0.8567 -1.2190
  887MPD2    H113060   4.455   3.756  15.887 -0.9552  0.4804  0.5366
  887MPD2    H213061   4.446   3.407  15.676 -0.2734  0.8635 -1.4286
  887MPD2    H313062   4.469   3.517  15.868 -0.0128 -1.1915 -1.3000
  887MPD2     N13063   4.397   3.924  15.673 -0.6709 -0.6939  0.0337
  887MPD2    H513064   4.372   3.967  15.585 -1.1274 -0.9750  0.0200
  887MPD2    N113065   4.385   3.526  15.421  0.8363 -0.4615 -0.0561
  887MPD2    H713066   4.352   3.574  15.338 -0.1067 -4.1581 -1.8578
  888MPD2     C13067   1.822   3.772  15.466  0.4768 -0.3724  1.1754
  888MPD2    C113068   1.689   3.809  15.454  0.2491 -0.0304 -0.0720
  888MPD2    C213069   1.664   3.931  15.396 -0.0917 -0.6957 -0.8997
  888MPD2    C313070   1.763   4.015  15.349 -0.1645 -0.2630 -0.0966
  888MPD2    C413071   1.894   3.983  15.377 -0.0309 -0.0410 -0.0504
  888MPD2    C513072   1.920   3.863  15.436 -0.2705 -0.3082  0.1514
  888MPD2     H13073   1.559   3.947  15.376 -0.4593 -1.3179  0.5852
  888MPD2    H113074   1.973   4.054  15.354 -0.7940  0.5532 -0.8300
  888MPD2    H213075   1.849   3.678  15.513 -1.0940 -0.6309  1.5460
  888MPD2    H313076   2.023   3.832  15.444 -0.6102 -1.8143 -1.3942
  888MPD2     N13077   1.728   4.140  15.287 -0.7827 -0.0330  0.5813
  888MPD2    H513078   1.628   4.157  15.286 -0.3151  2.6565  1.3510
  888MPD2    N113079   1.579   3.725  15.492 -0.4969  0.0644  0.3210
  888MPD2    H713080   1.487   3.768  15.485 -0.7077 -0.1134  2.0731
  889MPD2     C13081   0.710   2.688  13.618 -1.1351  0.3043 -0.3801
  889MPD2    C113082   0.807   2.739  13.535  0.1888  0.2968 -0.3592
  889MPD2    C213083   0.863   2.859  13.572 -0.1830 -0.3969  0.2667
  889MPD2    C313084   0.786   2.959  13.639  0.3982 -0.3117  0.0459
  889MPD2    C413085   0.671   2.917  13.701  0.4162 -0.4610 -0.1737
  889MPD2    C513086   0.637   2.780  13.692  0.1269 -0.1282 -0.1817
  889MPD2     H13087   0.951   2.893  13.519 -0.5133  0.6525  0.4017
  889MPD2    H113088   0.606   2.981  13.759 -0.1208 -0.0052 -1.2756
  889MPD2    H213089   0.679   2.584  13.618 -0.5958  0.1478  0.6835
  889MPD2    H313090   0.544   2.756  13.743  0.6533 -1.2370  0.2627
  889MPD2     N13091   0.838   3.092  13.648  0.2000  0.0008 -0.3176
  889MPD2    H513092   0.928   3.106  13.603  1.4296 -0.6002  1.9692
  889MPD2    N113093   0.878   2.642  13.455 -0.1493  0.7929  0.0861
  889MPD2    H713094   0.846   2.547  13.471  2.2324 -0.2951 -1.4886
  890MPD2     C13095   0.369   0.062  14.663  0.8082  0.2968 -0.1275
  890MPD2    C113096   0.496   0.085  14.704 -0.7025 -0.3551 -0.1816
  890MPD2    C213097   0.527   0.120  14.837 -0.6649  0.7622  0.2546
  890MPD2    C313098   0.428   0.127  14.927 -0.3875 -0.0041  0.0361
  890MPD2    C413099   0.301   0.126  14.882 -0.8751 -0.1221  0.1862
  890MPD2    C513100   0.272   0.092  14.754  0.2180 -0.4107 -0.2547
  890MPD2     H13101   0.628   0.136  14.874 -1.0384  0.5412  1.3957
  890MPD2    H113102   0.219   0.151  14.949 -0.3009  2.5120 -0.0786
  890MPD2    H213103   0.339   0.034  14.563  2.2701 -1.6848 -0.0149
  890MPD2    H313104   0.171   0.081  14.718 -0.5392  1.3604  1.3838
  890MPD2     N13105   0.459   0.149  15.064 -0.1547  0.8743 -0.1826
  890MPD2    H513106   0.556   0.165  15.089  0.0401  1.7139 -1.4503
  890MPD2    N113107   0.597   0.083  14.600  0.1179 -0.5664 -0.2163
  890MPD2    H713108   0.568   0.055  14.506  2.7317 -1.2961 -0.8079
  891MPD2     C13109   2.986   3.216  16.516  0.6129 -0.7230 -0.2821
  891MPD2    C113110   2.967   3.338  16.461 -0.0776  0.3032 -0.4595
  891MPD2    C213111   3.077   3.416  16.447 -0.0465  0.0648 -0.3336
  891MPD2    C313112   3.205   3.364  16.468  0.0985  0.4002 -1.2682
  891MPD2    C413113   3.221   3.231  16.498  0.2919 -0.3732  0.6193
  891MPD2    C513114   3.110   3.160  16.535  0.3348 -0.3726 -0.5770
  891MPD2     H13115   3.073   3.514  16.401 -0.7868  1.0333  1.8314
  891MPD2    H113116   3.321   3.196  16.521 -0.0723 -2.0029 -0.3162
  891MPD2    H213117   2.899   3.160  16.546  0.0886 -0.1735 -0.7885
  891MPD2    H313118   3.121   3.067  16.590 -0.7788 -0.7809 -1.0394
  891MPD2     N13119   3.319   3.455  16.466  0.0784 -0.6561 -0.0987
  891MPD2    H513120   3.301   3.554  16.450  1.9503  0.0221  2.0406
  891MPD2    N113121   2.830   3.372  16.424  0.0523 -0.1713  0.6832
  891MPD2    H713122   2.757   3.306  16.446 -0.8754  0.9613  1.0479
  892MPD2     C13123   4.420   4.594  14.853  0.4511 -1.0942 -0.2681
  892MPD2    C113124   4.352   4.545  14.746 -0.3000 -0.5588 -0.2149
  892MPD2    C213125   4.383   4.430  14.673 -0.0277 -0.0919 -0.7984
  892MPD2    C313126   4.499   4.364  14.703  0.5894  0.6322 -0.8342
  892MPD2    C413127   4.582   4.427  14.791  0.7314 -0.7415 -0.2953
  892MPD2    C513128   4.544   4.536  14.865  0.0133 -0.2158 -0.8487
  892MPD2     H13129   4.316   4.405  14.591  1.2178  1.5737 -2.3240
  892MPD2    H113130   4.682   4.388  14.807  0.5598 -1.0398  0.0584
  892MPD2    H213131   4.393   4.681  14.911  0.6074  0.1174 -2.0248
  892MPD2    H313132   4.609   4.568  14.946 -3.3709  1.1328  1.3032
  892MPD2     N13133   4.552   4.265  14.630 -0.2850 -0.0333 -0.6304
  892MPD2    H513134   4.648   4.232  14.633 -0.5602 -0.7773  0.2213
  892MPD2    N113135   4.226   4.615  14.726 -0.3874 -0.2907 -0.0947
  892MPD2    H713136   4.191   4.662  14.808 -3.0960 -1.0444 -0.8233
  893MPD2     C13137   1.922   4.162   1.633  0.3265 -0.3635  0.3990
  893MPD2    C113138   1.828   4.171   1.540  0.2642 -0.3015 -0.6711
  893MPD2    C213139   1.735   4.272   1.548 -0.1720 -0.0143 -0.2425
  893MPD2    C313140   1.716   4.337   1.667  0.2706 -0.0146  0.7672
  893MPD2    C413141   1.810   4.317   1.766  0.3676  0.3420  0.3497
  893MPD2    C513142   1.921   4.245   1.744  0.3083  0.0007 -0.4703
  893MPD2     H13143   1.669   4.284   1.463  1.6125  1.1239 -1.4601
  893MPD2    H113144   1.798   4.364   1.863  0.2485  2.2862 -0.5903
  893MPD2    H213145   2.013   4.105   1.617 -0.5017 -1.6368  0.2426
  893MPD2    H313146   2.006   4.239   1.810  0.1464 -1.7255 -0.4225
  893MPD2     N13147   1.610   4.422   1.694 -0.1533 -0.8086  0.0908
  893MPD2    H513148   1.607   4.476   1.780  0.8461  0.3271 -0.5977
  893MPD2    N113149   1.850   4.085   1.428  0.0663 -0.1218  0.0139
  893MPD2    H713150   1.930   4.023   1.435  1.7239  2.0242  0.0220
  894MPD2     C13151   4.172   0.903   1.044  0.6355  1.0783  0.1363
  894MPD2    C113152   4.134   0.990   1.145  0.0149 -0.2723 -0.2519
  894MPD2    C213153   4.178   1.118   1.136 -0.0167 -0.0287  1.1672
  894MPD2    C313154   4.249   1.163   1.027  0.5624  0.6141  0.0602
  894MPD2    C413155   4.294   1.077   0.927 -0.1781 -0.0211 -0.4322
  894MPD2    C513156   4.252   0.948   0.943 -0.4361  0.3396  0.8740
  894MPD2     H13157   4.146   1.187   1.213 -1.3198  0.3837  0.2672
  894MPD2    H113158   4.365   1.094   0.847  0.1320 -0.3783 -0.2343
  894MPD2    H213159   4.157   0.796   1.043  0.9551  1.0264  1.6477
  894MPD2    H313160   4.272   0.869   0.871 -0.8947  1.7342 -0.8048
  894MPD2     N13161   4.288   1.296   1.035  0.1150  0.3091  0.1246
  894MPD2    H513162   4.259   1.342   1.121  1.3381  0.2452  0.5724
  894MPD2    N113163   4.035   0.958   1.240  0.8563 -0.3458  0.4562
  894MPD2    H713164   4.015   1.032   1.307 -2.7842 -1.1889  0.3212
  895MPD2     C13165   3.251   3.334  13.638 -1.3147 -0.7512 -0.3622
  895MPD2    C113166   3.296   3.291  13.516  0.7132 -0.1682 -0.1118
  895MPD2    C213167   3.385   3.190  13.519  1.6294  0.6216 -0.0786
  895MPD2    C313168   3.432   3.129  13.627 -0.5135  0.3481 -0.6402
  895MPD2    C413169   3.379   3.169  13.747 -0.2027  0.5237 -0.5120
  895MPD2    C513170   3.290   3.275  13.754  0.0078 -0.0895  0.8902
  895MPD2     H13171   3.394   3.149  13.419 -1.8157  0.8072 -0.4556
  895MPD2    H113172   3.413   3.116  13.835 -2.1702  0.2283  0.0602
  895MPD2    H213173   3.179   3.415  13.648  0.8812  1.2897 -0.9782
  895MPD2    H313174   3.260   3.313  13.851 -0.0157  0.4917  0.6525
  895MPD2     N13175   3.521   3.021  13.624  0.1021 -0.7561 -0.2208
  895MPD2    H513176   3.516   2.955  13.701 -0.9564 -1.3748 -0.8302
  895MPD2    N113177   3.262   3.341  13.384  0.3712  0.2847  0.2342
  895MPD2    H713178   3.308   3.300  13.304  0.9223  0.0919  0.6502
  896MPD2     C13179   1.243   2.046   1.683  0.1467 -0.3212 -0.5297
  896MPD2    C113180   1.198   2.024   1.553  0.3583  0.6639  0.2609
  896MPD2    C213181   1.071   1.963   1.535 -0.2516 -0.7430 -0.7414
  896MPD2    C313182   0.985   1.946   1.642 -0.6479  0.1623 -0.4680
  896MPD2    C413183   1.033   1.971   1.764 -0.2716  0.7067 -0.0106
  896MPD2    C513184   1.160   2.014   1.788 -0.1829 -0.3042 -0.6083
  896MPD2     H13185   1.031   1.958   1.434 -2.2943  0.4752 -0.0024
  896MPD2    H113186   0.971   1.967   1.853 -0.3019  1.2161 -0.0077
  896MPD2    H213187   1.333   2.101   1.707  1.1807 -1.4893 -1.6776
  896MPD2    H313188   1.189   2.042   1.888 -2.2998 -1.9912  0.4805
  896MPD2     N13189   0.852   1.894   1.617  0.0196 -0.2591  0.1107
  896MPD2    H513190   0.815   1.884   1.523 -0.3413  0.0053  0.2247
  896MPD2    N113191   1.280   2.055   1.445  0.5145 -0.5202 -0.5770
  896MPD2    H713192   1.377   2.082   1.461  0.7999  0.3318 -3.8323
  897MPD2     C13193   2.599   3.078  10.415  0.8639  0.3578 -0.1960
  897MPD2    C113194   2.469   3.106  10.370  0.5134  0.4184  0.0663
  897MPD2    C213195   2.370   3.003  10.390  0.2048 -0.1147  0.2557
  897MPD2    C313196   2.401   2.894  10.471 -0.3047 -0.1182  0.5765
  897MPD2    C413197   2.531   2.876  10.521 -0.2148 -0.2562  0.2189
  897MPD2    C513198   2.630   2.966  10.491  0.3669 -0.6443 -0.4568
  897MPD2     H13199   2.269   3.011  10.351  0.7119 -1.4332 -1.3602
  897MPD2    H113200   2.556   2.792  10.585  3.3949  1.3765  0.9038
  897MPD2    H213201   2.679   3.147  10.389  2.2742 -1.6474 -1.1466
  897MPD2    H313202   2.732   2.966  10.527  0.2591 -0.3624 -0.1505
  897MPD2     N13203   2.290   2.813  10.504 -0.6557 -1.2203 -0.3574
  897MPD2    H513204   2.199   2.842  10.472 -0.0464  1.7752  0.5383
  897MPD2    N113205   2.439   3.220  10.295  0.4266 -0.5101  0.0754
  897MPD2    H713206   2.510   3.288  10.270  0.8815 -0.1011  2.4440
  898MPD2     C13207   4.039   4.145   0.319  0.5011  0.0152 -0.3428
  898MPD2    C113208   4.150   4.182   0.251  0.4769  0.3334  0.2558
  898MPD2    C213209   4.142   4.268   0.141 -0.3852  0.1834 -0.7017
  898MPD2    C313210   4.022   4.334   0.113 -0.2408  0.6124 -0.1534
  898MPD2    C413211   3.911   4.287   0.172  0.7605  0.0437 -0.6182
  898MPD2    C513212   3.919   4.194   0.281 -0.1886 -0.3611  0.7813
  898MPD2     H13213   4.230   4.295   0.083  1.0858  0.9117  1.8952
  898MPD2    H113214   3.811   4.322   0.151  1.2933  1.2764 -1.0762
  898MPD2    H213215   4.042   4.089   0.412 -1.2262  2.2946  1.0911
  898MPD2    H313216   3.828   4.173   0.337 -0.6856  0.1236  0.1528
  898MPD2     N13217   4.024   4.443   0.022  0.1180 -0.5953  0.1524
  898MPD2    H513218   4.110   4.460  17.719 -0.9869 -0.4998 -1.6334
  898MPD2    N113219   4.283   4.140   0.280  1.1559 -0.5194 -0.2961
  898MPD2    H713220   4.361   4.179   0.227 -0.4131 -0.7570 -2.7962
  899MPD2     C13221   0.088   4.659  17.275  0.4196  0.0432  0.3912
  899MPD2    C113222   0.123   0.018  17.368 -0.0770 -0.0846  1.0959
  899MPD2    C213223   0.081   0.013  17.497 -0.4829  0.5777  0.0652
  899MPD2    C313224   0.021   4.634  17.546 -0.6413 -0.3840  0.1879
  899MPD2    C413225   4.725   4.535  17.456 -0.2747 -0.3669 -0.4320
  899MPD2    C513226   0.018   4.550  17.323  0.6521  1.2686 -0.1496
  899MPD2     H13227   0.104   0.087  17.573  1.4505  0.7615 -0.7011
  899MPD2    H113228   4.654   4.455  17.476 -1.2502  0.4122 -0.7432
  899MPD2    H213229   0.112   4.674  17.171 -1.5388  0.9992  0.0614
  899MPD2    H313230   4.708   4.481  17.255 -0.3835  2.6001 -0.7812
  899MPD2     N13231   4.710   4.624  17.678  0.0333  0.2748 -0.9557
  899MPD2    H513232   4.645   4.548  17.695  0.3750  0.4217  1.0376
  899MPD2    N113233   0.176   0.136  17.319 -0.5739 -0.1569  0.5439
  899MPD2    H713234   0.197   0.139  17.220 -0.1798 -0.9906  0.6014
  900MPD2     C13235   0.120   0.690  12.887 -0.3776  0.6494  0.7769
  900MPD2    C113236   0.200   0.712  12.770  0.5636  0.8045  0.3077
  900MPD2    C213237   0.139   0.768  12.662  0.2528 -0.0244  0.4657
  900MPD2    C313238   0.000   0.781  12.656 -0.1269  0.2998  0.3442
  900MPD2    C413239   4.662   0.758  12.766 -0.1753 -0.2573 -0.0939
  900MPD2    C513240   4.721   0.716  12.885  0.0116  0.0205  0.2045
  900MPD2     H13241   0.185   0.806  12.572 -1.2902 -0.7105 -0.6121
  900MPD2    H113242   4.554   0.761  12.774 -0.2234  0.1373 -0.9105
  900MPD2    H213243   0.165   0.677  12.985 -0.4704  0.7164  0.8287
  900MPD2    H313244   4.663   0.695  12.974  0.2830 -2.5356 -0.2216
  900MPD2     N13245   4.688   0.831  12.531 -0.8679 -0.8309  0.7372
  900MPD2    H513246   0.020   0.858  12.463 -1.3797 -0.0499  0.5247
  900MPD2    N113247   0.337   0.679  12.768 -0.0561 -0.1311  0.5714
  900MPD2    H713248   0.372   0.627  12.849 -2.3662 -1.4540  0.7543
  901MPD2     C13249   0.853   4.605  12.939  0.4622  0.1172  0.0471
  901MPD2    C113250   0.776   4.592  12.826 -0.3791 -0.9106 -0.5569
  901MPD2    C213251   0.741   4.706  12.749  0.5997  0.3126  0.1673
  901MPD2    C313252   0.771   0.090  12.800 -0.2509  0.3558 -0.2125
  901MPD2    C413253   0.825   0.110  12.926  0.7129  0.0940 -0.4548
  901MPD2    C513254   0.869   4.733  12.989  0.0675 -0.5497  0.8530
  901MPD2     H13255   0.687   4.708  12.654 -0.1957 -0.2702  0.6120
  901MPD2    H113256   0.854   0.202  12.976  0.6748 -0.0441 -0.1778
  901MPD2    H213257   0.890   4.528  13.006  2.1082  1.7877  1.0371
  901MPD2    H313258   0.912   0.025  13.085  2.4193 -0.1582 -0.3238
  901MPD2     N13259   0.720   0.197  12.721 -0.2335 -0.2603  0.2251
  901MPD2    H513260   0.667   0.181  12.636  0.3484  0.3897 -0.2720
  901MPD2    N113261   0.764   4.457  12.790 -0.0122  0.4632  0.0823
  901MPD2    H713262   0.819   4.384  12.834 -0.1493 -0.5748 -1.4679
  902MPD2     C13263   3.002   4.366  13.180  0.3546 -0.0693 -0.8336
  902MPD2    C113264   3.030   4.396  13.045 -0.0452  0.2140 -0.2300
  902MPD2    C213265   3.095   4.295  12.972 -0.6312 -0.6531 -0.3239
  902MPD2    C313266   3.139   4.177  13.038  0.1252  0.4559  0.2972
  902MPD2    C413267   3.099   4.155  13.159  0.3769 -0.3356  0.8206
  902MPD2    C513268   3.032   4.245  13.239 -0.5471  0.0451 -0.0285
  902MPD2     H13269   3.126   4.323  12.872  3.6534  0.6412  1.3412
  902MPD2    H113270   3.127   4.062  13.206  2.4666  0.0422  0.3061
  902MPD2    H213271   2.956   4.440  13.245 -2.1797 -1.9970 -0.3908
  902MPD2    H313272   3.010   4.232  13.344  1.7719 -1.0746  0.3186
  902MPD2     N13273   3.214   4.071  12.981  0.2893  0.2438  0.0001
  902MPD2    H513274   3.235   3.993  13.042 -0.6510  1.2250  1.5749
  902MPD2    N113275   2.996   4.517  12.983  0.2352  0.0768 -0.1169
  902MPD2    H713276   3.006   4.529  12.883 -1.1932  3.9487  0.1817
  903MPD2     C13277   3.851   3.663  12.447 -0.3055 -0.1076  0.4649
  903MPD2    C113278   3.747   3.756  12.442 -0.3465  0.6197 -0.4152
  903MPD2    C213279   3.698   3.785  12.310  0.2345 -0.0163 -0.3571
  903MPD2    C313280   3.765   3.744  12.195  0.2181  0.2641  0.5805
  903MPD2    C413281   3.874   3.655  12.211  0.7726  0.0243  0.1093
  903MPD2    C513282   3.907   3.607  12.336 -0.3645 -0.1609 -0.3573
  903MPD2     H13283   3.605   3.839  12.302 -0.1230 -0.0501  3.6069
  903MPD2    H113284   3.931   3.608  12.132 -1.3332 -0.2916 -1.2456
  903MPD2    H213285   3.909   3.638  12.535  0.5135  0.5812  0.1096
  903MPD2    H313286   3.981   3.531  12.360 -0.3404  0.1859  0.6981
  903MPD2     N13287   3.715   3.779  12.065  0.6240 -0.1199 -0.6082
  903MPD2    H513288   3.621   3.817  12.071  1.8025  2.6315  0.3046
  903MPD2    N113289   3.707   3.804  12.562  0.2151  0.1723  0.5341
  903MPD2    H713290   3.729   3.757  12.649  2.3443 -0.8912 -0.5726
  904MPD2     C13291   3.516   2.812  14.136 -0.3959 -0.5507 -0.2374
  904MPD2    C113292   3.443   2.927  14.142  0.1857  0.3482 -0.2975
  904MPD2    C213293   3.505   3.050  14.167 -0.1739  0.3095  0.5501
  904MPD2    C313294   3.642   3.059  14.163  0.6304 -0.2234  0.4111
  904MPD2    C413295   3.717   2.942  14.161 -0.6903 -0.2366  0.0201
  904MPD2    C513296   3.651   2.818  14.158 -0.5015 -0.1465 -0.2556
  904MPD2     H13297   3.453   3.144  14.180 -0.4116  0.1927  0.4662
  904MPD2    H113298   3.825   2.937  14.163 -0.6441  1.0555  0.3016
  904MPD2    H213299   3.463   2.718  14.128  0.2179 -1.0842  1.7613
  904MPD2    H313300   3.706   2.726  14.175 -3.8761 -1.9594  0.8858
  904MPD2     N13301   3.702   3.187  14.156  0.1328  0.0593 -0.0192
  904MPD2    H513302   3.643   3.269  14.143  1.8011  1.3522  0.6132
  904MPD2    N113303   3.300   2.909  14.120  0.8249  0.7743  0.0799
  904MPD2    H713304   3.262   2.819  14.096  0.5429  1.0767 -0.6093
  905MPD2     C13305   3.023   3.014  13.375  0.2500  0.4421 -0.5141
  905MPD2    C113306   3.090   2.954  13.481  0.0391  0.6881 -0.4492
  905MPD2    C213307   3.203   2.878  13.453 -0.4068  0.0607 -0.4218
  905MPD2    C313308   3.256   2.870  13.322  0.0437  0.0398 -1.0650
  905MPD2    C413309   3.182   2.931  13.219  0.0869 -0.6545 -0.1322
  905MPD2    C513310   3.064   2.991  13.243  0.1582 -0.6131  0.2473
  905MPD2     H13311   3.258   2.819  13.526 -3.1423 -1.1302  0.6714
  905MPD2    H113312   3.225   2.925  13.120  1.6721 -1.6439  0.6041
  905MPD2    H213313   2.925   3.057  13.389 -1.0535 -1.1624 -4.4831
  905MPD2    H313314   3.000   3.031  13.165  0.4074 -1.8728 -0.5971
  905MPD2     N13315   3.379   2.804  13.296 -0.2778  0.3906 -0.1501
  905MPD2    H513316   3.423   2.813  13.206  3.1213 -2.6727  1.1989
  905MPD2    N113317   3.035   2.973  13.609 -0.1668  0.4553  0.5306
  905MPD2    H713318   2.962   3.043  13.617 -0.4501  0.3503 -1.2427
  906MPD2     C13319   0.893   2.909  11.298  0.0483 -0.2928 -0.0289
  906MPD2    C113320   0.860   2.813  11.206  0.1813  0.2713 -0.3917
  906MPD2    C213321   0.783   2.706  11.255 -1.0644 -0.0993  0.2229
  906MPD2    C313322   0.729   2.708  11.381  0.6469  0.0838 -0.3193
  906MPD2    C413323   0.765   2.804  11.469  0.1594  0.1861 -0.1549
  906MPD2    C513324   0.854   2.896  11.429 -0.1568  0.9697  0.1017
  906MPD2     H13325   0.766   2.614  11.201 -0.3597 -0.0874 -0.0299
  906MPD2    H113326   0.734   2.820  11.571 -0.1101  2.6226 -0.6021
  906MPD2    H213327   0.939   3.004  11.271  1.3520 -1.0269 -0.3584
  906MPD2    H313328   0.869   2.976  11.500  1.2156  0.0229  0.8767
  906MPD2     N13329   0.641   2.599  11.404 -0.1466  0.7072 -0.2869
  906MPD2    H513330   0.608   2.548  11.323  0.7075 -0.4978  0.1267
  906MPD2    N113331   0.922   2.803  11.080 -0.0523  0.1469 -0.0021
  906MPD2    H713332   0.899   2.722  11.023  0.4832 -0.2490  0.3425
  907MPD2     C13333   3.990   2.610  15.995 -0.0578  0.2195 -0.0959
  907MPD2    C113334   4.050   2.508  15.927  0.0319 -0.1754 -0.4547
  907MPD2    C213335   4.146   2.433  15.986  0.8511  0.6462 -0.1894
  907MPD2    C313336   4.174   2.437  16.123 -0.7651 -0.1777 -0.6151
  907MPD2    C413337   4.104   2.538  16.187  0.7628 -0.2090 -0.3653
  907MPD2    C513338   4.015   2.626  16.127  0.4988 -0.2130 -0.9785
  907MPD2     H13339   4.198   2.359  15.927  0.1380 -0.8651  1.0734
  907MPD2    H113340   4.094   2.540  16.295 -2.8167  0.2124 -0.7039
  907MPD2    H213341   3.920   2.684  15.959  0.8360  0.7557 -0.7089
  907MPD2    H313342   3.955   2.699  16.179  0.9437 -0.9975  0.6227
  907MPD2     N13343   4.246   2.336  16.190 -0.2977 -0.3860  0.3984
  907MPD2    H513344   4.288   2.270  16.126  0.3809  0.1955  0.2378
  907MPD2    N113345   4.027   2.487  15.789 -0.2402 -0.7075 -0.1149
  907MPD2    H713346   4.079   2.409  15.749 -1.3863 -1.1366 -0.7957
  908MPD2     C13347   1.708   3.432   9.653  0.0376  0.4308 -0.7194
  908MPD2    C113348   1.781   3.317   9.690 -0.3079 -0.2781  0.3649
  908MPD2    C213349   1.886   3.326   9.775 -0.3181  0.4405  0.6016
  908MPD2    C313350   1.925   3.451   9.832  0.2382  0.2092 -0.3938
  908MPD2    C413351   1.842   3.559   9.802  0.1048  0.2251 -0.0968
  908MPD2    C513352   1.737   3.548   9.709  0.7529  0.7745  0.4432
  908MPD2     H13353   1.938   3.237   9.807  0.7841  0.4263 -1.2542
  908MPD2    H113354   1.840   3.656   9.850 -0.4495 -1.3729  3.0787
  908MPD2    H213355   1.635   3.422   9.574 -1.5959 -2.3603  1.1609
  908MPD2    H313356   1.676   3.637   9.698 -1.8378 -1.2403 -1.4085
  908MPD2     N13357   2.024   3.459   9.932 -0.6627  0.6092 -0.3164
  908MPD2    H513358   2.067   3.373   9.963 -0.7792  0.9917  0.9526
  908MPD2    N113359   1.733   3.199   9.629 -0.0418  0.0112 -0.2663
  908MPD2    H713360   1.664   3.216   9.557 -1.0936 -1.2331  0.4503
  909MPD2     C13361   2.622   0.603  11.921  0.2339  0.2874  0.0675
  909MPD2    C113362   2.605   0.719  11.848 -0.0247  0.1923  0.5616
  909MPD2    C213363   2.557   0.832  11.907 -0.6677  0.3532 -0.6117
  909MPD2    C313364   2.540   0.833  12.044 -0.2330  0.3837  0.2859
  909MPD2    C413365   2.572   0.720  12.121 -0.2067  0.1754  0.0766
  909MPD2    C513366   2.594   0.606  12.055  0.0877 -0.1878 -0.0546
  909MPD2     H13367   2.543   0.921  11.847 -2.5071  0.4282 -0.0626
  909MPD2    H113368   2.566   0.721  12.229 -2.8731  1.7332 -0.0876
  909MPD2    H213369   2.646   0.504  11.885  1.1231  1.0223 -1.3696
  909MPD2    H313370   2.602   0.519  12.120 -0.0924 -0.3863 -0.3011
  909MPD2     N13371   2.488   0.948  12.100 -0.3654  0.6398  0.2879
  909MPD2    H513372   2.484   1.031  12.041  2.3013  0.9672  0.6021
  909MPD2    N113373   2.637   0.734  11.712  0.4532  0.0732  0.5816
  909MPD2    H713374   2.618   0.826  11.672 -0.3228 -0.0342  0.6959
  910MPD2     C13375   3.339   2.757  16.191 -0.1031  0.0075  0.1370
  910MPD2    C113376   3.414   2.709  16.083  0.1916 -0.0059 -0.0203
  910MPD2    C213377   3.385   2.773  15.962  0.5330 -0.5943  0.1105
  910MPD2    C313378   3.308   2.885  15.946 -0.1416  0.1237  0.3565
  910MPD2    C413379   3.231   2.921  16.056 -0.0297  0.5743  0.4702
  910MPD2    C513380   3.244   2.857  16.177 -0.3505  0.6275 -0.3069
  910MPD2     H13381   3.432   2.736  15.872 -0.0152 -3.9833  1.2313
  910MPD2    H113382   3.158   3.001  16.047 -1.5828 -0.9940 -1.0681
  910MPD2    H213383   3.336   2.700  16.283 -0.8331  0.0649  0.1514
  910MPD2    H313384   3.172   2.877  16.255 -1.7401  0.2769 -1.4998
  910MPD2     N13385   3.275   2.930  15.815 -0.3991 -0.3628 -0.2657
  910MPD2    H513386   3.207   3.005  15.810  0.5439  0.3929 -1.5169
  910MPD2    N113387   3.507   2.610  16.078 -0.1084 -0.1296 -0.6762
  910MPD2    H713388   3.553   2.584  15.991  2.4143  1.7980  0.0718
  911MPD2     C13389   1.201   3.438  16.279  0.3306 -0.7808  0.1181
  911MPD2    C113390   1.320   3.484  16.331  0.2939 -0.3516  0.3043
  911MPD2    C213391   1.339   3.618  16.359 -0.2492  0.0842  0.0067
  911MPD2    C313392   1.236   3.707  16.345 -0.4200  0.0176  0.2109
  911MPD2    C413393   1.110   3.663  16.299 -0.2373 -0.1417  0.1085
  911MPD2    C513394   1.100   3.528  16.263  0.1240 -0.3289 -0.4090
  911MPD2     H13395   1.434   3.653  16.398 -0.3351  0.6998 -0.3233
  911MPD2    H113396   1.027   3.730  16.280 -0.4986 -0.5513 -0.2061
  911MPD2    H213397   1.188   3.334  16.252 -0.1457 -0.6734 -0.0580
  911MPD2    H313398   1.006   3.482  16.231 -1.4262  2.3104  0.3958
  911MPD2     N13399   1.260   3.850  16.348 -0.5054  0.0189  0.2435
  911MPD2    H513400   1.358   3.877  16.340 -0.0983 -1.9237 -1.3613
  911MPD2    N113401   1.415   3.382  16.362  0.4001  0.7498  0.5834
  911MPD2    H713402   1.381   3.287  16.349  1.1529  0.5295  0.2332
  912MPD2     C13403   0.619   4.173  16.260 -0.4371  1.3541  0.5395
  912MPD2    C113404   0.745   4.179  16.313  0.0991  0.4848  0.3294
  912MPD2    C213405   0.793   4.061  16.375  0.2797 -0.1714  0.3926
  912MPD2    C313406   0.732   3.943  16.372 -0.1942  0.1289 -0.0696
  912MPD2    C413407   0.609   3.940  16.310  0.5615  0.4216  0.4244
  912MPD2    C513408   0.549   4.060  16.269  0.0542 -0.6851  0.5040
  912MPD2     H13409   0.887   4.062  16.430  1.1043  1.4787 -1.0542
  912MPD2    H113410   0.556   3.847  16.298  0.6858  0.2827  0.9191
  912MPD2    H213411   0.577   4.259  16.210 -3.6736 -0.2697  0.4514
  912MPD2    H313412   0.452   4.054  16.222  0.4844 -1.7046 -0.2500
  912MPD2     N13413   0.789   3.829  16.431 -0.5134  1.0774  0.7858
  912MPD2    H513414   0.881   3.841  16.471 -1.1453  0.6002  2.4011
  912MPD2    N113415   0.815   4.302  16.318 -0.2034 -0.2597 -0.3250
  912MPD2    H713416   0.753   4.382  16.324 -0.1847 -0.1854 -1.1766
  913MPD2     C13417   2.015   0.628   9.274  0.7388  0.3123 -0.6956
  913MPD2    C113418   2.128   0.671   9.339  0.2275  0.3330  0.8549
  913MPD2    C213419   2.155   0.800   9.333  0.1674 -0.0998 -0.9978
  913MPD2    C313420   2.096   0.893   9.248  0.0288 -0.3867  0.5702
  913MPD2    C413421   1.997   0.851   9.173 -0.5049 -0.1781  0.1023
  913MPD2    C513422   1.953   0.720   9.193 -0.2804 -0.1387  0.7328
  913MPD2     H13423   2.237   0.839   9.392  0.0253 -3.1293  1.1644
  913MPD2    H113424   1.944   0.923   9.111  1.7116  0.8081 -0.6712
  913MPD2    H213425   1.975   0.527   9.267  1.4994 -0.2180  2.6883
  913MPD2    H313426   1.868   0.684   9.136  1.8280 -1.5309 -1.5170
  913MPD2     N13427   2.131   1.028   9.226  0.3007  0.5582  0.2050
  913MPD2    H513428   2.073   1.078   9.159  0.4292  0.0058 -0.3174
  913MPD2    N113429   2.198   0.573   9.415  0.4996  0.5210  0.0264
  913MPD2    H713430   2.173   0.475   9.403 -2.0640  1.2073 -0.2024
  914MPD2     C13431   0.162   4.116  12.077  0.5421 -0.0686  0.2727
  914MPD2    C113432   0.190   4.241  12.135 -1.1420  0.4134 -0.0394
  914MPD2    C213433   0.261   4.243  12.250 -0.0437  0.6414 -0.0345
  914MPD2    C313434   0.302   4.134  12.310 -0.0332  0.1022  0.5610
  914MPD2    C413435   0.260   4.006  12.266  0.8547  0.3592 -0.0808
  914MPD2    C513436   0.188   3.998  12.153  0.1338 -0.3336  0.1698
  914MPD2     H13437   0.308   4.331  12.294 -1.0745  0.2493  1.8479
  914MPD2    H113438   0.294   3.912  12.309  0.6849 -0.6533 -2.1553
  914MPD2    H213439   0.122   4.112  11.977 -1.0651 -0.2184  0.9258
  914MPD2    H313440   0.156   3.897  12.129  1.8423 -1.2164  1.5977
  914MPD2     N13441   0.410   4.151  12.406 -0.2767 -0.1471 -0.1202
  914MPD2    H513442   0.430   4.246  12.433  0.0583 -0.1938 -0.2063
  914MPD2    N113443   0.148   4.356  12.062 -0.5634  0.1034  0.1094
  914MPD2    H713444   0.083   4.340  11.985  0.8553  0.7076 -1.2316
  915MPD2     C13445   2.210   0.062  15.567 -0.5300 -0.6170 -0.1053
  915MPD2    C113446   2.080   0.089  15.604  0.0899  0.3737 -0.2551
  915MPD2    C213447   2.063   0.179  15.706  0.9919  0.1602  0.0107
  915MPD2    C313448   2.163   0.247  15.762  0.6394  0.5823 -0.1943
  915MPD2    C413449   2.295   0.224  15.722 -0.0293 -0.2372 -0.4535
  915MPD2    C513450   2.317   0.122  15.630 -0.0953  0.5668  0.0257
  915MPD2     H13451   1.966   0.211  15.742  0.7739  2.1071 -2.2795
  915MPD2    H113452   2.385   0.272  15.758 -0.3635  0.7410 -0.9425
  915MPD2    H213453   2.236   4.729  15.490  1.6078  1.5019 -1.3120
  915MPD2    H313454   2.418   0.092  15.606 -0.1488 -0.2748  0.8657
  915MPD2     N13455   2.131   0.341  15.865  0.2733  0.4216 -0.1286
  915MPD2    H513456   2.042   0.328  15.912  1.4408 -1.9881  1.3975
  915MPD2    N113457   1.974   0.026  15.539  0.4614  0.3774 -0.2474
  915MPD2    H713458   1.997   4.693  15.470  2.0142 -0.7576  1.4365
  916MPD2     C13459   0.701   3.460  16.131 -0.0444  0.1102  0.0315
  916MPD2    C113460   0.642   3.336  16.147  1.1235  0.4271  0.0913
  916MPD2    C213461   0.697   3.236  16.066  0.6475 -0.0302  0.9939
  916MPD2    C313462   0.792   3.262  15.968 -0.5558  0.7054 -0.3446
  916MPD2    C413463   0.851   3.386  15.968  0.2896 -0.4652 -0.8202
  916MPD2    C513464   0.799   3.482  16.043  0.1659  0.0701  0.2164
  916MPD2     H13465   0.649   3.139  16.066  0.8578 -0.1350 -0.2633
  916MPD2    H113466   0.930   3.414  15.899 -0.6863 -0.6093 -1.9899
  916MPD2    H213467   0.667   3.548  16.184  1.7204  1.3872 -0.9630
  916MPD2    H313468   0.841   3.582  16.046  0.5725 -0.1482  1.7448
  916MPD2     N13469   0.815   3.164  15.873  0.1161  0.5863  0.5426
  916MPD2    H513470   0.776   3.071  15.885  0.2586  0.3752 -0.5904
  916MPD2    N113471   0.523   3.325  16.228  0.2295  0.1287  0.2275
  916MPD2    H713472   0.486   3.415  16.255  1.0891 -0.2565  2.6595
  917MPD2     C13473   1.766   0.317  10.741 -0.6661 -0.0050 -0.2785
  917MPD2    C113474   1.733   0.384  10.856  0.1127  1.0053  0.6969
  917MPD2    C213475   1.739   0.520  10.850 -0.4569  0.2373 -0.6226
  917MPD2    C313476   1.797   0.584  10.740 -0.4094  1.4205  0.4830
  917MPD2    C413477   1.846   0.505  10.639  0.0512  0.3018  0.0326
  917MPD2    C513478   1.823   0.375  10.640  0.5325  0.1485  0.3694
  917MPD2     H13479   1.709   0.580  10.934 -1.1146  0.3810 -0.9636
  917MPD2    H113480   1.905   0.545  10.557  1.3849 -2.0175 -0.1144
  917MPD2    H213481   1.751   0.210  10.734  0.2507 -0.1431 -0.0904
  917MPD2    H313482   1.852   0.314  10.555 -0.7390 -0.2477  0.2286
  917MPD2     N13483   1.819   0.721  10.728 -0.1692  0.2716  0.2027
  917MPD2    H513484   1.880   0.754  10.653 -0.3434  0.1200 -0.0033
  917MPD2    N113485   1.670   0.316  10.962  0.1562  0.3285 -0.4083
  917MPD2    H713486   1.624   0.227  10.944 -1.1922  0.7527  1.0625
  918MPD2     C13487   2.020   0.056  11.879  0.3796 -0.0722 -0.6995
  918MPD2    C113488   2.003   0.188  11.837 -0.1647  0.1758  0.1805
  918MPD2    C213489   1.916   0.224  11.735 -0.5614 -0.1132  0.2446
  918MPD2    C313490   1.856   0.120  11.660  0.0997  0.2242  0.2804
  918MPD2    C413491   1.884   4.725  11.690  0.4646 -0.2859 -0.0242
  918MPD2    C513492   1.960   4.694  11.801  0.5339 -0.3269 -0.3724
  918MPD2     H13493   1.886   0.326  11.716  1.2821  0.5470  0.8385
  918MPD2    H113494   1.837   4.644  11.636  2.3692 -0.5934 -1.1943
  918MPD2    H213495   2.074   0.029  11.969  3.0202  0.7244 -2.0317
  918MPD2    H313496   1.973   4.591  11.830  2.7685  1.2120  4.0093
  918MPD2     N13497   1.776   0.164  11.552  0.2427  0.5857  0.4515
  918MPD2    H513498   1.777   0.262  11.525 -0.5702  0.3554 -0.4278
  918MPD2    N113499   2.058   0.301  11.896 -0.7720  0.4276 -0.0555
  918MPD2    H713500   2.039   0.392  11.853  0.8569 -0.4987 -2.7212
  919MPD2     C13501   2.077   4.133  11.463  0.0521 -0.3720  0.0381
  919MPD2    C113502   2.181   4.049  11.474 -1.2333 -0.2137  0.4278
  919MPD2    C213503   2.290   4.066  11.388 -0.8123 -0.1200  0.1561
  919MPD2    C313504   2.281   4.156  11.285  0.0290 -0.6690 -0.5987
  919MPD2    C413505   2.173   4.239  11.277 -0.0955  0.5652  0.5833
  919MPD2    C513506   2.079   4.229  11.369 -0.4399  0.8554 -0.0941
  919MPD2     H13507   2.377   4.002  11.398  0.7145  2.0930  1.0157
  919MPD2    H113508   2.168   4.312  11.197  1.7091 -0.0635 -0.1117
  919MPD2    H213509   1.991   4.129  11.529 -1.2137 -1.0596 -1.6626
  919MPD2    H313510   1.990   4.288  11.352 -0.2668  1.1310 -0.0450
  919MPD2     N13511   2.377   4.167  11.181  0.1966 -0.3712  0.1866
  919MPD2    H513512   2.344   4.226  11.105 -0.9185  0.4885  1.3298
  919MPD2    N113513   2.194   3.939  11.569 -0.0286 -0.1445  0.0610
  919MPD2    H713514   2.272   3.875  11.564  0.1328  0.1307 -0.8877
  920MPD2     C13515   2.302   4.644  10.405  0.5200 -0.2350  0.1834
  920MPD2    C113516   2.267   4.512  10.364 -0.2397 -0.2910  0.3578
  920MPD2    C213517   2.309   4.408  10.448 -0.5738  0.0552  0.2074
  920MPD2    C313518   2.389   4.445  10.558  0.2604 -0.2131 -0.4533
  920MPD2    C413519   2.413   4.567  10.603  0.0215  0.0059  0.4723
  920MPD2    C513520   2.369   4.670  10.523 -0.7131 -0.2406  0.1225
  920MPD2     H13521   2.287   4.306  10.420 -1.0705 -0.2960  1.8983
  920MPD2    H113522   2.460   4.594  10.696 -1.0733  1.4404  0.6062
  920MPD2    H213523   2.262   4.730  10.352  0.0364 -1.5033 -1.4778
  920MPD2    H313524   2.375   0.035  10.557  0.5872 -0.7585  1.4904
  920MPD2     N13525   2.429   4.335  10.638 -0.6730  0.4113  1.0279
  920MPD2    H513526   2.398   4.245  10.605 -1.4152  1.2152 -0.4654
  920MPD2    N113527   2.202   4.484  10.240  0.3249  0.6690 -0.0657
  920MPD2    H713528   2.214   4.388  10.208  1.7219  0.4270  1.1762
  921MPD2     C13529   2.094   3.689  16.711 -0.1184 -0.1854 -0.1904
  921MPD2    C113530   2.129   3.585  16.626 -0.2748  0.3546 -0.0679
  921MPD2    C213531   2.056   3.473  16.636 -0.2104  0.1553 -0.4509
  921MPD2    C313532   1.941   3.468  16.712  0.9007 -0.0856 -0.0089
  921MPD2    C413533   1.906   3.578  16.785  0.3016  0.4378  0.3082
  921MPD2    C513534   1.981   3.688  16.781  0.1972 -0.8356  0.0931
  921MPD2     H13535   2.092   3.393  16.573 -1.1474  0.6656 -1.6322
  921MPD2    H113536   1.820   3.574  16.850 -0.7687  0.6514 -1.0923
  921MPD2    H213537   2.149   3.782  16.704  0.9523 -1.1715 -4.5250
  921MPD2    H313538   1.952   3.773  16.843  0.1462 -2.0751  1.7527
  921MPD2     N13539   1.863   3.350  16.725 -0.0849  0.0398 -0.0264
  921MPD2    H513540   1.780   3.359  16.783  1.2784  0.6790  1.8348
  921MPD2    N113541   2.250   3.598  16.547  0.1156  0.3206 -0.3632
  921MPD2    H713542   2.295   3.689  16.552 -2.0672  1.3655  0.5022
  922MPD2     C13543   3.163   1.092   0.091 -0.2216 -0.4731 -0.4952
  922MPD2    C113544   3.147   1.085  17.705  0.0410 -0.1207 -0.0210
  922MPD2    C213545   3.015   1.099  17.653  0.5325  0.3385  0.4325
  922MPD2    C313546   2.909   1.118  17.740  0.3007 -0.1298 -0.6072
  922MPD2    C413547   2.934   1.119   0.126 -0.1499 -0.2407 -0.6018
  922MPD2    C513548   3.061   1.118   0.178  0.2638 -0.1904 -0.6090
  922MPD2     H13549   3.005   1.096  17.545  1.9161  0.2484  0.3106
  922MPD2    H113550   2.857   1.115   0.201 -0.8947  2.1726 -1.2150
  922MPD2    H213551   3.259   1.095   0.141 -0.6624  1.4714  0.2556
  922MPD2    H313552   3.080   1.141   0.283 -3.4829 -0.1858  0.0677
  922MPD2     N13553   2.778   1.121  17.689 -0.3594 -0.6445  0.2366
  922MPD2    H513554   2.764   1.110  17.589  1.4635  1.2360 -0.2212
  922MPD2    N113555   3.249   1.058  17.612 -0.3005  0.4448  0.2389
  922MPD2    H713556   3.224   1.071  17.514 -0.0472  1.0068  0.2522
  923MPD2     C13557   0.620   3.439   9.149  0.3554  0.2825 -0.8526
  923MPD2    C113558   0.550   3.480   9.258  0.0095 -0.2579 -0.0675
  923MPD2    C213559   0.585   3.438   9.384 -0.0784 -0.0530  0.3415
  923MPD2    C313560   0.692   3.347   9.397 -0.3292 -0.3993 -0.1230
  923MPD2    C413561   0.760   3.307   9.280 -1.0822 -0.2429 -0.1505
  923MPD2    C513562   0.719   3.352   9.158  0.4771 -0.3062  0.5370
  923MPD2     H13563   0.539   3.470   9.477  0.9819  0.4767  0.6867
  923MPD2    H113564   0.847   3.242   9.282  0.2063  1.5770  2.4631
  923MPD2    H213565   0.584   3.453   9.048 -2.5037  1.6304  0.3664
  923MPD2    H313566   0.765   3.324   9.064 -3.0291 -1.2851 -0.8904
  923MPD2     N13567   0.729   3.285   9.517 -0.1821 -0.2154 -0.6510
  923MPD2    H513568   0.791   3.205   9.516  4.3288  3.3013 -2.2310
  923MPD2    N113569   0.454   3.580   9.233  0.9893  0.0938 -0.6612
  923MPD2    H713570   0.440   3.617   9.139 -0.4310  0.7287 -0.1975
  924MPD2     C13571   0.082   1.537  16.317  0.2155  0.4757 -0.5127
  924MPD2    C113572   4.724   1.577  16.226  0.4931  0.1240 -0.4037
  924MPD2    C213573   4.680   1.713  16.241  0.1938 -0.1202  0.9765
  924MPD2    C313574   0.005   1.798  16.333  0.3428  0.2229 -0.1583
  924MPD2    C413575   0.100   1.755  16.418  0.4707  0.6529 -0.1395
  924MPD2    C513576   0.142   1.627  16.410  0.4311 -0.4910 -0.6088
  924MPD2     H13577   4.592   1.750  16.190  0.3592  1.6931  1.9996
  924MPD2    H113578   0.132   1.826  16.494  0.6691  0.4950 -0.0775
  924MPD2    H213579   0.110   1.432  16.317  0.8877  0.6596  0.6479
  924MPD2    H313580   0.227   1.590  16.466  0.0863 -0.2220  0.0994
  924MPD2     N13581   4.693   1.929  16.359  0.0747 -0.2564  0.0764
  924MPD2    H513582   4.725   1.965  16.448  0.9899  0.1530 -0.4174
  924MPD2    N113583   4.659   1.484  16.145  0.0362 -0.8768 -0.4750
  924MPD2    H713584   4.666   1.384  16.160 -1.5746 -0.6094  2.0115
  925MPD2     C13585   2.757   4.497  13.910  0.3556 -0.1423 -0.4605
  925MPD2    C113586   2.829   4.385  13.951  0.2888  0.4980 -0.6823
  925MPD2    C213587   2.861   4.374  14.088  0.6707 -0.8534 -0.2546
  925MPD2    C313588   2.796   4.447  14.185 -0.1864  0.7767  0.5024
  925MPD2    C413589   2.700   4.542  14.146  1.2605  0.4849 -0.2405
  925MPD2    C513590   2.687   4.571  14.006 -0.4792 -0.4082 -0.4195
  925MPD2     H13591   2.929   4.293  14.112 -0.3730 -1.3136  1.1641
  925MPD2    H113592   2.651   4.604  14.221  1.1118 -0.2195  0.2438
  925MPD2    H213593   2.741   4.517  13.804 -2.4595 -1.4786 -0.2873
  925MPD2    H313594   2.630   4.653  13.964  0.8158 -0.4933 -2.3523
  925MPD2     N13595   2.813   4.437  14.326 -0.6359 -0.1536 -0.2629
  925MPD2    H513596   2.762   4.506  14.380 -0.2795  0.6337 -0.9223
  925MPD2    N113597   2.891   4.298  13.863 -0.4967 -0.5617  0.4710
  925MPD2    H713598   2.948   4.229  13.910 -2.1179 -1.7735  0.6575
  926MPD2     C13599   2.392   2.263  13.617  0.5454 -0.1226  0.0707
  926MPD2    C113600   2.297   2.319  13.532 -0.5428  0.1510  1.1711
  926MPD2    C213601   2.330   2.375  13.412 -0.1000 -0.4514  0.6047
  926MPD2    C313602   2.464   2.402  13.376 -0.0054  0.4556 -0.3676
  926MPD2    C413603   2.562   2.351  13.460  0.5378 -0.6939  0.9277
  926MPD2    C513604   2.521   2.284  13.579 -0.5127  0.1352  0.4361
  926MPD2     H13605   2.256   2.422  13.348 -0.9101 -0.6080  1.4072
  926MPD2    H113606   2.667   2.370  13.446  0.6737 -0.6293  2.0589
  926MPD2    H213607   2.376   2.207  13.709 -1.0018 -0.7439 -0.5820
  926MPD2    H313608   2.596   2.247  13.648 -1.7815  0.4913  1.9945
  926MPD2     N13609   2.502   2.489  13.265 -0.1684 -0.7469 -0.5346
  926MPD2    H513610   2.601   2.501  13.244 -0.1891  2.8389  1.5615
  926MPD2    N113611   2.156   2.328  13.564 -0.0725  0.1247  0.0343
  926MPD2    H713612   2.104   2.389  13.501 -0.8669 -1.6603 -1.0509
  927MPD2     C13613   1.617   0.192  17.314 -0.5318  0.1526 -0.9094
  927MPD2    C113614   1.553   0.313  17.331 -0.3876  0.2178  0.4748
  927MPD2    C213615   1.571   0.408  17.230  0.1465  0.3994 -0.6972
  927MPD2    C313616   1.636   0.381  17.115  0.4165  0.5491  0.7023
  927MPD2    C413617   1.688   0.248  17.098 -0.0293  1.1952 -0.3473
  927MPD2    C513618   1.669   0.163  17.197 -0.1589  0.6183  0.1515
  927MPD2     H13619   1.534   0.508  17.251  0.0322  0.8037 -2.8284
  927MPD2    H113620   1.745   0.217  17.011 -2.0902 -0.4053 -1.1464
  927MPD2    H213621   1.623   0.113  17.388 -1.3604 -0.8632 -1.9194
  927MPD2    H313622   1.713   0.064  17.193  0.5859  0.8907  1.2659
  927MPD2     N13623   1.650   0.491  17.021 -0.5408  0.0215 -0.6771
  927MPD2    H513624   1.607   0.582  17.035  1.4017  0.5760  1.6037
  927MPD2    N113625   1.506   0.340  17.459  0.2673 -0.4262 -0.2517
  927MPD2    H713626   1.511   0.266  17.528  0.9887 -1.5918 -1.5547
  928MPD2     C13627   0.097   3.829   1.559  0.7363 -0.2311  0.1104
  928MPD2    C113628   0.223   3.865   1.533  0.1959  0.3546 -0.7761
  928MPD2    C213629   0.275   3.852   1.407  0.1302 -0.0064  0.9868
  928MPD2    C313630   0.187   3.800   1.309  1.1501 -1.0122 -0.3358
  928MPD2    C413631   0.067   3.743   1.343  0.8350 -0.0987 -0.2959
  928MPD2    C513632   0.015   3.766   1.467  0.4282 -0.8864  0.3275
  928MPD2     H13633   0.370   3.897   1.380  1.6514 -2.3607  2.4000
  928MPD2    H113634   0.007   3.693   1.267 -0.1650  1.1316 -0.3105
  928MPD2    H213635   0.039   3.855   1.647 -1.3361  0.6918 -1.5230
  928MPD2    H313636   4.647   3.747   1.483  0.1224 -0.3146 -1.0281
  928MPD2     N13637   0.230   3.781   1.172 -0.2571  0.3238 -0.7890
  928MPD2    H513638   0.165   3.733   1.110 -1.2923  0.9893 -0.2206
  928MPD2    N113639   0.297   3.931   1.633 -0.2640  0.4158 -0.5537
  928MPD2    H713640   0.247   3.952   1.719 -1.1499  0.4930 -1.0845
  929MPD2     C13641   0.347   3.112   9.936  0.5217  0.6872  0.8362
  929MPD2    C113642   0.218   3.092   9.974 -0.0411 -0.5597  0.5228
  929MPD2    C213643   0.121   3.189   9.968  0.0845 -0.5052 -0.6679
  929MPD2    C313644   0.148   3.308   9.902 -0.8056 -0.2694 -0.0792
  929MPD2    C413645   0.278   3.319   9.858 -0.5059  0.0830 -0.3834
  929MPD2    C513646   0.371   3.225   9.873  0.3488 -0.2496  0.7531
  929MPD2     H13647   0.018   3.181  10.002  1.6014 -0.2169  4.0682
  929MPD2    H113648   0.306   3.414   9.815  2.3277 -1.2455 -1.4764
  929MPD2    H213649   0.419   3.032   9.950  1.3629  1.2808 -0.0162
  929MPD2    H313650   0.470   3.249   9.837 -0.2869 -0.5926 -1.2377
  929MPD2     N13651   0.057   3.406   9.868 -0.0625 -0.3945 -0.1955
  929MPD2    H513652   0.090   3.485   9.813  0.1420 -2.0233 -2.4553
  929MPD2    N113653   0.193   2.960  10.019  0.0549 -0.6366  0.7141
  929MPD2    H713654   0.277   2.903  10.020 -0.5068 -1.4269  2.0930
  930MPD2     C13655   2.087   0.833  13.939  0.1564 -0.3960 -0.5638
  930MPD2    C113656   1.987   0.894  13.867  0.0657  0.2988  0.0799
  930MPD2    C213657   1.870   0.818  13.855 -0.4063  0.0710  0.2409
  930MPD2    C313658   1.853   0.692  13.904 -0.2568  0.2242  0.0385
  930MPD2    C413659   1.963   0.634  13.959 -0.4271  0.2449  0.4247
  930MPD2    C513660   2.071   0.709  13.994 -0.2905 -0.2419  0.3925
  930MPD2     H13661   1.785   0.861  13.805 -0.6903 -0.5673  0.1686
  930MPD2    H113662   1.966   0.531  13.992  0.4738 -0.9630 -3.4027
  930MPD2    H213663   2.179   0.886  13.959  0.0090 -0.5251  0.4874
  930MPD2    H313664   2.151   0.653  14.042  2.4153  0.5318 -3.2252
  930MPD2     N13665   1.737   0.611  13.891  0.0514 -0.2140 -0.4088
  930MPD2    H513666   1.734   0.516  13.928  2.8641  0.4883  1.6241
  930MPD2    N113667   2.015   1.014  13.808  0.3326  0.0347 -0.3112
  930MPD2    H713668   2.109   1.044  13.835  0.8852 -0.5701 -1.5910
  931MPD2     C13669   1.805   0.094   0.162  0.5022 -0.3936 -0.8714
  931MPD2    C113670   1.741   0.195   0.236  0.4033 -0.2071 -0.8231
  931MPD2    C213671   1.808   0.242   0.353 -1.1178  0.1964  0.6415
  931MPD2    C313672   1.939   0.216   0.389  0.0102 -0.3846 -0.3156
  931MPD2    C413673   2.003   0.117   0.308 -0.5450 -1.2301 -0.0470
  931MPD2    C513674   1.932   0.059   0.205 -0.2957 -0.7473  0.4123
  931MPD2     H13675   1.756   0.325   0.400 -0.4001  1.3454 -0.5674
  931MPD2    H113676   2.101   0.077   0.327 -1.3730 -3.4857 -0.5324
  931MPD2    H213677   1.764   0.056   0.069 -1.2027  0.7388 -0.5758
  931MPD2    H313678   1.973   4.712   0.150  0.3339 -1.7870  2.4592
  931MPD2     N13679   1.991   0.279   0.504  0.5048  0.8375  0.5444
  931MPD2    H513680   2.080   0.236   0.531  0.5210 -1.1292 -2.6361
  931MPD2    N113681   1.627   0.247   0.169  0.1671  0.0500 -0.1701
  931MPD2    H713682   1.598   0.201   0.083 -0.2623 -0.1802  0.0982
  932MPD2     C13683   4.308   3.474  11.891 -0.5966  0.0229 -0.0433
  932MPD2    C113684   4.182   3.498  11.913 -0.5047 -0.2749  0.9154
  932MPD2    C213685   4.114   3.427  12.006 -0.5251  0.2547 -0.3321
  932MPD2    C313686   4.179   3.318  12.062 -0.2791 -0.1603  0.6565
  932MPD2    C413687   4.315   3.308  12.056 -0.1172 -0.1913 -0.5917
  932MPD2    C513688   4.376   3.383  11.967 -0.0858 -0.1993  0.5492
  932MPD2     H13689   4.007   3.436  12.021  0.1665  1.4282  3.9322
  932MPD2    H113690   4.380   3.232  12.098  0.9564  0.8320 -0.4311
  932MPD2    H213691   4.375   3.530  11.826  1.8347 -0.5031  2.0255
  932MPD2    H313692   4.482   3.375  11.944 -0.5737 -1.3541 -1.3300
  932MPD2     N13693   4.112   3.224  12.148 -1.4071  0.9303  0.2278
  932MPD2    H513694   4.167   3.143  12.175 -1.3374  1.3339  1.3149
  932MPD2    N113695   4.119   3.605  11.839  0.8934 -0.2244 -0.4646
  932MPD2    H713696   4.027   3.632  11.871  1.9367  2.0602  0.6076
  933MPD2     C13697   0.444   4.393   2.339  0.2064 -0.1742  0.1673
  933MPD2    C113698   0.396   4.385   2.210  0.0859 -0.5153  0.4805
  933MPD2    C213699   0.324   4.493   2.160  0.3389 -0.0243  0.0040
  933MPD2    C313700   0.292   4.605   2.238  0.0566  0.0208  0.3724
  933MPD2    C413701   0.336   4.613   2.367 -0.0263 -0.0368  1.0791
  933MPD2    C513702   0.416   4.505   2.411 -0.6707  1.1796  0.3309
  933MPD2     H13703   0.292   4.501   2.057 -0.4207  1.6955  0.3664
  933MPD2    H113704   0.330   4.701   2.429 -1.7303 -0.4840  1.5557
  933MPD2    H213705   0.508   4.309   2.365  0.5840 -0.1500 -0.6755
  933MPD2    H313706   0.452   4.512   2.513  0.6399 -0.3238 -0.0149
  933MPD2     N13707   0.231   4.714   2.166  0.0179 -0.4937  0.1221
  933MPD2    H513708   0.209   4.695   2.068  0.0950 -1.1737  0.2331
  933MPD2    N113709   0.433   4.277   2.121 -0.0312 -0.3557  0.2040
  933MPD2    H713710   0.484   4.201   2.166 -0.7024 -1.2557 -0.5702
  934MPD2     C13711   0.878   1.624   1.892 -0.0140 -1.2128 -0.1377
  934MPD2    C113712   0.953   1.566   1.793 -0.3214  0.4450 -0.5134
  934MPD2    C213713   0.907   1.464   1.707 -0.2271 -0.3562  0.5334
  934MPD2    C313714   0.779   1.415   1.740  0.0468  0.5038  0.9528
  934MPD2    C413715   0.715   1.461   1.850 -0.2570  0.4507  0.1597
  934MPD2    C513716   0.757   1.570   1.921 -0.1466 -0.2043 -0.1150
  934MPD2     H13717   0.974   1.427   1.630  0.6874  0.7704  0.7962
  934MPD2    H113718   0.616   1.425   1.875 -0.6356  2.2667  1.2227
  934MPD2    H213719   0.910   1.711   1.948 -0.4002 -1.4347  0.4364
  934MPD2    H313720   0.697   1.603   2.005  1.4457 -0.5608  1.1536
  934MPD2     N13721   0.728   1.305   1.670 -0.4748  0.3945 -0.0481
  934MPD2    H513722   0.641   1.266   1.705 -0.1248 -0.0831  0.2823
  934MPD2    N113723   1.088   1.596   1.775 -0.2584 -0.2851  0.2304
  934MPD2    H713724   1.142   1.551   1.701 -0.5928  0.4932 -0.4824
  935MPD2     C13725   1.044   0.714   0.923 -0.0473  0.2349  0.0654
  935MPD2    C113726   0.909   0.697   0.925  0.6919 -0.1209  0.2015
  935MPD2    C213727   0.830   0.769   1.018 -0.1540 -0.7439 -0.1556
  935MPD2    C313728   0.894   0.830   1.124 -0.5734  0.3134 -0.4683
  935MPD2    C413729   1.029   0.833   1.125  0.1517 -0.0534  0.4602
  935MPD2    C513730   1.104   0.786   1.024  0.3818 -0.8067 -0.2625
  935MPD2     H13731   0.723   0.749   1.021 -0.1750 -0.7207 -0.7831
  935MPD2    H113732   1.081   0.878   1.208  1.4112 -0.6152 -0.0258
  935MPD2    H213733   1.110   0.661   0.855 -1.4534  1.0812 -1.9536
  935MPD2    H313734   1.212   0.783   1.032  0.6120 -0.6690 -3.0884
  935MPD2     N13735   0.822   0.905   1.216 -0.2629 -0.5167  0.4257
  935MPD2    H513736   0.878   0.950   1.288 -1.9276  0.3912  1.1428
  935MPD2    N113737   0.838   0.615   0.834 -0.0939 -0.1002  0.0088
  935MPD2    H713738   0.739   0.599   0.846  0.2562 -2.8728 -0.7108
  936MPD2     C13739   3.886   2.504  12.742  0.0112  0.3388  0.2785
  936MPD2    C113740   3.939   2.424  12.842  0.3152 -0.1680 -0.0999
  936MPD2    C213741   4.059   2.458  12.898 -0.0059 -0.4609  0.1158
  936MPD2    C313742   4.135   2.565  12.846  0.4330 -0.8498  0.3063
  936MPD2    C413743   4.072   2.647  12.752 -0.6330  0.0736  0.2308
  936MPD2    C513744   3.952   2.614  12.701 -0.0792  0.0835 -0.6586
  936MPD2     H13745   4.103   2.391  12.971  0.2719  1.0615  1.3447
  936MPD2    H113746   4.126   2.734  12.717 -0.0349 -1.2422 -2.1147
  936MPD2    H213747   3.791   2.491  12.692 -0.8015  1.1544  1.6168
  936MPD2    H313748   3.917   2.680  12.622 -0.2097  1.0534  0.2070
  936MPD2     N13749   4.271   2.591  12.877  0.0399  0.1917 -0.2844
  936MPD2    H513750   4.309   2.677  12.840 -2.2577  1.2692 -0.1057
  936MPD2    N113751   3.866   2.323  12.910  0.1685 -0.2397 -0.3321
  936MPD2    H713752   3.924   2.287  12.985  0.9662  2.8727  0.5671
  937MPD2     C13753   2.475   3.294  11.446 -0.0239  0.5200  0.8056
  937MPD2    C113754   2.469   3.435  11.467  0.0040 -0.6305  0.7714
  937MPD2    C213755   2.568   3.517  11.417 -0.4196 -0.0642  0.1216
  937MPD2    C313756   2.658   3.454  11.325 -0.7227 -0.1325  0.1827
  937MPD2    C413757   2.656   3.317  11.295 -0.3724 -0.3701  0.1014
  937MPD2    C513758   2.560   3.243  11.353 -0.0562 -0.0767  0.4792
  937MPD2     H13759   2.571   3.623  11.438  1.2477 -0.3391  1.2496
  937MPD2    H113760   2.732   3.272  11.233  1.3135  1.2490  0.9922
  937MPD2    H213761   2.409   3.227  11.499 -0.2537  1.4596  1.6972
  937MPD2    H313762   2.547   3.140  11.324  0.1901 -0.3063  1.1988
  937MPD2     N13763   2.742   3.544  11.250 -0.4313  0.3883 -0.4272
  937MPD2    H513764   2.739   3.642  11.273  0.9118 -0.0037  1.4742
  937MPD2    N113765   2.396   3.500  11.569 -0.4300 -0.2624 -0.7085
  937MPD2    H713766   2.407   3.600  11.568  0.9971 -0.4062  0.0267
  938MPD2     C13767   4.641   0.871   0.724  0.3653 -0.2502  0.7888
  938MPD2    C113768   4.626   0.970   0.819 -0.0507 -0.8356  0.0528
  938MPD2    C213769   4.597   0.934   0.950 -0.3374  0.2177  0.1442
  938MPD2    C313770   4.584   0.804   0.983  0.0307  0.4987 -0.7845
  938MPD2    C413771   4.605   0.710   0.883 -0.8917  0.1298  0.5131
  938MPD2    C513772   4.638   0.743   0.761 -0.1873  0.7885 -0.4812
  938MPD2     H13773   4.575   1.013   1.020  0.7760 -1.7343  2.7037
  938MPD2    H113774   4.578   0.606   0.900 -0.4189 -0.0575  0.1091
  938MPD2    H213775   4.671   0.892   0.622  1.3092 -0.1971  1.0813
  938MPD2    H313776   4.648   0.661   0.690  3.6946  1.7012 -0.9908
  938MPD2     N13777   4.550   0.761   1.113  0.4455 -0.5949 -0.1590
  938MPD2    H513778   4.555   0.660   1.124  0.0098 -0.6974 -0.8903
  938MPD2    N113779   4.640   1.106   0.793  0.2818  0.5504 -0.1234
  938MPD2    H713780   4.638   1.171   0.871 -2.0394  0.9976 -0.5712
  939MPD2     C13781   0.945   2.024   0.845  0.3161  0.1445 -0.3790
  939MPD2    C113782   0.816   2.042   0.805  0.3885 -0.6238 -0.0621
  939MPD2    C213783   0.760   1.965   0.701  0.3926 -0.5323 -0.2976
  939MPD2    C313784   0.847   1.876   0.638  0.1518  0.2009  0.3655
  939MPD2    C413785   0.981   1.871   0.669 -0.2641  0.4701 -1.0617
  939MPD2    C513786   1.027   1.946   0.771 -0.1255 -0.2481  0.4241
  939MPD2     H13787   0.655   1.969   0.675  0.1687  1.3410  0.9028
  939MPD2    H113788   1.054   1.805   0.624 -0.8638 -0.0264 -1.3218
  939MPD2    H213789   0.983   2.074   0.933 -1.5944  0.6483  0.1531
  939MPD2    H313790   1.131   1.939   0.803 -0.3715  1.1248  1.5433
  939MPD2     N13791   0.792   1.794   0.535 -0.2371  0.0248 -0.3645
  939MPD2    H513792   0.691   1.803   0.528 -0.4109 -1.2075  0.6063
  939MPD2    N113793   0.740   2.132   0.898  0.5645 -0.0579 -0.1350
  939MPD2    H713794   0.798   2.178   0.968 -1.0298 -0.3022  1.3307
  940MPD2     C13795   0.052   2.683  13.153 -0.0748  0.5547 -0.7867
  940MPD2    C113796   0.056   2.599  13.263 -0.1682  0.8084  0.2405
  940MPD2    C213797   0.126   2.482  13.248  0.4856 -0.3725 -0.2941
  940MPD2    C313798   0.174   2.450  13.122  0.1250 -0.1364  0.5321
  940MPD2    C413799   0.156   2.534  13.012 -0.1985 -0.4849  0.0225
  940MPD2    C513800   0.088   2.645  13.024  0.1987 -0.3068  0.1789
  940MPD2     H13801   0.131   2.426  13.340 -1.8675 -1.5620 -0.8914
  940MPD2    H113802   0.201   2.518  12.915  0.9137 -1.2676  0.6670
  940MPD2    H213803   4.736   2.777  13.159 -1.0149 -0.1446  1.5699
  940MPD2    H313804   0.075   2.715  12.942  0.5214  2.4088  2.4203
  940MPD2     N13805   0.239   2.323  13.104 -0.3907  0.3339  0.8676
  940MPD2    H513806   0.286   2.312  13.015 -0.7959 -0.7748  0.7927
  940MPD2    N113807   4.717   2.626  13.385  0.0429 -0.4537 -0.4408
  940MPD2    H713808   4.723   2.559  13.462 -1.3867 -0.2500 -0.1580
  941MPD2     C13809   3.815   1.855  10.182 -0.0803  0.2427  0.2666
  941MPD2    C113810   3.941   1.804  10.188  0.3729 -0.6716 -0.6243
  941MPD2    C213811   3.950   1.664  10.187  0.7667  0.0124 -0.6061
  941MPD2    C313812   3.841   1.582  10.160  0.1527 -0.9276  0.0470
  941MPD2    C413813   3.712   1.645  10.150  0.6994  0.2213  1.3535
  941MPD2    C513814   3.703   1.783  10.165  0.1279 -0.0813  0.2346
  941MPD2     H13815   4.046   1.616  10.202 -0.0683 -1.0537  1.3133
  941MPD2    H113816   3.618   1.591  10.148 -0.0425  1.5532  0.6509
  941MPD2    H213817   3.798   1.962  10.191  1.9924  0.4509  1.8610
  941MPD2    H313818   3.605   1.829  10.170  0.3472  0.3486  0.5348
  941MPD2     N13819   3.847   1.442  10.155  0.4954  0.6004  0.2870
  941MPD2    H513820   3.761   1.390  10.146 -0.3989  1.9875  0.7651
  941MPD2    N113821   4.065   1.876  10.198  0.0521 -0.2530 -0.5912
  941MPD2    H713822   4.154   1.828  10.205  0.7162  1.4608  2.6219
  942MPD2     C13823   3.238   2.475   9.532  0.0180 -0.4779  0.5952
  942MPD2    C113824   3.338   2.402   9.591  0.3162 -0.0911  0.1344
  942MPD2    C213825   3.405   2.302   9.515  0.1235 -0.0912 -0.4999
  942MPD2    C313826   3.367   2.277   9.386  0.5018 -0.4211  0.1532
  942MPD2    C413827   3.254   2.338   9.336 -0.7310  0.0286  0.4762
  942MPD2    C513828   3.184   2.429   9.412  0.8106  0.1257 -0.8433
  942MPD2     H13829   3.471   2.240   9.575 -0.6399 -0.0737  0.3661
  942MPD2    H113830   3.213   2.319   9.237  1.1658  0.4181 -0.3803
  942MPD2    H213831   3.182   2.546   9.592  0.6362  1.4895 -1.1291
  942MPD2    H313832   3.097   2.475   9.366 -0.1660 -0.5954  0.2626
  942MPD2     N13833   3.434   2.186   9.305  0.0521  0.3305 -0.0357
  942MPD2    H513834   3.408   2.172   9.208  0.4057 -0.5212 -0.0088
  942MPD2    N113835   3.374   2.417   9.728 -0.0341  0.3678  0.3056
  942MPD2    H713836   3.438   2.346   9.761 -1.0045 -0.4326  0.4710
  943MPD2     C13837   3.044   2.310  10.186  0.1119  0.1321 -0.2824
  943MPD2    C113838   3.015   2.200  10.112  0.4625  0.0124 -0.2628
  943MPD2    C213839   2.996   2.080  10.180 -0.0170 -0.3230 -0.1595
  943MPD2    C313840   3.019   2.069  10.314  0.6825 -0.0251 -0.1272
  943MPD2    C413841   3.062   2.175  10.388 -0.3598  0.1852  0.2514
  943MPD2    C513842   3.071   2.299  10.323 -0.3742  0.1171 -0.3468
  943MPD2     H13843   2.963   1.991  10.128  2.3455 -1.4301  0.2459
  943MPD2    H113844   3.102   2.149  10.486 -1.8780 -0.2166  0.7684
  943MPD2    H213845   3.061   2.409  10.147 -0.3715  0.2222 -0.2614
  943MPD2    H313846   3.101   2.387  10.377  1.3300 -0.5545 -0.1976
  943MPD2     N13847   2.994   1.947  10.388 -0.0011 -0.4228  0.0624
  943MPD2    H513848   2.991   1.958  10.489  1.0464  1.2911 -0.1089
  943MPD2    N113849   2.994   2.227   9.973 -0.3494  0.3607  0.8162
  943MPD2    H713850   2.993   2.321   9.936  0.0193  0.1173  0.1825
  944MPD2     C13851   2.570   0.774  10.798 -0.3646 -0.0804 -0.3364
  944MPD2    C113852   2.635   0.754  10.921  0.3864 -0.1941  0.2621
  944MPD2    C213853   2.588   0.829  11.029  0.3521  0.3120 -0.1728
  944MPD2    C313854   2.494   0.929  11.009 -0.5312  0.6589 -0.5007
  944MPD2    C413855   2.444   0.951  10.881  0.4235 -0.2971  0.4347
  944MPD2    C513856   2.480   0.871  10.779  0.1635 -0.3753  0.0867
  944MPD2     H13857   2.619   0.796  11.127  0.3084  2.9868  0.7198
  944MPD2    H113858   2.365   1.021  10.858  0.6801 -0.7991 -1.9516
  944MPD2    H213859   2.602   0.721  10.709  0.3137  0.5581 -0.4765
  944MPD2    H313860   2.448   0.905  10.681 -4.1260  0.0839  1.6127
  944MPD2     N13861   2.453   1.011  11.127  0.2345  0.2646  0.7877
  944MPD2    H513862   2.481   0.973  11.217  0.7609  2.2993  1.4811
  944MPD2    N113863   2.728   0.653  10.926  0.1454 -0.8012 -0.1381
  944MPD2    H713864   2.736   0.608  10.835  1.0832 -2.3876  0.7225
    1TMC1    C113865   4.124   1.564  14.198 -0.0714 -0.0219  0.9204
    1TMC1    C213866   4.014   1.491  14.208  0.1142 -0.7910  0.1117
    1TMC1    C313867   3.971   1.409  14.107 -0.4686 -0.1901  0.1719
    1TMC1    C413868   4.186   1.584  14.077  0.6863  0.4148  0.5791
    1TMC1    C513869   4.146   1.494  13.979 -0.2903  0.3209  0.3326
    1TMC1    C613870   4.037   1.410  13.990 -0.5554 -0.4214  0.7801
    1TMC1     C13871   4.169   1.632  14.317  0.0797  0.0576  0.3918
    1TMC1     O13872   4.154   1.567  14.421  0.8497 -0.6164 -0.1589
    1TMC1     H13873   3.971   1.492  14.308  1.2276 -0.3756  0.5927
    1TMC1    H113874   4.273   1.647  14.067  1.5498 -0.9226 -0.4250
    1TMC1    H213875   4.003   1.334  13.920 -0.0887  1.9536 -1.9807
    1TMC1    C713876   4.200   1.509  13.847  0.1937 -0.1322  0.2088
    1TMC1    C813877   3.845   1.340  14.116  0.3815  0.3143  0.4691
    1TMC1    O113878   4.169   1.424  13.762 -0.5251  0.2197  0.2264
    1TMC1    O213879   3.778   1.329  14.018 -0.1321 -0.0947  0.2127
    1TMC1    O313880   4.186   1.638  13.817 -0.0608 -0.7089  0.0474
    1TMC1    H313881   4.173   1.684  13.902  1.8237 -1.3923  0.7033
    1TMC1    O513882   3.793   1.351  14.241 -0.2253  0.3469 -0.2329
    1TMC1    H513883   3.862   1.355  14.311  0.8778 -0.6572 -1.2540
    2MPD2     C13884   4.511   1.924  14.563  1.1736  0.2998 -0.0492
    2MPD2    C113885   4.520   1.945  14.428 -0.4030  0.1649 -0.4864
    2MPD2    C213886   4.434   1.875  14.345  0.3278 -0.0256  0.4365
    2MPD2    C313887   4.338   1.783  14.389  0.2018 -0.4515 -0.4919
    2MPD2    C413888   4.327   1.764  14.525 -0.2285  0.8712  0.8721
    2MPD2    C513889   4.413   1.835  14.608  0.2328 -0.5669 -0.9007
    2MPD2     H13890   4.438   1.890  14.238  0.2619 -1.1219  0.2782
    2MPD2    H113891   4.252   1.704  14.576  0.9579  0.1568  1.7800
    2MPD2    H213892   4.575   1.961  14.642  2.5503 -0.2840 -0.9123
    2MPD2    H313893   4.411   1.826  14.716 -1.6043  1.4544 -0.7726
    2MPD2     N13894   4.262   1.723  14.289 -0.5401 -0.1024 -0.1565
    2MPD2    H513895   4.268   1.753  14.192 -0.7616  1.1316  0.2134
    2MPD2    N113896   4.610   2.043  14.383 -0.3431 -0.0263 -0.7782
    2MPD2    H713897   4.667   2.095  14.449 -1.2459 -0.4167  0.3147
    3TMC2    C113898   4.709   2.176  14.217  0.4320  0.4543 -0.6649
    3TMC2    C213899   0.024   2.183  14.092  0.4614  0.0542 -0.0482
    3TMC2    C313900   0.070   2.303  14.056 -0.7221  0.0367 -0.2876
    3TMC2    C413901   4.685   2.285  14.297 -0.0513 -0.0540  0.1245
    3TMC2    C513902   4.711   2.407  14.244  0.3388 -0.3395 -0.3931
    3TMC2    C613903   0.034   2.418  14.123  0.5382 -0.1037  0.4348
    3TMC2     C13904   4.651   2.052  14.254 -0.2512 -0.5282 -0.0042
    3TMC2     O13905   4.635   1.965  14.168 -0.1110  0.2710  0.3674
    3TMC2     H13906   0.042   2.092  14.037 -0.1124  0.9671 -1.7643
    3TMC2    H113907   4.630   2.285  14.390  1.4215  0.2826  0.9883
    3TMC2    H213908   0.077   2.510  14.083 -1.8954  0.5473 -0.6393
    3TMC2    C713909   4.691   2.525  14.321  0.2651 -0.5031 -0.5045
    3TMC2    C813910   0.078   2.333  13.907 -0.0391 -0.5553  0.4146
    3TMC2    O113911   4.693   2.504  14.439  0.6481  0.4792 -0.1984
    3TMC2    O213912   0.025   2.252  13.832 -0.0428 -0.0684 -0.6297
    3TMC2    O513913   0.210   2.363  13.888  0.0398  0.0608 -0.0728
    3TMC2    H513914   0.259   2.395  13.967  0.7164 -1.2038  0.0301
    4TMC2    C113915   4.364   3.354  13.886 -0.3282 -0.0418  0.0712
    4TMC2    C213916   4.440   3.412  13.782 -0.1317  0.1548 -0.1085
    4TMC2    C313917   4.571   3.393  13.784 -1.0651 -0.3508  0.5743
    4TMC2    C413918   4.422   3.287  13.986 -0.2815  0.1890  0.7109
    4TMC2    C513919   4.560   3.267  13.987  0.6038  0.6024 -0.5009
    4TMC2    C613920   4.636   3.325  13.881  0.0083  0.0085  0.2456
    4TMC2     C13921   4.224   3.342  13.871 -0.3135 -0.0272 -1.0231
    4TMC2     O13922   4.179   3.279  13.965 -0.0253  0.4181 -0.4607
    4TMC2     H13923   4.398   3.472  13.702  0.5364 -0.3625 -0.8489
    4TMC2    H113924   4.360   3.241  14.062  1.9852 -1.7498  1.3944
    4TMC2    H213925   0.003   3.303  13.865  0.0109  0.5825 -0.5260
    4TMC2    C713926   4.593   3.126  14.028 -0.0967 -0.6915 -0.1010
    4TMC2    C813927   4.641   3.465  13.683 -0.2142 -0.2396 -0.3152
    4TMC2    O113928   4.672   3.062  13.960 -0.2626  0.2182 -0.2453
    4TMC2    O213929   4.587   3.527  13.591  0.2644 -0.3881  0.1283
    4TMC2    O513930   0.031   3.490  13.722  1.2586  0.1356 -0.1001
    4TMC2    H513931   0.051   3.473  13.816 -0.2852 -1.0574  0.0091
    5MPD2     C13932   3.792   3.326  13.605 -0.2905 -0.0140  0.2885
    5MPD2    C113933   3.890   3.374  13.521  0.3085 -0.3613  0.2216
    5MPD2    C213934   4.018   3.401  13.570  0.0234 -0.5888 -0.8693
    5MPD2    C313935   4.048   3.368  13.702 -0.1876 -1.1970  0.1850
    5MPD2    C413936   3.943   3.317  13.780 -0.4773  0.0589  0.0622
    5MPD2    C513937   3.817   3.296  13.732  0.7071  0.0297  0.2049
    5MPD2     H13938   4.097   3.443  13.509  0.0237 -1.3141 -1.3741
    5MPD2    H113939   3.963   3.293  13.884  1.4262  1.3216 -0.0118
    5MPD2    H213940   3.692   3.304  13.569 -0.5110 -0.8146  1.4010
    5MPD2    H313941   3.737   3.263  13.798 -0.8410 -0.2461 -1.7946
    5MPD2     N13942   4.179   3.386  13.748  0.2169 -0.6519  0.0064
    5MPD2    H513943   4.249   3.416  13.681 -0.3845 -0.6760 -0.6295
    5MPD2    N113944   3.864   3.413  13.387 -0.1763  0.4473 -0.0860
    5MPD2    H713945   3.766   3.414  13.361 -0.1115 -0.6798 -0.3686
    6MPD1     C13946   4.193   0.052  12.100  0.3422  0.7079 -0.4019
    6MPD1    C113947   4.147   4.679  12.026 -0.2742  0.2031 -0.2967
    6MPD1    C213948   4.165   4.561  12.090 -0.0607 -0.5748 -0.5655
    6MPD1    C313949   4.209   4.544  12.221  0.2878  0.5167  0.0186
    6MPD1    C413950   4.229   4.657  12.295  0.4442  0.1538  0.7401
    6MPD1    C513951   4.225   0.040  12.234  0.1381  0.4186  0.5953
    6MPD1     H13952   4.141   4.466  12.045  2.0241 -1.4774  0.2107
    6MPD1    H113953   4.258   4.655  12.400  0.5570  1.3308  0.7305
    6MPD1    H213954   4.195   0.151  12.054 -3.0320  0.9903  0.0603
    6MPD1    H313955   4.256   0.127  12.289  0.8220 -0.8477  2.2038
    6MPD1     N13956   4.206   4.424  12.292 -0.0786  0.1571 -0.1407
    6MPD1    H513957   4.217   4.429  12.393  1.2305  2.0415 -0.3634
    6MPD1    N113958   4.095   4.692  11.890 -0.0687 -0.5600  0.1400
    6MPD1    H613959   4.046   0.042  11.878  0.7469 -0.0381  0.5666
    6MPD1    H713960   4.026   4.621  11.869 -1.2914  0.8964 -0.7242
    7MPD2     C13961   3.752   4.157  12.850  0.2143  0.2340 -0.1672
    7MPD2    C113962   3.847   4.065  12.817  0.0621 -0.1109  0.2524
    7MPD2    C213963   3.852   3.941  12.875 -0.0855  0.1934  0.2558
    7MPD2    C313964   3.762   3.910  12.972  0.2184 -0.0388  0.3467
    7MPD2    C413965   3.668   3.996  13.011  0.6537 -0.0458 -0.3417
    7MPD2    C513966   3.661   4.120  12.945 -0.4006 -0.0835 -0.1703
    7MPD2     H13967   3.933   3.872  12.855 -1.2408 -1.0029 -0.2037
    7MPD2    H113968   3.589   3.966  13.080  0.4094 -0.6999 -0.9045
    7MPD2    H213969   3.751   4.258  12.810  1.1107  0.3737  0.1502
    7MPD2    H313970   3.583   4.187  12.982 -0.0597  1.1790 -1.7274
    7MPD2     N13971   3.762   3.774  13.017  0.0172  0.1538  0.1135
    7MPD2    H513972   3.704   3.746  13.096  1.2622 -0.8094  0.6800
    7MPD2    N113973   3.937   4.078  12.707 -0.4897 -0.0168 -0.2896
    7MPD2    H713974   4.008   4.006  12.704  1.0288  1.5920 -2.2089
    8TMC3    C113975   3.793   3.533  12.997  0.1696  0.2417 -0.4334
    8TMC3    C213976   3.822   3.526  13.128  0.3195 -0.1755  0.4014
    8TMC3    C313977   3.909   3.426  13.158  0.1257 -0.5140  0.3665
    8TMC3    C413978   3.825   3.436  12.906  0.0378  0.2146 -0.3109
    8TMC3    C513979   3.903   3.331  12.940  0.3378 -0.4852 -0.4088
    8TMC3    C613980   3.953   3.326  13.077  0.1057 -0.3557  0.0220
    8TMC3     C13981   3.795   3.669  12.934  0.0358 -0.0681 -0.2530
    8TMC3     O13982   3.818   3.659  12.817  0.6515 -0.0668 -0.3201
    8TMC3     H13983   3.802   3.606  13.197  0.7566  0.2683  0.0107
    8TMC3    H113984   3.781   3.442  12.807 -2.8862 -0.9982  0.9192
    8TMC3    H213985   4.005   3.237  13.110  2.8915  0.7496 -1.4068
    8TMC3    C713986   3.999   3.315  12.838  0.2195 -0.7286 -0.1986
    8TMC3    C813987   3.962   3.416  13.290  0.2682  0.3750 -0.0023
    8TMC3    O113988   4.036   3.201  12.814  0.2267 -0.2026  0.0504
    8TMC3    O213989   4.081   3.381  13.297 -0.6224 -0.7183 -0.3359
    9TMC3    C113990   4.167   4.205  12.338 -0.1130  0.2820 -1.1123
    9TMC3    C213991   4.219   4.080  12.320  0.8736 -0.0525  0.1338
    9TMC3    C313992   4.183   3.990  12.413  0.0586  0.1820 -0.2607
    9TMC3    C413993   4.084   4.251  12.443 -0.1372 -0.4572  0.6904
    9TMC3    C513994   4.044   4.149  12.525  0.1135 -0.0242  1.2222
    9TMC3    C613995   4.086   4.020  12.509  0.3425  0.0520 -0.5793
    9TMC3     C13996   4.200   4.301  12.239 -0.2369  0.1528  0.2555
    9TMC3     O13997   4.239   4.260  12.127 -0.1528 -0.6830  0.2380
    9TMC3     H13998   4.282   4.061  12.234  0.5780  1.3169 -0.3772
    9TMC3    H113999   4.036   4.348  12.442  2.3827  0.8386  3.9491
    9TMC3    H214000   4.029   3.940  12.555  1.4126 -1.2291 -1.4825
    9TMC3    C714001   3.947   4.185  12.625 -0.3239  0.9331  0.1517
    9TMC3    C814002   4.232   3.854  12.403  0.3120  0.4106 -0.0937
    9TMC3    O114003   3.868   4.279  12.600 -0.4194  0.2518 -0.0235
    9TMC3    O214004   4.292   3.817  12.300 -0.1017 -0.1676  0.1061
   10MPD2     C14005   4.159   3.367  12.586  0.3994  0.3440 -0.4889
   10MPD2    C114006   4.123   3.460  12.684  0.1835 -0.1661  0.2307
   10MPD2    C214007   4.150   3.593  12.653 -0.6888 -0.3870  0.4276
   10MPD2    C314008   4.210   3.643  12.540 -0.2154 -0.6281  0.2391
   10MPD2    C414009   4.243   3.545  12.444 -0.1475 -0.2887 -0.1316
   10MPD2    C514010   4.224   3.410  12.472  0.4818 -0.2521 -0.4850
   10MPD2     H14011   4.120   3.670  12.723  3.3263  0.2853  1.3622
   10MPD2    H114012   4.283   3.579  12.350 -0.0561 -0.0600 -0.0100
   10MPD2    H214013   4.146   3.261  12.605 -1.6414  0.7520  0.4389
   10MPD2    H314014   4.242   3.337  12.394 -0.5307 -1.0098 -0.0147
   10MPD2     N14015   4.204   3.780  12.518 -0.4086 -0.3769 -0.2192
   10MPD2    H514016   4.158   3.829  12.594  1.5998  1.3462 -0.1480
   10MPD2    N114017   4.041   3.438  12.794  0.1021  0.3152 -0.1775
   10MPD2    H714018   4.014   3.521  12.846 -0.6210 -0.6773  1.0347
   11MPD2     C14019   4.629   2.795  14.423  0.3484 -0.0193 -0.3458
   11MPD2    C114020   4.637   2.772  14.286  0.0939  0.2705 -0.0722
   11MPD2    C214021   4.630   2.872  14.187 -0.0316 -0.0752  0.5172
   11MPD2    C314022   4.575   2.991  14.230  0.4064 -0.2887 -0.2082
   11MPD2    C414023   4.547   3.017  14.362 -0.0614 -0.3534  0.3216
   11MPD2    C514024   4.584   2.922  14.459 -0.2907 -0.7777 -0.1599
   11MPD2     H14025   4.644   2.854  14.081 -1.9319 -0.2548  0.2890
   11MPD2    H114026   4.508   3.112  14.396 -0.4522 -0.7975  1.1259
   11MPD2    H214027   4.645   2.723  14.502 -0.8988 -0.5055 -0.5386
   11MPD2    H314028   4.567   2.940  14.565  3.5734  0.3224  0.2709
   11MPD2     N14029   4.543   3.101  14.151  0.1182  0.1789  0.2501
   11MPD2    H514030   4.497   3.178  14.198 -0.5345 -1.1982  1.9169
   11MPD2    N114031   4.678   2.641  14.245 -0.0711  0.3875 -0.4534
   11MPD2    H714032   4.676   2.626  14.145 -1.3310  1.0257 -0.5252
    1MPD1     C14033   1.924   3.488  17.202 -0.0687  0.8096  0.4848
    1MPD1    C114034   1.993   3.584  17.267 -0.1523 -0.2916 -0.1868
    1MPD1    C214035   2.104   3.635  17.206 -0.0624 -0.9222 -0.6626
    1MPD1    C314036   2.150   3.587  17.087  0.6739 -0.0639  0.7551
    1MPD1    C414037   2.083   3.489  17.021 -0.1536  0.1061  0.3940
    1MPD1    C514038   1.968   3.440  17.079 -0.5565 -0.3643  0.2821
    1MPD1     H14039   2.151   3.713  17.266 -1.4200 -0.8344  0.2969
    1MPD1    H114040   2.113   3.461  16.921 -0.0070  0.7608  0.2587
    1MPD1    H214041   1.829   3.451  17.239  0.3238  0.8838  1.5810
    1MPD1    H314042   1.920   3.357  17.029 -2.3512  1.2389 -0.6602
    1MPD1     N14043   2.269   3.629  17.021  0.2556 -0.0030  0.2642
    1MPD1    H514044   2.289   3.585  16.932 -1.6268  0.9115 -0.6050
    1MPD1    N114045   1.941   3.642  17.386  0.3469 -0.5899 -0.1472
    1MPD1    H614046   1.912   3.576  17.458 -0.6144 -0.6142 -0.5530
    1MPD1    H714047   2.006   3.704  17.432 -1.8576  1.2981  0.4337
    2MPD1     C14048   3.226   4.177  16.923 -1.0899  0.6985  0.6771
    2MPD1    C114049   3.222   4.063  16.843 -0.1291  0.2242 -0.5568
    2MPD1    C214050   3.114   3.977  16.835 -0.1787 -0.2605  0.6967
    2MPD1    C314051   3.016   3.993  16.932 -0.1538 -1.2522  0.0055
    2MPD1    C414052   3.026   4.097  17.028  0.8544 -0.1584 -0.5378
    2MPD1    C514053   3.132   4.186  17.021 -1.4873  0.0665  0.7241
    2MPD1     H14054   3.115   3.897  16.762  1.1025  0.7716 -0.4014
    2MPD1    H114055   2.953   4.123  17.104  1.2885 -0.9845  0.1687
    2MPD1    H214056   3.311   4.244  16.919  0.9403 -1.9321 -0.8072
    2MPD1    H314057   3.135   4.262  17.098  1.0318 -2.2738  2.9138
    2MPD1     N14058   2.898   3.917  16.918  0.0598  0.7847 -0.2160
    2MPD1    H514059   2.894   3.858  16.836  2.6782  0.0649  0.1745
    2MPD1    N114060   3.321   4.049  16.746 -0.5145 -0.2132  0.2356
    2MPD1    H614061   3.340   3.950  16.728  1.3117  0.1932  0.0376
    2MPD1    H714062   3.406   4.092  16.781 -0.9668 -1.5912  3.0408
    3TMC3    C114063   2.689   3.856  16.943 -0.0637  0.7295  0.1306
    3TMC3    C214064   2.655   3.873  16.811 -0.1222  0.9919 -0.9420
    3TMC3    C314065   2.538   3.821  16.760 -0.8250 -0.6360 -0.6818
    3TMC3    C414066   2.593   3.808  17.034  0.8087  0.8233 -0.5669
    3TMC3    C514067   2.470   3.757  16.985 -0.0314 -0.0832 -0.6852
    3TMC3    C614068   2.445   3.763  16.850 -0.8859 -0.7690 -0.2735
    3TMC3     C14069   2.790   3.943  16.992  0.2244 -1.3627 -0.6968
    3TMC3     O14070   2.771   3.989  17.104  0.2499  0.7257 -0.5160
    3TMC3     H14071   2.725   3.930  16.751 -0.8744  2.5836 -0.2822
    3TMC3    H114072   2.613   3.806  17.141 -1.5739 -2.2124 -0.1948
    3TMC3    H214073   2.341   3.777  16.825 -0.8447  0.0250  0.0116
    3TMC3    C714074   2.367   3.707  17.078 -0.2142  0.8557 -0.2229
    3TMC3    C814075   2.476   3.869  16.638 -0.2908  0.0635 -0.2867
    3TMC3    O114076   2.380   3.750  17.191  0.2785 -0.1265 -0.5657
    3TMC3    O214077   2.363   3.835  16.611 -0.4359  0.0071 -0.1895
    4MPD1     C14078   2.471   4.083  16.173 -0.5809  0.5984  0.1070
    4MPD1    C114079   2.591   4.118  16.233 -0.8158  0.2821 -0.0074
    4MPD1    C214080   2.619   4.058  16.358  0.3550 -0.6002 -0.2527
    4MPD1    C314081   2.533   3.975  16.419 -0.7344  0.2865 -0.5316
    4MPD1    C414082   2.420   3.931  16.349  0.1475 -0.6335  0.1967
    4MPD1    C514083   2.390   3.980  16.227 -0.7651  0.5141 -0.7223
    4MPD1     H14084   2.698   4.110  16.412  0.7775  0.6294 -2.0445
    4MPD1    H114085   2.351   3.852  16.376 -1.2795  0.2749 -0.7778
    4MPD1    H214086   2.436   4.144  16.090  0.4813  1.3619  0.2152
    4MPD1    H314087   2.300   3.950  16.173  0.3078 -0.8676 -1.7624
    4MPD1     N14088   2.562   3.934  16.553  0.3260  0.1857  0.3415
    4MPD1    H514089   2.656   3.949  16.588 -0.2732 -1.9195  2.8827
    4MPD1    N114090   2.656   4.233  16.179  0.9213  0.1075 -0.1837
    4MPD1    H614091   2.629   4.239  16.081 -0.4935 -0.3866  0.1720
    4MPD1    H714092   2.757   4.237  16.194  0.7852  0.4443  0.5887
    1TCq1    O114093   0.388   2.879  11.405  0.0328  0.0620  0.3025
    1TCq1    C114094   0.311   2.926  11.308 -0.0160 -0.0695 -0.2487
    1TCq1    O214095   0.351   2.965  11.201  0.0572  0.5073 -0.4649
    1TCq1    C214096   0.176   2.927  11.357 -0.4618 -0.1512 -0.4289
    1TCq1    C314097   0.152   2.934  11.495 -0.6180  0.5089 -0.1499
    1TCq1    C414098   0.031   2.912  11.535 -0.2451 -0.5204  0.1115
    1TCq1    C514099   4.664   2.866  11.454  0.8155 -0.0553 -0.0553
    1TCq1    C614100   4.700   2.841  11.322 -0.1461 -0.0906  0.0384
    1TCq1    C714101   0.088   2.867  11.276  0.1809  0.1845  0.2213
    1TCq1    C814102   4.601   2.766  11.245 -0.2897 -0.0408  0.2419
    1TCq1    O414103   4.505   2.712  11.307 -0.2600 -0.0744  0.0435
    1TCq1    C914104   0.000   2.900  11.682 -0.0355  0.4922 -0.6572
    1TCq1    O514105   0.070   2.969  11.759 -0.3406  0.2841 -0.8752
    1TCq1    O614106   4.644   2.818  11.705  0.0916  0.6161 -0.5721
    1TCq1    H114107   0.337   2.812  11.455  1.9645  0.0267  2.2031
    1TCq1    H214108   0.228   2.967  11.565  0.1486 -1.4566 -0.0512
    1TCq1    H314109   4.565   2.839  11.491  1.3955 -2.8035 -0.5180
    1TCq1    H414110   0.128   2.829  11.183  1.3854 -0.3284  0.9518
    2MPD1     C14111   4.475   2.541  10.813  0.2382  0.2734 -0.4831
    2MPD1    C114112   4.590   2.618  10.792  0.4815  0.7453 -0.1048
    2MPD1    C214113   4.625   2.701  10.898 -0.2205 -0.5676 -0.3327
    2MPD1    C314114   4.568   2.697  11.019  1.1023  0.3992  0.3552
    2MPD1    C414115   4.449   2.625  11.035  0.5780 -0.3232  0.1036
    2MPD1    C514116   4.402   2.555  10.933 -0.4792  0.2999  0.1591
    2MPD1     H14117   4.705   2.772  10.884  0.0205 -0.6464  0.6712
    2MPD1    H114118   4.395   2.637  11.128 -0.3011 -2.4514 -0.1269
    2MPD1    H214119   4.430   2.473  10.741  1.8195 -1.9903  0.6455
    2MPD1    H314120   4.313   2.499  10.956 -0.2311  0.0804  0.5916
    2MPD1     N14121   4.638   2.764  11.114  0.2983  0.4628 -0.0249
    2MPD1    H514122   4.726   2.805  11.089  0.1200  1.3777  0.8637
    2MPD1    N114123   4.642   2.624  10.661  0.2411  0.5256  0.7407
    2MPD1    H614124   4.644   2.534  10.614 -1.3938 -0.0286  1.7121
    2MPD1    H714125   0.001   2.656  10.658  0.9665 -1.6726  1.1953
    1TMC1    C114126   2.082   2.608  16.179  0.1347 -0.5513 -0.0008
    1TMC1    C214127   2.074   2.485  16.250  0.2253  0.4715 -0.0645
    1TMC1    C314128   2.063   2.492  16.383  0.1179  0.6145 -0.2744
    1TMC1    C414129   2.074   2.728  16.248  0.0743  0.1597  0.3662
    1TMC1    C514130   2.070   2.729  16.387  0.1479 -0.3443  0.3911
    1TMC1    C614131   2.071   2.612  16.454  0.0954  0.4881  0.7270
    1TMC1     C14132   2.134   2.604  16.041  0.7851  0.1775 -0.3301
    1TMC1     O14133   2.127   2.707  15.978 -0.0588 -0.4573 -0.0519
    1TMC1     H14134   2.074   2.385  16.206  0.5598  0.4934 -0.1129
    1TMC1    H114135   2.092   2.818  16.191 -1.0309  0.9134  1.2001
    1TMC1    H214136   2.081   2.600  16.561  0.8849  0.9494  0.7060
    1TMC1    C714137   2.095   2.849  16.462  0.1074 -0.4278  0.3756
    1TMC1    C814138   2.048   2.371  16.461 -0.5305  0.3245  0.4589
    1TMC1    O114139   2.195   2.907  16.435 -0.2226 -0.1410  0.0153
    1TMC1    O214140   2.094   2.345  16.571 -0.2615  0.3793 -0.2968
    1TMC1    O314141   2.041   2.831  16.584  0.3157  0.4239 -0.5036
    1TMC1    H314142   1.949   2.795  16.581 -0.5506  2.5377  1.0816
    1TMC1    O514143   1.947   2.306  16.405 -0.0957 -0.0625 -0.5901
    1TMC1    H514144   1.912   2.340  16.320  2.5187  2.9533 -0.4443
    2MPD1     C14145   2.419   2.410  15.665  0.3605  0.4541  0.3522
    2MPD1    C114146   2.410   2.317  15.764 -0.3170 -0.2912 -0.2982
    2MPD1    C214147   2.347   2.347  15.883  0.0666 -0.8349  0.0435
    2MPD1    C314148   2.281   2.465  15.892  0.2058  1.0612  0.2436
    2MPD1    C414149   2.278   2.556  15.787 -0.0093 -0.4696 -0.4168
    2MPD1    C514150   2.352   2.525  15.677 -0.1282 -0.9146 -0.7135
    2MPD1     H14151   2.348   2.277  15.966 -0.0379 -1.0297 -0.1189
    2MPD1    H114152   2.230   2.653  15.785  2.2932  0.6749 -0.2102
    2MPD1    H214153   2.483   2.390  15.580 -0.5907  0.5157 -0.3730
    2MPD1    H314154   2.356   2.597  15.597  1.9552  1.7323  1.7830
    2MPD1     N14155   2.209   2.489  16.012 -0.3575  0.8344 -0.0457
    2MPD1    H514156   2.210   2.415  16.082  0.0999  1.4779  0.6286
    2MPD1    N114157   2.459   2.188  15.755  0.0391  0.0759  0.1842
    2MPD1    H614158   2.488   2.150  15.845 -1.1546 -0.6885  0.2527
    2MPD1    H714159   2.533   2.199  15.686  1.5301 -0.3435  1.7304
    1MPD1     C14160   1.092   3.279  11.259  0.1795  0.0385 -0.7158
    1MPD1    C114161   1.223   3.235  11.251  0.0272  0.2019 -0.2940
    1MPD1    C214162   1.307   3.326  11.314 -0.5781 -0.2750 -0.5576
    1MPD1    C314163   1.272   3.448  11.367 -0.0701  0.3748  1.4319
    1MPD1    C414164   1.143   3.468  11.389 -0.1363 -0.2561 -0.0814
    1MPD1    C514165   1.050   3.394  11.330 -0.6573 -0.4859 -0.1489
    1MPD1     H14166   1.410   3.298  11.331 -0.7422 -0.1959  0.5680
    1MPD1    H114167   1.111   3.557  11.442 -0.5638 -0.5974  0.2359
    1MPD1    H214168   1.017   3.224  11.204  1.4203 -0.6770 -1.7082
    1MPD1    H314169   0.946   3.416  11.349 -0.1818 -0.0018  1.7915
    1MPD1     N14170   1.379   3.535  11.406 -0.5421 -0.1675  0.2126
    1MPD1    H514171   1.475   3.507  11.389 -0.1649  0.6666  0.9542
    1MPD1    N114172   1.269   3.121  11.183  0.4803 -0.8750 -0.4336
    1MPD1    H614173   1.340   3.069  11.235  1.8725 -1.0203 -2.4944
    1MPD1    H714174   1.189   3.061  11.165  1.0679 -1.3301 -1.4875
    2MPD1     C14175   0.832   4.147  10.951 -0.0748 -0.7593 -0.3503
    2MPD1    C114176   0.970   4.139  10.906 -0.0623  1.1194 -0.2458
    2MPD1    C214177   1.021   4.008  10.887 -0.3301  0.0131  0.4657
    2MPD1    C314178   0.952   3.891  10.927  0.4713  0.0790  0.6987
    2MPD1    C414179   0.827   3.909  10.978  0.3661 -0.0107 -0.4152
    2MPD1    C514180   0.776   4.033  10.983  0.2223 -0.1830  0.0249
    2MPD1     H14181   1.126   3.998  10.858  0.0927 -1.6658  2.5543
    2MPD1    H114182   0.754   3.831  10.994  2.5353 -1.8954  0.2268
    2MPD1    H214183   0.769   4.234  10.964 -1.1897 -1.7498  0.8625
    2MPD1    H314184   0.670   4.045  11.005  0.5632  0.0647  1.5368
    2MPD1     N14185   1.012   3.763  10.917  0.1003 -0.1074 -1.0448
    2MPD1    H514186   1.112   3.756  10.901  0.1177 -1.5977 -0.2593
    2MPD1    N114187   1.026   4.259  10.854 -0.2788 -0.1551  0.1291
    2MPD1    H614188   1.002   4.335  10.917  0.3825  1.0512 -1.0494
    2MPD1    H714189   1.127   4.253  10.841 -0.2701 -0.5351  0.3709
    3MPD1     C14190   0.900   2.919  10.350 -0.2746  0.3412 -0.2132
    3MPD1    C114191   0.801   2.922  10.449 -1.1160 -0.6625  0.0011
    3MPD1    C214192   0.821   2.998  10.561  0.3962 -0.2870  0.6548
    3MPD1    C314193   0.937   3.074  10.583 -0.4992  0.6084 -0.0452
    3MPD1    C414194   1.040   3.067  10.488 -0.3375  0.0877  0.2835
    3MPD1    C514195   1.019   2.984  10.377  0.2317  0.0491  0.1025
    3MPD1     H14196   0.740   3.012  10.632  0.3957  3.6506 -0.1209
    3MPD1    H114197   1.128   3.129  10.480 -0.1931 -0.3329 -1.3699
    3MPD1    H214198   0.888   2.857  10.262  1.3584  0.5758 -0.5909
    3MPD1    H314199   1.085   2.998  10.292  0.9970 -2.9509  0.2041
    3MPD1     N14200   0.939   3.139  10.708 -0.1355  0.5947  0.0380
    3MPD1    H514201   0.856   3.129  10.766  0.6067  0.9083  1.1486
    3MPD1    N114202   0.689   2.842  10.427  0.2078  0.1953 -0.1022
    3MPD1    H614203   0.705   2.742  10.431  2.7513  0.6549  1.3180
    3MPD1    H714204   0.666   2.854  10.329  0.3925  0.0215 -0.1658
    4MPD2     C14205   1.634   4.143  11.138 -0.0942  0.6142 -0.1745
    4MPD2    C114206   1.732   4.074  11.198 -0.1976  0.9255  0.0042
    4MPD2    C214207   1.855   4.059  11.130 -0.1461 -0.6906  0.4184
    4MPD2    C314208   1.876   4.112  10.998 -0.9612  0.4127 -0.2213
    4MPD2    C414209   1.769   4.178  10.944 -0.5153 -0.0798 -0.0290
    4MPD2    C514210   1.654   4.187  11.011 -0.0654  0.6564  0.9260
    4MPD2     H14211   1.935   4.005  11.179  0.9542  1.4925  1.0149
    4MPD2    H114212   1.786   4.220  10.846  0.8988 -0.0457  0.2233
    4MPD2    H214213   1.531   4.143  11.173 -0.0143  0.5700  0.0650
    4MPD2    H314214   1.579   4.232  10.947 -0.0435 -0.5261  0.0629
    4MPD2     N14215   1.997   4.104  10.926 -0.1415  0.0109  0.1933
    4MPD2    H514216   2.000   4.175  10.853  1.7410 -0.0139  0.2499
    4MPD2    N114217   1.715   4.018  11.327  0.3458 -0.6825 -0.5249
    4MPD2    H714218   1.793   3.960  11.357 -0.9001 -1.7275  0.7010
    5TMC3    C114219   1.602   3.934  11.509  0.3132  0.4032 -0.2328
    5TMC3    C214220   1.494   3.853  11.484 -0.3441 -0.4721 -0.6370
    5TMC3    C314221   1.500   3.719  11.492  0.8177  0.4013  0.0257
    5TMC3    C414222   1.718   3.870  11.538  0.2035 -0.2055  0.4755
    5TMC3    C514223   1.732   3.738  11.530  0.5132 -0.8255 -0.0843
    5TMC3    C614224   1.617   3.659  11.515 -0.7055  0.0946  0.1003
    5TMC3     C14225   1.608   4.038  11.409  0.1893  0.5309  0.1131
    5TMC3     O14226   1.507   4.103  11.401 -0.4561  0.4702  0.0135
    5TMC3     H14227   1.403   3.907  11.458 -1.4800 -1.9157  0.3255
    5TMC3    H114228   1.811   3.925  11.546 -0.8218  1.6943 -0.7684
    5TMC3    H214229   1.623   3.551  11.510 -1.4357 -0.0412  2.1212
    5TMC3    C714230   1.840   3.696  11.448  0.5015  0.1050 -0.7247
    5TMC3    C814231   1.373   3.653  11.465 -0.1278  0.2805  0.3297
    5TMC3    O114232   1.916   3.782  11.410 -0.1870 -0.5595 -0.0948
    5TMC3    O214233   1.270   3.718  11.488 -0.0402  0.8260  0.5522
    6TMC3    C114234   1.013   3.520  10.914 -0.2167 -0.1356 -0.0178
    6TMC3    C214235   0.958   3.409  10.851  0.1554  0.5119  0.5367
    6TMC3    C314236   1.036   3.294  10.864 -0.0224 -0.3116  0.7134
    6TMC3    C414237   1.130   3.529  10.975  0.0152  0.5476  0.8471
    6TMC3    C514238   1.202   3.415  10.987  0.1225 -0.7845  0.2009
    6TMC3    C614239   1.155   3.291  10.934  0.4995 -0.9777  0.6526
    6TMC3     C14240   0.936   3.646  10.917 -0.7745 -0.1388 -0.1293
    6TMC3     O14241   0.819   3.636  10.889 -0.1602 -0.0483  0.1761
    6TMC3     H14242   0.864   3.425  10.798  1.1354  1.4791 -0.9069
    6TMC3    H114243   1.177   3.618  11.016  0.5976 -0.1951  1.8018
    6TMC3    H214244   1.218   3.204  10.928  0.6290 -0.8608  0.2945
    6TMC3    C714245   1.343   3.442  10.962 -0.1975  0.0795 -0.1995
    6TMC3    C814246   1.050   3.213  10.750 -0.0093 -0.0461 -0.0532
    6TMC3    O114247   1.376   3.548  10.918 -0.4626 -0.2081 -0.1727
    6TMC3    O214248   1.160   3.221  10.695 -0.2993 -0.5825  0.6185
    7MPD2     C14249   2.173   3.331  11.317  0.2619 -0.2114 -0.4181
    7MPD2    C114250   2.171   3.467  11.299 -0.3606  0.0202  0.1518
    7MPD2    C214251   2.068   3.549  11.333  0.4573  0.6556  0.2624
    7MPD2    C314252   1.965   3.495  11.404 -0.5064 -0.1164  0.0496
    7MPD2    C414253   1.952   3.361  11.401  0.6735 -0.2848 -0.0089
    7MPD2    C514254   2.062   3.282  11.366 -0.0040  0.1523  0.2420
    7MPD2     H14255   2.073   3.655  11.312 -0.6276  0.9907  1.7093
    7MPD2    H114256   1.873   3.327  11.467  0.9101 -0.1675  0.3394
    7MPD2    H214257   2.258   3.267  11.293 -0.3710 -2.4161  3.1201
    7MPD2    H314258   2.056   3.176  11.387 -2.2522  0.4459  1.1523
    7MPD2     N14259   1.858   3.565  11.458  0.6446  0.1383 -0.0832
    7MPD2    H514260   1.780   3.516  11.502  1.5377 -0.3227  1.0091
    7MPD2    N114261   2.283   3.516  11.225 -0.6803 -0.0709  0.1461
    7MPD2    H714262   2.357   3.446  11.218 -0.4760  0.2850 -1.2487
    8TMC3    C114263   2.195   3.703  11.097 -0.0416  0.8216 -0.0412
    8TMC3    C214264   2.102   3.620  11.031 -0.0172  0.4829  0.8302
    8TMC3    C314265   1.986   3.678  10.971 -0.7159 -0.8580  0.1304
    8TMC3    C414266   2.200   3.834  11.071 -0.1623 -0.1956  0.4493
    8TMC3    C514267   2.095   3.891  11.003  0.3401 -0.3463 -0.0719
    8TMC3    C614268   1.987   3.817  10.962 -0.5477  0.3850 -0.6152
    8TMC3     C14269   2.306   3.633  11.163 -0.7219  0.2471 -0.1778
    8TMC3     O14270   2.418   3.679  11.146 -0.0173 -0.2231 -0.2150
    8TMC3     H14271   2.109   3.515  11.058 -0.0690 -0.3482 -2.4363
    8TMC3    H114272   2.290   3.890  11.094  0.6953 -0.8279 -1.3800
    8TMC3    H214273   1.907   3.865  10.906  0.7450  0.6543 -2.2424
    8TMC3    C714274   2.109   4.030  10.960 -0.3539  0.9326  0.0711
    8TMC3    C814275   1.860   3.610  10.970 -0.3713 -0.0632  1.4710
    8TMC3    O114276   2.223   4.044  10.918  0.2769 -0.1972  0.2617
    8TMC3    O214277   1.758   3.668  10.978 -0.0954  0.2366 -0.1930
    9MPD2     C14278   1.826   3.246  10.961  0.0134  0.2138 -0.1277
    9MPD2    C114279   1.781   3.379  10.965  0.5023 -0.0513 -0.3758
    9MPD2    C214280   1.647   3.409  10.964  0.6141  0.5749  0.6960
    9MPD2    C314281   1.553   3.311  10.979 -0.5080  0.4016  0.1132
    9MPD2    C414282   1.598   3.180  10.987 -0.0818  0.7610 -0.1815
    9MPD2    C514283   1.730   3.150  10.979  0.3917 -0.2185 -0.0470
    9MPD2     H14284   1.607   3.508  10.944  2.7627  1.2641 -0.1243
    9MPD2    H114285   1.536   3.093  11.006  0.7657 -0.3650 -2.5241
    9MPD2    H214286   1.922   3.210  10.925  0.1321 -1.4837  1.9392
    9MPD2    H314287   1.754   3.045  10.965  1.2463 -0.2081  1.4562
    9MPD2     N14288   1.416   3.331  10.995  0.1150  1.0264 -0.8789
    9MPD2    H514289   1.365   3.254  11.037  0.3913  1.6151  0.5310
    9MPD2    N114290   1.883   3.481  10.960 -0.2395 -0.4320  0.5222
    9MPD2    H714291   1.977   3.448  10.940 -0.7983 -1.4797 -0.4183
    1MPD1     C14292   0.425   3.412  16.813 -0.0271  0.1860  0.0789
    1MPD1    C114293   0.399   3.283  16.854  0.2085 -0.3030 -0.3286
    1MPD1    C214294   0.459   3.178  16.791  0.4333 -0.1681 -0.1092
    1MPD1    C314295   0.541   3.199  16.686  0.4402  0.1587 -0.2187
    1MPD1    C414296   0.564   3.326  16.642 -0.2551  0.7110  0.2842
    1MPD1    C514297   0.511   3.433  16.706 -0.0289  0.7663 -0.3329
    1MPD1     H14298   0.434   3.078  16.827  1.0996  0.2972  1.6480
    1MPD1    H114299   0.627   3.348  16.557  2.3001 -1.3606  1.6540
    1MPD1    H214300   0.385   3.500  16.862  0.8659  1.1419 -0.9271
    1MPD1    H314301   0.532   3.534  16.674  0.7306  0.5104 -0.6409
    1MPD1     N14302   0.604   3.092  16.615 -0.3136 -0.3133  0.1513
    1MPD1    H514303   0.667   3.119  16.540  0.3725 -0.6702  0.5969
    1MPD1    N114304   0.327   3.262  16.969  0.4727 -0.1168 -0.1965
    1MPD1    H614305   0.274   3.176  16.960 -0.6574  0.4111  1.5381
    1MPD1    H714306   0.269   3.344  16.987  0.4226 -0.5677  1.6873
    2TMC2    C114307   0.765   2.817  16.361  0.4746 -0.7416  0.0818
    2TMC2    C214308   0.801   2.695  16.414  0.3426  0.0390  0.2653
    2TMC2    C314309   0.795   2.680  16.549 -0.1953  0.1759 -0.1682
    2TMC2    C414310   0.715   2.920  16.439 -0.3626 -0.3693  0.4346
    2TMC2    C514311   0.696   2.887  16.574 -0.2758 -0.2133 -0.2655
    2TMC2    C614312   0.736   2.771  16.630 -0.7902 -0.3094  0.1832
    2TMC2     C14313   0.763   2.826  16.215  0.1028  0.2866 -0.0388
    2TMC2     O14314   0.856   2.764  16.167 -0.5390 -0.5660  0.2937
    2TMC2     H14315   0.832   2.615  16.348  0.9801  3.4920 -3.6283
    2TMC2    H114316   0.673   3.011  16.398 -0.2451  0.6060  2.4611
    2TMC2    H214317   0.716   2.748  16.734  0.0179 -0.5374  0.2881
    2TMC2    C714318   0.593   2.962  16.653  1.4509  0.3377  0.1867
    2TMC2    C814319   0.898   2.588  16.610  0.2413 -0.0597  0.2843
    2TMC2    O114320   0.533   2.897  16.739  1.0591  0.2697  0.5893
    2TMC2    O214321   0.985   2.536  16.538  0.0881  0.4524  0.3345
    2TMC2    O514322   0.836   2.512  16.697  0.2526 -0.5347 -0.6465
    2TMC2    H514323   0.742   2.530  16.718  1.4933  0.7757  3.8213
    3MPD1     C14324   0.534   2.867  15.759  0.8861  0.6012 -0.3774
    3MPD1    C114325   0.478   2.962  15.840 -0.2800  0.8099 -0.2546
    3MPD1    C214326   0.509   2.960  15.976  0.1165 -0.1850 -0.2852
    3MPD1    C314327   0.617   2.892  16.026  0.0589  0.8750 -0.0506
    3MPD1    C414328   0.664   2.795  15.943  0.8141  0.0976  0.1709
    3MPD1    C514329   0.628   2.783  15.813 -0.3380 -0.1516  0.2802
    3MPD1     H14330   0.454   3.013  16.052  0.9414 -2.0754  1.6378
    3MPD1    H114331   0.742   2.723  15.964  1.9197  1.5207  0.9328
    3MPD1    H214332   0.511   2.846  15.655  0.4818 -1.9401  0.2209
    3MPD1    H314333   0.680   2.710  15.751 -1.1061 -0.1045 -0.4190
    3MPD1     N14334   0.659   2.898  16.162 -0.0146 -0.2024 -0.5127
    3MPD1    H514335   0.607   2.963  16.219 -1.3388 -0.9948 -0.8220
    3MPD1    N114336   0.371   3.038  15.788 -0.2682  0.3832 -0.4445
    3MPD1    H614337   0.360   3.129  15.833  2.1584  0.3280  0.2591
    3MPD1    H714338   0.387   3.064  15.691  0.1657  2.3393  0.1448
    1TMC1    C114339   4.147   1.273  12.491 -0.3950 -0.5272  0.2028
    1TMC1    C214340   4.107   1.208  12.377  0.3270 -0.5801 -0.3020
    1TMC1    C314341   3.989   1.237  12.326  0.0262 -0.1121 -0.4409
    1TMC1    C414342   4.062   1.355  12.560 -0.7385  0.0108  0.2103
    1TMC1    C514343   3.937   1.375  12.504 -0.8150  0.1830  0.2472
    1TMC1    C614344   3.898   1.318  12.390 -0.2352 -1.1454  0.1330
    1TMC1     C14345   4.276   1.247  12.546 -0.8726 -0.5561 -0.5049
    1TMC1     O14346   4.354   1.182  12.478 -0.2176 -0.6854 -0.3999
    1TMC1     H14347   4.182   1.161  12.315 -0.9236 -0.6442 -1.7628
    1TMC1    H114348   4.086   1.400  12.656  0.7816  0.7928 -0.5415
    1TMC1    H214349   3.803   1.332  12.341  1.0077  1.7381 -1.4663
    1TMC1    C714350   3.842   1.444  12.587  1.0845  0.7572 -0.2725
    1TMC1    C814351   3.979   1.234  12.182 -0.4127 -0.3660  0.5718
    1TMC1    O114352   3.876   1.508  12.688  0.2060  0.4855  0.6429
    1TMC1    O214353   3.924   1.331  12.130 -0.2409  0.4745 -0.8227
    1TMC1    O314354   3.719   1.436  12.535  0.1520 -0.7662  0.1363
    1TMC1    H314355   3.708   1.361  12.473  1.8133 -1.0578  0.1866
    1TMC1    O514356   3.997   1.109  12.133  0.0580 -1.0488  0.5137
    1TMC1    H514357   4.005   1.053  12.213 -0.1790 -0.3903  0.9941
    2MPD2     C14358   4.495   1.125  12.700  0.5662  0.6224 -0.3151
    2MPD2    C114359   4.394   1.201  12.756  0.9427  0.5601  0.1209
    2MPD2    C214360   4.406   1.235  12.888 -1.3869 -0.0446 -0.4407
    2MPD2    C314361   4.515   1.193  12.965  0.3727  0.1706 -0.2955
    2MPD2    C414362   4.615   1.112  12.909 -0.0317  0.7662  0.3105
    2MPD2    C514363   4.601   1.085  12.778 -0.7740  0.8562 -0.0172
    2MPD2     H14364   4.339   1.299  12.943 -3.5359 -3.1712  0.5644
    2MPD2    H114365   4.703   1.076  12.962  0.5928 -0.2295 -1.3641
    2MPD2    H214366   4.501   1.094  12.596 -0.1077 -0.6879  0.0434
    2MPD2    H314367   4.684   1.027  12.739 -1.0218  0.4263  0.1032
    2MPD2     N14368   4.530   1.236  13.097  0.3161 -0.4592 -0.0739
    2MPD2    H514369   4.475   1.310  13.140 -1.7207 -0.8844 -1.9768
    2MPD2    N114370   4.288   1.259  12.679 -0.0590 -0.2316  0.1258
    2MPD2    H714371   4.205   1.289  12.729  0.3476  2.0261 -0.5714
    3TCq1    O114372   4.398   1.575  13.572  0.4422  0.3484 -0.2563
    3TCq1    C114373   4.387   1.501  13.457 -0.3652 -0.6311  0.1526
    3TCq1    O214374   4.359   1.550  13.347 -0.0755  0.7580  0.2658
    3TCq1    C214375   4.487   1.395  13.457 -0.2399 -0.4224 -0.9730
    3TCq1    C314376   4.537   1.330  13.566 -0.5267 -0.5248 -0.0459
    3TCq1    C414377   4.623   1.221  13.549  0.3127  0.1645 -0.2746
    3TCq1    C514378   4.664   1.179  13.423 -0.1071 -0.4225 -0.0006
    3TCq1    C614379   4.608   1.244  13.318 -0.0133  0.3287  0.2764
    3TCq1    C714380   4.525   1.356  13.332  0.1854  0.4167  0.4337
    3TCq1    C814381   4.610   1.174  13.192 -0.5474  0.2102 -0.8370
    3TCq1    O414382   4.693   1.091  13.184  0.1812  0.2065  0.1625
    3TCq1    C914383   4.662   1.135  13.656 -0.1038 -0.5459 -0.0948
    3TCq1    O514384   4.717   1.024  13.640 -0.2939 -0.6753  0.5024
    3TCq1    O614385   4.648   1.189  13.768  0.7381  0.2508  0.0559
    3TCq1    H114386   4.467   1.545  13.635 -2.1292 -1.3357  1.7939
    3TCq1    H214387   4.495   1.355  13.662  0.0616 -0.4032  0.1800
    3TCq1    H314388   4.729   1.093  13.413 -0.3924 -0.5053 -1.1108
    3TCq1    H414389   4.486   1.406  13.244 -0.1820  0.9724  0.9143
    1MPD2     C14390   3.347   2.971  14.833 -0.0122  0.5363  1.2818
    1MPD2    C114391   3.253   2.881  14.872 -0.0796 -0.1336 -0.5037
    1MPD2    C214392   3.275   2.751  14.886  0.0689  0.0682 -0.0729
    1MPD2    C314393   3.400   2.700  14.851 -0.5195  0.2394  0.1384
    1MPD2    C414394   3.502   2.790  14.828 -0.4780 -0.1324  0.0541
    1MPD2    C514395   3.477   2.927  14.825  0.3065  0.3713  1.3027
    1MPD2     H14396   3.195   2.685  14.916 -0.8019  0.5170 -1.4227
    1MPD2    H114397   3.605   2.758  14.816 -0.8504 -0.4898 -2.1016
    1MPD2    H214398   3.333   3.075  14.808  0.9520  1.0193  2.7931
    1MPD2    H314399   3.555   2.998  14.802 -0.8057  0.7965 -1.1137
    1MPD2     N14400   3.427   2.564  14.858 -0.4676 -0.0241  0.3018
    1MPD2    H514401   3.523   2.535  14.865  0.0037  1.5885  0.6152
    1MPD2    N114402   3.120   2.931  14.893  0.6066  0.2578 -0.2404
    1MPD2    H714403   3.114   3.028  14.864  1.2569  0.1836 -0.6319
    2TMC3    C114404   2.891   2.943  14.967 -0.0700 -0.7501 -0.7789
    2TMC3    C214405   2.796   2.876  15.042 -0.5318 -0.2403 -0.7840
    2TMC3    C314406   2.672   2.853  14.986  0.1286 -0.2029  0.0999
    2TMC3    C414407   2.860   3.007  14.845 -0.2800 -0.0319  0.0761
    2TMC3    C514408   2.730   2.999  14.804 -1.3151 -0.5328  0.7292
    2TMC3    C614409   2.637   2.913  14.864  0.1031 -0.1989  0.1150
    2TMC3     C14410   3.023   2.879  14.978 -0.2205 -0.2121 -0.4917
    2TMC3     O14411   3.035   2.780  15.050  0.0916 -0.4127 -0.4371
    2TMC3     H14412   2.813   2.834  15.141  1.5796 -0.3913 -1.2209
    2TMC3    H114413   2.938   3.050  14.783 -0.5078 -2.8503 -2.1911
    2TMC3    H214414   2.540   2.882  14.827  0.1125  2.5428 -2.1678
    2TMC3    C714415   2.698   3.024  14.666 -0.9808  0.2540  0.7352
    2TMC3    C814416   2.633   2.712  14.981 -0.1475 -0.4881 -0.7156
    2TMC3    O114417   2.647   2.931  14.606 -0.1085  0.0289  0.1359
    2TMC3    O214418   2.531   2.676  14.924  0.4799 -0.0373 -0.0814
    3TCq1    O114419   3.031   3.885  13.890 -0.2284  0.6706 -0.6956
    3TCq1    C114420   2.995   3.967  13.991  0.5773  0.0585 -0.5766
    3TCq1    O214421   3.036   4.084  13.995  0.2826 -0.2418  0.3302
    3TCq1    C214422   2.980   3.880  14.106  0.0782  0.2293  0.6639
    3TCq1    C314423   3.017   3.937  14.228  0.5471  0.1254 -0.6986
    3TCq1    C414424   3.006   3.858  14.343 -0.3099  0.6190  0.2769
    3TCq1    C514425   2.939   3.735  14.335 -0.7459 -0.4586 -0.6427
    3TCq1    C614426   2.900   3.693  14.207  0.1747  0.6396 -0.1962
    3TCq1    C714427   2.917   3.763  14.089 -0.4461  0.6937  0.3275
    3TCq1    C814428   2.850   3.557  14.180  0.0362 -0.0192 -0.3648
    3TCq1    O414429   2.831   3.516  14.069 -0.1945 -0.1969 -0.1613
    3TCq1    C914430   3.030   3.925  14.470  0.2668 -0.0047 -0.4313
    3TCq1    O514431   2.955   3.896  14.569  0.0829 -0.0192 -0.0870
    3TCq1    O614432   3.141   3.986  14.473 -0.4585  0.1306  0.2839
    3TCq1    H114433   3.003   3.794  13.914  0.4567  0.1656 -1.8115
    3TCq1    H214434   3.056   4.038  14.239 -1.4892  0.7814  0.3835
    3TCq1    H314435   2.919   3.684  14.428 -0.6680 -0.0901 -0.4228
    3TCq1    H414436   2.856   3.736  14.003  3.2522 -1.8910 -1.5081
    4MPD2     C14437   2.748   3.275  14.220 -0.1582 -0.1490 -1.1860
    4MPD2    C114438   2.803   3.349  14.323 -0.2065 -0.0661 -0.3090
    4MPD2    C214439   2.803   3.308  14.450  0.1625 -0.2884  0.5718
    4MPD2    C314440   2.758   3.183  14.480 -1.2470  0.2595 -0.1551
    4MPD2    C414441   2.694   3.111  14.378  0.1913 -0.8434  0.0916
    4MPD2    C514442   2.685   3.158  14.256 -0.9589 -0.2936  0.5023
    4MPD2     H14443   2.841   3.365  14.534 -2.0608  0.1216  1.2846
    4MPD2    H114444   2.649   3.015  14.402  1.1942 -1.2985  0.1163
    4MPD2    H214445   2.732   3.309  14.119  1.0603  2.4057 -0.5105
    4MPD2    H314446   2.633   3.094  14.186  0.2236 -1.7769  0.9749
    4MPD2     N14447   2.752   3.138  14.612 -0.3266  0.3201  0.3716
    4MPD2    H514448   2.810   3.194  14.673  1.5811  0.6319 -1.7020
    4MPD2    N114449   2.850   3.483  14.302  0.3555 -0.5595 -0.6100
    4MPD2    H714450   2.887   3.519  14.389  0.1045  2.1593 -1.6426
    5TMC2    C114451   3.251   2.256  15.057 -0.9565  0.6722  0.5091
    5TMC2    C214452   3.348   2.283  15.150  0.0186 -0.0633 -0.1017
    5TMC2    C314453   3.473   2.327  15.100 -0.2075 -0.3972  0.7644
    5TMC2    C414454   3.264   2.268  14.913 -0.4455 -0.6393  0.8410
    5TMC2    C514455   3.377   2.337  14.876  0.7601 -0.1153  0.2670
    5TMC2    C614456   3.489   2.353  14.967  0.2537 -0.3484 -0.3447
    5TMC2     C14457   3.121   2.300  15.090 -0.2745  0.0442  0.2510
    5TMC2     O14458   3.119   2.385  15.176 -0.4902 -0.1072  0.1508
    5TMC2     H14459   3.329   2.289  15.257 -2.3971 -0.4625 -0.5122
    5TMC2    H114460   3.179   2.259  14.846  1.7571  0.0837 -2.0787
    5TMC2    H214461   3.585   2.390  14.931 -0.0636  0.4740 -0.3497
    5TMC2    C714462   3.337   2.467  14.826 -0.1683 -0.3321 -0.0587
    5TMC2    C814463   3.589   2.342  15.185 -0.3371  0.2091 -0.2593
    5TMC2    O114464   3.223   2.486  14.789  0.4268 -0.1560 -0.8585
    5TMC2    O214465   3.692   2.395  15.154 -0.4341  0.1501 -0.4442
    5TMC2    O514466   3.571   2.254  15.286  0.0592 -0.4181  0.0256
    5TMC2    H514467   3.486   2.205  15.282 -0.6466  1.0968 -3.9206
    6MPD2     C14468   2.649   2.406  14.954  0.3781  0.4820  0.3338
    6MPD2    C114469   2.753   2.492  15.003  0.2034 -0.7667 -0.6007
    6MPD2    C214470   2.869   2.433  15.033  0.3222  0.0606  0.5512
    6MPD2    C314471   2.893   2.297  15.003  0.6483 -0.1733  0.9547
    6MPD2    C414472   2.800   2.217  14.960  0.2336  0.3988 -0.1840
    6MPD2    C514473   2.676   2.269  14.938 -0.1414  0.3347  0.3353
    6MPD2     H14474   2.948   2.498  15.067  0.3474  1.2295 -1.7459
    6MPD2    H114475   2.820   2.113  14.938  2.7387  0.8332  0.0648
    6MPD2    H214476   2.546   2.439  14.942  0.1578 -0.3577 -0.0699
    6MPD2    H314477   2.595   2.206  14.904  0.5960  0.3747 -1.4815
    6MPD2     N14478   3.016   2.243  15.022 -0.6034  0.5129 -0.5512
    6MPD2    H514479   3.022   2.145  14.998 -2.0305  0.3655 -0.3125
    6MPD2    N114480   2.741   2.634  15.018 -0.1860 -0.3886  0.3764
    6MPD2    H714481   2.820   2.687  15.055  1.8889 -2.2429 -1.3674
  945NH4     N114482   1.560   0.047  11.841  0.9385  0.7469 -0.0317
  945NH4     H214483   1.477   0.079  11.894  2.0085  3.2723  0.1327
  945NH4     H314484   1.609   0.135  11.815 -0.1690  1.1860 -0.6315
  945NH4     H414485   1.538   4.723  11.760 -0.1332  0.6416  0.3463
  945NH4     H514486   1.619   0.003  11.914  0.1060 -0.3415 -0.0313
  946SOD     NA14487   4.341   3.612  11.036  0.0978 -0.2817  0.0256
  947SOD     NA14488   3.760   3.029  15.568 -0.3267  0.0468 -0.1901
  948SOD     NA14489   4.713   0.162  13.942 -0.3062 -0.0020  0.0985
  949SOD     NA14490   1.847   0.348   2.514 -0.3849 -0.2579 -0.0738
  950SOD     NA14491   0.894   4.232  10.653  0.2592  0.1200 -0.1662
  951SOD     NA14492   4.476   3.709  11.615 -0.2765 -0.2850  0.2771
  952SOD     NA14493   1.811   4.425   7.188  0.9330 -0.2918  0.6003
  953SOL     OW14494   0.572   2.701   0.554  0.0414  0.0842  0.0417
  953SOL    HW114495   0.599   2.749   0.476 -0.8544  1.9648  0.8847
  953SOL    HW214496   0.641   2.639   0.574 -0.2991 -0.4683 -0.5021
  954SOL     OW14497   3.164   1.780   7.243 -0.3533 -0.0060  0.3005
  954SOL    HW114498   3.191   1.698   7.202 -0.8116  0.8534 -1.7131
  954SOL    HW214499   3.251   1.800   7.279 -1.2765  2.1299  1.3616
  955SOL     OW14500   2.478   4.412   4.121  0.6641 -0.5254  0.1781
  955SOL    HW114501   2.439   4.420   4.034  0.0843  0.7913  0.5645
  955SOL    HW214502   2.500   4.319   4.122  1.0145 -0.4370  0.6437
  956SOL     OW14503   1.538   3.612  12.694 -0.1041  0.1036  0.0993
  956SOL    HW114504   1.571   3.523  12.687  3.7644  1.4645  1.0091
  956SOL    HW214505   1.622   3.654  12.715  0.0244 -0.0210 -0.1696
  957SOL     OW14506   1.429   4.122   2.483  0.0136 -0.6325  0.3326
  957SOL    HW114507   1.403   4.166   2.402  0.6579 -2.4355 -0.8507
  957SOL    HW214508   1.348   4.074   2.500  0.1073 -0.5972  0.9014
  958SOL     OW14509   2.153   1.566   0.446  0.8028 -0.5034  0.5007
  958SOL    HW114510   2.092   1.586   0.375  0.1769  0.0717  1.1974
  958SOL    HW214511   2.238   1.559   0.401 -0.5025 -0.3925 -1.9490
  959SOL     OW14512   1.549   4.509   1.952  0.3131  0.5168  0.4241
  959SOL    HW114513   1.584   4.436   2.003  0.4483  0.8575  0.8256
  959SOL    HW214514   1.513   4.554   2.029  0.8493  1.0082  0.3862
  960SOL     OW14515   4.245   0.763   9.015  0.0992  0.5587  0.0685
  960SOL    HW114516   4.309   0.833   8.997  0.0236  0.6861  0.2998
  960SOL    HW214517   4.195   0.787   9.092 -0.8493  0.0781 -0.4008
  961SOL     OW14518   0.301   2.493   2.789  0.2122 -0.1387 -0.3650
  961SOL    HW114519   0.382   2.542   2.802 -0.2190  0.4371  0.2119
  961SOL    HW214520   0.235   2.559   2.812  0.1955  0.0553 -0.9814
  962SOL     OW14521   1.501   1.111  11.023  0.7974 -0.6752 -0.4357
  962SOL    HW114522   1.418   1.156  11.009  2.0274  2.3027  1.6187
  962SOL    HW214523   1.550   1.185  11.060 -1.4966 -0.1458  1.5047
  963SOL     OW14524   4.711   2.266  11.636 -0.4490 -0.2135  0.1989
  963SOL    HW114525   4.622   2.242  11.661 -0.4197  0.3329  0.8539
  963SOL    HW214526   0.031   2.227  11.702  0.1143 -2.1974 -1.4884
  964SOL     OW14527   0.830   1.241   5.793 -0.3638  0.0693 -0.1710
  964SOL    HW114528   0.738   1.265   5.785 -0.7525 -0.6883  1.8501
  964SOL    HW214529   0.867   1.315   5.841 -1.9240  0.9883 -0.4023
  965SOL     OW14530   3.504   1.251   8.871 -0.4114  0.1243 -0.1263
  965SOL    HW114531   3.426   1.206   8.902 -0.2638 -0.2214 -0.2563
  965SOL    HW214532   3.556   1.173   8.851 -2.1342 -1.5321  1.7982
  966SOL     OW14533   2.982   3.136   4.917 -0.1286 -0.1469 -0.0382
  966SOL    HW114534   3.000   3.095   4.831  0.8277  0.1048  0.0395
  966SOL    HW214535   2.911   3.193   4.888  0.2078 -0.1046 -0.7946
  967SOL     OW14536   3.080   0.309  15.502 -0.2290 -0.0996 -0.7142
  967SOL    HW114537   3.028   0.258  15.565 -1.5030 -0.3852 -1.9872
  967SOL    HW214538   3.056   0.267  15.420 -0.1117 -2.1740  0.3189
  968SOL     OW14539   0.371   2.635   0.715  0.3992 -0.2893 -0.2241
  968SOL    HW114540   0.424   2.673   0.645 -1.5707  3.2586  0.2141
  968SOL    HW214541   0.420   2.554   0.730 -1.0157 -1.4951 -2.0165
  969SOL     OW14542   1.761   0.666   4.065 -0.1109 -0.3265 -0.3952
  969SOL    HW114543   1.697   0.658   4.136  0.7587  2.1800  0.6676
  969SOL    HW214544   1.722   0.617   3.992 -1.2512 -0.3519  0.2354
  970SOL     OW14545   1.041   3.160  12.176 -0.3705  0.4507  0.6125
  970SOL    HW114546   0.948   3.168  12.201 -0.5006 -1.6613  0.7907
  970SOL    HW214547   1.082   3.244  12.200  0.7490  0.1184 -0.1758
  971SOL     OW14548   2.488   0.670   8.361 -0.1540 -0.2668 -0.1318
  971SOL    HW114549   2.393   0.683   8.362  0.1290  1.7871  1.1014
  971SOL    HW214550   2.505   0.635   8.274  3.0483 -0.2713  0.4760
  972SOL     OW14551   2.891   0.922  17.302  0.2114  0.1519 -0.4086
  972SOL    HW114552   2.808   0.965  17.324  0.1224 -0.7783  1.0899
  972SOL    HW214553   2.869   0.921  17.209 -1.4895  0.4616 -0.0167
  973SOL     OW14554   0.289   0.899   2.222  0.5079  0.0518  0.4102
  973SOL    HW114555   0.340   0.963   2.171 -2.0004  0.9132 -1.0047
  973SOL    HW214556   0.364   0.857   2.264  2.0372  1.8894 -0.4644
  974SOL     OW14557   0.028   2.735   2.859 -0.0818 -0.4500 -0.6417
  974SOL    HW114558   0.018   2.689   2.776 -1.4491 -1.7595  0.2681
  974SOL    HW214559   4.680   2.772   2.878 -0.1684 -1.9233  1.7618
  975SOL     OW14560   0.428   1.899  17.557 -0.1405  0.5809  0.0042
  975SOL    HW114561   0.457   1.985  17.526  2.9080 -0.1912  0.6662
  975SOL    HW214562   0.503   1.850  17.523 -0.0270  2.4184 -2.3951
  976SOL     OW14563   0.405   2.438   7.656  0.2805  0.0989  0.1233
  976SOL    HW114564   0.423   2.519   7.609 -2.9405  0.3358 -0.6938
  976SOL    HW214565   0.496   2.417   7.679  0.3109  1.7473  1.5454
  977SOL     OW14566   2.633   3.002   4.996 -0.4844  0.3508 -0.0812
  977SOL    HW114567   2.597   2.923   5.035  2.9560 -0.8454  0.6506
  977SOL    HW214568   2.697   3.030   5.062 -1.2824 -1.6383  1.5297
  978SOL     OW14569   0.100   1.166   7.576 -0.2267  0.4192  0.5981
  978SOL    HW114570   0.065   1.250   7.545  0.4129  0.2390 -0.6288
  978SOL    HW214571   0.166   1.142   7.510 -0.9417  0.0237  0.0262
  979SOL     OW14572   1.832   4.106   5.132 -0.9299  0.4037  0.0153
  979SOL    HW114573   1.817   4.200   5.138 -0.5966  0.3842  1.1452
  979SOL    HW214574   1.744   4.073   5.150 -0.3772  0.0681  2.1463
  980SOL     OW14575   0.358   2.068  12.551  0.3189 -0.6453 -0.3119
  980SOL    HW114576   0.403   1.983  12.549  0.0324 -0.8362  1.5718
  980SOL    HW214577   0.305   2.036  12.624  0.4523  0.1136  0.1074
  981SOL     OW14578   3.802   1.424   1.379  0.3780 -0.7565 -0.3833
  981SOL    HW114579   3.819   1.487   1.450  3.5645 -2.0027 -0.0156
  981SOL    HW214580   3.815   1.340   1.423  2.4922  0.4586  1.3853
  982SOL     OW14581   0.432   2.547   9.455  0.7209 -0.7595 -0.2392
  982SOL    HW114582   0.386   2.482   9.508  1.0962  0.2662  1.3619
  982SOL    HW214583   0.525   2.525   9.459  1.0167  0.3762 -0.9235
  983SOL     OW14584   4.427   0.298   5.294 -0.0222 -0.2180 -0.3098
  983SOL    HW114585   4.493   0.357   5.332  0.3711 -2.2920  2.2131
  983SOL    HW214586   4.485   0.223   5.278  0.6220  0.6862 -2.2889
  984SOL     OW14587   0.648   0.202   6.052  0.3937  0.3929  0.1406
  984SOL    HW114588   0.716   0.243   5.997  1.8543 -0.7637  1.0838
  984SOL    HW214589   0.587   0.275   6.061  0.9084  0.8040  0.2771
  985SOL     OW14590   1.177   2.096  15.175  0.1411 -0.2296  0.0035
  985SOL    HW114591   1.130   2.160  15.229 -0.9808  0.7231 -2.1201
  985SOL    HW214592   1.268   2.113  15.201 -0.3738  1.9063  0.4038
  986SOL     OW14593   1.875   1.304   6.392  0.3658 -0.0701  0.0821
  986SOL    HW114594   1.894   1.211   6.399 -1.4626 -0.3985  0.6534
  986SOL    HW214595   1.896   1.332   6.302  0.7552  0.8903  0.4675
  987SOL     OW14596   2.527   2.725   2.254 -0.0777  0.2279 -0.5671
  987SOL    HW114597   2.577   2.672   2.315  0.2354 -0.3026 -1.2848
  987SOL    HW214598   2.439   2.688   2.264 -0.5679  1.1331 -1.4651
  988SOL     OW14599   2.919   3.003  10.207 -0.3671 -0.6520 -0.2035
  988SOL    HW114600   2.897   3.083  10.254 -1.1474 -0.8624 -0.2024
  988SOL    HW214601   3.014   3.006  10.216 -0.3496 -0.4165 -0.5132
  989SOL     OW14602   2.450   1.766  10.340 -0.0172  0.0377  0.0231
  989SOL    HW114603   2.365   1.808  10.322  1.0769  1.8888 -0.8271
  989SOL    HW214604   2.416   1.686  10.381  0.3553  0.4250  1.0987
  990SOL     OW14605   2.909   2.850   7.152 -0.6432  0.5372  0.0898
  990SOL    HW114606   2.887   2.760   7.125 -0.4975  0.9713 -1.4992
  990SOL    HW214607   2.847   2.895   7.095 -0.7147  0.3891  0.0492
  991SOL     OW14608   2.538   0.107   5.405 -0.2957 -0.2580 -0.3473
  991SOL    HW114609   2.500   0.141   5.485  0.4680 -0.8238  0.2519
  991SOL    HW214610   2.630   0.131   5.417 -0.2585 -0.8413  0.5202
  992SOL     OW14611   1.614   2.044   2.562  0.3987 -0.1472  0.5131
  992SOL    HW114612   1.550   2.007   2.502  1.5917 -2.7784  0.8507
  992SOL    HW214613   1.667   2.090   2.497 -0.9381  2.2042  1.0764
  993SOL     OW14614   4.436   3.106  12.415 -0.0468 -0.1008  0.1804
  993SOL    HW114615   4.502   3.078  12.352  0.7354 -0.3829  1.1201
  993SOL    HW214616   4.423   3.025  12.465  2.3340 -0.2641  0.5599
  994SOL     OW14617   0.005   4.027  14.896  0.1378 -0.1265 -0.0005
  994SOL    HW114618   0.014   4.047  14.989  0.0663  2.8959 -0.6474
  994SOL    HW214619   4.707   3.939  14.900  2.0680 -0.8817  0.5406
  995SOL     OW14620   1.497   3.030   7.533  0.0808  0.1307 -0.1664
  995SOL    HW114621   1.467   2.958   7.479  1.5570 -1.3731  1.0122
  995SOL    HW214622   1.497   3.098   7.465  2.8354 -0.9717 -1.2577
  996SOL     OW14623   3.764   0.525   4.777 -0.4857 -0.0795 -0.3381
  996SOL    HW114624   3.734   0.568   4.857 -0.7406  3.0984 -2.1193
  996SOL    HW214625   3.702   0.452   4.777 -0.1924 -0.3295 -0.0950
  997SOL     OW14626   3.573   4.108   8.320  0.5110  0.0011 -0.1884
  997SOL    HW114627   3.520   4.187   8.308  1.1946  0.7274  1.5101
  997SOL    HW214628   3.666   4.132   8.323  0.7987 -1.3854  1.5487
  998SOL     OW14629   1.117   3.603   6.711  0.0097  0.0128 -0.5601
  998SOL    HW114630   1.034   3.635   6.745 -0.3576 -1.2907 -0.2586
  998SOL    HW214631   1.108   3.509   6.722 -1.2821  0.3038  0.8417
  999SOL     OW14632   2.182   1.417  17.651 -0.6625 -0.3035  0.6245
  999SOL    HW114633   2.231   1.488  17.692 -1.1054 -0.2544  1.0634
  999SOL    HW214634   2.224   1.348  17.703 -1.5841 -0.3895  1.2551
 1000SOL     OW14635   3.307   3.505   8.244  0.0891 -0.1549 -0.0816
 1000SOL    HW114636   3.333   3.413   8.242  0.7774  0.0174  0.5186
 1000SOL    HW214637   3.349   3.549   8.170 -0.6884  0.4566 -0.1628
 1001SOL     OW14638   3.633   3.125   8.311  0.6558 -0.4492  0.4490
 1001SOL    HW114639   3.577   3.048   8.296 -0.5876  0.5385  0.0493
 1001SOL    HW214640   3.703   3.079   8.356 -0.2573 -1.6770  0.6416
 1002SOL     OW14641   0.478   4.558  15.641 -0.2350 -0.3050  0.2115
 1002SOL    HW114642   0.528   4.594  15.567  0.9762 -1.0991  0.6531
 1002SOL    HW214643   0.511   4.606  15.716  0.4883  0.7455 -0.7759
 1003SOL     OW14644   1.952   2.185   8.638 -0.4946  0.1587 -0.0179
 1003SOL    HW114645   1.936   2.253   8.704  1.6118 -1.5341  2.2558
 1003SOL    HW214646   1.917   2.231   8.562  0.9380 -0.3753 -0.9962
 1004SOL     OW14647   0.006   1.470   3.660 -0.4443  0.4410 -0.5869
 1004SOL    HW114648   0.071   1.541   3.661  1.5983 -1.4854  1.2671
 1004SOL    HW214649   4.660   1.512   3.639 -1.1101 -0.5153  0.1533
 1005SOL     OW14650   0.009   1.804  15.896  0.2537  0.5821 -0.3543
 1005SOL    HW114651   4.693   1.753  15.956  2.2756  0.9486  1.7686
 1005SOL    HW214652   0.028   1.736  15.832  1.4601  2.3343 -1.8501
 1006SOL     OW14653   0.433   4.457   3.093  0.4545  0.3266 -0.3628
 1006SOL    HW114654   0.363   4.510   3.130 -0.9740 -2.0276  0.2646
 1006SOL    HW214655   0.385   4.374   3.083 -0.1254  0.5023  0.9945
 1007SOL     OW14656   3.102   4.263   3.734  0.1349 -0.0242  0.6696
 1007SOL    HW114657   3.118   4.196   3.801 -0.0599  0.6957  1.4303
 1007SOL    HW214658   3.105   4.347   3.781 -0.5978  0.3428  0.0560
 1008SOL     OW14659   0.297   1.309   5.054  0.3591  0.1608  0.2998
 1008SOL    HW114660   0.269   1.399   5.072  0.5222  0.0024  1.3097
 1008SOL    HW214661   0.239   1.285   4.982  1.4033  0.3992 -0.6404
 1009SOL     OW14662   3.467   3.619   7.205  0.4993  0.3722  0.0468
 1009SOL    HW114663   3.511   3.686   7.259  0.5923  1.5933 -1.5631
 1009SOL    HW214664   3.498   3.646   7.119  2.9001 -0.4934  0.6437
 1010SOL     OW14665   4.646   1.510   6.491  0.0471 -0.0240 -0.2332
 1010SOL    HW114666   4.707   1.576   6.458 -0.7973 -1.1564 -4.0126
 1010SOL    HW214667   4.572   1.567   6.514  0.5482 -0.4492  2.4242
 1011SOL     OW14668   3.972   4.379  17.210  0.3998  0.3765 -0.0445
 1011SOL    HW114669   3.932   4.447  17.156  4.0854  2.3872 -0.2499
 1011SOL    HW214670   4.034   4.434  17.257  0.2594  2.6627 -2.5802
 1012SOL     OW14671   2.741   3.117   5.771  0.0978 -0.2068  0.6797
 1012SOL    HW114672   2.654   3.080   5.755  1.0738 -1.6155 -1.3601
 1012SOL    HW214673   2.734   3.187   5.836 -2.9173  0.7561 -0.6968
 1013SOL     OW14674   2.060   0.834   6.279  0.2645 -0.0043  0.2684
 1013SOL    HW114675   2.082   0.779   6.354  1.5478 -1.1771 -0.9663
 1013SOL    HW214676   2.147   0.844   6.240 -0.4778 -1.2649 -1.6936
 1014SOL     OW14677   3.631   4.483   1.775  0.0474  0.1578  0.1380
 1014SOL    HW114678   3.598   4.485   1.685 -1.6271 -0.7483  0.7296
 1014SOL    HW214679   3.570   4.413   1.800 -0.8834  0.4255 -1.4028
 1015SOL     OW14680   4.395   4.384   6.522 -0.5897  0.2768 -0.6032
 1015SOL    HW114681   4.360   4.412   6.438  2.0495  2.2561 -1.0511
 1015SOL    HW214682   4.367   4.293   6.525 -2.1211  0.7252 -1.4707
 1016SOL     OW14683   2.978   4.225   4.605  0.3576  0.1163  0.2408
 1016SOL    HW114684   2.912   4.163   4.637  2.5669 -0.9417  2.7448
 1016SOL    HW214685   2.946   4.223   4.515  0.8525 -1.4016  0.0885
 1017SOL     OW14686   0.333   0.875  12.178  0.8318 -0.2824  0.3355
 1017SOL    HW114687   0.416   0.831  12.156  0.6878 -0.8297  0.8885
 1017SOL    HW214688   0.362   0.965  12.167  0.5258  0.1849  3.3804
 1018SOL     OW14689   1.080   0.866  17.090  0.8774 -0.1347  0.0604
 1018SOL    HW114690   1.079   0.771  17.076 -1.5998  0.0061 -0.8252
 1018SOL    HW214691   1.160   0.878  17.140  1.0085 -1.1878  0.1059
 1019SOL     OW14692   2.763   0.777   3.889 -0.1002 -0.0164  0.4734
 1019SOL    HW114693   2.682   0.769   3.940  1.5584 -1.5270  2.8407
 1019SOL    HW214694   2.720   0.800   3.806  0.9306  0.2315  0.0136
 1020SOL     OW14695   4.160   4.188   9.812  0.1193 -0.5571 -0.4721
 1020SOL    HW114696   4.253   4.166   9.806 -0.0343 -0.7806 -1.9411
 1020SOL    HW214697   4.148   4.244   9.889 -0.4823  0.3258 -1.1986
 1021SOL     OW14698   2.993   3.900   1.179 -0.5241 -0.1166 -0.0324
 1021SOL    HW114699   3.073   3.873   1.224  2.0249  2.9764 -2.6834
 1021SOL    HW214700   2.972   3.984   1.218  0.8721  0.8272 -1.3003
 1022SOL     OW14701   2.321   1.172   1.920 -0.0719 -0.3162 -0.2543
 1022SOL    HW114702   2.368   1.247   1.957  0.9879 -0.6354 -0.9201
 1022SOL    HW214703   2.374   1.166   1.840  0.4118  0.6025 -0.0122
 1023SOL     OW14704   2.252   4.571  17.568 -0.7111 -0.5499 -0.1193
 1023SOL    HW114705   2.268   4.479  17.547  4.3087  0.3373 -0.1890
 1023SOL    HW214706   2.303   4.572  17.649 -0.4941 -0.2452 -0.2589
 1024SOL     OW14707   3.234   4.233  14.387 -0.1598 -0.0885 -0.1025
 1024SOL    HW114708   3.210   4.148  14.423  0.6400 -0.1407  0.3114
 1024SOL    HW214709   3.152   4.252  14.342  0.4335 -0.7396 -1.4714
 1025SOL     OW14710   4.516   3.616   3.504  0.2513 -0.0642  0.2005
 1025SOL    HW114711   4.609   3.636   3.492 -0.2302 -0.3865 -4.1226
 1025SOL    HW214712   4.513   3.520   3.499 -0.3426 -0.0006 -0.6288
 1026SOL     OW14713   0.278   4.561   1.698 -0.6386  0.0782 -0.0798
 1026SOL    HW114714   0.263   4.653   1.719 -0.8641  0.3958 -1.6487
 1026SOL    HW214715   0.282   4.567   1.603  0.3598  2.1713  0.1053
 1027SOL     OW14716   0.703   3.188  13.047 -0.4647 -0.6289  0.5530
 1027SOL    HW114717   0.656   3.125  12.992  0.9410  0.7944 -2.2690
 1027SOL    HW214718   0.782   3.201  12.995  0.0933 -0.0564  1.5404
 1028SOL     OW14719   1.371   0.402   4.967  0.3132  0.2044 -0.1275
 1028SOL    HW114720   1.375   0.419   5.062 -1.5853 -3.8071  0.6651
 1028SOL    HW214721   1.407   0.483   4.933 -2.8344  1.1709 -1.1956
 1029SOL     OW14722   0.133   4.534  14.861 -0.3855 -0.0888  0.0157
 1029SOL    HW114723   0.206   4.480  14.830 -0.7115  0.4309 -1.6736
 1029SOL    HW214724   0.109   4.583  14.782 -1.1649 -0.1757  0.2037
 1030SOL     OW14725   3.065   1.097  10.092  0.1248 -0.4015 -0.1549
 1030SOL    HW114726   3.140   1.113  10.035 -0.2171 -4.4175 -1.7543
 1030SOL    HW214727   2.998   1.094  10.023  1.0934 -2.8438 -0.9821
 1031SOL     OW14728   0.681   1.910   4.290 -0.6064 -0.7850  0.5184
 1031SOL    HW114729   0.711   1.856   4.363 -0.4644 -1.0582  0.2573
 1031SOL    HW214730   0.682   1.855   4.212 -0.4332 -1.0127  0.6805
 1032SOL     OW14731   3.278   4.238   7.855 -0.1356  0.3750  0.0171
 1032SOL    HW114732   3.196   4.238   7.904 -0.0621  2.7838  0.1443
 1032SOL    HW214733   3.266   4.146   7.830  1.0538  0.1698  0.2127
 1033SOL     OW14734   3.933   1.497   4.601  0.2131 -0.2484 -0.0423
 1033SOL    HW114735   3.947   1.460   4.688 -2.5332 -2.4599 -0.5139
 1033SOL    HW214736   3.841   1.472   4.593  0.7701 -1.9989 -1.0019
 1034SOL     OW14737   3.150   2.464   3.230  0.6806 -0.3829 -0.1975
 1034SOL    HW114738   3.090   2.407   3.182  0.9117 -0.1826 -0.7171
 1034SOL    HW214739   3.127   2.457   3.323 -0.4621  1.3664 -0.3329
 1035SOL     OW14740   0.903   1.382   9.174 -0.4168 -0.2663 -0.1053
 1035SOL    HW114741   0.836   1.330   9.218 -1.3928  1.2742  0.2378
 1035SOL    HW214742   0.972   1.391   9.239 -0.5107  1.5364 -0.2637
 1036SOL     OW14743   4.509   0.110   2.360  0.1373  0.2577 -0.1662
 1036SOL    HW114744   4.588   0.074   2.400 -1.1886  0.0993  2.2933
 1036SOL    HW214745   4.480   0.061   2.283  0.0356  0.5025 -0.2837
 1037SOL     OW14746   1.414   0.664  12.640 -0.5059  0.5808  0.3940
 1037SOL    HW114747   1.447   0.741  12.594  0.7827 -0.4175 -0.3544
 1037SOL    HW214748   1.489   0.645  12.697 -0.5729  0.2352  0.3636
 1038SOL     OW14749   1.740   0.777  12.760 -0.0660  0.4735 -0.2512
 1038SOL    HW114750   1.764   0.685  12.771 -0.1822  0.6245  1.2296
 1038SOL    HW214751   1.682   0.794  12.834 -0.5540 -2.5726  0.0658
 1039SOL     OW14752   3.135   3.435   8.839 -0.0555 -0.0455 -0.0757
 1039SOL    HW114753   3.135   3.436   8.935  1.9814 -1.1951 -0.0786
 1039SOL    HW214754   3.147   3.529   8.823 -1.7583  0.6067  2.3577
 1040SOL     OW14755   0.329   4.520   4.328 -0.3764  0.0725 -0.0412
 1040SOL    HW114756   0.248   4.496   4.372  0.8250 -0.9633  1.6057
 1040SOL    HW214757   0.337   4.612   4.352 -1.3739  0.1219  0.1126
 1041SOL     OW14758   4.732   0.000   3.710 -0.3564  0.1250  0.2230
 1041SOL    HW114759   4.685   4.672   3.659  2.8508 -0.9479 -1.3872
 1041SOL    HW214760   0.077   4.722   3.663 -0.2043  0.2768  0.4428
 1042SOL     OW14761   1.790   4.502   8.578 -0.0733  0.3691 -0.4209
 1042SOL    HW114762   1.827   4.575   8.627  0.3400  0.1732 -0.4417
 1042SOL    HW214763   1.731   4.541   8.513 -1.4428  0.3035  0.7846
 1043SOL     OW14764   3.638   2.078   1.628 -0.1482 -0.1297 -0.1754
 1043SOL    HW114765   3.558   2.051   1.582 -0.0261 -2.5381  1.0052
 1043SOL    HW214766   3.603   2.076   1.717  0.7565  1.2794  0.2080
 1044SOL     OW14767   0.840   4.652   6.549  0.0416 -0.2588 -0.4422
 1044SOL    HW114768   0.796   4.666   6.465  0.2059  0.8680 -0.3401
 1044SOL    HW214769   0.780   4.695   6.610 -0.6571 -1.2709 -0.4014
 1045SOL     OW14770   0.988   3.280   6.545 -0.0362  0.0304 -0.4877
 1045SOL    HW114771   1.023   3.301   6.632  0.2025 -2.1107 -0.0697
 1045SOL    HW214772   1.067   3.285   6.492  0.6392 -0.5685  0.4520
 1046SOL     OW14773   0.109   4.214   3.791 -0.1401 -0.4642 -0.2817
 1046SOL    HW114774   0.174   4.145   3.799  0.8061  0.3492 -0.9017
 1046SOL    HW214775   0.151   4.296   3.819  0.6738 -1.3709  1.1108
 1047SOL     OW14776   1.427   4.530   2.992 -0.7506  0.2796 -0.6208
 1047SOL    HW114777   1.431   4.558   2.901 -2.2559 -0.2207 -0.8369
 1047SOL    HW214778   1.513   4.544   3.032 -0.7371 -0.0000 -0.5532
 1048SOL     OW14779   0.501   0.252   0.886 -0.5540  0.1503 -0.5636
 1048SOL    HW114780   0.557   0.186   0.844  1.7864  0.6656  1.7474
 1048SOL    HW214781   0.413   0.223   0.860 -0.2970 -2.2214  1.1332
 1049SOL     OW14782   1.965   2.115  16.798  0.1369 -0.2358  0.5992
 1049SOL    HW114783   1.979   2.045  16.860 -0.9370 -0.3795  0.6839
 1049SOL    HW214784   1.980   2.076  16.712 -1.7521  0.3156  0.0009
 1050SOL     OW14785   4.409   3.330   7.963 -0.4250  0.2581 -0.3577
 1050SOL    HW114786   4.450   3.405   8.007 -1.0426 -1.1916  2.7277
 1050SOL    HW214787   4.425   3.363   7.875 -0.8728  1.7919  0.1419
 1051SOL     OW14788   1.481   4.717  13.514  0.1028 -0.2524 -0.3536
 1051SOL    HW114789   1.387   4.731  13.529 -0.3561 -1.2079 -2.2753
 1051SOL    HW214790   1.517   0.066  13.500 -0.6792  0.0221 -0.6688
 1052SOL     OW14791   3.554   2.623   2.115  0.4082 -0.0421 -0.4754
 1052SOL    HW114792   3.477   2.656   2.069  1.1066  1.2193 -0.7156
 1052SOL    HW214793   3.597   2.707   2.129 -1.0414  1.0647 -2.6616
 1053SOL     OW14794   3.433   0.910  13.445  0.4048 -0.0512  0.3128
 1053SOL    HW114795   3.470   0.872  13.366  0.9042 -0.4836  0.7606
 1053SOL    HW214796   3.395   0.990  13.407  1.6439 -0.1018 -1.0203
 1054SOL     OW14797   4.666   2.878   2.556 -0.2348 -0.0333 -0.4651
 1054SOL    HW114798   4.727   2.948   2.532 -1.4404  0.9143 -0.7925
 1054SOL    HW214799   4.595   2.931   2.592  1.7330  3.4892 -1.6896
 1055SOL     OW14800   4.169   3.545  17.688  0.3018 -0.1686  0.4688
 1055SOL    HW114801   4.151   3.453  17.707  0.5068 -0.0620  1.1716
 1055SOL    HW214802   4.245   3.549  17.630  0.3915 -1.8991  0.4800
 1056SOL     OW14803   3.675   2.940   4.153  0.1391  0.3160 -0.2004
 1056SOL    HW114804   3.610   3.007   4.173 -0.3864  0.3570 -1.9967
 1056SOL    HW214805   3.751   2.982   4.193 -1.1149  0.9023  1.5279
 1057SOL     OW14806   0.200   2.276  16.811  0.0038  0.6313  0.0042
 1057SOL    HW114807   0.191   2.371  16.819 -1.4242  0.6226 -1.6596
 1057SOL    HW214808   0.172   2.249  16.899 -0.3058  0.6174 -0.0990
 1058SOL     OW14809   2.235   2.835   6.839  0.4012  0.5308  0.1998
 1058SOL    HW114810   2.219   2.744   6.815  0.6727  1.4588 -3.4653
 1058SOL    HW214811   2.146   2.859   6.867 -0.6210 -0.7966 -1.9075
 1059SOL     OW14812   3.573   1.907   7.021 -0.1539 -0.2332  0.1087
 1059SOL    HW114813   3.494   1.945   7.059  1.4556  0.8295  2.3892
 1059SOL    HW214814   3.546   1.816   7.006 -2.1473  0.1658  1.2374
 1060SOL     OW14815   1.488   1.942   9.767 -0.1084 -0.1710 -0.2123
 1060SOL    HW114816   1.413   1.894   9.801  1.4353 -0.8629  2.2525
 1060SOL    HW214817   1.549   1.875   9.734 -0.7087 -2.0839  2.5718
 1061SOL     OW14818   2.124   3.422   2.831 -0.0276 -0.1139 -0.2113
 1061SOL    HW114819   2.147   3.425   2.924  0.7710  4.4857 -0.5737
 1061SOL    HW214820   2.211   3.396   2.800 -0.9141 -0.8182 -2.1432
 1062SOL     OW14821   3.842   0.294   2.630 -0.3139 -0.8347 -0.0870
 1062SOL    HW114822   3.914   0.356   2.644 -0.8021  0.2865 -2.5496
 1062SOL    HW214823   3.813   0.276   2.720 -1.2282  1.1889  0.0229
 1063SOL     OW14824   3.159   2.030   3.716  0.1164  0.4216 -0.0117
 1063SOL    HW114825   3.245   1.988   3.720  1.2255  2.6520 -0.4282
 1063SOL    HW214826   3.180   2.123   3.709  1.1749  0.1238 -0.7148
 1064SOL     OW14827   1.618   1.793   5.108  0.1479 -0.5170  0.0144
 1064SOL    HW114828   1.631   1.705   5.073 -0.4212 -0.3171 -0.7088
 1064SOL    HW214829   1.648   1.840   5.030  0.0289  0.9055  0.8314
 1065SOL     OW14830   1.571   4.689   8.795 -0.1509 -0.6102 -0.2666
 1065SOL    HW114831   1.526   4.657   8.873 -2.2154 -0.3325 -1.3308
 1065SOL    HW214832   1.537   4.641   8.719 -1.3184 -2.7215  1.5690
 1066SOL     OW14833   0.313   4.360  12.572  0.0935  0.1764  0.3530
 1066SOL    HW114834   0.296   4.303  12.646  0.6514 -0.3157  0.1066
 1066SOL    HW214835   0.318   4.447  12.611 -0.4648  0.9131 -1.2174
 1067SOL     OW14836   4.052   2.912  17.362 -0.1888  0.2607  0.2843
 1067SOL    HW114837   4.043   3.003  17.332 -1.0317  0.0810 -0.0223
 1067SOL    HW214838   4.145   2.895  17.377  0.1623  0.9009 -1.1578
 1068SOL     OW14839   3.294   0.905  17.207  0.4667  0.1731  0.5278
 1068SOL    HW114840   3.257   0.849  17.276  2.1882  0.0561  1.3399
 1068SOL    HW214841   3.254   0.982  17.248 -0.0748 -0.8540  1.9391
 1069SOL     OW14842   0.371   0.428   2.140 -0.4222  0.6064  1.0160
 1069SOL    HW114843   0.347   0.417   2.232 -0.4584  1.6248  1.1345
 1069SOL    HW214844   0.307   0.497   2.118  0.6889  1.8358  1.6439
 1070SOL     OW14845   2.689   2.690  13.527  0.4188 -0.3511  0.1803
 1070SOL    HW114846   2.781   2.670  13.508  0.2565 -0.9511  0.0563
 1070SOL    HW214847   2.685   2.783  13.504 -2.4367 -0.8974 -1.4369
 1071SOL     OW14848   3.284   1.628   2.486 -0.1083  0.2628 -0.4403
 1071SOL    HW114849   3.317   1.717   2.479 -2.7561  1.4898  2.4835
 1071SOL    HW214850   3.190   1.637   2.467  0.0224  2.4142 -0.0541
 1072SOL     OW14851   1.924   4.335   4.644 -0.2946  0.0381  0.1699
 1072SOL    HW114852   1.905   4.299   4.557 -2.9817 -3.2376  2.0994
 1072SOL    HW214853   1.837   4.326   4.683  0.4796 -0.2571  1.8201
 1073SOL     OW14854   3.308   4.430   3.931  0.0912  0.3588 -0.2137
 1073SOL    HW114855   3.399   4.408   3.954 -0.2971 -1.4436 -0.4186
 1073SOL    HW214856   3.264   4.345   3.926 -0.5796  0.6130  1.2765
 1074SOL     OW14857   0.614   1.650   8.925  0.4190 -0.1096 -0.0430
 1074SOL    HW114858   0.696   1.698   8.915 -0.4755  1.8958  2.1496
 1074SOL    HW214859   0.649   1.563   8.941  0.5190 -0.0454  0.0833
 1075SOL     OW14860   0.524   3.132  11.563  0.0031  0.2392  0.2225
 1075SOL    HW114861   0.503   3.038  11.563  0.9836  0.0168 -0.5299
 1075SOL    HW214862   0.455   3.173  11.512 -0.6100 -0.8653  0.1676
 1076SOL     OW14863   1.086   1.471  10.746  0.4134 -0.0532 -0.2280
 1076SOL    HW114864   1.007   1.423  10.771 -0.4803  1.4766 -0.0714
 1076SOL    HW214865   1.157   1.417  10.780 -0.5048 -1.1199  0.0114
 1077SOL     OW14866   4.360   0.636   5.523  0.2420 -0.4470  0.4091
 1077SOL    HW114867   4.321   0.718   5.552  0.1412 -0.3018 -0.1486
 1077SOL    HW214868   4.447   0.640   5.564  0.9014 -0.1013 -1.0343
 1078SOL     OW14869   3.339   4.733   3.042  0.1840  0.4402  0.2667
 1078SOL    HW114870   3.358   0.055   3.114 -1.6574  1.6031 -0.2181
 1078SOL    HW214871   3.280   4.673   3.087 -2.2494  1.7012 -1.2561
 1079SOL     OW14872   0.173   1.827  16.772  0.3497 -0.1553 -0.0971
 1079SOL    HW114873   0.148   1.881  16.847  2.6485 -0.0950  0.6251
 1079SOL    HW214874   0.232   1.881  16.720 -1.4426  1.3709 -0.5060
 1080SOL     OW14875   2.535   1.629   2.368  0.4962 -0.1037  0.0782
 1080SOL    HW114876   2.611   1.617   2.311 -0.1018 -3.0754 -0.0772
 1080SOL    HW214877   2.472   1.560   2.349 -1.3393  1.9599 -1.3820
 1081SOL     OW14878   0.753   0.076   9.152  0.4830  0.1453  0.2890
 1081SOL    HW114879   0.687   0.127   9.104  0.7399 -0.4546 -0.6953
 1081SOL    HW214880   0.701   0.073   9.233  0.3723 -3.7578  0.0918
 1082SOL     OW14881   2.272   3.617   8.694 -0.5427 -0.2133  0.2246
 1082SOL    HW114882   2.315   3.609   8.609  2.9233  1.9924  1.7572
 1082SOL    HW214883   2.323   3.548   8.736 -0.4807  0.0798  0.6298
 1083SOL     OW14884   4.341   1.925   3.454  0.0387 -0.2049 -0.6836
 1083SOL    HW114885   4.266   1.949   3.401  1.4324  2.2484 -1.5207
 1083SOL    HW214886   4.344   1.830   3.442  1.8507 -0.3083  0.6228
 1084SOL     OW14887   1.546   3.528   6.888  0.0179  0.0142  0.3894
 1084SOL    HW114888   1.617   3.472   6.855 -0.8137 -1.6310  1.4022
 1084SOL    HW214889   1.515   3.484   6.967  0.0642 -4.1716 -1.9041
 1085SOL     OW14890   1.094   3.609   6.297  0.0211  0.1767 -0.0701
 1085SOL    HW114891   1.063   3.608   6.207  1.1941  0.9835 -0.4832
 1085SOL    HW214892   1.012   3.603   6.347 -0.7138 -2.6934 -1.6345
 1086SOL     OW14893   4.701   2.064  11.928  0.5565  0.0678 -0.2639
 1086SOL    HW114894   4.624   2.084  11.874  0.1793 -0.8292 -0.0659
 1086SOL    HW214895   0.011   2.147  11.935  0.2124  0.1786  0.8346
 1087SOL     OW14896   2.827   3.679   4.240  0.2822  0.6055 -0.0767
 1087SOL    HW114897   2.856   3.730   4.316 -0.3488  0.2894  0.3812
 1087SOL    HW214898   2.749   3.643   4.282  0.9452  0.0086  0.6453
 1088SOL     OW14899   3.563   3.363  15.337  0.1596  0.1788 -0.1788
 1088SOL    HW114900   3.647   3.337  15.300 -0.8519  0.8820 -2.9623
 1088SOL    HW214901   3.510   3.379  15.259 -2.0598  0.0371  1.3029
 1089SOL     OW14902   4.448   1.815   7.168 -0.2533  0.2072  0.0391
 1089SOL    HW114903   4.394   1.745   7.131  0.0652 -0.9983  1.8379
 1089SOL    HW214904   4.534   1.774   7.167 -1.0007 -1.3239 -1.1846
 1090SOL     OW14905   3.742   3.678   1.642 -0.5194  0.4205  0.4414
 1090SOL    HW114906   3.836   3.696   1.637 -0.3522  0.2952  3.4329
 1090SOL    HW214907   3.711   3.736   1.572 -1.3153 -0.1315  0.3415
 1091SOL     OW14908   2.842   0.471   5.584  0.1923  0.5244 -0.3525
 1091SOL    HW114909   2.868   0.499   5.496  1.8866 -2.5200 -0.8233
 1091SOL    HW214910   2.904   0.399   5.598 -0.4098  0.0716 -0.0344
 1092SOL     OW14911   0.028   3.342   9.548 -0.7435  0.1643 -0.2097
 1092SOL    HW114912   4.719   3.390   9.479 -1.1434 -3.6127 -2.5520
 1092SOL    HW214913   0.076   3.408   9.598  0.5237 -0.4646 -0.6089
 1093SOL     OW14914   4.533   0.988   8.167  0.3845  0.1373 -0.0030
 1093SOL    HW114915   4.588   0.959   8.239 -0.5110 -0.6356  0.3757
 1093SOL    HW214916   4.524   0.908   8.115  0.8973  1.0310 -1.4626
 1094SOL     OW14917   2.122   3.911   1.551 -0.6317  0.1168 -0.1205
 1094SOL    HW114918   2.112   3.857   1.630  2.0376 -1.6359 -0.9879
 1094SOL    HW214919   2.139   3.851   1.479 -2.3501  0.8204 -1.1036
 1095SOL     OW14920   0.572   2.164   3.357 -0.3195 -0.2898  0.7379
 1095SOL    HW114921   0.586   2.070   3.365 -3.2105 -0.8804 -1.0200
 1095SOL    HW214922   0.479   2.184   3.354 -0.7593 -2.0688  3.2650
 1096SOL     OW14923   3.322   2.238   6.244 -0.3518  0.2096  0.2493
 1096SOL    HW114924   3.322   2.324   6.286 -1.4748  0.4322 -0.1972
 1096SOL    HW214925   3.330   2.184   6.323  1.0124 -1.4923 -1.0789
 1097SOL     OW14926   4.685   1.893  17.168  0.2021  0.0640 -0.2038
 1097SOL    HW114927   4.603   1.856  17.200 -0.4240  0.6285 -1.1637
 1097SOL    HW214928   0.014   1.824  17.174 -0.5305 -0.5652  0.7474
 1098SOL     OW14929   2.458   4.644   3.755  0.3266 -0.0142  0.7850
 1098SOL    HW114930   2.473   4.556   3.790  5.4790  1.3028  1.9162
 1098SOL    HW214931   2.376   4.633   3.708  0.6558 -0.9447  0.4336
 1099SOL     OW14932   0.944   1.892   9.765  0.1723  0.2512 -0.3407
 1099SOL    HW114933   0.968   1.807   9.727  0.8106 -0.2856  1.2754
 1099SOL    HW214934   0.993   1.936   9.696  1.4160 -1.8777 -0.8125
 1100SOL     OW14935   3.536   3.004  10.773 -0.2347  0.1090 -0.5586
 1100SOL    HW114936   3.503   2.942  10.709  0.2308  0.6467 -1.3216
 1100SOL    HW214937   3.628   2.980  10.788  0.1645  0.2393 -2.7956
 1101SOL     OW14938   1.369   1.888  12.277  0.4911 -0.4986  0.4156
 1101SOL    HW114939   1.375   1.811  12.335 -0.0017 -0.5985  0.3329
 1101SOL    HW214940   1.350   1.960  12.337 -1.4664  0.4152 -1.3362
 1102SOL     OW14941   4.517   4.286   1.026 -0.7114  0.1037  0.0943
 1102SOL    HW114942   4.569   4.206   1.021  0.3719  0.7897  0.4058
 1102SOL    HW214943   4.494   4.306   0.936 -1.1870  0.8500  0.3778
 1103SOL     OW14944   3.110   4.078   3.303  0.6834 -0.4817 -0.2145
 1103SOL    HW114945   3.100   4.038   3.390  2.4049  0.1420  0.2719
 1103SOL    HW214946   3.097   4.167   3.335  0.8145 -0.9365  1.1297
 1104SOL     OW14947   3.735   2.325   8.918 -0.4088  0.3763 -0.6726
 1104SOL    HW114948   3.712   2.234   8.902  2.1776 -0.6663  1.4749
 1104SOL    HW214949   3.809   2.313   8.977  0.6332  0.7465 -1.8903
 1105SOL     OW14950   3.062   0.812  10.828  0.2141  0.3670 -0.3956
 1105SOL    HW114951   3.032   0.895  10.865  1.1864  0.7956 -0.5627
 1105SOL    HW214952   3.157   0.824  10.820  0.0835  0.7387 -1.4564
 1106SOL     OW14953   0.076   1.381   4.526 -0.4681  0.3995  0.6379
 1106SOL    HW114954   0.052   1.450   4.464  0.1927  0.4291  0.4150
 1106SOL    HW214955   0.137   1.426   4.585  1.1647  0.9044 -1.4432
 1107SOL     OW14956   0.859   4.001   6.388  0.2866  0.0019  0.6611
 1107SOL    HW114957   0.770   3.970   6.373  0.3224  0.8776 -1.3622
 1107SOL    HW214958   0.864   3.990   6.483  1.5678 -0.1424  0.5795
 1108SOL     OW14959   1.414   1.089  14.160 -0.3293 -0.1831  0.3925
 1108SOL    HW114960   1.441   1.071  14.070 -0.0391  0.6667  0.3050
 1108SOL    HW214961   1.329   1.132  14.150 -0.5541 -0.5807  0.6143
 1109SOL     OW14962   0.101   1.174   3.624  0.8392  0.0595 -0.4676
 1109SOL    HW114963   0.031   1.165   3.689  1.2723  1.4873  0.1900
 1109SOL    HW214964   0.113   1.266   3.645  1.6958  0.5116 -3.0659
 1110SOL     OW14965   4.044   1.071  14.695  0.1904 -0.0429  0.0607
 1110SOL    HW114966   3.973   1.014  14.665  1.6979 -1.3284 -1.0393
 1110SOL    HW214967   4.013   1.110  14.777 -0.9869  0.7299 -0.7513
 1111SOL     OW14968   4.184   1.015   8.654 -0.0236 -0.6591  0.2466
 1111SOL    HW114969   4.252   0.952   8.679  1.0310  0.3976  0.0497
 1111SOL    HW214970   4.132   1.031   8.732  0.4239  0.3269  0.3386
 1112SOL     OW14971   3.385   0.961   9.666  0.0063 -0.0344  0.1542
 1112SOL    HW114972   3.382   0.870   9.636  1.3741 -0.4274  1.2321
 1112SOL    HW214973   3.305   0.973   9.718  0.7956  0.9983  1.1233
 1113SOL     OW14974   3.248   2.083  12.248  0.4617  0.2013 -0.5921
 1113SOL    HW114975   3.319   2.064  12.310  1.3095 -0.5095 -1.7761
 1113SOL    HW214976   3.235   1.990  12.228  0.6689 -0.2265  1.2065
 1114SOL     OW14977   3.977   2.423   6.983  0.5340  0.0843 -0.5666
 1114SOL    HW114978   3.888   2.388   6.981 -0.1753  2.0729 -3.3928
 1114SOL    HW214979   3.967   2.466   7.068  0.7528 -0.9223 -0.0266
 1115SOL     OW14980   2.114   0.598  17.401  0.6563 -0.0779  0.3674
 1115SOL    HW114981   2.041   0.629  17.454 -0.8659  1.2172 -2.5149
 1115SOL    HW214982   2.072   0.606  17.316  1.4012 -0.4612 -0.0408
 1116SOL     OW14983   2.888   4.266  11.728 -1.5026  0.5780 -0.6875
 1116SOL    HW114984   2.945   4.343  11.735 -1.7160  0.7027 -0.2913
 1116SOL    HW214985   2.855   4.263  11.638  2.6007  0.6448 -2.1572
 1117SOL     OW14986   0.353   2.642  16.623  0.0444  0.3347 -0.0682
 1117SOL    HW114987   0.381   2.731  16.646  0.5624  0.4763 -1.2645
 1117SOL    HW214988   0.355   2.623  16.529 -1.3457 -2.0296  0.3869
 1118SOL     OW14989   2.511   4.410  11.314  0.1643 -0.0436 -0.6883
 1118SOL    HW114990   2.426   4.445  11.341  1.5573  2.6143  0.2358
 1118SOL    HW214991   2.539   4.356  11.389  0.4487  0.4060 -0.4762
 1119SOL     OW14992   3.708   2.119   4.228 -0.5991 -0.7096  0.4151
 1119SOL    HW114993   3.689   2.208   4.199 -0.2691 -1.2849 -1.5441
 1119SOL    HW214994   3.792   2.128   4.273  0.1989  0.8848 -1.3828
 1120SOL     OW14995   3.443   2.941   0.229 -0.0833 -0.2209  0.5271
 1120SOL    HW114996   3.512   3.006   0.211 -0.3068 -0.3607 -0.8496
 1120SOL    HW214997   3.485   2.865   0.188 -0.7747 -1.6513  2.5054
 1121SOL     OW14998   3.324   0.094   5.943  0.2162 -0.3292 -0.1537
 1121SOL    HW114999   3.232   0.077   5.965  0.4372  1.9685  2.6105
 1121SOL    HW215000   3.345   0.041   6.021  3.0629 -0.4491 -1.0195
 1122SOL     OW15001   3.238   4.182  16.512 -0.1160  0.1440  0.0789
 1122SOL    HW115002   3.152   4.222  16.517  0.0543  0.8490 -2.2394
 1122SOL    HW215003   3.246   4.136  16.595 -1.9144  1.8306  1.1770
 1123SOL     OW15004   3.115   1.571   6.931 -0.3083 -0.0269 -0.3769
 1123SOL    HW115005   3.022   1.591   6.943  0.1714  0.6575  2.2623
 1123SOL    HW215006   3.136   1.659   6.898 -3.1497  1.3296  1.3821
 1124SOL     OW15007   3.608   3.586  10.271 -0.2583  0.3242 -0.4239
 1124SOL    HW115008   3.524   3.553  10.304 -0.7544  1.4985 -0.4994
 1124SOL    HW215009   3.617   3.665  10.325  0.1435  0.9262 -1.3819
 1125SOL     OW15010   0.447   1.507  14.904  0.1345 -0.0719 -0.3709
 1125SOL    HW115011   0.409   1.584  14.946  1.5379 -0.6461  1.9571
 1125SOL    HW215012   0.428   1.431  14.960  4.2709 -2.3919 -2.1728
 1126SOL     OW15013   0.614   1.892  14.060  0.0366  0.2710  0.6618
 1126SOL    HW115014   0.543   1.931  14.110  1.6618  0.6621  2.6716
 1126SOL    HW215015   0.580   1.803  14.067  1.8314 -0.5326 -0.6139
 1127SOL     OW15016   2.045   4.707   3.194  0.1428 -0.1031 -0.5611
 1127SOL    HW115017   2.075   4.629   3.147 -0.7939 -0.2169 -0.9745
 1127SOL    HW215018   1.967   4.737   3.147 -0.5489 -0.9885  0.0145
 1128SOL     OW15019   0.263   4.407   7.407 -0.5295  0.2639  0.4947
 1128SOL    HW115020   0.193   4.390   7.470  0.2166  1.9480  1.7805
 1128SOL    HW215021   0.221   4.365   7.331 -1.5182 -0.2792  1.3344
 1129SOL     OW15022   0.058   2.227   8.923  0.3145 -0.1679 -0.3739
 1129SOL    HW115023   4.713   2.249   8.967  0.7929  0.2712  0.3066
 1129SOL    HW215024   0.114   2.269   8.988 -0.5109 -1.1064  0.9444
 1130SOL     OW15025   1.796   3.050   7.401  0.6480  0.0749  0.2770
 1130SOL    HW115026   1.718   3.093   7.366  2.7947  0.2432 -4.3703
 1130SOL    HW215027   1.818   2.989   7.330 -0.7384  1.0731 -1.0083
 1131SOL     OW15028   2.540   3.533   8.475  0.4122 -0.0997  0.3751
 1131SOL    HW115029   2.572   3.575   8.395 -3.1582  0.7812 -0.5821
 1131SOL    HW215030   2.453   3.512   8.443  0.2865  2.6783 -1.0802
 1132SOL     OW15031   4.051   1.071   3.246 -0.4301 -0.0599 -0.1381
 1132SOL    HW115032   3.998   1.017   3.188 -1.1017 -1.6054  1.9119
 1132SOL    HW215033   4.125   1.011   3.241 -1.4770 -1.2255 -1.4644
 1133SOL     OW15034   2.723   4.273   7.940  0.3188 -0.2094 -0.6166
 1133SOL    HW115035   2.686   4.186   7.929 -1.6745  0.6044 -0.3813
 1133SOL    HW215036   2.717   4.279   8.036  0.9119 -0.3985 -0.5668
 1134SOL     OW15037   1.626   3.327  16.992  0.4295  0.5562 -0.0270
 1134SOL    HW115038   1.542   3.360  16.960  0.1926  1.4503  1.5199
 1134SOL    HW215039   1.618   3.334  17.087 -1.3854  1.6709 -0.2649
 1135SOL     OW15040   2.352   1.369   2.635  0.3646  0.0902 -0.0552
 1135SOL    HW115041   2.398   1.446   2.669 -1.8119  1.5945 -0.4766
 1135SOL    HW215042   2.270   1.410   2.605  0.3088 -0.8107 -1.1380
 1136SOL     OW15043   4.256   0.263   9.514  0.2158  0.2761 -0.5904
 1136SOL    HW115044   4.307   0.311   9.448  0.7653 -0.0051 -0.3647
 1136SOL    HW215045   4.263   0.319   9.591  2.8739  1.1492 -1.4345
 1137SOL     OW15046   1.650   2.055   4.441  0.0673  0.0451  0.1283
 1137SOL    HW115047   1.713   2.001   4.393 -1.7590 -0.6313 -1.5428
 1137SOL    HW215048   1.595   1.979   4.460 -0.5852  0.6887  0.8253
 1138SOL     OW15049   2.393   1.447   2.002 -0.3886  0.6161 -0.1343
 1138SOL    HW115050   2.324   1.446   2.067 -1.2460 -0.5944 -1.0764
 1138SOL    HW215051   2.428   1.535   2.019  3.3097 -0.5344 -1.7435
 1139SOL     OW15052   0.842   0.674   9.010 -0.3767 -0.0644 -0.0048
 1139SOL    HW115053   0.827   0.725   8.930 -0.0206 -1.0287 -0.6970
 1139SOL    HW215054   0.927   0.635   8.989 -0.6649 -0.5138 -0.3289
 1140SOL     OW15055   2.720   0.504  15.688  0.1550  0.6678 -0.3531
 1140SOL    HW115056   2.647   0.543  15.735 -2.0706 -0.2094 -3.0938
 1140SOL    HW215057   2.771   0.584  15.700  0.6739  0.3547 -0.4233
 1141SOL     OW15058   2.418   2.139   7.674 -0.1149 -0.4515  0.5545
 1141SOL    HW115059   2.463   2.107   7.752  0.3725 -1.2201 -0.0446
 1141SOL    HW215060   2.333   2.164   7.711 -0.8616 -1.8119 -0.2505
 1142SOL     OW15061   1.391   4.519   3.467  0.2460 -0.4204 -0.7460
 1142SOL    HW115062   1.374   4.469   3.387 -2.1941 -0.0599 -0.4450
 1142SOL    HW215063   1.302   4.529   3.500 -0.2715 -3.4814 -1.2859
 1143SOL     OW15064   3.481   4.393   6.726  0.1494 -0.5978 -0.2374
 1143SOL    HW115065   3.534   4.325   6.767 -0.9600 -0.4314  1.4814
 1143SOL    HW215066   3.464   4.360   6.638  1.5258 -0.9618 -0.3577
 1144SOL     OW15067   4.177   2.394   6.833  0.0675  0.0563  0.2833
 1144SOL    HW115068   4.097   2.388   6.887 -1.8066 -0.6939 -2.5964
 1144SOL    HW215069   4.184   2.301   6.813  1.0235  0.2464 -0.2360
 1145SOL     OW15070   1.342   3.715   2.500 -0.5332  0.3229  0.0765
 1145SOL    HW115071   1.391   3.768   2.563  3.2829 -2.8372 -0.2407
 1145SOL    HW215072   1.417   3.671   2.461 -0.0756  1.6951 -0.5993
 1146SOL     OW15073   0.429   3.570  11.745  0.2373 -0.8857  0.1594
 1146SOL    HW115074   0.445   3.487  11.790  0.3587 -1.3610 -0.7652
 1146SOL    HW215075   0.471   3.637  11.800  1.5919 -0.6102 -1.1791
 1147SOL     OW15076   0.569   4.472  14.369 -0.4859 -0.5259  0.2508
 1147SOL    HW115077   0.560   4.568  14.371  0.4227 -0.3468 -3.3368
 1147SOL    HW215078   0.665   4.467  14.374 -0.4767 -0.3954  0.2091
 1148SOL     OW15079   2.004   2.270   2.649  0.8974 -0.9329 -0.2381
 1148SOL    HW115080   1.963   2.219   2.580  1.3960 -1.4065 -0.1869
 1148SOL    HW215081   1.929   2.321   2.677  1.5562 -1.0765  1.7914
 1149SOL     OW15082   1.372   2.604   4.554  0.3218 -0.2905 -0.4225
 1149SOL    HW115083   1.434   2.676   4.569  0.0492  0.0764 -1.0644
 1149SOL    HW215084   1.422   2.539   4.604  1.8590  0.5724 -0.8412
 1150SOL     OW15085   1.657   1.867  13.703  0.0749 -0.4957  0.0618
 1150SOL    HW115086   1.572   1.830  13.728 -0.0645 -0.2601 -0.0595
 1150SOL    HW215087   1.705   1.865  13.786 -0.5175  2.1867  0.4828
 1151SOL     OW15088   3.494   2.673   8.790 -0.2651  0.0486 -0.5119
 1151SOL    HW115089   3.509   2.631   8.875 -2.0803  1.4052  0.4822
 1151SOL    HW215090   3.439   2.751   8.801  0.2718  0.5920 -1.6870
 1152SOL     OW15091   4.259   2.440   3.957 -0.4402 -0.3244 -0.1088
 1152SOL    HW115092   4.217   2.405   3.878 -0.1402 -1.1219  0.0872
 1152SOL    HW215093   4.258   2.370   4.023 -1.3741  2.1840  2.5567
 1153SOL     OW15094   1.098   1.965   2.094 -0.3483 -0.4178 -0.4143
 1153SOL    HW115095   1.117   1.882   2.050  1.0359 -0.3679  0.0988
 1153SOL    HW215096   1.016   1.936   2.135 -0.0107  0.9421  1.2238
 1154SOL     OW15097   0.789   0.327  13.211 -0.7819  0.4669 -0.0520
 1154SOL    HW115098   0.832   0.390  13.268 -2.0293  2.0521 -0.8752
 1154SOL    HW215099   0.862   0.315  13.151 -2.1131 -0.8575 -1.4243
 1155SOL     OW15100   3.786   2.561  17.119  0.1186 -0.1019  0.3289
 1155SOL    HW115101   3.881   2.571  17.119  0.0358  0.4994  4.1676
 1155SOL    HW215102   3.784   2.488  17.181  0.3994 -0.5996 -0.2530
 1156SOL     OW15103   3.069   0.376   6.565 -0.1858 -0.4963 -0.0255
 1156SOL    HW115104   2.974   0.378   6.562 -0.0334  3.9103 -1.8092
 1156SOL    HW215105   3.090   0.388   6.658 -0.8327 -2.2217  0.3288
 1157SOL     OW15106   4.310   0.107  11.403 -0.6343  0.3415 -0.3312
 1157SOL    HW115107   4.311   0.011  11.407  0.2108  0.5272  3.2277
 1157SOL    HW215108   4.398   0.118  11.367  0.3446 -0.7515  1.7526
 1158SOL     OW15109   1.850   2.766   6.270 -0.1640 -0.1737  0.1356
 1158SOL    HW115110   1.904   2.805   6.339  0.0615 -1.9563  0.9505
 1158SOL    HW215111   1.909   2.700   6.234 -1.0863 -0.5854 -0.6289
 1159SOL     OW15112   3.997   3.443   4.091  0.2626 -0.1346  0.0308
 1159SOL    HW115113   4.084   3.444   4.051 -0.4796 -2.0444 -1.6361
 1159SOL    HW215114   3.979   3.537   4.079  1.7285  0.0702 -0.5556
 1160SOL     OW15115   0.041   3.095   2.421 -0.0201 -0.2014 -0.6335
 1160SOL    HW115116   0.133   3.098   2.448 -0.6044 -1.0110  1.4726
 1160SOL    HW215117   0.053   3.095   2.326  0.1041  0.9338 -0.6109
 1161SOL     OW15118   4.652   4.597   8.131 -0.1833 -0.2434 -0.4133
 1161SOL    HW115119   4.699   4.675   8.162  0.4456 -1.1019  0.8061
 1161SOL    HW215120   4.578   4.626   8.078  1.0887  2.3781 -0.7425
 1162SOL     OW15121   2.877   2.346   6.207 -0.8175 -0.1834  0.4070
 1162SOL    HW115122   2.944   2.335   6.275  0.8407 -0.1402 -1.1892
 1162SOL    HW215123   2.884   2.439   6.186 -2.9975  0.0264  0.6638
 1163SOL     OW15124   3.555   1.120   9.519 -0.8382  0.4098  0.3689
 1163SOL    HW115125   3.503   1.067   9.578  0.8916 -0.3055  1.2490
 1163SOL    HW215126   3.619   1.167   9.572 -0.5750  2.7186 -1.9432
 1164SOL     OW15127   1.311   1.138   4.655  0.3336  0.3313 -0.4248
 1164SOL    HW115128   1.352   1.216   4.619  2.9890 -1.0912 -0.4767
 1164SOL    HW215129   1.349   1.072   4.597 -1.1137 -0.1961 -0.7893
 1165SOL     OW15130   1.701   4.530  11.909  0.0859 -0.1296 -0.0688
 1165SOL    HW115131   1.735   4.456  11.858  0.6050 -1.3428  2.0299
 1165SOL    HW215132   1.772   4.540  11.973 -0.0295 -0.6757  0.1448
 1166SOL     OW15133   4.151   0.732   6.083  0.1464 -0.0092  0.0568
 1166SOL    HW115134   4.191   0.809   6.042 -0.8239  0.4609 -0.0272
 1166SOL    HW215135   4.190   0.661   6.032 -0.4691  0.6712 -1.3639
 1167SOL     OW15136   0.488   3.335   6.447 -0.2550  0.4070  0.1627
 1167SOL    HW115137   0.536   3.303   6.523  1.0711  1.5180 -0.2026
 1167SOL    HW215138   0.555   3.392   6.408  0.6869 -0.4119  0.5728
 1168SOL     OW15139   0.399   2.360   5.551  0.1446 -0.0462 -0.3597
 1168SOL    HW115140   0.440   2.290   5.602 -0.7570  0.2621  0.7865
 1168SOL    HW215141   0.463   2.367   5.480 -0.0966  0.1835 -0.5541
 1169SOL     OW15142   0.552   4.099   6.898  0.3030  0.4001 -0.0701
 1169SOL    HW115143   0.489   4.123   6.967  0.0202 -0.4593 -0.0330
 1169SOL    HW215144   0.579   4.009   6.916 -1.9404  0.0320  1.4923
 1170SOL     OW15145   1.077   1.587  15.714  0.9186  0.8550  0.0842
 1170SOL    HW115146   1.059   1.680  15.705  3.6490  1.4082  0.2119
 1170SOL    HW215147   1.172   1.595  15.726  0.7376  1.7640  0.8822
 1171SOL     OW15148   0.058   2.162   4.445 -0.0793  0.5678 -0.2897
 1171SOL    HW115149   0.070   2.068   4.455 -0.0941  0.3742 -2.0443
 1171SOL    HW215150   0.145   2.195   4.469  1.0061 -0.9735 -2.1087
 1172SOL     OW15151   1.658   3.000   9.162 -0.3137 -0.0245 -0.5422
 1172SOL    HW115152   1.683   2.952   9.084 -0.1424 -0.7647 -0.0410
 1172SOL    HW215153   1.567   3.007   9.133  0.2016 -0.0367 -2.1604
 1173SOL     OW15154   2.465   2.844   8.098 -0.1272  0.0197 -0.0415
 1173SOL    HW115155   2.555   2.817   8.116  0.0529  0.7436  0.1392
 1173SOL    HW215156   2.448   2.898   8.176  1.2585  4.0041 -2.5081
 1174SOL     OW15157   4.605   1.882   8.760  0.0702 -0.0302  0.2145
 1174SOL    HW115158   4.570   1.970   8.745 -0.3633 -0.2662 -0.1671
 1174SOL    HW215159   4.524   1.832   8.773 -3.0233  4.5608 -1.5973
 1175SOL     OW15160   1.064   3.312   6.790 -0.1282  0.4332  0.4488
 1175SOL    HW115161   0.998   3.272   6.847 -0.2381  3.2209  2.2600
 1175SOL    HW215162   1.141   3.278   6.836  0.6705  1.1426 -0.3684
 1176SOL     OW15163   4.677   2.451  16.322 -0.1661  0.4637 -0.1365
 1176SOL    HW115164   4.663   2.544  16.343  1.8485  0.5348  0.8477
 1176SOL    HW215165   4.708   2.417  16.406 -1.6332  0.2662  0.3256
 1177SOL     OW15166   1.449   0.032  14.868 -0.0805 -0.0258  0.5636
 1177SOL    HW115167   1.387   4.723  14.925  0.3772  0.4517  1.4458
 1177SOL    HW215168   1.478   0.113  14.909  0.4608  0.1451 -0.1607
 1178SOL     OW15169   1.476   3.400   2.758 -0.2618  0.0360 -0.2315
 1178SOL    HW115170   1.400   3.444   2.796 -0.3476  0.9351 -1.4450
 1178SOL    HW215171   1.533   3.476   2.741  2.8894 -2.0188  1.0797
 1179SOL     OW15172   3.996   0.832   2.806  0.5078  0.3897 -0.2123
 1179SOL    HW115173   3.945   0.842   2.727 -2.6448  0.1731  1.8084
 1179SOL    HW215174   4.087   0.836   2.774  0.2023  0.8101 -1.0193
 1180SOL     OW15175   4.536   1.331   5.334 -0.0051 -0.9804 -0.1776
 1180SOL    HW115176   4.508   1.249   5.375 -1.5440 -0.2189  0.3240
 1180SOL    HW215177   4.456   1.338   5.281  0.2181  0.6073 -0.2944
 1181SOL     OW15178   4.286   2.409  16.794 -0.6104  0.2803  0.2770
 1181SOL    HW115179   4.280   2.482  16.733  0.9716  0.2692  0.0967
 1181SOL    HW215180   4.194   2.385  16.794 -0.6213  0.3288  1.4789
 1182SOL     OW15181   0.703   0.995   0.678  0.1586 -0.2658 -0.2129
 1182SOL    HW115182   0.614   0.958   0.680  0.7625 -1.6720  0.8191
 1182SOL    HW215183   0.705   1.029   0.588 -3.0327  3.1998  1.0627
 1183SOL     OW15184   3.312   2.351   8.212 -0.4161  0.0628 -0.1996
 1183SOL    HW115185   3.386   2.362   8.151  0.0111 -0.3036  0.2483
 1183SOL    HW215186   3.357   2.403   8.278 -1.2316 -0.0440  0.4340
 1184SOL     OW15187   1.693   2.090   2.168 -0.0293 -0.1231 -0.4066
 1184SOL    HW115188   1.618   2.078   2.227  1.9181  0.3918  2.1765
 1184SOL    HW215189   1.687   2.017   2.108 -0.4902 -1.1151  0.8477
 1185SOL     OW15190   2.641   4.705   7.346 -0.7987  0.1004  0.1519
 1185SOL    HW115191   2.621   4.617   7.313  0.8325  0.1002 -0.8131
 1185SOL    HW215192   2.687   4.735   7.268  0.7514  2.0433  1.8250
 1186SOL     OW15193   1.013   0.883   1.484  0.2097 -0.3314  0.2117
 1186SOL    HW115194   0.977   0.899   1.571 -0.0524  2.1709 -0.3617
 1186SOL    HW215195   1.107   0.878   1.499  0.1608 -0.7107  0.3987
 1187SOL     OW15196   4.505   4.568   4.888  0.6039  0.0668 -0.7677
 1187SOL    HW115197   4.599   4.581   4.894  0.7295 -0.4704 -1.5271
 1187SOL    HW215198   4.487   4.640   4.949  1.7312  0.3778 -0.8060
 1188SOL     OW15199   1.603   3.817  15.947  0.5144 -0.2936 -0.0738
 1188SOL    HW115200   1.659   3.756  15.899 -2.3100 -1.6310 -1.6158
 1188SOL    HW215201   1.604   3.890  15.885 -0.2405 -0.8024 -0.6738
 1189SOL     OW15202   1.490   4.582  10.752 -0.6665 -0.9041 -0.5841
 1189SOL    HW115203   1.547   4.538  10.688  1.3179 -0.2212  0.6889
 1189SOL    HW215204   1.540   4.564  10.832 -2.4126 -2.0555  0.2525
 1190SOL     OW15205   3.888   0.965  16.478 -0.1882 -0.1482  0.3359
 1190SOL    HW115206   3.804   1.010  16.490  0.0054  1.1175 -2.9739
 1190SOL    HW215207   3.943   1.005  16.546 -0.3034 -1.2423  1.0707
 1191SOL     OW15208   2.515   2.655   8.702  0.1580 -0.1979  0.1646
 1191SOL    HW115209   2.432   2.703   8.699 -0.1243 -0.8827 -2.6238
 1191SOL    HW215210   2.513   2.616   8.789  1.2556 -2.4174 -0.8251
 1192SOL     OW15211   2.286   2.174   6.744  0.2981  0.2797  0.1370
 1192SOL    HW115212   2.228   2.240   6.706 -0.2246 -0.1000  0.2893
 1192SOL    HW215213   2.371   2.199   6.706  0.3658 -0.2571 -0.0663
 1193SOL     OW15214   0.569   2.155  13.389 -0.9403 -0.0503  0.5653
 1193SOL    HW115215   0.540   2.239  13.425  1.8033  1.2283 -0.2670
 1193SOL    HW215216   0.640   2.171  13.327 -1.7588  1.3188  0.0010
 1194SOL     OW15217   1.309   1.255   7.699 -0.3768  0.2969  0.1772
 1194SOL    HW115218   1.309   1.311   7.622  0.4670  0.0356 -0.0196
 1194SOL    HW215219   1.359   1.181   7.664 -0.6156 -0.0794  0.6335
 1195SOL     OW15220   4.577   1.269   4.510  0.0373 -0.1722 -0.0501
 1195SOL    HW115221   4.543   1.290   4.597  0.5016  0.6941 -0.0813
 1195SOL    HW215222   4.670   1.288   4.517 -0.1144  0.2531  0.7259
 1196SOL     OW15223   1.385   0.728   0.453 -0.2322 -0.1120  0.1295
 1196SOL    HW115224   1.479   0.719   0.463 -0.0571  0.8274 -0.6529
 1196SOL    HW215225   1.356   0.807   0.500 -1.1213 -0.7249  0.6180
 1197SOL     OW15226   3.570   1.472   7.110 -0.1895 -0.4681 -0.7080
 1197SOL    HW115227   3.561   1.434   7.197 -2.0639 -4.2074 -2.5201
 1197SOL    HW215228   3.662   1.451   7.094  0.2454  0.4383  0.6235
 1198SOL     OW15229   2.896   0.486  12.363  0.1804 -0.6023  0.4084
 1198SOL    HW115230   2.989   0.504  12.379  0.0748  1.4145 -1.3122
 1198SOL    HW215231   2.857   0.571  12.384 -0.3630 -0.9899  0.9671
 1199SOL     OW15232   3.775   2.784   7.164  0.9598  0.4101  0.4278
 1199SOL    HW115233   3.698   2.770   7.220 -0.8126 -0.5824 -2.2752
 1199SOL    HW215234   3.762   2.877   7.150  0.6839  0.2455 -0.3890
 1200SOL     OW15235   3.489   2.897   8.318 -0.5214  0.5938  0.3427
 1200SOL    HW115236   3.424   2.894   8.387 -1.2013  4.3931 -0.1398
 1200SOL    HW215237   3.521   2.809   8.301  0.9190  1.4070 -1.2304
 1201SOL     OW15238   1.233   4.662   5.525 -0.5021 -0.0884 -0.7132
 1201SOL    HW115239   1.188   4.579   5.516  1.4904 -1.2855  0.3967
 1201SOL    HW215240   1.310   4.654   5.468 -0.2417 -1.0260 -0.2245
 1202SOL     OW15241   3.516   0.648   4.166  0.4103 -0.2534 -0.4189
 1202SOL    HW115242   3.552   0.571   4.210  0.9140  1.8061  2.7562
 1202SOL    HW215243   3.579   0.657   4.095 -1.8130  0.6977 -2.2977
 1203SOL     OW15244   0.295   2.342   1.462 -0.9256  0.1719  0.1888
 1203SOL    HW115245   0.346   2.413   1.501 -1.3483 -0.0688  1.1730
 1203SOL    HW215246   0.269   2.296   1.542  1.4478 -0.3515  0.6717
 1204SOL     OW15247   2.442   4.262   7.316 -0.0518 -0.0271 -0.4867
 1204SOL    HW115248   2.452   4.273   7.222  1.9063 -0.5998 -0.3434
 1204SOL    HW215249   2.414   4.350   7.343  1.5541  0.7927 -1.5223
 1205SOL     OW15250   4.150   3.395   2.533 -0.3933 -0.6670 -0.4166
 1205SOL    HW115251   4.129   3.446   2.611  2.0172  2.2090 -1.6485
 1205SOL    HW215252   4.242   3.374   2.549 -0.5931  0.4199  2.0305
 1206SOL     OW15253   2.605   2.338   5.378 -0.0199 -1.1411 -0.1447
 1206SOL    HW115254   2.550   2.392   5.321  1.6240  0.5471 -0.1438
 1206SOL    HW215255   2.554   2.257   5.381 -0.3696 -0.8952  0.6238
 1207SOL     OW15256   1.647   3.524  14.624  0.3334  0.2318 -0.6762
 1207SOL    HW115257   1.603   3.602  14.588 -0.1623  0.1671 -0.2060
 1207SOL    HW215258   1.639   3.459  14.554 -0.1802  0.1873 -0.5789
 1208SOL     OW15259   1.207   4.171   6.321  0.3216  0.0385 -0.0653
 1208SOL    HW115260   1.116   4.197   6.306  0.5598 -0.0067 -1.6100
 1208SOL    HW215261   1.189   4.077   6.312  1.1995  0.0458 -2.0748
 1209SOL     OW15262   1.908   4.580   8.294 -0.4538 -0.3221 -0.6064
 1209SOL    HW115263   1.886   4.487   8.298 -2.2258  0.0910 -0.8084
 1209SOL    HW215264   1.983   4.573   8.235  0.8764 -0.9979  1.1683
 1210SOL     OW15265   0.920   1.058   6.394 -0.3890  0.3421  0.0529
 1210SOL    HW115266   0.874   1.002   6.457  0.4231  0.6686  0.9440
 1210SOL    HW215267   0.879   1.022   6.315  0.1637  0.0664 -0.1069
 1211SOL     OW15268   4.186   0.608   1.204  0.1200  0.1391  1.2783
 1211SOL    HW115269   4.140   0.691   1.190 -0.6431 -0.7483 -1.3901
 1211SOL    HW215270   4.118   0.542   1.206  0.3852 -0.2029 -0.6083
 1212SOL     OW15271   0.036   2.697  13.928  0.2857 -0.1224  0.0486
 1212SOL    HW115272   0.131   2.689  13.922  0.5249  1.0497  2.4053
 1212SOL    HW215273   0.015   2.772  13.872  1.6015  1.3101  1.4667
 1213SOL     OW15274   4.669   0.499   2.509 -0.2093  0.0619  0.1661
 1213SOL    HW115275   4.640   0.554   2.436  0.1357  0.4690  0.3385
 1213SOL    HW215276   4.672   0.564   2.580 -0.7944 -0.9351  1.0944
 1214SOL     OW15277   3.004   4.269   5.816 -0.6859 -0.3731 -0.3112
 1214SOL    HW115278   3.033   4.241   5.729  1.2014 -1.9296  0.8071
 1214SOL    HW215279   3.066   4.221   5.871  0.0853  0.2494 -0.6507
 1215SOL     OW15280   1.642   2.995   3.193  0.4816  0.5339 -0.3077
 1215SOL    HW115281   1.570   2.932   3.181  0.7379 -0.0910  1.5573
 1215SOL    HW215282   1.647   2.992   3.288 -1.6754  0.6083 -0.1831
 1216SOL     OW15283   3.386   2.778   3.063  0.7105 -0.2728 -0.1965
 1216SOL    HW115284   3.442   2.788   2.986 -0.3644  1.8494 -0.6945
 1216SOL    HW215285   3.440   2.721   3.119  0.3188 -1.1064 -0.6662
 1217SOL     OW15286   1.689   0.703  14.795  0.1477  0.1912 -0.1847
 1217SOL    HW115287   1.748   0.778  14.784 -0.1356  0.3574 -0.5829
 1217SOL    HW215288   1.648   0.711  14.881  1.2827  2.3076  0.1613
 1218SOL     OW15289   2.671   4.200   8.191  0.3849  0.0499 -0.1356
 1218SOL    HW115290   2.652   4.209   8.284 -0.9197 -0.5093 -0.3412
 1218SOL    HW215291   2.719   4.117   8.195  1.6270  0.7780 -0.1892
 1219SOL     OW15292   2.737   1.609   2.182  0.1194  0.5752 -0.1725
 1219SOL    HW115293   2.756   1.517   2.197 -0.3164  0.4336 -0.4839
 1219SOL    HW215294   2.820   1.647   2.155 -0.2337  0.4194 -1.4633
 1220SOL     OW15295   0.206   0.443  13.244  0.1258  0.2333 -0.6220
 1220SOL    HW115296   0.131   0.442  13.302  0.3055  0.2283 -0.3904
 1220SOL    HW215297   0.271   0.392  13.293  0.0432  0.8159  0.0870
 1221SOL     OW15298   2.828   0.475   1.835  0.1976  0.2541 -0.0351
 1221SOL    HW115299   2.785   0.448   1.753 -2.5373  0.7364  1.2323
 1221SOL    HW215300   2.766   0.451   1.904  2.5115 -2.3399  1.1549
 1222SOL     OW15301   1.430   2.940   5.946 -0.6742  0.5219  0.2328
 1222SOL    HW115302   1.344   2.898   5.937  0.2648 -1.6730  1.7123
 1222SOL    HW215303   1.401   3.031   5.949  0.1314  0.7349  1.1881
 1223SOL     OW15304   4.250   4.634   4.432  0.8632  0.0625  0.3394
 1223SOL    HW115305   4.219   4.546   4.409  0.8829 -0.1732  1.1968
 1223SOL    HW215306   4.270   4.610   4.523 -1.1503 -0.5862  0.6316
 1224SOL     OW15307   2.999   3.986   9.455 -0.1648  0.0509  0.0867
 1224SOL    HW115308   2.964   4.005   9.542  0.2997  1.7203 -0.0885
 1224SOL    HW215309   3.012   4.076   9.423 -0.2880  0.0139 -0.0638
 1225SOL     OW15310   2.591   0.604  17.337 -0.0255  0.2942  0.4893
 1225SOL    HW115311   2.508   0.556  17.326 -0.1298  1.1767 -2.5878
 1225SOL    HW215312   2.634   0.543  17.396 -1.1583 -1.7759 -0.7907
 1226SOL     OW15313   0.839   2.841   1.912 -0.1960  0.0636  0.2231
 1226SOL    HW115314   0.817   2.918   1.964  0.3617  1.4947 -1.6664
 1226SOL    HW215315   0.932   2.854   1.893 -0.5729 -0.1042 -1.7278
 1227SOL     OW15316   3.176   0.615  14.948  0.0388  0.0773  0.0085
 1227SOL    HW115317   3.128   0.627  14.866  1.3979 -0.2631 -0.8343
 1227SOL    HW215318   3.198   0.707  14.966 -0.3043 -0.1711  1.6850
 1228SOL     OW15319   2.934   2.593   5.813 -0.1256  0.2732  0.0736
 1228SOL    HW115320   3.011   2.598   5.757  0.3545 -1.6193  0.5598
 1228SOL    HW215321   2.892   2.679   5.803  2.9469  1.8270  0.4111
 1229SOL     OW15322   4.552   4.511   8.786 -0.6496 -0.3898 -0.6255
 1229SOL    HW115323   4.639   4.544   8.808  0.6982 -3.5927 -1.1193
 1229SOL    HW215324   4.530   4.555   8.704  0.9702  0.4461 -0.6095
 1230SOL     OW15325   2.260   1.147   2.739  0.5488 -0.1947 -0.3789
 1230SOL    HW115326   2.343   1.124   2.782  0.3114 -0.4569 -0.0625
 1230SOL    HW215327   2.284   1.236   2.714 -0.5641 -0.5277 -2.5865
 1231SOL     OW15328   4.007   2.679   6.853 -0.4312  0.0718 -0.3437
 1231SOL    HW115329   4.015   2.611   6.920  0.1702 -1.4850 -2.0119
 1231SOL    HW215330   4.031   2.623   6.779 -2.6152 -0.6230 -0.5121
 1232SOL     OW15331   3.774   4.642   3.976 -0.3035 -0.5670 -0.1642
 1232SOL    HW115332   3.730   4.721   3.943  0.0604 -0.3208 -0.0619
 1232SOL    HW215333   3.834   4.694   4.029 -1.5544  1.6176 -0.8491
 1233SOL     OW15334   1.732   1.556   8.614  0.4158 -0.1888 -0.1809
 1233SOL    HW115335   1.741   1.525   8.704  3.2708 -0.4205 -0.5225
 1233SOL    HW215336   1.807   1.615   8.605 -0.5096  1.2376  1.3416
 1234SOL     OW15337   0.613   3.086   4.022 -0.4847  0.4665  0.3700
 1234SOL    HW115338   0.518   3.091   4.037 -0.7887  0.7602 -1.6908
 1234SOL    HW215339   0.642   3.174   4.047  1.9934 -0.6323  1.3563
 1235SOL     OW15340   4.339   4.289   4.815  0.3163  0.7822 -0.1715
 1235SOL    HW115341   4.344   4.243   4.731  0.5025  0.4305  0.0330
 1235SOL    HW215342   4.432   4.284   4.840  0.2221  2.3566  0.5277
 1236SOL     OW15343   4.564   0.317   6.827  0.1195 -0.0219 -0.4236
 1236SOL    HW115344   4.616   0.238   6.843  1.1474  1.0527  1.5275
 1236SOL    HW215345   4.588   0.344   6.739  0.8547  0.2756 -0.1283
 1237SOL     OW15346   3.363   0.387  12.708  0.1018 -0.1084  0.1673
 1237SOL    HW115347   3.382   0.335  12.786  1.2556  0.2642  0.1427
 1237SOL    HW215348   3.450   0.427  12.709  0.1859 -0.3301  1.5192
 1238SOL     OW15349   1.502   0.463   6.576  0.5140 -0.2370  0.7051
 1238SOL    HW115350   1.533   0.537   6.524  1.3491  0.8055  2.6928
 1238SOL    HW215351   1.469   0.519   6.646  0.3178 -1.8057  1.8818
 1239SOL     OW15352   0.567   4.387   3.783 -0.0528 -0.0866 -0.0326
 1239SOL    HW115353   0.588   4.474   3.818  0.7128 -0.1027 -0.4296
 1239SOL    HW215354   0.543   4.347   3.866 -1.4359  0.1253 -0.3425
 1240SOL     OW15355   0.528   2.135   4.065 -0.2543 -0.5795 -0.0660
 1240SOL    HW115356   0.450   2.153   4.119 -0.2843 -0.9154  0.0013
 1240SOL    HW215357   0.491   2.176   3.987  1.0511 -1.5792 -1.1995
 1241SOL     OW15358   0.114   2.584   2.177  0.4889  0.4038  0.3120
 1241SOL    HW115359   0.039   2.575   2.118 -0.6297 -0.2891  1.8594
 1241SOL    HW215360   0.115   2.494   2.210 -1.9235  0.0672 -0.4980
 1242SOL     OW15361   0.580   2.548   7.307  0.6721 -0.2257 -0.2465
 1242SOL    HW115362   0.656   2.602   7.328 -0.2148  1.0827 -0.3505
 1242SOL    HW215363   0.535   2.558   7.391  2.7939  2.9016  0.4961
 1243SOL     OW15364   3.372   3.182   2.250  0.0234 -0.1389 -0.5440
 1243SOL    HW115365   3.355   3.257   2.307  0.1831 -1.4070  1.1846
 1243SOL    HW215366   3.284   3.156   2.225  1.0693  0.2536 -4.6101
 1244SOL     OW15367   2.327   3.864   3.626 -0.4650 -0.9666  0.2465
 1244SOL    HW115368   2.293   3.792   3.680 -0.7666 -0.1029  1.2009
 1244SOL    HW215369   2.257   3.876   3.562  0.8940 -1.5280 -1.3611
 1245SOL     OW15370   3.290   2.719   6.238 -0.3129 -0.3865  0.1545
 1245SOL    HW115371   3.226   2.778   6.277  1.0701  1.6278 -0.6358
 1245SOL    HW215372   3.370   2.762   6.267 -0.4591 -1.6896  2.4322
 1246SOL     OW15373   2.291   0.078   8.659 -0.5123 -0.5789 -0.0753
 1246SOL    HW115374   2.222   0.065   8.594  1.8038  1.5930 -2.9733
 1246SOL    HW215375   2.306   4.727   8.692  0.2402  0.2342  1.7840
 1247SOL     OW15376   2.267   2.781  14.930 -0.1778 -0.1790 -0.2249
 1247SOL    HW115377   2.357   2.753  14.943  0.0452  0.5555 -0.1851
 1247SOL    HW215378   2.266   2.767  14.835 -0.2191  0.9341 -0.3829
 1248SOL     OW15379   4.192   1.419  10.398  0.0520  0.1284 -0.3001
 1248SOL    HW115380   4.234   1.340  10.364  0.4075  0.3940 -0.4807
 1248SOL    HW215381   4.101   1.392  10.385 -0.1999  1.6074 -1.6624
 1249SOL     OW15382   0.042   3.843   8.565 -0.4827  0.1957  0.2285
 1249SOL    HW115383   0.096   3.780   8.518 -1.1841  0.2922 -0.6976
 1249SOL    HW215384   4.692   3.830   8.529 -0.2768 -1.1488  0.2044
 1250SOL     OW15385   2.414   3.958   1.133 -0.2217  0.2806  0.6184
 1250SOL    HW115386   2.334   3.944   1.184 -0.5963  0.6444  0.1251
 1250SOL    HW215387   2.477   3.998   1.192  0.4511  0.2327 -0.0709
 1251SOL     OW15388   0.039   2.763   1.465 -0.1917 -1.0350  0.0073
 1251SOL    HW115389   0.087   2.719   1.535 -0.5815  0.0431  0.9332
 1251SOL    HW215390   4.737   2.683   1.429 -0.4503 -1.4747  1.2636
 1252SOL     OW15391   0.819   0.088   7.302  0.6392 -0.4625 -0.6322
 1252SOL    HW115392   0.861   0.170   7.329 -1.0051  0.1896 -0.0393
 1252SOL    HW215393   0.891   0.035   7.267  0.5633 -1.2513  0.3909
 1253SOL     OW15394   2.146   3.743   9.697 -0.2322  0.0044 -0.1647
 1253SOL    HW115395   2.141   3.837   9.712 -0.6925  0.0953 -0.8940
 1253SOL    HW215396   2.095   3.706   9.769 -2.6487 -0.2378 -1.9718
 1254SOL     OW15397   4.310   2.072   9.401 -0.3416  0.3528 -0.2044
 1254SOL    HW115398   4.263   1.993   9.375  0.8785 -1.0243  1.7541
 1254SOL    HW215399   4.243   2.104   9.462 -1.0799  0.9071 -1.3171
 1255SOL     OW15400   1.983   3.266   0.265  0.3895 -0.1625 -0.0201
 1255SOL    HW115401   2.048   3.198   0.246 -0.1665 -0.4871 -0.7434
 1255SOL    HW215402   1.912   3.239   0.207  0.9201  1.7694 -1.6127
 1256SOL     OW15403   3.600   1.702  16.839  0.6666 -0.1705  0.6376
 1256SOL    HW115404   3.613   1.607  16.830 -0.3307 -0.2023 -0.5978
 1256SOL    HW215405   3.547   1.730  16.764  1.6769  1.3357  0.4981
 1257SOL     OW15406   2.436   1.211   8.357 -0.6156 -0.4888 -0.6460
 1257SOL    HW115407   2.459   1.118   8.346 -0.8825 -0.6483  0.1290
 1257SOL    HW215408   2.517   1.247   8.392 -1.5247  2.1811 -1.3510
 1258SOL     OW15409   1.209   0.777   7.318  0.3161  0.8910  0.0069
 1258SOL    HW115410   1.295   0.808   7.289  1.3501 -0.5492  1.5724
 1258SOL    HW215411   1.186   0.829   7.395 -1.2932  1.6466 -0.9908
 1259SOL     OW15412   3.881   0.585   4.155 -0.0360 -0.2403 -0.3770
 1259SOL    HW115413   3.925   0.636   4.223  2.7323 -1.7864 -1.0100
 1259SOL    HW215414   3.845   0.655   4.100 -1.3376  0.0329  0.8380
 1260SOL     OW15415   0.645   3.469   6.997  0.4529  0.4011  0.3418
 1260SOL    HW115416   0.567   3.498   7.044  0.7701  2.0739 -0.1504
 1260SOL    HW215417   0.695   3.550   6.990  1.9311 -0.6699 -1.2989
 1261SOL     OW15418   1.968   3.165  11.751 -0.1803 -0.5660  0.2975
 1261SOL    HW115419   1.918   3.090  11.720 -1.2171 -0.0389  0.6780
 1261SOL    HW215420   2.054   3.135  11.723 -0.2846 -0.2775 -0.3186
 1262SOL     OW15421   2.017   0.646   1.360 -0.3320 -0.3669 -0.0811
 1262SOL    HW115422   2.043   0.593   1.435  0.1280 -0.9395 -0.6326
 1262SOL    HW215423   2.004   0.584   1.288  1.4614  0.9194 -1.5326
 1263SOL     OW15424   3.088   3.142   7.903 -0.3157 -0.3981 -0.0561
 1263SOL    HW115425   3.057   3.078   7.839 -3.0875  1.1539 -0.2597
 1263SOL    HW215426   3.148   3.091   7.958  0.4655  0.1195 -0.4220
 1264SOL     OW15427   3.031   1.843   5.393 -0.3898 -0.4963 -0.0389
 1264SOL    HW115428   2.938   1.825   5.380 -0.1320  0.2184 -2.9212
 1264SOL    HW215429   3.064   1.757   5.418  2.4223  0.5789  0.0505
 1265SOL     OW15430   3.777   0.993   7.138 -0.5249  0.1805 -0.0091
 1265SOL    HW115431   3.778   1.078   7.183 -2.2018  0.4355 -0.4502
 1265SOL    HW215432   3.850   0.947   7.179 -0.3113  0.5698  0.0495
 1266SOL     OW15433   3.822   0.761   6.061  0.3897 -0.6394  0.4133
 1266SOL    HW115434   3.752   0.703   6.032 -1.2791  1.7713 -0.3653
 1266SOL    HW215435   3.886   0.696   6.090  1.7966  0.4890 -0.2128
 1267SOL     OW15436   1.622   0.214   8.382 -0.5293 -0.0490  0.1537
 1267SOL    HW115437   1.533   0.227   8.348  0.5235  0.8330 -2.2552
 1267SOL    HW215438   1.669   0.189   8.303  1.8741  0.1894  1.5162
 1268SOL     OW15439   1.187   3.191   5.520  0.1413  0.3147 -0.1304
 1268SOL    HW115440   1.097   3.177   5.490  0.2379 -0.2515 -0.1537
 1268SOL    HW215441   1.186   3.267   5.578 -1.9685 -0.2718  0.6315
 1269SOL     OW15442   4.037   1.612   3.923 -0.2512  0.1091 -0.0616
 1269SOL    HW115443   4.013   1.520   3.914 -0.2501  0.1799 -0.7445
 1269SOL    HW215444   4.083   1.627   3.841 -0.9015  1.2206 -0.2180
 1270SOL     OW15445   2.004   2.701   7.540 -0.2735 -0.2210 -0.3169
 1270SOL    HW115446   2.080   2.643   7.544  0.3918  0.6024 -1.1153
 1270SOL    HW215447   2.034   2.762   7.473 -0.1321  0.0922  0.0323
 1271SOL     OW15448   0.623   2.318  14.477  0.3515 -0.5839  0.5118
 1271SOL    HW115449   0.660   2.355  14.557  1.4218  1.5326 -0.9765
 1271SOL    HW215450   0.697   2.307  14.417 -0.3021  1.0399 -0.6127
 1272SOL     OW15451   2.700   4.516  10.517 -0.4849 -0.2721  0.0774
 1272SOL    HW115452   2.774   4.455  10.522  0.9064  1.7079  3.3620
 1272SOL    HW215453   2.644   4.484  10.588  1.9775  1.3915  2.7563
 1273SOL     OW15454   3.235   0.891   3.037 -0.1617 -0.0523 -0.0239
 1273SOL    HW115455   3.155   0.874   2.986  0.0297  0.4853 -0.5009
 1273SOL    HW215456   3.291   0.924   2.967  0.8406  0.8732  1.2297
 1274SOL     OW15457   4.034   0.915  12.306  0.3053  0.8055  0.1757
 1274SOL    HW115458   4.099   0.895  12.373  0.7056  1.7467  0.0669
 1274SOL    HW215459   3.981   0.836  12.317  2.3843 -0.6245 -0.2218
 1275SOL     OW15460   3.241   1.214   4.263 -0.0302  0.3466  0.3744
 1275SOL    HW115461   3.289   1.179   4.338 -1.4094  0.7119  1.4324
 1275SOL    HW215462   3.301   1.284   4.237  0.7608  0.5859  2.8433
 1276SOL     OW15463   0.629   3.652   3.044 -0.2143 -0.1609 -0.1856
 1276SOL    HW115464   0.553   3.639   3.101 -0.9462  2.0981 -0.6785
 1276SOL    HW215465   0.673   3.567   3.056  0.4275  0.1071 -0.5975
 1277SOL     OW15466   3.810   0.648  17.528  0.2479 -0.0124 -0.1610
 1277SOL    HW115467   3.839   0.559  17.551  0.3026 -0.0877 -0.5243
 1277SOL    HW215468   3.717   0.623  17.528 -0.8848  4.3325 -1.3736
 1278SOL     OW15469   0.229   3.422   6.478 -0.2327  0.0280  0.5180
 1278SOL    HW115470   0.308   3.378   6.448 -0.2115  1.5687 -1.6632
 1278SOL    HW215471   0.183   3.357   6.532  0.4230  1.2990  2.6260
 1279SOL     OW15472   0.444   2.169  17.518 -0.5044  0.4348 -0.3594
 1279SOL    HW115473   0.462   2.228  17.592 -0.2759 -0.6737  0.4707
 1279SOL    HW215474   0.463   2.216  17.437 -0.1483 -0.6599 -0.9048
 1280SOL     OW15475   0.641   2.745   0.281  0.3030  0.1946 -0.0190
 1280SOL    HW115476   0.714   2.705   0.234  0.6129  1.6582 -0.7837
 1280SOL    HW215477   0.662   2.836   0.264 -0.0045  0.4811  1.1384
 1281SOL     OW15478   0.335   2.014   2.035 -0.6014 -0.1826  0.5249
 1281SOL    HW115479   0.347   1.921   2.050 -0.2698 -0.3241 -0.5500
 1281SOL    HW215480   0.337   2.021   1.939 -0.4590  0.1846  0.5523
 1282SOL     OW15481   4.035   3.349   3.777 -0.3140  0.2011  0.8397
 1282SOL    HW115482   3.940   3.350   3.786 -0.6434  1.9159 -3.0281
 1282SOL    HW215483   4.052   3.391   3.693 -0.2715 -0.0377  0.7281
 1283SOL     OW15484   3.209   0.798   8.037  0.1031  0.1495  0.0026
 1283SOL    HW115485   3.296   0.829   8.015 -0.0625  0.4822 -0.1824
 1283SOL    HW215486   3.161   0.832   7.961  1.5652  1.0809 -0.4995
 1284SOL     OW15487   3.452   0.856   5.541  0.1292 -1.2096 -0.5467
 1284SOL    HW115488   3.375   0.910   5.521  2.6618  2.5007 -0.3583
 1284SOL    HW215489   3.509   0.904   5.481  2.9309 -1.8388  1.5961
 1285SOL     OW15490   2.432   3.875   7.806 -0.3284  0.5584  1.0738
 1285SOL    HW115491   2.409   3.844   7.893  0.2207 -0.1314  0.9766
 1285SOL    HW215492   2.465   3.794   7.768 -0.3350  0.4901  1.2154
 1286SOL     OW15493   0.719   3.454   3.693 -0.3035 -0.4128  0.2347
 1286SOL    HW115494   0.719   3.530   3.634 -1.8828 -1.0256 -0.5590
 1286SOL    HW215495   0.809   3.425   3.677  0.1225 -0.9619  3.6268
 1287SOL     OW15496   3.114   0.621   0.734 -0.4735  0.1271 -0.0628
 1287SOL    HW115497   3.156   0.678   0.798 -1.3433  0.1488  0.4929
 1287SOL    HW215498   3.040   0.587   0.783 -0.7859  0.7135 -0.1318
 1288SOL     OW15499   2.018   0.232   5.738 -0.3045 -0.3593  0.1430
 1288SOL    HW115500   2.015   0.149   5.786 -1.3524 -0.0492  0.6098
 1288SOL    HW215501   2.079   0.202   5.670 -1.6330  3.1759 -2.6150
 1289SOL     OW15502   2.257   1.011   5.026 -0.0513  0.4156 -0.0576
 1289SOL    HW115503   2.269   0.940   5.089 -2.4425 -0.3320 -0.4348
 1289SOL    HW215504   2.263   0.972   4.939  1.0156  0.6522 -0.0861
 1290SOL     OW15505   1.502   4.244   9.188  0.2570 -0.1004 -0.2217
 1290SOL    HW115506   1.417   4.251   9.233  1.1787  0.1962  1.4567
 1290SOL    HW215507   1.561   4.254   9.262  0.1840  0.6613 -0.2706
 1291SOL     OW15508   3.492   3.559   5.009 -0.4801  0.3358  0.3580
 1291SOL    HW115509   3.521   3.597   4.926 -0.3882  2.2961  1.2795
 1291SOL    HW215510   3.441   3.483   4.981 -1.0536  0.8886 -0.0840
 1292SOL     OW15511   2.896   3.898  11.828  0.1741  0.2438  0.5546
 1292SOL    HW115512   2.835   3.826  11.813 -1.3968  1.6851 -0.0988
 1292SOL    HW215513   2.968   3.880  11.768  0.4993  1.1301  0.6823
 1293SOL     OW15514   1.726   2.784   8.276  0.2195 -0.7449 -0.0968
 1293SOL    HW115515   1.794   2.721   8.301 -1.0893 -1.4323  1.7442
 1293SOL    HW215516   1.656   2.733   8.236 -0.5046 -0.6348  1.0091
 1294SOL     OW15517   2.839   0.300   9.089 -0.6052  0.1622 -0.4934
 1294SOL    HW115518   2.889   0.232   9.044  0.6821  0.9100 -0.1844
 1294SOL    HW215519   2.908   0.337   9.144  0.9773 -1.1762 -1.5845
 1295SOL     OW15520   1.057   0.496  14.450 -0.5851 -0.1900  0.1545
 1295SOL    HW115521   1.005   0.462  14.523  0.5296  0.2934  1.1726
 1295SOL    HW215522   1.075   0.581  14.489  2.1114  0.5951 -2.7827
 1296SOL     OW15523   1.322   1.329  10.785 -0.5436 -0.4312  0.0003
 1296SOL    HW115524   1.300   1.273  10.710  0.2955  0.7637 -1.1286
 1296SOL    HW215525   1.416   1.317  10.770 -0.4732 -0.6374  0.5837
 1297SOL     OW15526   4.628   0.285   8.931  0.3596 -0.0306 -0.2906
 1297SOL    HW115527   4.602   0.200   8.966  1.2453 -0.1028  0.2088
 1297SOL    HW215528   4.549   0.338   8.919 -0.0868 -0.4161  1.0063
 1298SOL     OW15529   0.441   0.577   3.334  0.1947  0.2061  0.3220
 1298SOL    HW115530   0.529   0.603   3.361  0.4196 -1.5671  1.3003
 1298SOL    HW215531   0.417   0.659   3.289 -3.9875 -0.0524  2.0871
 1299SOL     OW15532   0.280   3.873   4.810  0.0992  0.5640 -0.5960
 1299SOL    HW115533   0.264   3.788   4.770 -0.2215  0.3427 -0.0024
 1299SOL    HW215534   0.189   3.893   4.830  0.2423 -1.1241  1.6965
 1300SOL     OW15535   0.368   1.700  14.533  0.0488 -0.2332 -0.6928
 1300SOL    HW115536   0.370   1.795  14.541 -1.2750 -0.5067  2.8610
 1300SOL    HW215537   0.278   1.671  14.519 -0.0857 -0.5842  0.9083
 1301SOL     OW15538   2.059   1.857  11.493 -0.5486 -0.0086 -0.9691
 1301SOL    HW115539   2.003   1.839  11.417 -1.9592  3.1423 -0.7081
 1301SOL    HW215540   2.134   1.891  11.445  0.9625  0.4274  1.7460
 1302SOL     OW15541   4.146   0.042   9.665 -0.0127  0.1775 -0.1732
 1302SOL    HW115542   4.172   0.127   9.629  1.4350  0.1843  0.8915
 1302SOL    HW215543   4.066   0.061   9.713  0.7594  0.5084  0.9811
 1303SOL     OW15544   1.054   2.200   3.400 -0.2815 -0.4361 -0.4434
 1303SOL    HW115545   1.022   2.170   3.315 -0.3935 -0.4150 -0.4082
 1303SOL    HW215546   1.103   2.281   3.384  0.8025 -0.7443  1.3423
 1304SOL     OW15547   1.283   4.341   5.308  0.0124 -0.0697 -0.1810
 1304SOL    HW115548   1.272   4.413   5.246  2.1762  0.9489  0.6328
 1304SOL    HW215549   1.361   4.373   5.354 -0.0138 -1.6493  0.9434
 1305SOL     OW15550   3.967   0.801   5.563 -0.1078  0.2416  0.0868
 1305SOL    HW115551   3.902   0.811   5.632  0.4598 -0.0586  0.6697
 1305SOL    HW215552   3.965   0.706   5.547  0.8272  0.0461  1.1194
 1306SOL     OW15553   2.627   2.345   4.339 -0.1091  0.2169  0.5951
 1306SOL    HW115554   2.609   2.388   4.256 -0.7933 -1.0216  0.0970
 1306SOL    HW215555   2.564   2.386   4.397 -0.0003  1.5529 -0.2358
 1307SOL     OW15556   2.618   1.924   4.706 -0.4995 -0.0864  1.0132
 1307SOL    HW115557   2.666   1.916   4.789  1.1559 -1.5230 -0.0922
 1307SOL    HW215558   2.578   2.010   4.716  1.1732  0.7729  0.1394
 1308SOL     OW15559   0.644   2.242   4.965 -0.3193 -0.0230 -0.4782
 1308SOL    HW115560   0.707   2.263   4.895  0.8267  1.7592  1.0640
 1308SOL    HW215561   0.611   2.329   4.990 -1.0897  0.0961 -1.8826
 1309SOL     OW15562   2.417   2.392   0.140  0.0674 -0.1359 -0.6616
 1309SOL    HW115563   2.464   2.454   0.196  1.4346 -2.0034  0.2626
 1309SOL    HW215564   2.342   2.367   0.195 -0.4650 -0.2993 -1.4722
 1310SOL     OW15565   0.132   2.976  17.212  0.6343 -0.1991 -0.2618
 1310SOL    HW115566   0.177   2.902  17.252 -2.8269 -1.7652  0.6682
 1310SOL    HW215567   0.164   2.984  17.122 -0.3821  0.5474 -0.5606
 1311SOL     OW15568   4.563   0.983   4.551  0.6099 -0.0425  0.3217
 1311SOL    HW115569   4.476   0.944   4.562  1.5458 -2.4362 -0.7315
 1311SOL    HW215570   4.537   1.072   4.527  0.2288 -0.4093 -0.6614
 1312SOL     OW15571   0.290   2.826   8.066 -0.3656  0.9077  0.7080
 1312SOL    HW115572   0.228   2.775   8.118 -0.8527 -0.0502 -0.8148
 1312SOL    HW215573   0.253   2.817   7.979  2.6087 -0.4875 -0.4300
 1313SOL     OW15574   3.710   2.619   4.021  0.4547  0.0309 -0.8130
 1313SOL    HW115575   3.767   2.695   4.004 -0.8923  1.1803 -0.1696
 1313SOL    HW215576   3.718   2.564   3.943  2.4810 -2.6710  1.3434
 1314SOL     OW15577   2.349   2.550  14.150 -0.0932  0.5705  0.1920
 1314SOL    HW115578   2.326   2.623  14.092 -1.8514  1.0277  1.4686
 1314SOL    HW215579   2.407   2.597  14.209 -1.4964  1.3326  0.9685
 1315SOL     OW15580   4.281   1.455  15.251  0.0255 -0.4781  0.0783
 1315SOL    HW115581   4.356   1.473  15.194 -0.9196 -0.9492 -1.2913
 1315SOL    HW215582   4.302   1.364  15.271 -0.2309 -0.9377 -1.7505
 1316SOL     OW15583   1.556   2.031   3.012 -0.5197  0.2948  0.3450
 1316SOL    HW115584   1.622   2.039   2.943 -0.5518 -1.0467  0.1560
 1316SOL    HW215585   1.609   2.077   3.077  0.1032  0.1893 -0.0863
 1317SOL     OW15586   0.437   4.075   4.915 -0.6326 -0.4323  0.5531
 1317SOL    HW115587   0.367   4.011   4.903 -2.0692  1.2311  0.1575
 1317SOL    HW215588   0.510   4.019   4.943 -1.3434 -1.3105  0.6613
 1318SOL     OW15589   3.480   4.437  16.775  0.0021 -0.4312 -0.0666
 1318SOL    HW115590   3.472   4.503  16.706  0.5595  0.8109  1.0549
 1318SOL    HW215591   3.521   4.360  16.737  0.6433  1.5601 -3.3878
 1319SOL     OW15592   2.520   0.837   4.276  0.0539  0.4019 -0.6289
 1319SOL    HW115593   2.559   0.774   4.215  2.2341  0.3033  0.8656
 1319SOL    HW215594   2.520   0.921   4.230  1.1178  2.2911  2.8126
 1320SOL     OW15595   2.186   3.358   1.721  0.1295 -0.2547  0.4547
 1320SOL    HW115596   2.110   3.301   1.707  0.1783 -0.1660 -0.1842
 1320SOL    HW215597   2.138   3.440   1.735  0.8765  0.1403  0.6670
 1321SOL     OW15598   3.325   1.838   6.034 -0.2042  0.1676 -0.1087
 1321SOL    HW115599   3.251   1.846   6.094  1.3729  0.1178  1.8395
 1321SOL    HW215600   3.390   1.805   6.097 -0.0338 -1.4379 -1.1117
 1322SOL     OW15601   2.422   3.915   4.488  0.5292 -0.3541  0.1125
 1322SOL    HW115602   2.337   3.955   4.472  0.1321 -0.3244  2.2826
 1322SOL    HW215603   2.477   3.985   4.523  0.2483  0.1650 -0.4914
 1323SOL     OW15604   3.922   2.053   1.555  0.1491  0.5717 -0.3551
 1323SOL    HW115605   3.832   2.064   1.586  0.3165  1.1325 -0.0686
 1323SOL    HW215606   3.957   2.137   1.583  3.0047 -0.3282 -1.3158
 1324SOL     OW15607   3.882   2.132   5.408  0.3771  0.0192 -0.1015
 1324SOL    HW115608   3.890   2.090   5.323  1.0015 -2.4782  1.2155
 1324SOL    HW215609   3.833   2.210   5.382  1.8056  0.3243 -1.8558
 1325SOL     OW15610   3.471   1.138   2.981 -0.0920 -0.2860 -0.2665
 1325SOL    HW115611   3.471   1.076   2.908 -0.3236  1.5282 -1.8229
 1325SOL    HW215612   3.527   1.097   3.045  0.8442  1.3157 -0.0533
 1326SOL     OW15613   3.073   4.206   5.557 -0.4931 -0.2856 -0.5108
 1326SOL    HW115614   3.138   4.138   5.574 -0.2413 -0.0952 -0.7079
 1326SOL    HW215615   3.055   4.177   5.467  2.1340  1.2199 -1.5153
 1327SOL     OW15616   2.859   3.468  10.685 -0.7378  0.4987 -0.9578
 1327SOL    HW115617   2.918   3.440  10.756 -1.7437  2.9679  0.8707
 1327SOL    HW215618   2.810   3.391  10.657  0.3999  0.2982 -2.3741
 1328SOL     OW15619   2.720   3.338   7.296 -0.1187  0.2775  0.2279
 1328SOL    HW115620   2.678   3.423   7.286  0.6176  0.7436  1.1291
 1328SOL    HW215621   2.788   3.347   7.229 -0.6769 -1.3129 -0.5567
 1329SOL     OW15622   1.235   4.188   5.528  0.2186 -0.3351 -0.2888
 1329SOL    HW115623   1.243   4.218   5.437  0.0518 -0.3770 -0.3179
 1329SOL    HW215624   1.186   4.263   5.562 -0.9734 -0.9855 -0.5637
 1330SOL     OW15625   2.870   3.205  15.194  0.5157 -0.1999  0.1028
 1330SOL    HW115626   2.782   3.189  15.159  0.6819 -1.4188  0.2756
 1330SOL    HW215627   2.898   3.275  15.134  0.7230  0.9676  1.5611
 1331SOL     OW15628   2.043   0.183   2.944 -0.2947 -0.5446  0.2912
 1331SOL    HW115629   1.968   0.147   2.992  1.1253  0.2322  3.0867
 1331SOL    HW215630   2.063   0.112   2.884  0.1018 -0.1917  0.0026
 1332SOL     OW15631   0.043   1.040   4.274 -0.7204  0.0901 -0.0533
 1332SOL    HW115632   4.705   0.991   4.240 -0.4461  1.0749 -2.0433
 1332SOL    HW215633   0.028   1.018   4.366  0.5819 -0.6409 -0.0229
 1333SOL     OW15634   1.953   0.918   7.502 -0.1420  0.2341  0.1686
 1333SOL    HW115635   1.961   0.908   7.597 -1.1400  1.5283  0.3838
 1333SOL    HW215636   1.960   1.013   7.506  1.1535  0.1789 -0.9542
 1334SOL     OW15637   3.954   1.623  11.576  0.3019 -0.0358  0.6988
 1334SOL    HW115638   3.888   1.559  11.603 -0.5535 -0.5102 -2.6427
 1334SOL    HW215639   4.028   1.569  11.548  0.6342  1.5669 -1.4676
 1335SOL     OW15640   3.825   3.762   3.899  0.1867 -0.5135  0.3237
 1335SOL    HW115641   3.873   3.747   3.818  2.8722  0.0741  1.8254
 1335SOL    HW215642   3.749   3.808   3.865  0.0514 -1.4067 -0.5894
 1336SOL     OW15643   2.839   0.121   2.414  0.4774  0.0723 -0.0430
 1336SOL    HW115644   2.909   0.186   2.418  2.1565 -1.7531 -0.0117
 1336SOL    HW215645   2.890   0.045   2.384  0.6971  0.1045  0.2453
 1337SOL     OW15646   4.129   3.740   8.193  0.1168 -0.4242 -0.0787
 1337SOL    HW115647   4.182   3.754   8.114  0.8077  1.2824  0.6996
 1337SOL    HW215648   4.110   3.828   8.227 -0.4880 -0.4276 -0.4130
 1338SOL     OW15649   1.047   4.067  10.550  0.5610  0.5662  0.2452
 1338SOL    HW115650   1.060   3.974  10.564 -0.7048  0.6899  2.1500
 1338SOL    HW215651   1.136   4.100  10.539  1.0760 -0.2644  2.0826
 1339SOL     OW15652   3.051   3.580   8.283 -0.1232 -0.4707 -0.5089
 1339SOL    HW115653   3.134   3.546   8.251  0.3790  0.4587 -0.1919
 1339SOL    HW215654   3.035   3.524   8.359 -0.1095 -0.0456 -0.1899
 1340SOL     OW15655   4.146   0.622  14.645 -0.4228 -0.4504  0.3056
 1340SOL    HW115656   4.224   0.592  14.691  2.2561  3.5424 -1.6409
 1340SOL    HW215657   4.162   0.611  14.551  3.1332 -0.9874  0.9864
 1341SOL     OW15658   2.608   2.477  12.592  0.5254 -0.3292  0.0137
 1341SOL    HW115659   2.645   2.463  12.679 -1.5111  0.8275  1.0711
 1341SOL    HW215660   2.679   2.534  12.563  0.9023 -0.7044  0.2144
 1342SOL     OW15661   1.104   2.195  12.283  0.4011  0.2998  0.3150
 1342SOL    HW115662   1.053   2.264  12.327 -1.0200 -0.6730  0.1845
 1342SOL    HW215663   1.141   2.144  12.355 -0.7687 -0.1249  0.6284
 1343SOL     OW15664   2.475   2.407  17.392 -0.1674  0.0481 -0.1404
 1343SOL    HW115665   2.493   2.314  17.383  0.4854  0.0799  0.8585
 1343SOL    HW215666   2.563   2.443  17.377 -0.5292  0.8324 -0.3976
 1344SOL     OW15667   2.265   4.491  12.631  0.1474 -0.3259 -0.3998
 1344SOL    HW115668   2.268   4.558  12.563 -2.3519 -0.4126 -0.6016
 1344SOL    HW215669   2.224   4.419  12.584  0.2243 -1.4608  1.2634
 1345SOL     OW15670   2.849   0.491  10.244 -0.3048 -0.0667  0.0448
 1345SOL    HW115671   2.834   0.402  10.277  0.2211  0.4444  1.6831
 1345SOL    HW215672   2.933   0.485  10.200 -2.1463 -0.6203 -3.4024
 1346SOL     OW15673   0.070   1.922   5.596  0.1550 -0.1687  0.3349
 1346SOL    HW115674   0.058   1.853   5.662  1.2736 -0.3628  0.3338
 1346SOL    HW215675   4.716   1.945   5.582  0.4644 -0.0322 -1.4940
 1347SOL     OW15676   2.965   1.791   0.453 -0.6126 -0.7602  0.1562
 1347SOL    HW115677   2.981   1.839   0.372 -0.9784  0.0602  0.5771
 1347SOL    HW215678   2.985   1.855   0.521 -2.9964  1.4444 -1.2534
 1348SOL     OW15679   1.286   3.926  13.077 -0.8812 -0.1341  0.3733
 1348SOL    HW115680   1.255   3.981  13.004  2.4800  2.5716  0.9622
 1348SOL    HW215681   1.298   3.994  13.144  2.1593 -0.5784  0.3166
 1349SOL     OW15682   1.652   2.999   2.780  0.5965 -0.1891  0.2307
 1349SOL    HW115683   1.744   3.005   2.753  0.4603  0.9510 -0.0075
 1349SOL    HW215684   1.658   3.043   2.865 -1.6619 -0.5156  0.5353
 1350SOL     OW15685   3.057   3.461  14.690  0.3756 -0.3422  0.5199
 1350SOL    HW115686   3.111   3.383  14.674  3.2558  1.9649 -1.0474
 1350SOL    HW215687   3.027   3.483  14.602  0.5251 -1.9480  0.0582
 1351SOL     OW15688   3.073   1.183   9.652  0.2148  0.0246 -0.0284
 1351SOL    HW115689   3.039   1.259   9.699 -0.7583  0.9353 -2.2608
 1351SOL    HW215690   3.166   1.195   9.630  0.2572 -0.8558 -0.3516
 1352SOL     OW15691   2.658   4.216   1.899 -0.0885 -0.2844  0.3619
 1352SOL    HW115692   2.726   4.188   1.838 -0.1572  1.3396 -0.4776
 1352SOL    HW215693   2.666   4.310   1.880 -3.6131  0.2115  1.2990
 1353SOL     OW15694   3.064   1.908   1.520 -0.7064 -0.4423 -0.4126
 1353SOL    HW115695   3.111   1.891   1.438  0.8499 -1.0536  0.6203
 1353SOL    HW215696   3.134   1.867   1.571 -1.4463 -0.6968  0.3815
 1354SOL     OW15697   4.243   2.257   4.172 -0.4599 -0.0547  0.2978
 1354SOL    HW115698   4.230   2.165   4.146 -2.7652  0.2783  0.3027
 1354SOL    HW215699   4.292   2.248   4.254 -1.3265  1.1398  0.9390
 1355SOL     OW15700   3.872   3.810   6.457  0.1213  0.1490  0.2344
 1355SOL    HW115701   3.952   3.840   6.499 -2.6519  3.3456  3.2239
 1355SOL    HW215702   3.819   3.890   6.465 -0.9008 -0.5897  0.9172
 1356SOL     OW15703   0.149   4.051   3.037 -0.1016 -0.0413 -0.5893
 1356SOL    HW115704   0.208   4.039   3.111 -0.2773 -0.8609 -0.5841
 1356SOL    HW215705   0.077   4.102   3.074  0.9357  0.4328  0.7957
 1357SOL     OW15706   0.870   0.416  14.642 -0.6461  0.1710  0.3045
 1357SOL    HW115707   0.783   0.432  14.606 -0.9660 -3.2738 -0.3868
 1357SOL    HW215708   0.844   0.355  14.711  0.0381  1.3693  1.6442
 1358SOL     OW15709   3.695   0.213   7.106  0.0629 -0.6289 -0.2345
 1358SOL    HW115710   3.778   0.219   7.153  0.7102  0.2255 -1.4715
 1358SOL    HW215711   3.631   0.241   7.171  0.3739 -0.2597 -0.0926
 1359SOL     OW15712   4.625   4.513   3.543 -0.0868  0.2194 -0.2782
 1359SOL    HW115713   4.649   4.426   3.576 -1.6292  0.2262  0.8388
 1359SOL    HW215714   4.609   4.487   3.452  0.4587 -0.1641 -0.2668
 1360SOL     OW15715   1.893   1.806   3.172  0.3782 -0.1904 -0.1209
 1360SOL    HW115716   1.810   1.786   3.213 -0.5532 -1.1243 -2.4651
 1360SOL    HW215717   1.952   1.737   3.201 -0.1973 -0.6672 -0.1084
 1361SOL     OW15718   2.411   3.044   8.323  0.1282 -0.3270 -0.9379
 1361SOL    HW115719   2.406   3.109   8.392  1.0397 -1.7729  0.5070
 1361SOL    HW215720   2.318   3.034   8.303 -0.1823 -1.5975  1.0932
 1362SOL     OW15721   1.811   4.620   1.495 -0.3574  0.5784 -0.0036
 1362SOL    HW115722   1.890   4.623   1.549  0.1663 -2.5206 -0.6353
 1362SOL    HW215723   1.789   4.712   1.513  0.7894  0.9280 -0.3439
 1363SOL     OW15724   2.590   0.855   6.515  0.5106 -0.4015 -0.2955
 1363SOL    HW115725   2.617   0.820   6.430 -0.3285 -0.3350 -0.5876
 1363SOL    HW215726   2.551   0.932   6.473  1.4634 -0.2338 -0.8832
 1364SOL     OW15727   2.400   3.059   4.604 -0.5634  0.1553  0.6208
 1364SOL    HW115728   2.472   3.001   4.627 -1.6239 -1.3326  0.1973
 1364SOL    HW215729   2.388   3.105   4.687 -1.5383  2.9394 -1.0612
 1365SOL     OW15730   2.213   1.564  16.558  0.0430  0.4817 -0.1097
 1365SOL    HW115731   2.131   1.517  16.576 -1.9277  3.2443 -1.7179
 1365SOL    HW215732   2.268   1.525  16.625 -0.3710 -0.8271 -0.5355
 1366SOL     OW15733   4.534   2.506   3.983  0.2021  0.0525  0.4163
 1366SOL    HW115734   4.557   2.414   3.995 -0.8812 -0.2764 -0.0570
 1366SOL    HW215735   4.452   2.490   3.937 -0.9575  0.9699  2.1904
 1367SOL     OW15736   4.001   0.971   0.395 -0.6316 -0.0719 -0.0020
 1367SOL    HW115737   4.057   0.984   0.318 -1.6233  0.3717 -0.6497
 1367SOL    HW215738   4.050   1.017   0.463  0.1290  0.1587 -0.7114
 1368SOL     OW15739   0.549   1.338   5.026 -0.1472  0.3499 -0.3419
 1368SOL    HW115740   0.548   1.421   4.978 -3.1590  2.0221  2.6388
 1368SOL    HW215741   0.456   1.315   5.030  0.7493 -3.4113 -1.3022
 1369SOL     OW15742   2.837   1.733   8.841 -0.6670 -0.2255  0.3251
 1369SOL    HW115743   2.760   1.788   8.826 -0.3285  0.6933  1.9284
 1369SOL    HW215744   2.876   1.766   8.923 -0.2828  1.7168 -0.6398
 1370SOL     OW15745   2.934   1.593  14.688  0.1937 -0.5486  0.0696
 1370SOL    HW115746   2.952   1.515  14.636  2.7496  0.8477 -1.1147
 1370SOL    HW215747   2.940   1.655  14.615  1.9317 -1.3816 -0.4778
 1371SOL     OW15748   0.560   3.422   8.572  0.0392  0.5778 -0.3034
 1371SOL    HW115749   0.618   3.487   8.534 -0.7540  1.4174 -0.0837
 1371SOL    HW215750   0.535   3.449   8.661  1.3312 -0.8357  0.4896
 1372SOL     OW15751   1.316   3.132   9.620 -0.1461  0.8209 -0.0378
 1372SOL    HW115752   1.379   3.179   9.675 -0.2426  0.6912  0.1858
 1372SOL    HW215753   1.281   3.069   9.684  1.8145  3.0624  3.2949
 1373SOL     OW15754   0.158   3.757   2.916  0.5244  0.1371  0.2550
 1373SOL    HW115755   0.148   3.850   2.934  1.1585  0.3454 -0.4578
 1373SOL    HW215756   0.253   3.749   2.928  0.5032  1.2047  1.1463
 1374SOL     OW15757   0.038   0.050  14.141 -0.2884  0.3285  0.2136
 1374SOL    HW115758   4.721   0.001  14.204 -1.5935  2.1375  0.4842
 1374SOL    HW215759   0.063   0.117  14.205  0.8973  0.2897 -0.2179
 1375SOL     OW15760   3.608   4.127  16.779  0.2923 -0.1071 -0.0974
 1375SOL    HW115761   3.646   4.127  16.867 -0.6452 -0.7489  0.3085
 1375SOL    HW215762   3.607   4.035  16.753  0.8911  0.0670 -0.7124
 1376SOL     OW15763   3.746   0.707   3.969 -0.1026  0.5673  0.0742
 1376SOL    HW115764   3.716   0.622   3.939 -1.2615  1.4403 -1.2180
 1376SOL    HW215765   3.802   0.740   3.899  1.4091  0.5441  1.2555
 1377SOL     OW15766   1.140   1.153   3.868  0.2621 -0.3005  0.0343
 1377SOL    HW115767   1.206   1.182   3.805 -0.8546  1.4039 -0.3561
 1377SOL    HW215768   1.144   1.063   3.838 -0.3633 -0.3899  0.2148
 1378SOL     OW15769   4.259   3.042   6.196 -0.6319  0.6175 -0.1700
 1378SOL    HW115770   4.194   3.074   6.257 -0.2802 -1.2984  1.2101
 1378SOL    HW215771   4.216   3.047   6.111  0.6456  2.4041 -0.7094
 1379SOL     OW15772   0.383   4.691   5.766  0.1529  0.5110 -0.1436
 1379SOL    HW115773   0.326   4.690   5.688  2.8591  3.6808 -2.1311
 1379SOL    HW215774   0.445   0.018   5.734  2.6419 -1.8117  0.0112
 1380SOL     OW15775   2.555   2.612   3.017 -0.2703 -0.4293 -0.0041
 1380SOL    HW115776   2.507   2.645   2.941 -1.6894 -0.7864  0.7369
 1380SOL    HW215777   2.626   2.675   3.029 -1.5790  1.0553 -0.0013
 1381SOL     OW15778   4.634   0.363   6.004  0.0179 -0.1433 -0.0101
 1381SOL    HW115779   4.588   0.429   6.055 -1.9608  0.0004 -1.9924
 1381SOL    HW215780   4.612   0.285   6.055  2.2509  0.0089  1.1949
 1382SOL     OW15781   2.720   1.915   0.915 -0.1440 -0.4065  0.4986
 1382SOL    HW115782   2.637   1.891   0.874  0.0383 -1.5170  0.7875
 1382SOL    HW215783   2.693   1.936   1.004  0.7853 -1.2386  0.9820
 1383SOL     OW15784   3.254   4.433   8.638 -0.3774  0.2029  0.5502
 1383SOL    HW115785   3.294   4.366   8.694  1.6974  1.0230  0.0516
 1383SOL    HW215786   3.261   4.505   8.699 -0.6160 -0.2287  1.0846
 1384SOL     OW15787   3.271   3.437  15.231  0.3424 -0.1924 -0.2533
 1384SOL    HW115788   3.258   3.343  15.225  1.8054 -0.4463  0.4511
 1384SOL    HW215789   3.231   3.457  15.316  3.7793 -0.5977  1.4666
 1385SOL     OW15790   4.666   0.581   8.855 -0.4088 -0.2662  0.1138
 1385SOL    HW115791   4.572   0.584   8.872 -0.2861 -0.5930  0.8587
 1385SOL    HW215792   4.691   0.497   8.893  0.4345 -0.4240 -0.7989
 1386SOL     OW15793   3.153   2.905   0.202  0.2118  0.1294 -0.2153
 1386SOL    HW115794   3.169   2.840   0.134  0.5710 -0.4597  0.4358
 1386SOL    HW215795   3.241   2.931   0.229  0.4030  0.4787 -1.1471
 1387SOL     OW15796   3.225   2.243  15.595  0.3975 -0.4226 -0.6002
 1387SOL    HW115797   3.169   2.211  15.524 -1.6202  0.4687  0.5890
 1387SOL    HW215798   3.218   2.337  15.579 -2.1724 -0.4745  0.2300
 1388SOL     OW15799   0.948   2.006   3.890 -0.1754  0.1079  0.4506
 1388SOL    HW115800   0.919   1.914   3.884  0.4526  0.0347 -1.3638
 1388SOL    HW215801   1.026   1.988   3.838 -0.7237 -1.4915  0.1737
 1389SOL     OW15802   2.515   3.248   6.283  0.2827  0.1583  0.2154
 1389SOL    HW115803   2.449   3.190   6.245 -0.7327  1.5265 -0.1275
 1389SOL    HW215804   2.581   3.266   6.217 -0.7899 -2.7107 -1.6208
 1390SOL     OW15805   0.782   1.724   8.605  0.2054  0.1262  0.2316
 1390SOL    HW115806   0.846   1.717   8.676  0.0541  0.1273  0.3690
 1390SOL    HW215807   0.785   1.819   8.589  2.3392 -0.2081 -1.3598
 1391SOL     OW15808   1.519   2.525   8.150 -0.1551 -0.1550 -0.4057
 1391SOL    HW115809   1.488   2.592   8.089 -0.0286 -0.0478 -0.3515
 1391SOL    HW215810   1.457   2.452   8.144  0.2432 -0.5903  0.6746
 1392SOL     OW15811   0.889   2.685  13.850 -0.1205 -0.1083  0.0511
 1392SOL    HW115812   0.854   2.711  13.765 -2.3247  3.4453  2.0646
 1392SOL    HW215813   0.825   2.712  13.915 -0.8072  0.9511 -1.0696
 1393SOL     OW15814   2.252   0.282   3.380 -0.7253  0.0018  0.3220
 1393SOL    HW115815   2.247   0.285   3.285 -1.5589  0.2620  0.3727
 1393SOL    HW215816   2.255   0.188   3.401  0.5819  0.1452  0.7520
 1394SOL     OW15817   0.806   1.735  11.692 -0.2404  0.4458 -0.0797
 1394SOL    HW115818   0.819   1.641  11.681  1.8934  0.5847  1.2159
 1394SOL    HW215819   0.804   1.758  11.599  0.3311 -1.2151 -0.4948
 1395SOL     OW15820   0.097   1.376  12.230  0.1661 -0.7409 -0.2098
 1395SOL    HW115821   0.028   1.344  12.171 -1.0193  2.1723 -0.3818
 1395SOL    HW215822   0.043   1.400  12.305  1.7147  0.9653  0.3420
 1396SOL     OW15823   2.634   0.754   6.260 -0.2134 -0.7081 -0.0195
 1396SOL    HW115824   2.644   0.796   6.175  0.1815 -2.7760 -0.9966
 1396SOL    HW215825   2.726   0.746   6.285 -0.5300  0.1740  1.4393
 1397SOL     OW15826   0.924   4.349   4.008  0.1199 -0.1507 -0.0147
 1397SOL    HW115827   0.892   4.354   4.098  0.2768  1.0959 -0.0335
 1397SOL    HW215828   0.937   4.441   3.984  0.6526 -0.5413 -1.2266
 1398SOL     OW15829   4.556   0.945   2.806  0.0024  0.3131 -0.1542
 1398SOL    HW115830   4.570   1.038   2.792 -1.1625  0.4102 -0.6926
 1398SOL    HW215831   4.617   0.918   2.875 -1.2047 -0.0010  0.7959
 1399SOL     OW15832   0.986   3.627  14.402  0.3438 -0.0072 -0.4898
 1399SOL    HW115833   1.021   3.602  14.488 -2.7445  0.2621  0.8262
 1399SOL    HW215834   0.896   3.647  14.426  0.5031  0.6460 -0.4331
 1400SOL     OW15835   0.984   2.653   4.240 -0.0062  0.1437 -0.4854
 1400SOL    HW115836   1.006   2.721   4.303  1.7650  0.4439 -1.4241
 1400SOL    HW215837   0.895   2.684   4.221 -0.5971  0.8627  3.4528
 1401SOL     OW15838   2.675   3.783   3.051 -0.4624 -0.6324  0.0529
 1401SOL    HW115839   2.687   3.821   2.964  1.0311  0.4238  0.7252
 1401SOL    HW215840   2.708   3.859   3.098 -1.4693 -0.4879  0.5240
 1402SOL     OW15841   2.349   3.111  12.255  0.1078 -0.1787 -0.0093
 1402SOL    HW115842   2.439   3.080  12.244  0.8682  1.7505  0.6234
 1402SOL    HW215843   2.302   3.028  12.250 -0.9690  0.5415 -1.7625
 1403SOL     OW15844   2.675   1.379   3.831  0.0223 -0.9506 -0.1516
 1403SOL    HW115845   2.730   1.403   3.906  1.0529 -0.0854 -1.1863
 1403SOL    HW215846   2.695   1.453   3.775 -0.0540 -0.4149  0.5322
 1404SOL     OW15847   4.262   0.171   1.576  0.1566 -0.4170 -0.7740
 1404SOL    HW115848   4.263   0.250   1.522  1.6431 -0.1869 -0.4169
 1404SOL    HW215849   4.168   0.155   1.584  0.3528 -2.1251 -1.9017
 1405SOL     OW15850   4.329   0.970  11.450 -0.3704  0.3704  0.3246
 1405SOL    HW115851   4.240   0.985  11.482 -0.5891  0.8946 -0.5124
 1405SOL    HW215852   4.299   0.929  11.370  1.7354 -0.2297 -0.1455
 1406SOL     OW15853   0.449   4.516  13.862  0.7767  0.0204 -0.5775
 1406SOL    HW115854   0.407   4.572  13.927 -0.3921 -0.8534 -0.5817
 1406SOL    HW215855   0.440   4.583  13.794 -0.4955  0.1125 -0.3166
 1407SOL     OW15856   0.199   0.943  10.276  0.4942  0.1678  0.5392
 1407SOL    HW115857   0.230   1.024  10.317  1.6456 -0.2998  0.5889
 1407SOL    HW215858   0.255   0.929  10.200 -1.4429  0.6834 -0.9830
 1408SOL     OW15859   4.004   0.707   4.381  0.0474  0.3455  0.4085
 1408SOL    HW115860   4.018   0.721   4.475 -0.1596  1.9401  0.1970
 1408SOL    HW215861   4.096   0.704   4.355 -0.3654  1.0294 -1.1231
 1409SOL     OW15862   0.534   1.714  16.110 -0.3559  0.4166 -0.3235
 1409SOL    HW115863   0.487   1.774  16.167 -0.4567 -0.0936  0.1320
 1409SOL    HW215864   0.596   1.677  16.173 -0.6747 -0.0960 -0.3147
 1410SOL     OW15865   0.095   3.230   5.843  0.4206 -0.2039 -0.5177
 1410SOL    HW115866   0.161   3.297   5.864 -0.2882  0.4044 -0.2425
 1410SOL    HW215867   0.086   3.183   5.926  1.0669 -2.2520 -1.5995
 1411SOL     OW15868   3.919   0.115   6.291 -0.1694  0.0797 -0.6713
 1411SOL    HW115869   3.958   0.121   6.379 -2.7294 -0.6576  0.5219
 1411SOL    HW215870   3.991   0.102   6.230 -0.8320  0.1428 -1.4604
 1412SOL     OW15871   1.317   0.210   8.347 -0.4331 -0.0049  0.1415
 1412SOL    HW115872   1.250   0.195   8.280  0.3223 -1.5024 -0.2682
 1412SOL    HW215873   1.268   0.276   8.398  1.3372  1.5414 -0.1607
 1413SOL     OW15874   4.077   2.868   9.034 -0.3208 -1.1497  0.0016
 1413SOL    HW115875   4.099   2.843   9.124 -2.6760 -0.9478  0.6438
 1413SOL    HW215876   3.984   2.884   9.052  0.6264  1.0935  2.9044
 1414SOL     OW15877   4.373   0.609   3.018 -0.4565  0.7407  0.3612
 1414SOL    HW115878   4.407   0.673   3.080  0.7491 -0.8252  1.3089
 1414SOL    HW215879   4.390   0.536   3.078  0.6641  0.7140 -0.0063
 1415SOL     OW15880   4.503   4.662   6.934 -0.1925 -0.5889 -0.2044
 1415SOL    HW115881   4.452   4.608   6.995 -0.8076  0.5886  0.3263
 1415SOL    HW215882   4.528   4.598   6.867 -0.6963 -0.2030 -0.7595
 1416SOL     OW15883   1.191   3.256   1.401  0.5178  0.1204 -0.2703
 1416SOL    HW115884   1.259   3.320   1.421  0.3212  0.2209  0.0802
 1416SOL    HW215885   1.120   3.278   1.461 -1.1081  0.9615 -2.4909
 1417SOL     OW15886   0.301   0.031  12.314  0.5310 -0.0888 -0.2247
 1417SOL    HW115887   0.212   0.049  12.345  0.4931 -2.1806  0.9133
 1417SOL    HW215888   0.295   4.686  12.267  0.5675 -0.1824 -0.0653
 1418SOL     OW15889   1.811   3.450   3.418 -0.1354 -0.1056  0.0410
 1418SOL    HW115890   1.781   3.540   3.408  1.0979  0.5179  2.0138
 1418SOL    HW215891   1.748   3.395   3.372 -0.0907  1.7022 -2.1850
 1419SOL     OW15892   4.583   0.319  15.948 -0.1855  0.3607  0.1041
 1419SOL    HW115893   4.656   0.310  16.010  1.5603  0.4267 -1.9535
 1419SOL    HW215894   4.539   0.397  15.981 -1.8924 -0.7284  0.4190
 1420SOL     OW15895   3.134   1.822   8.807  0.1772 -0.3435 -0.2881
 1420SOL    HW115896   3.173   1.736   8.791 -0.6435 -0.5566 -1.0958
 1420SOL    HW215897   3.066   1.805   8.872 -0.7914 -1.3961 -1.5802
 1421SOL     OW15898   1.863   2.093   4.635 -0.6742  0.3870 -0.4094
 1421SOL    HW115899   1.918   2.043   4.575  0.8998  0.2029  1.2085
 1421SOL    HW215900   1.781   2.050   4.611  0.3833 -2.8867  1.8862
 1422SOL     OW15901   4.010   0.672   8.348  0.4332 -0.4199  0.1785
 1422SOL    HW115902   3.947   0.672   8.276 -2.0567  0.8100  2.3552
 1422SOL    HW215903   4.078   0.721   8.302  0.1290 -0.8507 -0.7285
 1423SOL     OW15904   0.676   1.601  12.646 -0.0356 -0.0458  0.0419
 1423SOL    HW115905   0.611   1.670  12.659  0.7045  0.5331  0.6335
 1423SOL    HW215906   0.650   1.573  12.558  1.8186 -1.0899 -0.1748
 1424SOL     OW15907   0.030   3.626   2.420  0.0202 -0.6724 -0.5807
 1424SOL    HW115908   0.074   3.688   2.477  0.5394 -1.5680  0.0032
 1424SOL    HW215909   4.685   3.664   2.389 -1.0823 -1.4746  1.3529
 1425SOL     OW15910   1.431   1.213   8.382  0.2929  0.0212  0.3398
 1425SOL    HW115911   1.465   1.123   8.391  1.8472  0.6256  0.4802
 1425SOL    HW215912   1.514   1.257   8.400 -0.2469  1.3415 -0.3920
 1426SOL     OW15913   3.576   3.263   3.719  0.1549 -0.2362 -0.3832
 1426SOL    HW115914   3.497   3.210   3.733 -0.1543 -0.5107 -3.0622
 1426SOL    HW215915   3.556   3.293   3.630 -2.2655  1.6964  0.8018
 1427SOL     OW15916   3.541   1.200   6.593 -0.2846 -0.2613 -0.3711
 1427SOL    HW115917   3.620   1.210   6.646 -1.5763  1.4864  1.2201
 1427SOL    HW215918   3.574   1.229   6.508  0.3534 -0.4249 -0.1816
 1428SOL     OW15919   3.101   3.674  12.618  0.6502  0.0267 -0.2787
 1428SOL    HW115920   3.102   3.578  12.617  2.1931  0.0437 -0.8616
 1428SOL    HW215921   3.154   3.691  12.540 -1.4375 -1.2429 -1.9824
 1429SOL     OW15922   0.623   4.052   5.424  0.5425 -0.0125  0.8156
 1429SOL    HW115923   0.669   3.982   5.470  1.7551 -1.2080 -2.2776
 1429SOL    HW215924   0.553   4.002   5.381 -0.6077  0.1683  2.4458
 1430SOL     OW15925   0.687   0.827   4.386  0.0897  0.1027  0.3938
 1430SOL    HW115926   0.707   0.733   4.386 -0.1651  0.0475  2.4397
 1430SOL    HW215927   0.744   0.850   4.459  0.7210 -0.5508  0.1152
 1431SOL     OW15928   3.072   2.294   6.885  0.4504 -0.7682 -0.3205
 1431SOL    HW115929   3.166   2.278   6.884  0.4001 -1.1311  0.7216
 1431SOL    HW215930   3.055   2.285   6.791  0.3770  3.7562 -0.7212
 1432SOL     OW15931   1.376   3.044   3.092  0.0852  0.5049  0.1670
 1432SOL    HW115932   1.418   3.121   3.054 -0.3899  0.4656 -0.4331
 1432SOL    HW215933   1.409   2.971   3.039  0.9880  0.7152  0.4408
 1433SOL     OW15934   2.393   4.334   7.911 -0.1713  0.0123 -0.2255
 1433SOL    HW115935   2.391   4.428   7.923  0.9461  0.0438 -0.2390
 1433SOL    HW215936   2.380   4.309   8.003 -0.4595 -1.1609 -0.5759
 1434SOL     OW15937   2.937   2.700  15.959 -0.4383  0.1602 -0.3501
 1434SOL    HW115938   2.907   2.789  15.937 -1.5831  0.1075  0.9687
 1434SOL    HW215939   2.860   2.650  15.931  1.5038 -1.7360 -2.2962
 1435SOL     OW15940   2.758   4.196   3.110  0.2673 -0.2997  0.2257
 1435SOL    HW115941   2.772   4.289   3.128  0.0325 -0.2978  0.4066
 1435SOL    HW215942   2.703   4.167   3.183 -2.3357 -0.1941 -1.6672
 1436SOL     OW15943   1.365   4.486   2.429 -0.7608  0.5029 -0.3027
 1436SOL    HW115944   1.460   4.475   2.434 -0.7089  0.6813 -0.9221
 1436SOL    HW215945   1.339   4.401   2.393  0.6485 -0.6333  1.3629
 1437SOL     OW15946   4.119   2.093   8.063 -0.6647 -0.1025 -0.2218
 1437SOL    HW115947   4.118   2.125   8.153 -0.8255  1.3610 -0.7535
 1437SOL    HW215948   4.083   2.004   8.070 -3.0256  0.9912  1.5010
 1438SOL     OW15949   4.623   1.102  14.610 -0.4794 -0.4284  0.1107
 1438SOL    HW115950   4.677   1.111  14.531 -2.7855 -2.1159 -1.6662
 1438SOL    HW215951   4.557   1.041  14.576 -0.0927 -1.6325  1.5431
 1439SOL     OW15952   0.056   3.379   3.176  0.4773  0.3286 -0.0595
 1439SOL    HW115953   0.024   3.461   3.138  0.0233  0.0809 -0.2099
 1439SOL    HW215954   0.128   3.353   3.119 -1.5223 -0.5101 -2.2380
 1440SOL     OW15955   1.186   3.095   2.086 -0.4300 -0.2158  0.0988
 1440SOL    HW115956   1.239   3.016   2.092 -1.6764 -1.2482 -2.7710
 1440SOL    HW215957   1.200   3.132   2.174 -1.1521  1.7264 -0.5848
 1441SOL     OW15958   3.854   2.505   4.541 -0.1445 -0.0999 -0.0016
 1441SOL    HW115959   3.883   2.593   4.519  0.2540  0.0830  1.2347
 1441SOL    HW215960   3.821   2.517   4.631 -0.2302 -0.7434  0.0530
 1442SOL     OW15961   0.295   3.479   4.815  0.1435  0.2194  0.1671
 1442SOL    HW115962   0.303   3.449   4.725  1.2475 -0.0828  0.3767
 1442SOL    HW215963   0.369   3.538   4.810  1.0366 -1.0993 -2.1313
 1443SOL     OW15964   0.134   2.899   1.795 -0.1144 -0.1089 -0.3695
 1443SOL    HW115965   0.155   2.957   1.868 -1.6204  0.0260 -0.0300
 1443SOL    HW215966   0.181   2.822   1.826  0.2980 -0.3268 -1.5322
 1444SOL     OW15967   3.044   4.507   8.998 -0.6190 -0.1055  0.3466
 1444SOL    HW115968   3.057   4.412   8.989  0.1044  0.0594 -0.2871
 1444SOL    HW215969   3.119   4.548   8.957  0.3922 -0.3700  1.9215
 1445SOL     OW15970   2.874   0.797   9.947 -0.0768  0.3723  0.1907
 1445SOL    HW115971   2.843   0.806   9.857 -1.1714 -1.3115  0.4087
 1445SOL    HW215972   2.967   0.803   9.929  0.0553  0.1801  0.8260
 1446SOL     OW15973   1.819   0.019   8.918 -0.0778 -0.3555 -0.5502
 1446SOL    HW115974   1.802   0.073   8.995 -2.3483  0.0138 -1.3280
 1446SOL    HW215975   1.737   4.721   8.884 -0.0823 -0.0359 -0.8709
 1447SOL     OW15976   0.545   1.243  15.596 -0.0140  0.6524 -0.1697
 1447SOL    HW115977   0.534   1.181  15.668  1.3632 -0.6648 -1.1151
 1447SOL    HW215978   0.541   1.183  15.522 -3.2398 -1.6642  1.9000
 1448SOL     OW15979   2.266   0.796   4.425 -0.4062 -0.8625 -0.3550
 1448SOL    HW115980   2.342   0.808   4.368 -0.1375 -2.1967 -0.2852
 1448SOL    HW215981   2.241   0.708   4.396 -1.1365 -1.6514  2.6711
 1449SOL     OW15982   2.586   0.181   6.017 -0.6461  0.0307 -1.0196
 1449SOL    HW115983   2.644   0.234   6.071  2.8549 -2.5622 -2.2249
 1449SOL    HW215984   2.630   0.096   6.018 -2.8803 -1.0544  2.7284
 1450SOL     OW15985   3.010   3.349   8.416  0.5966  0.2142  0.2244
 1450SOL    HW115986   3.079   3.355   8.482  1.5227 -1.0430 -0.6081
 1450SOL    HW215987   2.961   3.273   8.445 -1.8969  1.7333 -0.0218
 1451SOL     OW15988   3.332   0.862   5.799  0.3361  0.2864  0.1452
 1451SOL    HW115989   3.330   0.874   5.704 -1.6059  0.2777  0.1780
 1451SOL    HW215990   3.422   0.830   5.803  0.0104 -0.6302  0.0278
 1452SOL     OW15991   0.859   0.022   3.819  0.2165  0.0240 -0.0494
 1452SOL    HW115992   0.913   4.691   3.858  0.2098 -0.1042 -0.2644
 1452SOL    HW215993   0.769   0.017   3.852 -0.5512 -1.4871 -2.3455
 1453SOL     OW15994   4.722   3.357   2.376 -0.4797  0.1529  0.2769
 1453SOL    HW115995   0.011   3.447   2.393  0.9319  0.0507 -1.2957
 1453SOL    HW215996   0.027   3.318   2.452  2.5547  2.2235 -0.3699
 1454SOL     OW15997   3.757   3.599  10.053 -0.2147  0.1296  0.0496
 1454SOL    HW115998   3.704   3.597  10.133  0.4423 -1.3112  0.4542
 1454SOL    HW215999   3.702   3.562   9.984 -1.5194 -0.9521  1.6580
 1455SOL     OW16000   2.630   1.136   5.072 -0.3714 -0.0363 -0.7565
 1455SOL    HW116001   2.569   1.088   5.128 -0.5290  0.7803 -0.2294
 1455SOL    HW216002   2.709   1.154   5.122  0.1644  0.1332 -1.6610
 1456SOL     OW16003   3.898   1.873  11.498  0.0973 -0.1554  0.2642
 1456SOL    HW116004   3.869   1.843  11.412  2.5071  0.5445 -0.7949
 1456SOL    HW216005   3.895   1.783  11.531  1.6800  0.1087  1.1401
 1457SOL     OW16006   4.139   4.234   1.289  0.0786  0.2259 -0.9773
 1457SOL    HW116007   4.173   4.317   1.256 -0.6675  0.8451 -0.1667
 1457SOL    HW216008   4.065   4.225   1.230 -1.2830 -0.5272  0.8519
 1458SOL     OW16009   1.455   1.990   3.286 -0.1084  0.5227 -0.6014
 1458SOL    HW116010   1.420   1.906   3.316 -2.1954  1.4207 -0.5130
 1458SOL    HW216011   1.417   2.006   3.200 -1.4701 -0.0367 -0.1030
 1459SOL     OW16012   1.764   1.920   8.050  0.5312  0.3681  0.1064
 1459SOL    HW116013   1.779   2.012   8.073  0.0787  0.6282 -0.6295
 1459SOL    HW216014   1.701   1.896   8.118 -1.1709  1.2538 -1.1433
 1460SOL     OW16015   0.867   0.378   9.102  0.1815 -0.4028  0.0611
 1460SOL    HW116016   0.926   0.326   9.156  0.8379 -1.2530 -1.4757
 1460SOL    HW216017   0.919   0.387   9.022  0.9676  1.2271  0.7557
 1461SOL     OW16018   1.262   3.975   4.780  0.2685  0.1017  0.1861
 1461SOL    HW116019   1.247   3.930   4.697  1.3430 -0.0893  0.0963
 1461SOL    HW216020   1.334   3.917   4.804 -0.7873 -1.6426 -0.8948
 1462SOL     OW16021   0.880   4.199  12.378  0.4079 -0.2273  0.6523
 1462SOL    HW116022   0.944   4.178  12.310  0.3801 -4.9701  2.0826
 1462SOL    HW216023   0.811   4.141  12.345 -0.5665  1.6534 -0.6331
 1463SOL     OW16024   1.369   2.706   8.311 -0.0953  0.1624  0.2708
 1463SOL    HW116025   1.274   2.711   8.306 -0.0720 -0.6973 -1.4280
 1463SOL    HW216026   1.398   2.669   8.227 -0.8713 -4.2221  1.9294
 1464SOL     OW16027   0.005   1.336  11.258  0.2189  0.2706 -0.8281
 1464SOL    HW116028   4.673   1.277  11.286  0.0406  0.0106 -1.8389
 1464SOL    HW216029   4.726   1.416  11.309  0.2460 -0.6359  0.6056
 1465SOL     OW16030   1.986   0.874   3.251  0.1996  0.3075  0.7666
 1465SOL    HW116031   1.975   0.804   3.315  1.2364  0.0153  0.6289
 1465SOL    HW216032   1.919   0.859   3.184  0.3820 -0.4336  0.7576
 1466SOL     OW16033   3.307   1.468   2.071 -0.1818  0.5295  0.4559
 1466SOL    HW116034   3.400   1.472   2.093 -0.0713  0.8452 -0.0673
 1466SOL    HW216035   3.295   1.556   2.036  1.2243  0.4005 -0.3689
 1467SOL     OW16036   0.133   4.082   2.157 -0.1809  0.4141  0.1030
 1467SOL    HW116037   0.126   4.158   2.215 -1.2780 -1.0598  1.9024
 1467SOL    HW216038   0.089   4.021   2.216 -0.0501  0.7252  0.5263
 1468SOL     OW16039   3.317   2.345   7.132  0.0453  0.1787 -0.3684
 1468SOL    HW116040   3.296   2.355   7.039  2.1991 -2.9957 -1.2035
 1468SOL    HW216041   3.366   2.423   7.156  0.9351 -0.5725  0.2860
 1469SOL     OW16042   4.353   2.787   7.072  0.3016  0.1445  0.6616
 1469SOL    HW116043   4.442   2.755   7.084  0.0169 -0.2950  1.6142
 1469SOL    HW216044   4.302   2.712   7.104  0.4431 -0.1644  0.1532
 1470SOL     OW16045   0.686   2.968   3.210  0.0289 -0.8078 -0.1105
 1470SOL    HW116046   0.696   2.941   3.119  2.7996 -3.5989  0.9937
 1470SOL    HW216047   0.721   2.895   3.261 -1.3988  0.2215  2.3417
 1471SOL     OW16048   2.059   1.399   4.694 -0.2674  0.1596 -0.5647
 1471SOL    HW116049   1.976   1.446   4.697 -0.9533 -1.0306 -0.7787
 1471SOL    HW216050   2.036   1.338   4.764  2.1227 -0.6155 -0.4658
 1472SOL     OW16051   0.241   2.237   2.140  0.0771 -0.1551  0.1660
 1472SOL    HW116052   0.263   2.146   2.119  1.7131  0.4287 -0.6993
 1472SOL    HW216053   0.296   2.283   2.077 -1.3006  1.2370 -0.0148
 1473SOL     OW16054   3.162   0.381   7.275  0.3721  0.0676 -0.2303
 1473SOL    HW116055   3.147   0.296   7.317 -0.4371  0.1848 -0.2761
 1473SOL    HW216056   3.122   0.359   7.191 -1.3813 -0.4536  0.7316
 1474SOL     OW16057   3.233   4.251   1.531 -0.0628  0.3437 -0.2079
 1474SOL    HW116058   3.299   4.232   1.465  1.0117  0.0967  0.9381
 1474SOL    HW216059   3.263   4.197   1.605  2.1368  1.0744 -0.5576
 1475SOL     OW16060   2.401   0.042  14.147  0.3709 -0.4098  0.5370
 1475SOL    HW116061   2.346   0.080  14.079  2.1375  1.1975  0.0036
 1475SOL    HW216062   2.463   0.112  14.168 -1.0763  0.7892  0.7749
 1476SOL     OW16063   2.001   3.539   8.292  0.1834  0.2784 -0.1426
 1476SOL    HW116064   1.960   3.501   8.214 -1.8960  1.3212  0.4462
 1476SOL    HW216065   1.926   3.576   8.339 -0.6653  0.2862 -1.4705
 1477SOL     OW16066   0.976   0.627   6.449  0.3789  0.1475  0.4285
 1477SOL    HW116067   1.012   0.540   6.466  0.1478 -0.0086  0.1241
 1477SOL    HW216068   1.020   0.686   6.510  0.3070  0.5415  0.1025
 1478SOL     OW16069   3.560   1.537   2.118  0.1572 -0.0757  0.4824
 1478SOL    HW116070   3.631   1.543   2.055 -0.4739  1.5332 -0.0704
 1478SOL    HW216071   3.566   1.628   2.145  1.1823  0.7888 -2.7000
 1479SOL     OW16072   3.286   1.206   9.039 -0.3251 -0.3934 -0.4739
 1479SOL    HW116073   3.332   1.172   9.115 -0.1520 -0.6617 -0.6991
 1479SOL    HW216074   3.239   1.277   9.084  1.7727  0.0946  0.9481
 1480SOL     OW16075   0.423   1.702  15.341  0.0263 -0.0310  0.4890
 1480SOL    HW116076   0.372   1.696  15.422  0.7409  0.0241  0.9421
 1480SOL    HW216077   0.407   1.613  15.311  0.1178  0.5427 -1.2799
 1481SOL     OW16078   0.199   0.998   2.790  0.0473 -0.6267  0.0984
 1481SOL    HW116079   0.152   1.015   2.709 -0.5297 -0.5263  0.4525
 1481SOL    HW216080   0.272   1.049   2.756  0.8676 -1.8474  0.0478
 1482SOL     OW16081   1.180   1.434   2.970 -0.0278  0.4166 -0.5411
 1482SOL    HW116082   1.271   1.448   2.998 -0.1930 -1.2734  0.8236
 1482SOL    HW216083   1.167   1.343   2.998  0.4002 -0.2809 -2.5346
 1483SOL     OW16084   1.259   1.110   9.671 -0.6916  1.1237 -0.3703
 1483SOL    HW116085   1.222   1.140   9.754  0.2241  0.1730  0.3709
 1483SOL    HW216086   1.350   1.137   9.679 -0.6167  0.5936  0.5124
 1484SOL     OW16087   0.483   0.817   9.352  0.4943 -0.5547 -0.3570
 1484SOL    HW116088   0.511   0.857   9.270 -1.1827  0.0374 -0.6453
 1484SOL    HW216089   0.460   0.727   9.329  0.3454 -0.4479 -0.6292
 1485SOL     OW16090   3.581   0.236   5.949 -0.5928 -0.1213 -0.1755
 1485SOL    HW116091   3.506   0.182   5.923  0.7117 -2.0002 -0.1037
 1485SOL    HW216092   3.640   0.160   5.944  0.2405  0.6784 -2.3690
 1486SOL     OW16093   0.822   2.149  13.790  0.5875  0.1967  0.3846
 1486SOL    HW116094   0.864   2.235  13.795 -0.6437  0.7534  1.3435
 1486SOL    HW216095   0.847   2.119  13.877 -2.2440 -0.4678  0.9601
 1487SOL     OW16096   2.579   0.912   3.396  0.1086  0.0785 -0.0292
 1487SOL    HW116097   2.502   0.968   3.382 -0.5077 -0.7027  0.2441
 1487SOL    HW216098   2.538   0.829   3.372 -2.6982  1.6755 -0.8670
 1488SOL     OW16099   2.543   0.295   0.842  0.1765 -0.2084  0.2644
 1488SOL    HW116100   2.564   0.339   0.760 -2.6366  0.7242  0.0367
 1488SOL    HW216101   2.455   0.262   0.824  0.9392 -2.4296  0.6713
 1489SOL     OW16102   3.962   1.646   6.183 -0.6365 -0.0201  0.0518
 1489SOL    HW116103   3.904   1.645   6.107 -2.0950  0.2977  1.1480
 1489SOL    HW216104   3.973   1.552   6.192 -0.8596 -0.1795 -1.4090
 1490SOL     OW16105   4.605   1.118   6.997  0.2147  0.4252 -0.6094
 1490SOL    HW116106   4.640   1.062   6.928  0.8989  1.3156 -0.9728
 1490SOL    HW216107   4.678   1.121   7.060 -0.4934 -1.2658  0.2942
 1491SOL     OW16108   0.215   3.949   7.301  0.3712 -0.5461 -0.1133
 1491SOL    HW116109   0.223   3.986   7.213 -0.5829 -0.2378 -0.0761
 1491SOL    HW216110   0.159   4.010   7.348  0.9942 -1.2457  1.5056
 1492SOL     OW16111   1.632   3.618  13.555 -0.5822  0.1151  0.1964
 1492SOL    HW116112   1.642   3.528  13.522  2.3186 -0.2870  2.1052
 1492SOL    HW216113   1.722   3.633  13.585 -0.0944 -2.7292  0.1593
 1493SOL     OW16114   4.535   2.069  11.274  0.1189 -0.0165  0.0377
 1493SOL    HW116115   4.440   2.080  11.272  0.0541 -0.6283 -0.3021
 1493SOL    HW216116   4.546   2.069  11.179  0.3562  2.0908  0.0579
 1494SOL     OW16117   4.695   3.744  14.721 -0.6218  0.0844  0.0495
 1494SOL    HW116118   4.606   3.766  14.747 -1.2490  2.4730 -4.0666
 1494SOL    HW216119   4.690   3.688  14.643  1.7456  2.5653 -1.9341
 1495SOL     OW16120   1.473   2.344   6.950  0.1241  0.0250 -0.7029
 1495SOL    HW116121   1.471   2.259   6.994  0.1027  0.0473 -0.6602
 1495SOL    HW216122   1.431   2.317   6.868  0.3992  1.0291 -1.1763
 1496SOL     OW16123   3.110   1.762   7.627 -0.0953 -0.3151  0.0816
 1496SOL    HW116124   3.017   1.765   7.606 -0.4620  1.1471  1.9265
 1496SOL    HW216125   3.101   1.705   7.703 -0.8118  2.8623  2.3697
 1497SOL     OW16126   3.625   0.530  14.474  0.2759  0.1234 -0.4716
 1497SOL    HW116127   3.546   0.520  14.526  0.4592 -1.4319 -0.4977
 1497SOL    HW216128   3.597   0.489  14.392 -2.3328 -1.1550  1.0674
 1498SOL     OW16129   2.289   3.618   5.945  0.3251 -0.3516 -0.0641
 1498SOL    HW116130   2.279   3.610   6.040  0.1295  0.1141 -0.0488
 1498SOL    HW216131   2.268   3.711   5.935 -0.6056 -0.5770 -0.1568
 1499SOL     OW16132   0.679   4.437   3.344  0.0690 -0.1605  0.0151
 1499SOL    HW116133   0.698   4.495   3.418 -3.2987 -0.7877  1.3649
 1499SOL    HW216134   0.730   4.362   3.372  2.0252  1.2111  0.1055
 1500SOL     OW16135   3.531   3.196   6.580 -0.1681  0.2860  0.5256
 1500SOL    HW116136   3.617   3.168   6.612  0.5102  0.1415 -1.4119
 1500SOL    HW216137   3.516   3.264   6.646  1.3004  0.1144  1.0369
 1501SOL     OW16138   3.933   1.923   0.850  0.4917 -0.3201 -0.2820
 1501SOL    HW116139   3.853   1.970   0.826  1.4828  2.1459  1.2485
 1501SOL    HW216140   3.935   1.861   0.777 -1.6359 -0.8738  0.1178
 1502SOL     OW16141   3.858   1.092   4.413 -0.1208 -0.4705  0.1290
 1502SOL    HW116142   3.807   1.016   4.385 -0.2473 -0.2386 -0.2748
 1502SOL    HW216143   3.939   1.056   4.448 -0.7867 -1.3475  0.7705
 1503SOL     OW16144   0.585   3.251   8.018  0.5210  0.1706 -0.2907
 1503SOL    HW116145   0.600   3.337   7.979 -0.6241  1.2008  1.5832
 1503SOL    HW216146   0.668   3.204   8.010 -0.6038 -1.4590 -2.4951
 1504SOL     OW16147   4.487   0.460  16.269 -0.3616 -0.6236  0.3460
 1504SOL    HW116148   4.420   0.528  16.271  0.1047 -0.1744  0.7401
 1504SOL    HW216149   4.517   0.455  16.359  2.4913 -0.2839 -0.5807
 1505SOL     OW16150   2.337   4.004   5.490 -0.2130 -0.1780  0.6043
 1505SOL    HW116151   2.355   3.920   5.532  0.6622 -1.7584 -2.9683
 1505SOL    HW216152   2.372   4.059   5.560 -0.1844  0.3522  0.1684
 1506SOL     OW16153   4.672   0.917   5.654  0.6190 -0.0321 -0.0351
 1506SOL    HW116154   0.013   0.888   5.607  1.2315  0.2026  0.8509
 1506SOL    HW216155   4.703   0.915   5.744 -0.3764  1.5661  0.3438
 1507SOL     OW16156   0.618   2.442   4.180  0.2952 -0.1389 -0.3349
 1507SOL    HW116157   0.586   2.384   4.111  0.4272 -0.4635 -0.1234
 1507SOL    HW216158   0.601   2.525   4.136  0.5431  0.8792  1.4721
 1508SOL     OW16159   4.497   2.007   3.240 -0.4953  0.5968 -0.2950
 1508SOL    HW116160   4.423   2.056   3.204 -1.2130 -1.1361 -1.2143
 1508SOL    HW216161   4.460   1.968   3.319 -0.1959  2.8440  0.9339
 1509SOL     OW16162   1.452   2.586   7.063 -0.3137  0.1060 -0.1394
 1509SOL    HW116163   1.459   2.498   7.025 -3.2494 -1.6010  3.2920
 1509SOL    HW216164   1.359   2.601   7.047 -0.6538 -2.0357 -0.2633
 1510SOL     OW16165   3.068   0.574  15.583  0.4687 -0.5149  0.2889
 1510SOL    HW116166   2.983   0.605  15.614  1.0083  3.4785 -2.2480
 1510SOL    HW216167   3.042   0.498  15.531  0.0810 -0.8536  0.9726
 1511SOL     OW16168   0.896   0.860   3.567 -0.0215 -0.2272  0.5387
 1511SOL    HW116169   0.829   0.924   3.591 -0.3067 -0.8956  1.5387
 1511SOL    HW216170   0.890   0.851   3.472 -0.7000  0.7315  0.4933
 1512SOL     OW16171   4.079   3.027   8.000  0.4044  0.3654 -0.5306
 1512SOL    HW116172   4.036   3.059   7.921 -0.4619  1.4683  0.3862
 1512SOL    HW216173   4.112   2.941   7.973 -1.0625 -0.1528 -0.6772
 1513SOL     OW16174   4.039   1.201   1.458  0.2033  0.2212 -0.7176
 1513SOL    HW116175   4.109   1.265   1.445  1.1864 -1.0308 -1.6985
 1513SOL    HW216176   4.016   1.216   1.550  2.8261 -1.1315  0.1598
 1514SOL     OW16177   4.707   1.149  14.275  0.0618  0.3287 -0.5485
 1514SOL    HW116178   0.012   1.220  14.226  0.3469  0.3149 -0.3201
 1514SOL    HW216179   4.649   1.194  14.337  3.3778  3.5770  0.2364
 1515SOL     OW16180   0.592   3.577  17.340 -0.5219 -0.1992  0.1241
 1515SOL    HW116181   0.549   3.639  17.281  0.1515 -0.6957 -0.9051
 1515SOL    HW216182   0.568   3.491  17.304  3.0273  0.2425 -3.2918
 1516SOL     OW16183   1.731   0.798  12.455  0.6756  0.7378  0.3105
 1516SOL    HW116184   1.740   0.812  12.550  2.6422 -0.5222  0.3177
 1516SOL    HW216185   1.686   0.880  12.437 -1.4208 -0.0556  1.8857
 1517SOL     OW16186   4.618   3.706   7.759 -0.6679  0.3095  0.2309
 1517SOL    HW116187   4.689   3.766   7.736 -0.4747  0.5208  1.3674
 1517SOL    HW216188   4.627   3.637   7.694 -0.5664  0.3563  0.1962
 1518SOL     OW16189   1.822   2.954  11.665 -0.5127  0.5182 -0.0841
 1518SOL    HW116190   1.765   2.957  11.741 -1.1703 -1.4522 -0.4891
 1518SOL    HW216191   1.834   2.859  11.663 -0.2339  0.5504  0.0708
 1519SOL     OW16192   2.924   0.682   6.532  0.1928 -0.6653 -0.3417
 1519SOL    HW116193   2.959   0.682   6.621  0.1059  0.1631 -0.3055
 1519SOL    HW216194   2.855   0.616   6.538 -0.2764 -0.0277  1.4518
 1520SOL     OW16195   2.226   1.851  10.870  0.2861  0.4161 -0.0318
 1520SOL    HW116196   2.246   1.861  10.963 -2.2438 -0.5016  0.6190
 1520SOL    HW216197   2.176   1.770  10.882  0.3199  0.5194  0.7678
 1521SOL     OW16198   4.609   4.589   8.527  0.1104  0.1036 -0.1403
 1521SOL    HW116199   4.691   4.542   8.537  0.0031  0.4332  2.4417
 1521SOL    HW216200   4.640   4.677   8.505  0.5352  0.2605  1.0449
 1522SOL     OW16201   1.345   2.404  17.666  0.5052 -0.3794  0.5435
 1522SOL    HW116202   1.394   2.465  17.612  1.0657 -0.3407  1.1013
 1522SOL    HW216203   1.296   2.355  17.599  1.4849  0.7477 -0.9976
 1523SOL     OW16204   0.368   0.921   7.976  0.3121 -0.2654  0.4688
 1523SOL    HW116205   0.423   0.993   8.007 -0.3446  1.0575 -1.4063
 1523SOL    HW216206   0.371   0.918   7.880  3.1978  0.8654  0.5512
 1524SOL     OW16207   1.031   1.436   3.951 -0.2159 -0.3780 -0.3882
 1524SOL    HW116208   0.963   1.378   3.985 -1.4476  1.0981 -0.3438
 1524SOL    HW216209   1.108   1.379   3.954 -0.6816 -0.9755  0.1760
 1525SOL     OW16210   3.618   0.614   8.704  0.2131 -0.2782  0.3365
 1525SOL    HW116211   3.574   0.698   8.688  0.8360 -0.0544 -0.1809
 1525SOL    HW216212   3.702   0.632   8.662 -0.3353 -1.8899 -1.4153
 1526SOL     OW16213   1.523   2.429   4.732 -0.3189 -0.0367  0.1770
 1526SOL    HW116214   1.554   2.478   4.808  2.1441 -2.5564  0.8036
 1526SOL    HW216215   1.603   2.396   4.692  0.1572  1.5104 -0.1592
 1527SOL     OW16216   3.465   2.465  15.445 -0.3058 -0.0404 -0.1052
 1527SOL    HW116217   3.389   2.504  15.489 -0.6458 -1.6225  0.7224
 1527SOL    HW216218   3.529   2.445  15.513 -1.4505  0.4484  1.1205
 1528SOL     OW16219   3.721   1.376  15.155 -0.1105  0.1647  0.2298
 1528SOL    HW116220   3.708   1.281  15.159 -2.0689  0.4449  0.5527
 1528SOL    HW216221   3.726   1.390  15.061 -0.7214 -3.2294 -0.3020
 1529SOL     OW16222   4.406   3.798   3.332  0.3460 -0.3587  0.0778
 1529SOL    HW116223   4.496   3.824   3.315  0.8527 -1.4202  1.1943
 1529SOL    HW216224   4.425   3.745   3.409  0.6884 -0.7223 -0.2607
 1530SOL     OW16225   3.321   1.150   1.726 -0.4656 -0.0504  0.6487
 1530SOL    HW116226   3.396   1.131   1.670 -0.0726 -1.0833  1.5425
 1530SOL    HW216227   3.251   1.108   1.676 -1.0836  1.8410 -0.0807
 1531SOL     OW16228   3.613   1.973   0.266 -0.3598 -0.3376  0.3412
 1531SOL    HW116229   3.649   1.943   0.349 -1.1329 -1.4548  0.2760
 1531SOL    HW216230   3.618   2.069   0.266  1.6716 -0.4398  0.8507
 1532SOL     OW16231   4.172   3.930  12.762 -0.3301 -0.0317 -0.0677
 1532SOL    HW116232   4.177   4.003  12.824 -1.6464 -0.5325  0.6280
 1532SOL    HW216233   4.258   3.889  12.768 -0.3653 -0.2458 -0.9298
 1533SOL     OW16234   3.444   1.427   2.336 -1.0166  0.0666 -0.6788
 1533SOL    HW116235   3.493   1.476   2.271 -1.3785  0.3072 -0.7720
 1533SOL    HW216236   3.400   1.497   2.384  1.5017  0.3135  1.2709
 1534SOL     OW16237   1.346   1.911   2.509 -0.2062 -0.4650  0.2437
 1534SOL    HW116238   1.336   1.994   2.556 -0.7419  0.7618 -2.0434
 1534SOL    HW216239   1.259   1.879   2.484 -0.1268 -0.0909 -0.5156
 1535SOL     OW16240   4.476   3.034   2.195 -0.1539  0.8221  0.3624
 1535SOL    HW116241   4.482   3.045   2.100 -1.8978 -0.0914  0.1443
 1535SOL    HW216242   4.402   3.094   2.210 -1.0338  0.2692 -1.6831
 1536SOL     OW16243   2.128   3.753  16.136  0.4815  0.1392 -0.0939
 1536SOL    HW116244   2.136   3.818  16.067  0.4417  1.2548  0.9528
 1536SOL    HW216245   2.071   3.790  16.203 -1.9119  0.9423 -2.5664
 1537SOL     OW16246   2.722   4.028  15.321 -0.1916  0.2244  0.3884
 1537SOL    HW116247   2.688   4.082  15.250 -0.5146 -0.7731 -0.2118
 1537SOL    HW216248   2.816   4.034  15.307 -0.4233 -1.4175 -1.7826
 1538SOL     OW16249   1.305   0.090   2.875  0.1141 -0.5646 -0.4143
 1538SOL    HW116250   1.321   0.118   2.965  0.3710  0.7274 -0.8736
 1538SOL    HW216251   1.274   0.170   2.833  1.1664 -0.7163 -1.4952
 1539SOL     OW16252   0.651   2.261   0.342  0.2738 -0.3266  0.9061
 1539SOL    HW116253   0.729   2.261   0.288 -1.3274  0.9319 -1.3756
 1539SOL    HW216254   0.579   2.298   0.291 -0.7270 -2.3070  0.8799
 1540SOL     OW16255   4.384   0.778   2.365 -0.1722 -0.2014 -0.9264
 1540SOL    HW116256   4.383   0.744   2.454  1.6879 -0.8851 -1.1648
 1540SOL    HW216257   4.458   0.730   2.328  0.0305 -0.4309 -0.2219
 1541SOL     OW16258   2.186   0.217  14.940 -0.0564 -0.3319  0.1760
 1541SOL    HW116259   2.171   0.298  14.891  1.1832  1.0339  2.0486
 1541SOL    HW216260   2.118   0.160  14.906  0.0120  1.3311 -2.7256
 1542SOL     OW16261   4.514   3.022   4.748  0.5950 -0.0778 -0.0696
 1542SOL    HW116262   4.449   3.082   4.785  0.6987 -0.4407  0.7240
 1542SOL    HW216263   4.477   2.937   4.771  0.0062  0.0424 -0.5891
 1543SOL     OW16264   2.834   1.725   7.607  0.5744 -0.3253  0.2180
 1543SOL    HW116265   2.763   1.708   7.545 -0.3838  0.3947  1.1279
 1543SOL    HW216266   2.789   1.714   7.691 -0.9347 -2.1787 -0.8242
 1544SOL     OW16267   0.972   3.863   4.737 -0.3133  0.1099  0.2096
 1544SOL    HW116268   1.016   3.891   4.817  1.9564  0.1913 -1.0735
 1544SOL    HW216269   0.920   3.940   4.712  0.9637  0.6369 -0.8759
 1545SOL     OW16270   3.211   1.199   7.999  0.5162  0.2467 -0.5801
 1545SOL    HW116271   3.128   1.184   8.043  1.4435 -1.1391  0.7165
 1545SOL    HW216272   3.215   1.294   8.010  0.5196  0.4325 -2.2414
 1546SOL     OW16273   0.439   2.887   9.743 -0.8026  0.0823 -0.1099
 1546SOL    HW116274   0.416   2.980   9.734  0.4734  0.3777 -0.3406
 1546SOL    HW216275   0.451   2.859   9.653 -0.5285 -2.2806  0.6462
 1547SOL     OW16276   3.443   0.342   6.716 -0.0267 -0.0948  0.4670
 1547SOL    HW116277   3.356   0.368   6.745 -0.0432  1.6193 -1.1321
 1547SOL    HW216278   3.495   0.356   6.795  1.7626 -1.2107 -0.4990
 1548SOL     OW16279   0.585   2.651   8.744  0.1367 -0.1177 -0.5203
 1548SOL    HW116280   0.573   2.744   8.761  2.0096 -0.2542  1.4277
 1548SOL    HW216281   0.613   2.646   8.652  0.4937  1.6916 -0.5092
 1549SOL     OW16282   3.811   3.880   8.071  0.3693  0.3685 -0.8451
 1549SOL    HW116283   3.874   3.842   8.009  0.1493  0.7156 -1.2818
 1549SOL    HW216284   3.755   3.803   8.064 -0.4421  1.1824 -3.5153
 1550SOL     OW16285   2.945   3.856  16.308  0.0298 -0.7190  0.3370
 1550SOL    HW116286   2.910   3.770  16.286  1.2451 -1.0695 -0.1897
 1550SOL    HW216287   2.954   3.896  16.222 -0.7592 -0.9266  0.1560
 1551SOL     OW16288   0.829   3.641  17.515 -1.0102 -0.1633 -0.0955
 1551SOL    HW116289   0.857   3.732  17.513 -1.0603 -0.1359  0.3706
 1551SOL    HW216290   0.761   3.625  17.450 -0.9349  1.3448 -0.5365
 1552SOL     OW16291   4.369   2.437   3.153 -0.1563  0.4261  0.4831
 1552SOL    HW116292   4.406   2.438   3.065 -0.7190 -0.1101  0.2353
 1552SOL    HW216293   4.388   2.530   3.156  0.1260  0.3859 -0.0001
 1553SOL     OW16294   0.241   0.963   5.275  0.3651  0.2561  0.0398
 1553SOL    HW116295   0.158   1.009   5.266 -0.1752 -0.6321  0.5841
 1553SOL    HW216296   0.258   0.958   5.180  0.0092  0.2323 -0.0223
 1554SOL     OW16297   1.424   1.967   5.883 -0.6301 -0.1739  0.3956
 1554SOL    HW116298   1.466   1.884   5.903  3.1781  1.9420  1.2106
 1554SOL    HW216299   1.377   2.000   5.960  1.2097  1.9790  0.6041
 1555SOL     OW16300   4.022   3.286   5.776  0.4054  0.3930 -0.0058
 1555SOL    HW116301   4.089   3.250   5.834  0.8240 -0.2684 -0.8984
 1555SOL    HW216302   3.957   3.221   5.800 -0.3567  1.0612 -0.2526
 1556SOL     OW16303   2.187   4.553   3.979 -0.4564 -0.4344  0.2938
 1556SOL    HW116304   2.128   4.628   3.976 -0.2253 -0.2001  1.6703
 1556SOL    HW216305   2.131   4.485   4.014 -0.4087  0.2425  1.6619
 1557SOL     OW16306   4.218   2.993   2.562  0.1295  0.3601 -0.4743
 1557SOL    HW116307   4.167   3.057   2.512 -0.1516 -0.1196 -0.7999
 1557SOL    HW216308   4.306   3.030   2.546  0.4023  0.1673  0.5631
 1558SOL     OW16309   3.731   1.892  16.983 -0.0841  0.2718  0.2868
 1558SOL    HW116310   3.709   1.807  16.944  1.0353 -0.0659  0.3808
 1558SOL    HW216311   3.726   1.940  16.901  1.0770  1.6771  1.0541
 1559SOL     OW16312   0.995   2.426   1.280 -0.7468  0.1347  0.0557
 1559SOL    HW116313   0.906   2.457   1.263 -1.1106  0.3158  2.4237
 1559SOL    HW216314   1.055   2.494   1.249  0.1624 -0.5751  0.2567
 1560SOL     OW16315   3.923   0.998   1.658  0.0067 -0.2296 -0.1069
 1560SOL    HW116316   3.932   0.970   1.749 -2.6193  1.8938  0.7771
 1560SOL    HW216317   4.010   0.974   1.625 -0.4848 -2.2499  0.0706
 1561SOL     OW16318   3.655   1.412  14.870 -0.1862  0.2917  0.6284
 1561SOL    HW116319   3.565   1.387  14.893 -0.3037 -1.9406 -2.2357
 1561SOL    HW216320   3.644   1.504  14.846 -1.7750 -0.1875 -0.5262
 1562SOL     OW16321   0.160   0.855  15.657 -0.6611 -0.4360  0.0362
 1562SOL    HW116322   0.214   0.802  15.715 -1.6545  0.0193  1.3688
 1562SOL    HW216323   0.076   0.813  15.677  0.8855 -2.2261  2.8469
 1563SOL     OW16324   0.671   3.511  14.646 -0.5456  0.5448 -0.1630
 1563SOL    HW116325   0.682   3.577  14.578 -3.0159  0.8807 -0.2035
 1563SOL    HW216326   0.716   3.438  14.603 -2.7543 -0.6347 -0.4764
 1564SOL     OW16327   1.454   3.783   4.884  0.3765 -0.4231 -0.6106
 1564SOL    HW116328   1.470   3.715   4.949 -0.0445  0.1006  0.0417
 1564SOL    HW216329   1.460   3.726   4.807  1.3672 -1.1768  0.0235
 1565SOL     OW16330   0.368   2.428  14.111 -0.1528  0.0560  0.0713
 1565SOL    HW116331   0.368   2.521  14.136 -2.1592  0.5008 -1.6543
 1565SOL    HW216332   0.375   2.388  14.198 -1.9257  1.7229  0.9712
 1566SOL     OW16333   4.421   0.513  14.350  0.6448 -0.2361  0.0619
 1566SOL    HW116334   4.453   0.569  14.421  1.0166  1.0765 -1.1486
 1566SOL    HW216335   4.359   0.568  14.303  2.1198  1.1234 -0.2976
 1567SOL     OW16336   1.980   3.129   7.111 -0.6072  1.0888 -0.0946
 1567SOL    HW116337   2.072   3.111   7.092 -0.9717  0.5185 -1.2965
 1567SOL    HW216338   1.991   3.159   7.201  1.2787  0.7648 -0.2330
 1568SOL     OW16339   0.884   2.388   7.057  0.4207 -0.0844  0.0493
 1568SOL    HW116340   0.922   2.301   7.044 -0.9719 -1.0825  2.8123
 1568SOL    HW216341   0.807   2.371   7.110 -1.1932 -1.1463 -2.6496
 1569SOL     OW16342   1.973   2.807  13.042 -0.2453 -0.0841  0.2394
 1569SOL    HW116343   1.993   2.716  13.019 -2.0543 -0.3462 -0.3738
 1569SOL    HW216344   1.878   2.810  13.026 -0.3748 -1.6414  0.7819
 1570SOL     OW16345   2.291   0.321   1.793 -0.0902  0.2546  0.1231
 1570SOL    HW116346   2.324   0.233   1.777  1.4770  1.0621 -1.0771
 1570SOL    HW216347   2.344   0.379   1.737  0.3436  0.0982  0.3809
 1571SOL     OW16348   2.779   0.181  14.108 -1.0706  0.0247 -0.2830
 1571SOL    HW116349   2.825   0.104  14.143  1.7333  0.7295 -2.4258
 1571SOL    HW216350   2.837   0.196  14.034  0.8048  1.0946  1.4137
 1572SOL     OW16351   4.498   3.091  16.154 -0.5592  0.6227  0.1664
 1572SOL    HW116352   4.584   3.111  16.116 -1.0940  2.2393 -0.2014
 1572SOL    HW216353   4.473   3.017  16.098 -2.3895  0.2310  1.4989
 1573SOL     OW16354   0.564   1.554  14.661 -0.4575  0.4638  0.1705
 1573SOL    HW116355   0.496   1.601  14.613  0.2885 -0.5913 -1.8750
 1573SOL    HW216356   0.510   1.535  14.738 -0.6110  0.0364 -0.0459
 1574SOL     OW16357   3.129   3.165   1.024 -0.2995  0.0401 -0.4532
 1574SOL    HW116358   3.130   3.095   1.089  1.5728  0.2015 -0.2947
 1574SOL    HW216359   3.183   3.127   0.954  0.7204 -2.0635  1.4713
 1575SOL     OW16360   3.059   3.297   7.601  0.1544  0.1211 -0.4335
 1575SOL    HW116361   2.990   3.312   7.666 -0.3932  1.4700 -1.3084
 1575SOL    HW216362   3.067   3.202   7.596  1.8921  0.3125 -1.2765
 1576SOL     OW16363   2.624   1.148  14.320 -0.1376  0.1818 -0.0917
 1576SOL    HW116364   2.576   1.165  14.401  1.9971  0.3671  1.1330
 1576SOL    HW216365   2.589   1.212  14.258 -4.2035 -1.8757  0.1055
 1577SOL     OW16366   0.098   2.378   9.358 -0.4793 -0.3177 -0.0137
 1577SOL    HW116367   0.006   2.379   9.384 -0.1378 -0.8216  1.2239
 1577SOL    HW216368   0.120   2.470   9.377  0.5634 -0.9935  2.1159
 1578SOL     OW16369   4.395   0.960   3.388  0.2956  0.3109  0.0281
 1578SOL    HW116370   4.402   1.050   3.358  2.1331 -0.4683 -1.8896
 1578SOL    HW216371   4.373   0.916   3.305  2.3685  0.5882 -0.6589
 1579SOL     OW16372   0.858   4.669   4.228 -0.2354 -0.4945 -0.1200
 1579SOL    HW116373   0.925   4.692   4.293 -0.2685  0.2862 -0.3671
 1579SOL    HW216374   0.785   4.679   4.289  0.1850  0.6693  0.1967
 1580SOL     OW16375   4.051   4.302   8.212 -0.5816 -0.6601  0.9348
 1580SOL    HW116376   4.040   4.381   8.159 -0.2031 -2.5676 -1.9599
 1580SOL    HW216377   3.993   4.240   8.167 -0.7110 -0.9725  1.5291
 1581SOL     OW16378   2.584   0.458   5.496  0.0051  0.0278  0.4160
 1581SOL    HW116379   2.543   0.505   5.569 -0.4542 -0.7939  0.6851
 1581SOL    HW216380   2.667   0.432   5.537 -0.1918  1.1988  1.5740
 1582SOL     OW16381   0.892   1.492   1.224 -0.1058  0.4733 -0.1841
 1582SOL    HW116382   0.878   1.403   1.190  0.3866  0.7030 -0.9908
 1582SOL    HW216383   0.802   1.493   1.256  0.8057 -1.9664  2.4027
 1583SOL     OW16384   1.490   2.798   4.734 -0.5330  0.4597  0.3546
 1583SOL    HW116385   1.455   2.874   4.780 -0.6750  0.2188  0.6386
 1583SOL    HW216386   1.535   2.750   4.804 -2.6353  0.1821  1.4917
 1584SOL     OW16387   3.753   0.260   9.368  0.0748 -0.3515  0.1732
 1584SOL    HW116388   3.743   0.300   9.282 -1.5708 -0.7385  0.1858
 1584SOL    HW216389   3.693   0.186   9.361 -0.6450  0.2313  0.1973
 1585SOL     OW16390   3.157   0.304  13.872  0.0322 -0.1039  0.0360
 1585SOL    HW116391   3.071   0.269  13.896 -0.9401  1.7265 -0.8272
 1585SOL    HW216392   3.185   0.373  13.931  0.0437  0.9187 -1.1751
 1586SOL     OW16393   4.120   4.136   3.311  0.2716  0.0099 -0.3236
 1586SOL    HW116394   4.132   4.073   3.381 -2.9267  0.3751  0.5485
 1586SOL    HW216395   4.039   4.180   3.335  0.4107  0.0034  0.1473
 1587SOL     OW16396   1.112   2.660  12.268  0.2504  0.0141  0.5073
 1587SOL    HW116397   1.026   2.690  12.238 -0.7463 -1.5508  1.7779
 1587SOL    HW216398   1.113   2.713  12.348 -2.0963  3.8619 -2.0060
 1588SOL     OW16399   4.711   1.290   6.632  0.2781 -0.1824 -0.3139
 1588SOL    HW116400   4.686   1.354   6.566  1.2956 -0.0583 -0.5796
 1588SOL    HW216401   4.650   1.218   6.614 -0.3565  0.4515 -0.7209
 1589SOL     OW16402   1.230   2.669   7.325  0.6893  0.3692 -0.2303
 1589SOL    HW116403   1.170   2.596   7.307 -0.8191  1.3626  0.7752
 1589SOL    HW216404   1.316   2.630   7.313  0.8024  0.7907 -0.7606
 1590SOL     OW16405   3.864   3.983   8.328  0.5173 -0.0032 -0.2456
 1590SOL    HW116406   3.857   3.918   8.398 -1.3190  0.2941 -0.1457
 1590SOL    HW216407   3.859   3.919   8.257  1.7351 -0.9294  0.5165
 1591SOL     OW16408   1.013   1.082  10.716  0.0816  0.4619 -0.2994
 1591SOL    HW116409   1.085   1.113  10.662  0.9992 -0.7170  0.2663
 1591SOL    HW216410   1.057   1.044  10.792 -0.6912 -1.3428 -0.7769
 1592SOL     OW16411   1.619   3.137   6.064 -0.1896  0.3373  0.3895
 1592SOL    HW116412   1.669   3.215   6.089 -2.8920  1.0296  3.6600
 1592SOL    HW216413   1.538   3.175   6.030 -0.1640  0.7148  0.7450
 1593SOL     OW16414   4.404   2.503   2.640 -0.2250 -0.1627  0.3840
 1593SOL    HW116415   4.390   2.587   2.597 -0.9541 -0.1063  0.7407
 1593SOL    HW216416   4.364   2.454   2.568  2.3232  0.7319 -1.6563
 1594SOL     OW16417   4.702   1.556   3.100 -0.2065  0.0892  0.1070
 1594SOL    HW116418   4.647   1.585   3.027  0.1774 -0.8319 -0.5441
 1594SOL    HW216419   0.037   1.517   3.051 -0.6067 -1.6219  0.9001
 1595SOL     OW16420   1.623   2.687   6.866 -0.6546 -0.3398  0.4712
 1595SOL    HW116421   1.703   2.695   6.918 -1.1075 -1.5564  1.3330
 1595SOL    HW216422   1.557   2.657   6.928 -0.4783 -0.8772  0.3955
 1596SOL     OW16423   3.691   0.935   0.371  0.0020  0.1931  0.5350
 1596SOL    HW116424   3.785   0.947   0.358  0.2019 -1.5466  0.3895
 1596SOL    HW216425   3.694   0.977   0.457  0.6678 -0.9755  1.0709
 1597SOL     OW16426   1.709   3.731   5.249  0.5057 -0.1240 -0.6938
 1597SOL    HW116427   1.637   3.674   5.221 -0.4553  0.7225  0.0568
 1597SOL    HW216428   1.696   3.748   5.342  1.3207 -1.7521 -0.2981
 1598SOL     OW16429   0.370   0.898   4.005 -0.4366  0.2519 -0.7047
 1598SOL    HW116430   0.385   0.925   3.915 -0.3025 -0.1067 -0.7914
 1598SOL    HW216431   0.276   0.918   4.002 -0.4143  0.3852 -0.5164
 1599SOL     OW16432   2.428   1.062   7.147  0.2792 -0.1519  0.9329
 1599SOL    HW116433   2.395   1.109   7.223 -0.3762  0.0788  0.5083
 1599SOL    HW216434   2.512   1.107   7.136 -1.2642  2.8720  1.5431
 1600SOL     OW16435   4.216   1.766  13.440  0.3180  0.1927  0.0091
 1600SOL    HW116436   4.255   1.685  13.408  1.6236  1.0380 -0.5477
 1600SOL    HW216437   4.281   1.832  13.414 -0.6823  0.7229 -1.1108
 1601SOL     OW16438   4.574   3.996   8.379  0.0462  0.0174 -0.2021
 1601SOL    HW116439   4.485   4.018   8.408  0.2033 -1.5898  1.4452
 1601SOL    HW216440   4.558   3.962   8.291 -2.6273  0.3171  0.1578
 1602SOL     OW16441   1.303   0.066  12.193  0.3330 -0.0503 -0.4280
 1602SOL    HW116442   1.315   4.711  12.173 -1.5563 -0.2196 -0.6861
 1602SOL    HW216443   1.264   0.070  12.280 -1.2796  2.1378 -1.2805
 1603SOL     OW16444   1.907   4.002   3.366 -0.6340  0.1528 -0.4169
 1603SOL    HW116445   1.931   4.083   3.321 -1.0988 -0.2434 -1.3684
 1603SOL    HW216446   1.993   3.969   3.392 -0.9697 -0.3559  0.0241
 1604SOL     OW16447   3.122   1.885   8.042 -0.7149 -0.4478 -0.5232
 1604SOL    HW116448   3.138   1.830   8.119  0.3767 -0.2951 -0.6288
 1604SOL    HW216449   3.164   1.968   8.062 -0.2962 -1.0083  0.9311
 1605SOL     OW16450   0.042   0.624   6.575 -0.2065  0.0895  0.7852
 1605SOL    HW116451   0.138   0.628   6.572 -0.2787  0.0730 -1.0042
 1605SOL    HW216452   0.028   0.719   6.577  0.3705  0.1713  1.1245
 1606SOL     OW16453   0.508   1.677   8.629  0.0170 -0.6500  0.2994
 1606SOL    HW116454   0.531   1.675   8.722 -0.4037  1.6939  0.4658
 1606SOL    HW216455   0.599   1.685   8.602 -1.0037  0.1897 -2.8624
 1607SOL     OW16456   0.369   0.120   5.049  0.3148  0.0563 -0.1470
 1607SOL    HW116457   0.427   0.046   5.031  0.9062  1.3731 -3.6564
 1607SOL    HW216458   0.293   0.094   4.998 -0.3807  1.4118  0.2025
 1608SOL     OW16459   0.802   3.779   4.332 -0.0452 -0.2152 -0.3876
 1608SOL    HW116460   0.849   3.862   4.321 -0.2516  0.2643  2.0895
 1608SOL    HW216461   0.869   3.745   4.391  1.0411 -0.1135 -1.5956
 1609SOL     OW16462   0.714   2.027   9.127 -0.3262  0.0087  0.2568
 1609SOL    HW116463   0.782   1.998   9.066 -0.1699 -1.9284  1.3566
 1609SOL    HW216464   0.751   2.012   9.214 -1.9582 -1.6021  0.6717
 1610SOL     OW16465   2.101   3.696   1.855 -0.1303 -0.5615  0.5514
 1610SOL    HW116466   2.030   3.660   1.802 -1.0563  2.3750 -0.2168
 1610SOL    HW216467   2.058   3.755   1.918  1.0163  0.2982  0.5432
 1611SOL     OW16468   2.447   4.418   0.919  0.2572 -0.5210 -0.1045
 1611SOL    HW116469   2.413   4.479   0.984 -0.9632 -1.0314 -0.2665
 1611SOL    HW216470   2.509   4.475   0.874  1.1054 -0.1888  1.4921
 1612SOL     OW16471   4.320   3.208   4.825  0.0193  0.0494  0.0331
 1612SOL    HW116472   4.300   3.301   4.840  0.5674  0.3809 -1.2180
 1612SOL    HW216473   4.245   3.181   4.772  0.9716  0.9251 -1.7809
 1613SOL     OW16474   4.241   2.583   8.503  0.7487  0.2118 -0.1638
 1613SOL    HW116475   4.156   2.618   8.529  1.2403  0.1035  1.5719
 1613SOL    HW216476   4.272   2.522   8.570 -1.0860 -0.5645 -0.0146
 1614SOL     OW16477   3.882   3.013   1.719  0.1506  0.4330 -0.2633
 1614SOL    HW116478   3.850   3.097   1.754 -1.3452  0.2126 -1.0735
 1614SOL    HW216479   3.879   3.027   1.624 -1.4478 -0.1386 -0.3064
 1615SOL     OW16480   2.687   3.917   2.817  0.3853 -0.2886  0.3427
 1615SOL    HW116481   2.766   3.943   2.771 -0.6975  2.6667  0.1611
 1615SOL    HW216482   2.623   3.965   2.764  0.6204 -1.0979 -0.6698
 1616SOL     OW16483   3.233   4.380  10.488 -0.0565  0.1558  0.0785
 1616SOL    HW116484   3.214   4.287  10.503  0.3807  0.2086  0.9844
 1616SOL    HW216485   3.296   4.396  10.559  0.8235 -1.1485 -0.3968
 1617SOL     OW16486   0.262   4.402   3.946 -0.6165 -0.0377  0.5507
 1617SOL    HW116487   0.190   4.454   3.983  0.9961  2.6655 -0.1481
 1617SOL    HW216488   0.277   4.345   4.021 -1.2409  0.0291  0.7330
 1618SOL     OW16489   0.271   3.178   3.242  0.4671  0.2101  0.4185
 1618SOL    HW116490   0.219   3.222   3.309 -1.2409 -1.5506  0.2412
 1618SOL    HW216491   0.264   3.085   3.266 -2.4762  0.3805  0.1641
 1619SOL     OW16492   3.241   2.084   3.324 -0.8332  0.5206 -0.5868
 1619SOL    HW116493   3.175   2.039   3.271 -0.5781  0.3728 -0.7766
 1619SOL    HW216494   3.301   2.016   3.353 -1.8497  0.5729  1.6605
 1620SOL     OW16495   3.271   4.426   3.423 -0.8720  0.3779 -0.6973
 1620SOL    HW116496   3.293   4.494   3.487  0.9393  1.3618 -2.3476
 1620SOL    HW216497   3.177   4.421   3.437 -0.9349  1.0467 -0.8675
 1621SOL     OW16498   3.510   3.119   1.053  0.1723 -0.9246 -0.3039
 1621SOL    HW116499   3.576   3.051   1.067 -0.9495 -2.3566 -1.9642
 1621SOL    HW216500   3.523   3.132   0.959 -0.9825 -0.5098 -0.4133
 1622SOL     OW16501   4.399   2.598   5.778 -0.4554 -0.4901 -0.9999
 1622SOL    HW116502   4.462   2.561   5.717 -2.7106 -2.6823 -2.0136
 1622SOL    HW216503   4.325   2.552   5.737 -1.4952  1.5204 -1.3555
 1623SOL     OW16504   1.367   2.543  16.552  0.0543 -0.5175 -0.0203
 1623SOL    HW116505   1.299   2.526  16.487  1.5181  2.7748 -2.4005
 1623SOL    HW216506   1.421   2.466  16.532  1.8091  1.0056 -1.2444
 1624SOL     OW16507   2.427   4.595   6.729 -0.4580  0.4922  0.4002
 1624SOL    HW116508   2.419   4.682   6.767  0.8633  0.4237  0.8441
 1624SOL    HW216509   2.424   4.594   6.633  0.2339 -0.5182  0.3913
 1625SOL     OW16510   4.468   2.210  17.539  0.1076  0.1159 -0.0397
 1625SOL    HW116511   4.375   2.231  17.550 -0.1260 -1.9114  1.7331
 1625SOL    HW216512   4.463   2.143  17.470  0.1016 -0.6237  0.6823
 1626SOL     OW16513   0.577   2.990  12.909  0.1965 -0.1255 -0.1432
 1626SOL    HW116514   0.516   2.928  12.950  2.1799 -2.0021 -0.0448
 1626SOL    HW216515   0.563   2.975  12.816  1.7943  1.2541 -0.6053
 1627SOL     OW16516   2.758   3.861   9.309  0.2771 -0.8636  0.0601
 1627SOL    HW116517   2.830   3.920   9.332 -0.7920  1.4692 -2.5480
 1627SOL    HW216518   2.790   3.808   9.236  1.5296 -0.5663  0.3889
 1628SOL     OW16519   3.402   2.172   9.002 -0.1796  0.0227 -0.1878
 1628SOL    HW116520   3.479   2.208   8.959  1.0054 -0.8569  1.2183
 1628SOL    HW216521   3.327   2.205   8.952 -0.2795  0.6706  0.3761
 1629SOL     OW16522   1.818   2.201  10.299  0.0043 -1.4298 -0.2479
 1629SOL    HW116523   1.855   2.147  10.229  1.5762 -1.3556  0.5381
 1629SOL    HW216524   1.829   2.291  10.269 -0.0184 -1.5385 -0.5791
 1630SOL     OW16525   3.844   2.830   6.436  0.1799 -0.3761  0.0585
 1630SOL    HW116526   3.846   2.926   6.438  1.2417 -0.4064  0.2729
 1630SOL    HW216527   3.877   2.809   6.348  1.9347 -1.2682  0.9327
 1631SOL     OW16528   3.785   3.766  17.606  0.3420 -0.5212 -0.1075
 1631SOL    HW116529   3.782   3.780  17.512  1.1130 -0.0583 -0.0584
 1631SOL    HW216530   3.827   3.845  17.639  0.2947 -0.4459 -0.2284
 1632SOL     OW16531   3.525   3.519  10.827 -0.0187  0.0265  0.0818
 1632SOL    HW116532   3.599   3.576  10.846  0.2498  0.5562 -2.4912
 1632SOL    HW216533   3.559   3.460  10.760 -0.4971 -0.9926  0.7303
 1633SOL     OW16534   2.013   1.686   4.067  0.1607  0.3154  0.2177
 1633SOL    HW116535   2.010   1.591   4.064  1.8251  0.2754 -0.4714
 1633SOL    HW216536   1.924   1.697   4.035  0.5467  1.9545 -0.3196
 1634SOL     OW16537   0.727   3.436   3.157 -0.5074 -0.0092 -0.1219
 1634SOL    HW116538   0.657   3.371   3.160  0.2548 -0.8491 -0.4389
 1634SOL    HW216539   0.792   3.374   3.122 -1.6373 -1.1780 -0.1556
 1635SOL     OW16540   3.770   0.576   7.317 -0.1292  0.0436 -0.3183
 1635SOL    HW116541   3.688   0.606   7.278  0.2604  0.4545 -0.8285
 1635SOL    HW216542   3.805   0.658   7.352  1.7842 -0.1245 -1.8185
 1636SOL     OW16543   3.808   4.655   1.921  0.1844 -0.2869 -0.3180
 1636SOL    HW116544   3.751   4.595   1.873 -0.9244  0.5999 -0.1174
 1636SOL    HW216545   3.839   4.595   1.989  0.1520 -1.1348 -1.0588
 1637SOL     OW16546   3.721   1.290   6.793 -0.0780  0.3114 -0.2005
 1637SOL    HW116547   3.798   1.236   6.814 -1.2298 -1.4508 -0.4895
 1637SOL    HW216548   3.738   1.382   6.813  0.7727  0.6871 -2.6380
 1638SOL     OW16549   1.316   1.238   8.646 -0.6926 -0.1717 -0.0465
 1638SOL    HW116550   1.288   1.177   8.578  0.9655 -1.4144  0.3977
 1638SOL    HW216551   1.390   1.285   8.607 -0.8220  0.1693  0.1240
 1639SOL     OW16552   1.744   0.813   8.447  0.1282  0.1654 -0.1365
 1639SOL    HW116553   1.697   0.768   8.516 -1.3599 -0.8524 -1.8034
 1639SOL    HW216554   1.761   0.747   8.380 -1.0307 -0.9505  0.6762
 1640SOL     OW16555   2.443   3.501   8.988  0.6260 -0.0587  0.2727
 1640SOL    HW116556   2.476   3.415   8.963 -0.3990 -0.0206 -1.1614
 1640SOL    HW216557   2.480   3.511   9.076  2.9664  2.0993 -0.9613
 1641SOL     OW16558   3.066   1.769   8.356 -0.7901  0.0245  0.2684
 1641SOL    HW116559   2.978   1.758   8.322 -0.1470 -0.4536 -1.2571
 1641SOL    HW216560   3.055   1.825   8.433  2.3122 -1.3469  1.7164
 1642SOL     OW16561   4.503   0.775  11.428  0.0724  0.7273 -0.1560
 1642SOL    HW116562   4.452   0.737  11.357  0.0735 -0.4036  0.4446
 1642SOL    HW216563   4.453   0.854  11.448 -1.7780 -0.6140  0.4980
 1643SOL     OW16564   3.875   0.332   4.446 -0.3021  0.2982 -0.4068
 1643SOL    HW116565   3.908   0.410   4.490  1.7737 -2.3429  2.7370
 1643SOL    HW216566   3.868   0.262   4.511 -1.5416  1.6469  0.9070
 1644SOL     OW16567   0.614   3.585   4.184  0.9084  0.4591  0.1499
 1644SOL    HW116568   0.651   3.636   4.255 -1.4644 -1.1770  2.5341
 1644SOL    HW216569   0.589   3.652   4.120  0.5500 -1.1407 -1.3930
 1645SOL     OW16570   3.706   4.690   6.246 -0.0969 -0.1544 -0.2375
 1645SOL    HW116571   3.767   0.026   6.244 -1.3237  0.8957  2.2069
 1645SOL    HW216572   3.763   4.615   6.226  0.6157  0.5302 -0.8152
 1646SOL     OW16573   1.489   2.972   1.994 -0.8530  0.0010  0.0729
 1646SOL    HW116574   1.580   2.964   2.021 -0.7965  0.3146 -0.0266
 1646SOL    HW216575   1.448   2.901   2.044  1.0093 -0.4832  0.8839
 1647SOL     OW16576   1.676   1.714   3.378  0.1609  0.0707  0.1033
 1647SOL    HW116577   1.585   1.685   3.380  0.3260 -0.3120  1.8171
 1647SOL    HW216578   1.727   1.635   3.359 -0.3348 -0.3166  0.3885
 1648SOL     OW16579   4.498   1.613   5.807  0.2906  0.0507 -0.6557
 1648SOL    HW116580   4.578   1.578   5.768 -1.5448 -2.0411 -2.5362
 1648SOL    HW216581   4.521   1.705   5.824 -0.1427 -0.2779  1.7208
 1649SOL     OW16582   1.118   2.532   4.554 -0.3529 -0.2957 -0.0517
 1649SOL    HW116583   1.088   2.609   4.507  2.9842  1.9606  1.4830
 1649SOL    HW216584   1.210   2.560   4.557 -1.1452  2.3207  0.1652
 1650SOL     OW16585   3.047   4.535   7.979  0.1681 -0.5553 -0.0453
 1650SOL    HW116586   3.141   4.534   7.997  0.3892 -1.4634 -1.2430
 1650SOL    HW216587   3.030   4.450   7.939 -0.9851  0.1117 -0.9942
 1651SOL     OW16588   4.375   4.226   8.668  0.3785 -0.2629 -0.1192
 1651SOL    HW116589   4.360   4.272   8.751  2.1334  0.7895 -0.4073
 1651SOL    HW216590   4.468   4.244   8.660  0.7542 -2.6580 -1.2944
 1652SOL     OW16591   2.903   4.475  17.036  0.1086 -0.0146 -0.0124
 1652SOL    HW116592   2.855   4.539  16.984  0.4753 -0.2949 -0.6947
 1652SOL    HW216593   2.998   4.489  17.034  0.1488 -0.3890 -0.9711
 1653SOL     OW16594   0.178   3.697  14.123  0.3995 -0.0734  0.3107
 1653SOL    HW116595   0.263   3.654  14.133  1.1590  1.0796 -1.2712
 1653SOL    HW216596   0.176   3.756  14.199  0.2383  1.0023 -0.5187
 1654SOL     OW16597   1.693   2.348   1.683  0.3847 -0.1337  0.6269
 1654SOL    HW116598   1.610   2.353   1.731  0.1994 -0.2170  0.3158
 1654SOL    HW216599   1.749   2.303   1.746  0.5822 -0.3537  0.2944
 1655SOL     OW16600   2.565   0.642   1.860  0.6712 -1.2593 -0.0355
 1655SOL    HW116601   2.492   0.704   1.851  1.3759 -0.6499 -1.5831
 1655SOL    HW216602   2.531   0.566   1.907  0.4337 -0.2237  1.4664
 1656SOL     OW16603   1.098   2.721  11.409 -0.2849 -0.3981 -0.5965
 1656SOL    HW116604   1.025   2.772  11.375 -0.6181 -0.1082  0.5723
 1656SOL    HW216605   1.071   2.630  11.394  0.4011 -0.5948 -0.6770
 1657SOL     OW16606   1.949   3.054   7.630 -0.5993 -0.1880 -0.3826
 1657SOL    HW116607   2.042   3.054   7.608 -0.7185  0.4078 -0.9030
 1657SOL    HW216608   1.914   3.052   7.540  0.9804  1.7716 -1.0526
 1658SOL     OW16609   3.971   1.031   0.794 -0.2333 -0.0275 -0.9637
 1658SOL    HW116610   3.961   1.083   0.873  1.5773  0.3724 -1.0138
 1658SOL    HW216611   4.052   1.061   0.753 -0.1556  1.5748  0.3916
 1659SOL     OW16612   4.260   3.753  15.238  0.3561 -0.1691 -0.1940
 1659SOL    HW116613   4.338   3.799  15.205  1.2218 -1.3438  0.1991
 1659SOL    HW216614   4.204   3.830  15.230  0.0193 -0.5179 -1.1455
 1660SOL     OW16615   2.110   2.479  14.293 -0.4458  0.5194 -0.5082
 1660SOL    HW116616   2.197   2.505  14.263 -0.3206 -0.2628 -0.8163
 1660SOL    HW216617   2.079   2.414  14.230 -0.3938  0.7763 -0.8027
 1661SOL     OW16618   2.822   3.524   0.494 -0.1428 -0.8082  0.0885
 1661SOL    HW116619   2.862   3.546   0.578 -0.6340  1.8018 -0.3563
 1661SOL    HW216620   2.791   3.436   0.516 -1.1839 -0.9179 -1.8252
 1662SOL     OW16621   1.047   1.980   8.838  0.0896  0.1715 -0.0611
 1662SOL    HW116622   1.053   1.956   8.745 -0.3959 -1.3046  0.2969
 1662SOL    HW216623   1.140   2.002   8.842 -0.3237  1.4435  2.3503
 1663SOL     OW16624   4.342   4.718  11.776 -0.0216 -0.0543  0.5553
 1663SOL    HW116625   4.260   4.709  11.825  0.1047 -0.7123  0.6483
 1663SOL    HW216626   4.390   4.645  11.814 -0.8248 -0.7919  0.1583
 1664SOL     OW16627   3.300   2.957   1.821  0.5490 -0.2722 -0.7047
 1664SOL    HW116628   3.365   3.027   1.817 -1.3864  1.4125 -3.6902
 1664SOL    HW216629   3.230   3.015   1.851  0.3028 -1.2523  0.6022
 1665SOL     OW16630   3.640   3.123   0.123  0.4838 -0.2604  0.2652
 1665SOL    HW116631   3.717   3.136   0.067 -0.1647 -0.0927 -0.5837
 1665SOL    HW216632   3.641   3.216   0.143  0.3422 -0.1885 -0.0697
 1666SOL     OW16633   4.429   4.286  13.463 -0.6369 -0.0816 -0.3334
 1666SOL    HW116634   4.378   4.250  13.536 -2.1720 -0.1871 -1.4571
 1666SOL    HW216635   4.461   4.206  13.423 -0.1156  0.0120 -0.1010
 1667SOL     OW16636   3.467   1.468  14.491  0.1423 -0.3053 -0.1375
 1667SOL    HW116637   3.398   1.461  14.424  0.2882  2.0030 -0.5472
 1667SOL    HW216638   3.408   1.501  14.559 -0.8874  0.0030 -1.1735
 1668SOL     OW16639   4.016   1.613   9.245 -0.4602  0.3325 -0.5987
 1668SOL    HW116640   4.041   1.544   9.184 -0.7694  0.1591 -0.5304
 1668SOL    HW216641   4.019   1.694   9.193 -1.3382  0.8538  0.1477
 1669SOL     OW16642   0.757   2.223   7.800  0.3015  0.3175  0.1836
 1669SOL    HW116643   0.848   2.253   7.798  1.4402 -3.1562 -0.8580
 1669SOL    HW216644   0.721   2.284   7.736  3.1096 -0.1893 -1.8973
 1670SOL     OW16645   2.472   1.513   8.676  0.0851 -0.4136  0.4229
 1670SOL    HW116646   2.449   1.550   8.761  0.8758  1.1754 -0.0510
 1670SOL    HW216647   2.525   1.443   8.713  1.3240  1.4882  2.2227
 1671SOL     OW16648   4.605   2.131  16.772  0.4394  0.2180 -0.1511
 1671SOL    HW116649   4.666   2.079  16.824  0.4293 -0.7841 -1.1502
 1671SOL    HW216650   4.658   2.157  16.697  0.4650 -1.2321 -0.6269
 1672SOL     OW16651   1.030   4.632   3.999 -0.0664 -0.5544  0.0846
 1672SOL    HW116652   1.098   4.625   4.066  0.8658 -2.4807 -1.0710
 1672SOL    HW216653   0.964   4.638   4.068  0.9902 -0.0810  1.0404
 1673SOL     OW16654   4.093   1.451   3.578 -0.4375 -0.6898  0.3672
 1673SOL    HW116655   4.059   1.399   3.505 -0.1753  0.8880 -0.8876
 1673SOL    HW216656   4.185   1.449   3.552 -0.8533 -3.4549 -0.8450
 1674SOL     OW16657   2.741   3.461   3.820  0.0316 -0.3672  0.0167
 1674SOL    HW116658   2.726   3.419   3.905 -3.0490  0.5127 -0.0894
 1674SOL    HW216659   2.651   3.474   3.789  0.7350  2.8591 -0.6329
 1675SOL     OW16660   2.475   2.768   6.945  0.1477  0.1457  0.2435
 1675SOL    HW116661   2.391   2.802   6.915  0.1394  0.6721  0.8796
 1675SOL    HW216662   2.492   2.701   6.878  2.0939  0.1551  0.7395
 1676SOL     OW16663   3.671   3.740   4.538  0.4661  0.0735 -0.6354
 1676SOL    HW116664   3.700   3.720   4.449 -1.6944  1.7484 -1.7011
 1676SOL    HW216665   3.606   3.807   4.520  0.1968 -0.1477 -0.4941
 1677SOL     OW16666   0.069   2.770  12.534 -0.2902 -0.0670 -0.0748
 1677SOL    HW116667   4.737   2.705  12.546 -1.1558  1.1233  1.2375
 1677SOL    HW216668   0.121   2.730  12.464 -2.1197  1.1130 -2.1384
 1678SOL     OW16669   1.892   2.946   1.574  0.4750 -0.9564  0.4808
 1678SOL    HW116670   1.827   2.890   1.531 -0.7163 -0.0013  1.0402
 1678SOL    HW216671   1.971   2.925   1.524 -0.7007  2.7221 -2.9459
 1679SOL     OW16672   4.137   1.767   5.154 -0.7641  0.0410 -0.2203
 1679SOL    HW116673   4.042   1.765   5.166 -0.5551  0.9739  1.5339
 1679SOL    HW216674   4.155   1.700   5.087 -1.0755  0.0326 -0.2955
 1680SOL     OW16675   1.270   4.062   3.567 -0.0019 -0.6878  0.6419
 1680SOL    HW116676   1.295   3.978   3.528 -0.5472 -0.4190 -0.2912
 1680SOL    HW216677   1.256   4.032   3.656 -1.0509  1.0421  1.0507
 1681SOL     OW16678   0.930   1.592   7.795  0.8235  0.5947  0.2154
 1681SOL    HW116679   0.941   1.680   7.830 -0.8345  0.9921 -0.2521
 1681SOL    HW216680   1.008   1.550   7.831  1.7900  2.3239  0.1275
 1682SOL     OW16681   1.970   0.668  17.158  0.3564 -0.2377  0.4858
 1682SOL    HW116682   1.912   0.726  17.109 -0.2795 -0.0921  1.4011
 1682SOL    HW216683   1.910   0.661  17.232 -0.4374 -0.7875 -0.2107
 1683SOL     OW16684   2.548   2.250   9.048 -0.2799 -0.2854 -0.1639
 1683SOL    HW116685   2.579   2.280   8.962  1.9831 -2.6254 -0.1575
 1683SOL    HW216686   2.481   2.186   9.024 -1.9539  1.0322  1.0329
 1684SOL     OW16687   3.261   2.339   8.818 -0.3057 -0.1269 -0.4274
 1684SOL    HW116688   3.215   2.260   8.791 -0.8752 -0.5455  1.7435
 1684SOL    HW216689   3.254   2.403   8.747 -2.5688 -1.6994 -1.5959
 1685SOL     OW16690   0.888   0.814   2.363 -0.1610 -0.2653 -0.5195
 1685SOL    HW116691   0.834   0.738   2.339  0.6802 -0.9510 -0.2619
 1685SOL    HW216692   0.830   0.883   2.395  1.5110  0.6462  0.5605
 1686SOL     OW16693   4.086   4.494   5.343  0.0134  0.3975  0.3306
 1686SOL    HW116694   4.067   4.526   5.432 -0.9471  1.1796 -0.1461
 1686SOL    HW216695   4.066   4.568   5.285  1.1646 -1.4400 -2.4167
 1687SOL     OW16696   3.655   2.353   4.455 -0.1050  0.0849  0.3488
 1687SOL    HW116697   3.713   2.421   4.490 -0.2745  0.6433 -0.4657
 1687SOL    HW216698   3.703   2.342   4.373  0.2051 -0.8036  0.6391
 1688SOL     OW16699   0.795   2.426   6.264  1.0975 -0.3906  0.0029
 1688SOL    HW116700   0.739   2.504   6.258  2.0047  0.1928 -0.7502
 1688SOL    HW216701   0.747   2.360   6.214  0.8834  0.9372 -1.5347
 1689SOL     OW16702   4.579   0.118   6.439 -0.1726  0.0166 -0.4634
 1689SOL    HW116703   4.671   0.125   6.465 -0.4773  0.3331  0.5309
 1689SOL    HW216704   4.548   0.067   6.514  0.9742  0.7652  0.5260
 1690SOL     OW16705   3.111   2.869   1.375  0.2770  0.2184 -0.4286
 1690SOL    HW116706   3.187   2.811   1.366  0.3062 -0.2910  3.1147
 1690SOL    HW216707   3.078   2.823   1.451  0.0356 -0.9226 -1.2206
 1691SOL     OW16708   3.191   3.471  10.888  0.1707 -0.4600  0.1712
 1691SOL    HW116709   3.249   3.429  10.951 -0.9115  1.2049  2.2694
 1691SOL    HW216710   3.121   3.406  10.880 -1.8566  1.8437 -0.8951
 1692SOL     OW16711   4.360   0.086   0.800  0.5711  0.0954  0.0025
 1692SOL    HW116712   4.423   0.156   0.787  2.7620 -1.7145  0.9030
 1692SOL    HW216713   4.408   0.019   0.849 -0.3804 -0.6650 -0.0930
 1693SOL     OW16714   0.757   2.877  17.479 -0.3097 -0.1456 -0.2971
 1693SOL    HW116715   0.708   2.949  17.440  1.9661  0.1593 -2.5805
 1693SOL    HW216716   0.847   2.900  17.456 -0.8843  1.6862 -0.7104
 1694SOL     OW16717   4.553   3.603   8.382  0.0421  0.0174 -0.4670
 1694SOL    HW116718   4.463   3.634   8.397  0.1185 -0.9687  1.9980
 1694SOL    HW216719   4.576   3.651   8.302 -0.6490  0.7273 -0.2440
 1695SOL     OW16720   4.179   0.274   3.531 -0.0795 -0.3064  0.0437
 1695SOL    HW116721   4.084   0.284   3.527 -0.1902 -1.2728  0.2297
 1695SOL    HW216722   4.190   0.197   3.475  0.1190 -0.8844  0.8804
 1696SOL     OW16723   0.535   3.676   7.737  0.0417 -0.0186  0.0415
 1696SOL    HW116724   0.564   3.662   7.647 -0.2203  1.5782 -0.2790
 1696SOL    HW216725   0.568   3.763   7.758 -1.4478  0.1131  1.8351
 1697SOL     OW16726   2.314   1.467   3.304  0.2359  0.1888 -0.1299
 1697SOL    HW116727   2.304   1.380   3.266  1.5237  0.5693 -1.3400
 1697SOL    HW216728   2.314   1.533   3.235  3.6151 -0.1375 -0.4537
 1698SOL     OW16729   4.621   3.818  10.684  0.1052 -0.1039  0.4701
 1698SOL    HW116730   4.716   3.816  10.688  0.1325  0.8089  0.2754
 1698SOL    HW216731   4.591   3.879  10.752 -0.3108  0.4143 -0.1735
 1699SOL     OW16732   2.755   0.975   4.403  0.1607  0.1078  0.1684
 1699SOL    HW116733   2.827   1.035   4.421  1.5842 -1.4547 -0.2609
 1699SOL    HW216734   2.724   1.009   4.319  0.3503  0.2536  0.1600
 1700SOL     OW16735   2.710   2.734  17.700 -0.3917 -0.1249 -0.2721
 1700SOL    HW116736   2.639   2.690  17.653  0.4591 -1.3493 -0.4297
 1700SOL    HW216737   2.788   2.720  17.647  1.2187 -0.4172  2.1706
 1701SOL     OW16738   1.055   0.946   3.033 -0.0162  0.0501 -0.3709
 1701SOL    HW116739   1.134   0.922   2.985  0.3464 -0.8353  0.6688
 1701SOL    HW216740   1.094   0.998   3.104  1.4822  0.0616 -1.2134
 1702SOL     OW16741   2.231   4.263   5.848  0.5297  0.1188  0.3013
 1702SOL    HW116742   2.248   4.354   5.823 -2.7875  0.5650 -0.3486
 1702SOL    HW216743   2.223   4.282   5.941 -0.3457  0.2587  0.1957
 1703SOL     OW16744   0.570   0.107  13.350  0.1700  0.7986 -0.3644
 1703SOL    HW116745   0.474   0.105  13.355  0.2007  0.6533  0.1464
 1703SOL    HW216746   0.589   0.197  13.377 -0.2144  0.5029  0.8466
 1704SOL     OW16747   3.081   3.731   0.939  0.5951  0.7504  0.5400
 1704SOL    HW116748   3.025   3.781   0.999  1.5048  2.5031 -0.0561
 1704SOL    HW216749   3.115   3.795   0.876  0.1945  0.0780 -0.3379
 1705SOL     OW16750   1.291   1.151   6.436  0.3434  0.2116 -0.2437
 1705SOL    HW116751   1.238   1.173   6.359 -0.7864  0.5673  0.6368
 1705SOL    HW216752   1.221   1.143   6.501 -0.7302  1.9161 -1.1680
 1706SOL     OW16753   2.314   4.078   9.867 -0.6848  0.5701  0.5084
 1706SOL    HW116754   2.378   4.147   9.883  1.9649 -1.2341 -2.2734
 1706SOL    HW216755   2.374   4.004   9.856 -0.8777  0.2538  1.6562
 1707SOL     OW16756   4.327   1.022   6.397  0.6370  0.7783  0.3073
 1707SOL    HW116757   4.294   1.054   6.481  1.6063  3.0466 -0.1746
 1707SOL    HW216758   4.379   0.949   6.430  1.2967  0.5664 -1.2153
 1708SOL     OW16759   1.358   2.547   4.271 -0.0560 -0.1847  0.5421
 1708SOL    HW116760   1.325   2.563   4.359 -0.0840  2.5388  0.0229
 1708SOL    HW216761   1.438   2.499   4.293  1.0292  1.4911  0.1570
 1709SOL     OW16762   4.647   0.487   5.020  0.5071 -0.2544  0.0769
 1709SOL    HW116763   4.601   0.554   4.969  1.0420  0.5786  0.6834
 1709SOL    HW216764   4.638   0.533   5.103 -2.2625 -1.1061  0.2539
 1710SOL     OW16765   0.485   0.769   5.774  0.1215  0.3128 -0.4139
 1710SOL    HW116766   0.553   0.750   5.839  1.0957 -1.2991 -1.9030
 1710SOL    HW216767   0.406   0.725   5.804  1.4714 -1.4853  0.5094
 1711SOL     OW16768   1.318   4.001  15.669  0.0569 -0.2083  0.3221
 1711SOL    HW116769   1.299   3.996  15.762  1.5107  0.2923  0.6352
 1711SOL    HW216770   1.393   4.059  15.679 -0.9857  1.7120 -2.6235
 1712SOL     OW16771   2.208   1.145   6.982 -0.0686  0.0639 -0.1745
 1712SOL    HW116772   2.293   1.138   7.025  0.8249  1.6413 -1.6660
 1712SOL    HW216773   2.182   1.222   7.033  2.3252  1.2434 -0.7675
 1713SOL     OW16774   1.352   3.440   9.376  0.2557  0.0497  0.2567
 1713SOL    HW116775   1.367   3.532   9.400  0.8966  0.1806 -0.6580
 1713SOL    HW216776   1.261   3.422   9.401  0.1348  1.1851  0.6357
 1714SOL     OW16777   2.830   0.569  16.706 -0.0615 -0.1391  0.1736
 1714SOL    HW116778   2.757   0.514  16.678  0.2943 -1.7568  2.4142
 1714SOL    HW216779   2.788   0.623  16.774  1.0248 -0.1591  0.8708
 1715SOL     OW16780   1.064   3.946  12.630 -0.2340  0.7142  0.2564
 1715SOL    HW116781   1.102   3.920  12.714 -1.4475  2.9132  1.4952
 1715SOL    HW216782   1.093   4.037  12.625 -0.1250  0.6756  0.1728
 1716SOL     OW16783   0.849   0.931   4.587  0.7640  0.4265  0.3162
 1716SOL    HW116784   0.911   0.886   4.645  0.6348 -0.4340 -0.1956
 1716SOL    HW216785   0.892   1.006   4.546  0.2939  0.5926  0.1217
 1717SOL     OW16786   4.147   2.724   4.890  0.1295 -0.6175  0.1779
 1717SOL    HW116787   4.115   2.636   4.908 -0.4772 -0.5601 -0.6014
 1717SOL    HW216788   4.080   2.792   4.889  2.2138  1.4687  2.6059
 1718SOL     OW16789   0.540   3.438  13.905 -0.1552 -0.5980  0.2951
 1718SOL    HW116790   0.623   3.482  13.926 -0.2903 -0.5021  0.6283
 1718SOL    HW216791   0.537   3.353  13.949 -1.2320 -0.2222  0.9514
 1719SOL     OW16792   3.203   2.598  12.435  0.1964 -0.1323  0.0132
 1719SOL    HW116793   3.258   2.559  12.502  0.3684 -2.5012 -1.4752
 1719SOL    HW216794   3.220   2.692  12.438  2.1925 -0.5286  0.8241
 1720SOL     OW16795   2.996   4.648   0.199 -0.5002 -0.7663 -0.2868
 1720SOL    HW116796   2.949   4.648   0.115  1.3064 -0.5184 -1.3067
 1720SOL    HW216797   2.926   4.648   0.264 -1.6521  0.6927 -1.5088
 1721SOL     OW16798   2.046   0.168   2.183 -0.1112  0.2374  0.4102
 1721SOL    HW116799   2.004   0.204   2.261  0.5233 -1.4228  1.5291
 1721SOL    HW216800   2.134   0.206   2.186  0.9114 -2.1366  0.5744
 1722SOL     OW16801   1.417   1.197  11.434 -0.7633 -0.3429 -0.8933
 1722SOL    HW116802   1.474   1.239  11.369  0.2608 -2.2676 -1.2090
 1722SOL    HW216803   1.352   1.267  11.449  1.7921  2.0939 -1.1836
 1723SOL     OW16804   1.801   1.053  15.284  0.0727  0.1748  0.6248
 1723SOL    HW116805   1.762   1.015  15.363  0.2307 -0.8286  0.2155
 1723SOL    HW216806   1.725   1.058  15.227 -1.3841 -1.0311  2.4616
 1724SOL     OW16807   0.949   1.631   8.357 -0.2344 -0.2031  0.3149
 1724SOL    HW116808   0.930   1.543   8.324  2.0770 -1.1744  1.5978
 1724SOL    HW216809   0.886   1.636   8.429  0.8291 -3.8717  1.4734
 1725SOL     OW16810   4.154   4.600   2.023  0.6000  0.0831 -0.5586
 1725SOL    HW116811   4.079   4.560   2.066  0.7105 -0.9188 -1.3220
 1725SOL    HW216812   4.220   4.531   2.021 -1.1532 -1.5189 -1.7907
 1726SOL     OW16813   3.527   4.171  16.124  0.2389  0.4002 -0.0622
 1726SOL    HW116814   3.582   4.231  16.174 -1.7478 -0.3943  3.0960
 1726SOL    HW216815   3.451   4.164  16.182  0.0214  2.5044 -0.0960
 1727SOL     OW16816   0.797   4.580   2.584 -0.1839 -0.5681  0.0373
 1727SOL    HW116817   0.883   4.538   2.577  1.3143  2.5255 -0.3669
 1727SOL    HW216818   0.772   4.561   2.675 -1.0200 -1.8004 -0.4486
 1728SOL     OW16819   0.046   2.164   7.497  0.0081 -0.6263  0.2508
 1728SOL    HW116820   0.039   2.069   7.488 -2.2386 -0.6299  1.9995
 1728SOL    HW216821   0.138   2.176   7.517  0.2595 -1.5587 -0.3613
 1729SOL     OW16822   1.519   1.719   5.931  0.1658  0.2556  0.2068
 1729SOL    HW116823   1.469   1.717   6.013  1.4610 -0.9234  0.9853
 1729SOL    HW216824   1.598   1.671   5.955  0.3414 -0.6324 -2.1333
 1730SOL     OW16825   3.063   2.919   3.778 -0.3997 -0.4681  0.2026
 1730SOL    HW116826   3.149   2.889   3.807  0.5271  2.1877  0.1799
 1730SOL    HW216827   3.075   2.933   3.684 -4.5337  1.4378 -0.0316
 1731SOL     OW16828   3.689   2.523  11.263  0.4711  0.1192 -0.0252
 1731SOL    HW116829   3.689   2.438  11.307 -0.6399 -0.4018 -1.0277
 1731SOL    HW216830   3.658   2.498  11.176  0.8952  3.1023 -1.0582
 1732SOL     OW16831   2.929   0.764   4.765 -0.1280  0.1437  0.3316
 1732SOL    HW116832   2.833   0.756   4.762 -0.0585 -1.1729  1.3425
 1732SOL    HW216833   2.948   0.700   4.697  0.1903  0.3622  0.2179
 1733SOL     OW16834   0.877   1.093   5.281  0.1955  0.2206  0.3084
 1733SOL    HW116835   0.841   1.106   5.193  0.0912 -0.5651  0.2332
 1733SOL    HW216836   0.877   1.182   5.316 -0.3804 -0.4010  1.8743
 1734SOL     OW16837   3.401   1.727   5.253  0.4362 -0.1146 -0.0220
 1734SOL    HW116838   3.374   1.734   5.161 -1.8218  1.6141  0.7628
 1734SOL    HW216839   3.441   1.814   5.258 -0.5115  0.3424 -0.2439
 1735SOL     OW16840   2.448   2.926   6.347 -0.0410  0.4948  0.1612
 1735SOL    HW116841   2.384   2.919   6.276  0.1692 -1.5525  0.1668
 1735SOL    HW216842   2.533   2.917   6.304  0.6296 -0.5300  1.7235
 1736SOL     OW16843   1.799   1.084   6.632 -0.4286  1.0226  0.0155
 1736SOL    HW116844   1.790   1.172   6.669 -1.4796 -0.6847  3.8549
 1736SOL    HW216845   1.878   1.059   6.680  0.1494 -0.5701 -1.7291
 1737SOL     OW16846   4.065   2.918   1.059 -0.3245 -0.0239  0.7672
 1737SOL    HW116847   4.148   2.871   1.068  0.2990  1.1736  1.2892
 1737SOL    HW216848   4.077   2.988   1.124 -3.7891 -0.4952  1.8797
 1738SOL     OW16849   3.444   3.333   8.818  0.1819  0.0829  0.4469
 1738SOL    HW116850   3.477   3.321   8.729  1.2180 -1.6701  1.0463
 1738SOL    HW216851   3.451   3.428   8.816  1.3956 -0.0827 -2.8115
 1739SOL     OW16852   2.550   3.427   2.540 -0.6277 -0.3968 -0.3558
 1739SOL    HW116853   2.623   3.441   2.600 -1.0715  0.0124  0.0875
 1739SOL    HW216854   2.486   3.431   2.612 -1.1105 -0.7290 -0.7631
 1740SOL     OW16855   4.538   2.896   5.460 -0.0607 -0.2304 -0.5523
 1740SOL    HW116856   4.462   2.843   5.437  0.0128 -0.8322  0.5558
 1740SOL    HW216857   4.600   2.843   5.410  1.6866  0.4379  0.9132
 1741SOL     OW16858   0.099   0.717   4.716 -0.2875  0.2705  0.0524
 1741SOL    HW116859   0.078   0.624   4.727  0.0318  0.4131  1.9467
 1741SOL    HW216860   0.093   0.745   4.808  0.3261  0.1859  0.1160
 1742SOL     OW16861   3.821   4.556   0.568  0.2089  0.7407  0.2250
 1742SOL    HW116862   3.764   4.632   0.572 -0.1199  0.4900  0.3345
 1742SOL    HW216863   3.803   4.533   0.477 -1.8094 -1.5501  1.2105
 1743SOL     OW16864   1.379   0.174   8.026  0.1757  0.0057 -0.5701
 1743SOL    HW116865   1.289   0.206   8.035  0.2219  0.1438 -0.5926
 1743SOL    HW216866   1.426   0.251   8.057  0.5007 -1.0607  1.5922
 1744SOL     OW16867   3.239   1.091   3.249  0.3447  0.2521 -0.0921
 1744SOL    HW116868   3.262   1.032   3.177 -0.6943 -1.0522  0.6263
 1744SOL    HW216869   3.235   1.022   3.317 -1.1012 -1.8191 -2.2876
 1745SOL     OW16870   1.184   1.385   2.417 -0.5462  0.4049  0.3708
 1745SOL    HW116871   1.139   1.309   2.379 -0.2759  0.2086  0.4476
 1745SOL    HW216872   1.170   1.457   2.356  0.1470 -1.5641 -2.1186
 1746SOL     OW16873   2.104   3.326  15.416 -0.5512  0.2483 -0.1382
 1746SOL    HW116874   2.151   3.407  15.437 -0.7633 -0.1170  1.7188
 1746SOL    HW216875   2.023   3.357  15.457 -2.0737 -2.2503 -1.3010
 1747SOL     OW16876   1.277   1.874  10.277 -0.3261  0.0567  0.0082
 1747SOL    HW116877   1.232   1.847  10.197  0.3496 -0.3284 -0.2436
 1747SOL    HW216878   1.300   1.963  10.252 -1.0431  0.0857 -0.5681
 1748SOL     OW16879   4.648   3.080   5.603 -0.3954  0.1150  0.2158
 1748SOL    HW116880   4.608   3.009   5.552  0.6011 -1.3606  1.5288
 1748SOL    HW216881   4.628   3.064   5.695 -0.1950  1.1290  0.4392
 1749SOL     OW16882   4.577   0.370   7.182  0.4279 -0.0570 -0.1927
 1749SOL    HW116883   4.569   0.374   7.087  1.0968 -1.0404 -0.2880
 1749SOL    HW216884   4.671   0.356   7.195 -0.1593 -0.7145  3.3491
 1750SOL     OW16885   2.086   2.563   0.571  0.0234 -0.2477 -0.3130
 1750SOL    HW116886   2.121   2.474   0.580 -1.4219 -0.6156  1.6303
 1750SOL    HW216887   2.169   2.604   0.545  0.9251 -1.3964  0.7649
 1751SOL     OW16888   2.383   0.711   3.382  0.5485  0.5081  0.4210
 1751SOL    HW116889   2.319   0.741   3.318  1.0095  1.7103  0.5152
 1751SOL    HW216890   2.366   0.617   3.382  1.0518  0.4095  2.1380
 1752SOL     OW16891   0.943   3.387   6.042  0.2591  0.2963 -0.0916
 1752SOL    HW116892   0.848   3.378   6.042  0.3243 -0.5063 -2.1269
 1752SOL    HW216893   0.956   3.296   6.069  0.3336  0.6612  1.0960
 1753SOL     OW16894   0.635   4.610   3.959 -0.5120 -0.6800  0.0415
 1753SOL    HW116895   0.548   4.645   3.979 -0.8741 -1.9029  0.6039
 1753SOL    HW216896   0.681   4.596   4.043 -0.1355  1.5750  0.2134
 1754SOL     OW16897   3.388   2.627   3.398  0.5162  0.6797  0.1829
 1754SOL    HW116898   3.384   2.531   3.404  0.4621  0.7632  1.4712
 1754SOL    HW216899   3.394   2.645   3.305 -2.4218 -0.2156 -0.1851
 1755SOL     OW16900   3.080   1.712  14.444 -0.0604 -0.0167  0.3193
 1755SOL    HW116901   3.078   1.628  14.399 -1.4325 -0.0345  0.3985
 1755SOL    HW216902   2.985   1.724  14.434 -0.3156 -0.8530  1.6502
 1756SOL     OW16903   3.081   1.867  13.538  0.2517  0.4463 -0.5625
 1756SOL    HW116904   3.047   1.956  13.542  0.4485  0.5563 -1.3764
 1756SOL    HW216905   3.117   1.853  13.625 -0.5496  1.2268 -0.1014
 1757SOL     OW16906   3.815   1.375   3.273  0.4479 -0.4539  0.3445
 1757SOL    HW116907   3.897   1.381   3.225 -0.5135 -1.3221 -1.4115
 1757SOL    HW216908   3.783   1.465   3.262 -2.5424 -1.5492 -0.1182
 1758SOL     OW16909   3.095   4.176   5.257  0.0154  0.4155 -0.4006
 1758SOL    HW116910   3.152   4.099   5.253  0.5126  0.7859 -0.4099
 1758SOL    HW216911   3.101   4.224   5.175 -1.9386  0.4165 -0.5337
 1759SOL     OW16912   1.136   4.076   9.759  0.2184  0.3966 -0.1564
 1759SOL    HW116913   1.162   3.988   9.786 -0.9428 -0.2711 -1.1958
 1759SOL    HW216914   1.160   4.065   9.667 -0.4141 -1.0804 -0.1592
 1760SOL     OW16915   2.793   0.551  16.138  0.3657 -0.2569 -0.0652
 1760SOL    HW116916   2.701   0.563  16.116  1.1786  2.0404 -2.1523
 1760SOL    HW216917   2.780   0.544  16.232 -4.2357 -0.9150 -0.7697
 1761SOL     OW16918   4.511   4.589  16.792 -0.3780 -0.8088 -0.4209
 1761SOL    HW116919   4.594   4.635  16.804 -0.6335 -0.0786 -1.4428
 1761SOL    HW216920   4.499   4.543  16.876  1.4281 -1.3678 -0.4610
 1762SOL     OW16921   0.292   0.714   0.846 -0.2225 -0.1769  0.0333
 1762SOL    HW116922   0.224   0.651   0.867  0.9294 -0.6244  2.4382
 1762SOL    HW216923   0.354   0.705   0.918  0.6405  2.1551 -0.3924
 1763SOL     OW16924   1.816   0.468   3.336 -0.3354  0.3716 -0.0801
 1763SOL    HW116925   1.852   0.547   3.378 -1.0035 -0.8747  2.8297
 1763SOL    HW216926   1.846   0.407   3.404 -0.6038  0.4284  0.0877
 1764SOL     OW16927   2.197   3.090   0.272 -0.1124 -0.1972 -0.1689
 1764SOL    HW116928   2.279   3.138   0.266 -1.1026  1.8149  2.1913
 1764SOL    HW216929   2.181   3.079   0.366  0.4952  0.6458  0.0347
 1765SOL     OW16930   4.623   0.619   5.596  0.3989 -0.3787  0.8592
 1765SOL    HW116931   4.621   0.680   5.669 -1.4907 -0.5562  0.9597
 1765SOL    HW216932   4.708   0.575   5.595  0.6692  0.1582  0.0015
 1766SOL     OW16933   4.428   1.308   2.390 -0.2407  0.1911 -0.1052
 1766SOL    HW116934   4.489   1.270   2.453 -0.1542 -2.2617 -1.6518
 1766SOL    HW216935   4.366   1.236   2.397  1.3418 -1.3027 -1.3800
 1767SOL     OW16936   0.902   4.352   6.834 -0.3223 -0.5776 -0.4156
 1767SOL    HW116937   0.861   4.311   6.758 -2.5882  1.1803 -0.1285
 1767SOL    HW216938   0.970   4.402   6.789 -1.2308  1.3373  0.3249
 1768SOL     OW16939   3.657   3.948   7.719 -0.1264  0.2667 -0.4473
 1768SOL    HW116940   3.672   3.988   7.805 -0.6418  0.1469 -0.3014
 1768SOL    HW216941   3.687   3.859   7.738 -2.8208 -1.2034 -3.0089
 1769SOL     OW16942   4.364   0.697  13.350 -0.3207  0.2067  0.0195
 1769SOL    HW116943   4.304   0.682  13.423 -0.3245  1.2519  0.2404
 1769SOL    HW216944   4.447   0.704  13.398 -0.0118 -2.8231 -0.1130
 1770SOL     OW16945   2.431   3.510   3.776 -0.3012  0.0449 -0.3595
 1770SOL    HW116946   2.365   3.566   3.817 -0.3403 -1.9299  2.3179
 1770SOL    HW216947   2.385   3.426   3.770  0.1896 -0.5124  3.9591
 1771SOL     OW16948   2.243   4.286   8.570 -0.0453  0.2267  0.3523
 1771SOL    HW116949   2.274   4.237   8.494  0.3098  3.7678 -1.7638
 1771SOL    HW216950   2.156   4.316   8.543  0.0121 -0.4578 -0.5865
 1772SOL     OW16951   3.631   2.371  15.644  0.0944  0.2813 -0.0837
 1772SOL    HW116952   3.694   2.369  15.716 -1.1843 -0.7563  0.9998
 1772SOL    HW216953   3.642   2.278  15.623  0.0626 -0.3569  2.6691
 1773SOL     OW16954   1.692   4.449  17.361 -0.3614 -0.0954  0.0952
 1773SOL    HW116955   1.742   4.530  17.350  1.3906 -1.3727 -1.3790
 1773SOL    HW216956   1.651   4.427  17.278 -0.1805  1.8246 -0.4934
 1774SOL     OW16957   3.303   2.417  13.575  0.0649 -0.2349  0.7037
 1774SOL    HW116958   3.318   2.504  13.538 -0.5144  0.0643  1.1673
 1774SOL    HW216959   3.211   2.427  13.600  0.6548  0.5805  2.5860
 1775SOL     OW16960   3.208   4.326   6.317 -0.1214 -0.3090 -0.5859
 1775SOL    HW116961   3.263   4.375   6.257 -0.0076  0.7089  0.3560
 1775SOL    HW216962   3.170   4.392   6.375  0.1931  1.1729 -2.0741
 1776SOL     OW16963   1.940   0.105   3.809  0.7494 -0.5644 -0.1973
 1776SOL    HW116964   1.934   0.010   3.798 -2.3785 -0.5457  1.2375
 1776SOL    HW216965   2.022   0.125   3.765  1.4418 -0.4269  1.1833
 1777SOL     OW16966   2.617   0.222   2.638  0.1758 -0.0337  0.6693
 1777SOL    HW116967   2.613   0.245   2.545  1.1422  0.2291  0.6855
 1777SOL    HW216968   2.682   0.152   2.640  0.5279  0.3228  1.7782
 1778SOL     OW16969   1.462   4.065   0.959 -0.1785  0.2227 -0.1688
 1778SOL    HW116970   1.455   4.028   0.871 -0.0602 -2.9529  1.1230
 1778SOL    HW216971   1.523   4.136   0.939 -0.0451  0.4862  1.1674
 1779SOL     OW16972   1.198   0.822   6.256 -0.1825  0.6869  0.2338
 1779SOL    HW116973   1.250   0.886   6.208 -0.7001 -0.0771 -1.3503
 1779SOL    HW216974   1.120   0.809   6.202  1.2158  0.6104 -1.7802
 1780SOL     OW16975   1.711   0.979  14.946 -0.5273  0.1627 -0.0186
 1780SOL    HW116976   1.779   0.917  14.976  0.8232  0.5587 -2.3145
 1780SOL    HW216977   1.661   1.012  15.021  0.2465 -0.7031  0.8791
 1781SOL     OW16978   3.870   2.831   0.034 -0.1935 -0.3288  0.5981
 1781SOL    HW116979   3.910   2.875   0.108 -0.8748 -1.3941  1.6017
 1781SOL    HW216980   3.855   2.903  17.722 -3.4552 -0.6735  1.0028
 1782SOL     OW16981   2.457   3.655   7.653  0.4148 -0.2178  0.2976
 1782SOL    HW116982   2.512   3.695   7.586 -0.5801 -0.4352 -0.6312
 1782SOL    HW216983   2.508   3.577   7.676  0.7043 -0.3481 -0.8051
 1783SOL     OW16984   0.724   4.226   9.540 -0.0334  0.5022 -0.3643
 1783SOL    HW116985   0.744   4.164   9.470 -0.2101 -0.7005  0.6669
 1783SOL    HW216986   0.805   4.222   9.590 -1.0144  1.0699  1.2458
 1784SOL     OW16987   2.030   0.782   3.872 -0.4320  0.4221 -0.4770
 1784SOL    HW116988   2.009   0.727   3.796 -0.5278  1.7758 -1.4199
 1784SOL    HW216989   1.957   0.844   3.876  0.4294  1.4243 -0.3889
 1785SOL     OW16990   1.860   1.301  14.417  0.3000 -0.4353  0.4552
 1785SOL    HW116991   1.786   1.297  14.356  0.3445 -0.1690  0.3848
 1785SOL    HW216992   1.933   1.293  14.356  1.3423  1.1896  1.4913
 1786SOL     OW16993   0.869   2.461   1.923  0.2987 -0.4365  0.0979
 1786SOL    HW116994   0.855   2.373   1.887 -1.2199 -0.2554  0.2346
 1786SOL    HW216995   0.923   2.513   1.864 -1.7413  2.7970  1.1047
 1787SOL     OW16996   0.257   1.263   0.630  0.3937  0.2674 -0.0040
 1787SOL    HW116997   0.245   1.187   0.687 -0.3912  1.6864  1.7482
 1787SOL    HW216998   0.216   1.232   0.549 -1.3495  3.4309 -0.3262
 1788SOL     OW16999   0.676   1.089  16.487  0.5360 -0.1936 -0.1593
 1788SOL    HW117000   0.643   1.121  16.403 -0.9422 -1.7732 -0.1876
 1788SOL    HW217001   0.712   1.167  16.529  1.0531  0.3080 -1.5498
 1789SOL     OW17002   1.770   4.684   2.478  0.5054 -0.3502 -0.7584
 1789SOL    HW117003   1.766   4.721   2.390  1.0763 -1.9830 -1.4820
 1789SOL    HW217004   1.738   0.023   2.525 -0.1826  0.0743 -1.9130
 1790SOL     OW17005   3.803   3.328   2.233 -0.0535 -0.4086 -0.1178
 1790SOL    HW117006   3.736   3.290   2.177  0.2081 -1.2067  0.1124
 1790SOL    HW217007   3.776   3.297   2.319  0.1057 -3.0814 -1.0181
 1791SOL     OW17008   3.657   1.678  14.876 -0.1374 -0.3688  0.3767
 1791SOL    HW117009   3.673   1.748  14.813  0.6589 -1.6238 -0.8312
 1791SOL    HW217010   3.739   1.687  14.925  1.0961 -1.7014 -1.4436
 1792SOL     OW17011   3.558   0.254   7.427  0.0391 -0.3717  0.1278
 1792SOL    HW117012   3.562   0.284   7.518  0.1144 -3.4088  1.1293
 1792SOL    HW217013   3.629   0.191   7.432  0.1116 -0.3955 -1.2008
 1793SOL     OW17014   0.421   1.708  13.679  0.1857  0.2592  0.7972
 1793SOL    HW117015   0.439   1.796  13.645 -1.0683 -0.9105 -2.8120
 1793SOL    HW217016   0.419   1.658  13.597 -0.0771 -1.4508  1.8462
 1794SOL     OW17017   2.270   1.849  16.257 -0.2724  0.1825 -0.0925
 1794SOL    HW117018   2.358   1.822  16.233  0.4111  3.6187 -1.4370
 1794SOL    HW217019   2.233   1.860  16.170 -2.2373 -1.2293  0.5466
 1795SOL     OW17020   0.047   2.637   2.608 -0.0869  0.9190 -0.0509
 1795SOL    HW117021   0.119   2.647   2.547  0.2153  1.4684  0.3951
 1795SOL    HW217022   0.002   2.714   2.573  0.8116 -0.1068 -3.4582
 1796SOL     OW17023   3.293   3.626   3.858 -0.5020  0.0314  0.6036
 1796SOL    HW117024   3.199   3.608   3.858 -0.4685 -0.0813  3.4908
 1796SOL    HW217025   3.330   3.554   3.808 -0.6052  0.6422 -0.3596
 1797SOL     OW17026   4.251   1.138   8.016  0.5112  0.4710 -0.4335
 1797SOL    HW117027   4.294   1.210   7.969 -2.1877  1.6596 -1.0673
 1797SOL    HW217028   4.308   1.098   8.081 -1.3504 -0.4978  0.5925
 1798SOL     OW17029   4.231   2.944   6.901  0.4305  0.4205  0.2054
 1798SOL    HW117030   4.285   2.880   6.948 -0.5227 -1.2488 -0.9751
 1798SOL    HW217031   4.161   2.944   6.966  0.8579  1.5147  0.6576
 1799SOL     OW17032   4.550   2.989  12.190 -0.1070 -0.5541 -0.7970
 1799SOL    HW117033   4.580   3.039  12.114 -0.8850  0.7806 -0.2360
 1799SOL    HW217034   4.604   2.910  12.197  0.0591 -0.2918  1.1260
 1800SOL     OW17035   2.511   2.901   9.348  0.5934 -0.7808 -0.2374
 1800SOL    HW117036   2.513   2.973   9.411 -1.0707  0.2437 -1.3552
 1800SOL    HW217037   2.421   2.881   9.322  1.2774 -1.0503 -2.4684
 1801SOL     OW17038   2.512   3.703   6.636  0.0116 -0.4433  0.6341
 1801SOL    HW117039   2.548   3.665   6.556 -1.6476  2.2848 -1.3923
 1801SOL    HW217040   2.438   3.750   6.599  2.1578  0.7535 -2.2075
 1802SOL     OW17041   3.708   2.054   6.123 -0.4428  0.6195  0.0787
 1802SOL    HW117042   3.701   2.033   6.217  0.7120 -0.9261 -0.1753
 1802SOL    HW217043   3.800   2.079   6.122 -1.4957  4.3494 -1.6050
 1803SOL     OW17044   0.803   4.122   7.148  0.7118 -0.6263  0.4773
 1803SOL    HW117045   0.712   4.150   7.159  0.9864 -0.0730  1.3210
 1803SOL    HW217046   0.843   4.208   7.161 -0.0358 -0.1075 -0.7100
 1804SOL     OW17047   0.974   2.854   6.792 -0.5427 -0.3339  0.9038
 1804SOL    HW117048   0.944   2.903   6.716  1.9082 -0.6408 -0.2752
 1804SOL    HW217049   1.038   2.792   6.756  1.9340  2.2434  0.8901
 1805SOL     OW17050   0.472   1.993   3.031 -0.5819  0.6510 -0.5301
 1805SOL    HW117051   0.443   2.077   3.068  0.4470  0.7698  0.0223
 1805SOL    HW217052   0.558   1.982   3.072  0.0957  1.5217 -1.7255
 1806SOL     OW17053   3.897   0.191   3.108  0.2615 -0.0045 -0.1394
 1806SOL    HW117054   3.907   0.102   3.077 -0.1599 -0.3499  0.7162
 1806SOL    HW217055   3.983   0.233   3.118 -0.2694  0.7137  1.3938
 1807SOL     OW17056   3.243   2.900   8.504 -0.3190  0.3674 -0.1532
 1807SOL    HW117057   3.174   2.917   8.568 -0.8636 -2.1456 -0.0802
 1807SOL    HW217058   3.200   2.836   8.448  0.2952  0.8913 -1.2250
 1808SOL     OW17059   0.523   0.299   9.466 -0.0201  0.0150  0.3864
 1808SOL    HW117060   0.563   0.227   9.515  1.5323  0.1375 -0.7076
 1808SOL    HW217061   0.595   0.355   9.439  1.8522 -1.6847  1.7915
 1809SOL     OW17062   3.159   4.705  10.231 -0.5044  0.3605 -0.8157
 1809SOL    HW117063   3.135   4.679  10.319  2.5227  0.0028 -0.0881
 1809SOL    HW217064   3.226   4.638  10.221 -0.7035  0.3643 -2.1709
 1810SOL     OW17065   3.252   4.197  12.446  0.3094 -0.2389  0.5763
 1810SOL    HW117066   3.307   4.251  12.502  0.4938 -1.4317  1.5310
 1810SOL    HW217067   3.164   4.206  12.482 -0.2135  3.0868 -1.5095
 1811SOL     OW17068   4.011   3.848   8.834  0.1728 -0.8432  0.5375
 1811SOL    HW117069   4.051   3.927   8.798  1.2750 -1.7576 -0.2671
 1811SOL    HW217070   4.089   3.810   8.874  0.1432 -0.7082  0.7219
 1812SOL     OW17071   1.346   0.811  17.175 -0.6468 -0.1653 -0.6147
 1812SOL    HW117072   1.354   0.907  17.176  0.3331 -0.2584  1.0857
 1812SOL    HW217073   1.436   0.782  17.160  0.1966  2.1157 -0.0906
 1813SOL     OW17074   0.021   1.060   2.585  0.0530  0.3007  0.2306
 1813SOL    HW117075   0.074   1.056   2.506  0.1063 -1.3811  0.3635
 1813SOL    HW217076   0.006   1.154   2.574 -0.6728  0.2372  0.6938
 1814SOL     OW17077   1.376   0.908  16.858 -0.3155 -0.0982 -0.2816
 1814SOL    HW117078   1.445   0.941  16.801 -0.3082 -1.8362 -1.2880
 1814SOL    HW217079   1.324   0.986  16.876 -0.4513 -0.1019 -0.6479
 1815SOL     OW17080   0.409   0.669   5.466  0.1105  0.1832 -0.6107
 1815SOL    HW117081   0.491   0.714   5.486  0.1233  0.1398 -0.5675
 1815SOL    HW217082   0.437   0.617   5.390  2.4733 -1.5159  1.4273
 1816SOL     OW17083   2.660   0.567   2.301 -0.2752  0.0468  0.7415
 1816SOL    HW117084   2.721   0.601   2.367  1.2712  0.9161 -1.1204
 1816SOL    HW217085   2.651   0.476   2.332 -2.0604 -0.2299 -0.6330
 1817SOL     OW17086   0.956   2.552   6.853 -0.4859  0.5105  0.0641
 1817SOL    HW117087   0.914   2.504   6.924  0.5926 -0.2125  0.1994
 1817SOL    HW217088   0.912   2.637   6.865 -1.4760 -0.1029  0.7438
 1818SOL     OW17089   0.191   4.293   1.608 -0.1375 -0.1407 -0.1821
 1818SOL    HW117090   0.243   4.358   1.657 -0.0669 -1.0028  0.8824
 1818SOL    HW217091   0.154   4.230   1.670 -2.0930 -1.4507 -2.6835
 1819SOL     OW17092   3.719   4.419   7.078 -0.1434  0.2757 -0.0118
 1819SOL    HW117093   3.628   4.435   7.100 -0.6904 -2.6431 -0.1430
 1819SOL    HW217094   3.766   4.474   7.140 -0.0512  0.3769 -0.1701
 1820SOL     OW17095   4.527   4.489   1.491 -0.2677  0.8617  0.1685
 1820SOL    HW117096   4.558   4.579   1.505  0.7479  0.4380  0.5874
 1820SOL    HW217097   4.581   4.459   1.417  0.4658 -0.0277  1.0752
 1821SOL     OW17098   1.042   3.619   3.153 -0.0052  0.2684 -0.4415
 1821SOL    HW117099   1.010   3.633   3.063  0.4615  0.1447 -0.6264
 1821SOL    HW217100   1.131   3.653   3.148  0.3715 -0.7862 -1.0144
 1822SOL     OW17101   0.427   3.132   9.587 -0.4472 -0.0405  0.1042
 1822SOL    HW117102   0.357   3.139   9.522 -0.4958 -0.9939  0.0598
 1822SOL    HW217103   0.447   3.225   9.599 -0.7265 -0.3801  3.0959
 1823SOL     OW17104   1.085   4.240   2.975  0.3410 -0.1726 -0.8307
 1823SOL    HW117105   1.013   4.198   3.022 -0.4182 -0.2820 -2.1114
 1823SOL    HW217106   1.093   4.192   2.893  1.5484 -0.2352 -0.6726
 1824SOL     OW17107   3.418   4.259   9.126  0.0649  0.4959  0.4252
 1824SOL    HW117108   3.461   4.344   9.133  1.5079 -0.3594  1.8388
 1824SOL    HW217109   3.394   4.257   9.033 -0.5364  0.1118  0.5919
 1825SOL     OW17110   3.441   3.321   9.146  0.7533  0.0824 -0.1466
 1825SOL    HW117111   3.488   3.391   9.102  1.1663 -0.4908 -0.6087
 1825SOL    HW217112   3.485   3.324   9.231 -0.1384  2.7385  0.2297
 1826SOL     OW17113   1.144   3.177   7.917  0.6543  0.3829 -0.1210
 1826SOL    HW117114   1.209   3.139   7.859 -0.1511 -1.9685  0.5151
 1826SOL    HW217115   1.185   3.257   7.951  0.5553  1.2483 -2.0760
 1827SOL     OW17116   1.877   1.036   3.861 -0.1770  0.1352  0.0695
 1827SOL    HW117117   1.897   1.102   3.795 -0.3435  1.6225  1.5036
 1827SOL    HW217118   1.876   1.094   3.937  0.1461 -0.4993  0.5656
 1828SOL     OW17119   0.792   3.081   7.982 -0.4386 -0.0133 -0.5190
 1828SOL    HW117120   0.827   3.085   8.072  0.2902 -3.1034 -0.6645
 1828SOL    HW217121   0.873   3.092   7.933 -0.6250 -0.9852 -1.0474
 1829SOL     OW17122   4.562   1.659   7.547  0.1579 -0.2005 -0.0796
 1829SOL    HW117123   4.606   1.696   7.624  0.5778 -0.7520 -0.0585
 1829SOL    HW217124   4.603   1.709   7.477  0.5647  0.9522  0.9724
 1830SOL     OW17125   3.530   0.560   2.286 -0.3655 -0.1740 -0.3080
 1830SOL    HW117126   3.612   0.534   2.328 -0.4398  0.0063 -0.0569
 1830SOL    HW217127   3.495   0.472   2.273  1.2734 -0.6618 -1.4641
 1831SOL     OW17128   3.938   2.913   0.286  0.2857  0.2292  0.1063
 1831SOL    HW117129   3.911   2.963   0.363  1.2879 -1.7358  1.7275
 1831SOL    HW217130   4.009   2.860   0.323  2.1022  4.5035  2.8380
 1832SOL     OW17131   2.487   0.761  16.507 -0.2700  0.9602 -0.1257
 1832SOL    HW117132   2.568   0.799  16.541 -0.4080 -1.5417  2.9701
 1832SOL    HW217133   2.423   0.777  16.576 -0.2018  0.8823 -0.0461
 1833SOL     OW17134   3.270   0.543   3.452 -0.0056  0.3051  0.4607
 1833SOL    HW117135   3.363   0.523   3.445 -0.1662  0.2810 -1.4228
 1833SOL    HW217136   3.254   0.585   3.368 -0.9968 -0.9435  0.0303
 1834SOL     OW17137   4.515   4.066   7.002  0.5417 -0.1374 -0.1821
 1834SOL    HW117138   4.429   4.025   6.997 -0.4538  2.0384 -0.8052
 1834SOL    HW217139   4.535   4.045   7.093 -0.1684  0.2697  0.0651
 1835SOL     OW17140   1.673   0.627   2.265  0.1735  0.4640  0.0734
 1835SOL    HW117141   1.703   0.614   2.175 -1.5815 -1.2073 -0.2850
 1835SOL    HW217142   1.713   0.554   2.312  0.9867  0.5577 -0.4662
 1836SOL     OW17143   0.430   2.410  12.897  0.0092 -0.3213 -0.3095
 1836SOL    HW117144   0.488   2.450  12.962 -0.3555 -1.3480  0.6363
 1836SOL    HW217145   0.448   2.453  12.813  1.7521 -1.4274 -0.4959
 1837SOL     OW17146   0.877   1.743   3.915 -0.0185 -0.9290 -0.4610
 1837SOL    HW117147   0.915   1.657   3.928  2.7147  0.3449 -0.0799
 1837SOL    HW217148   0.800   1.752   3.971  1.6332  2.4460  1.2979
 1838SOL     OW17149   0.919   1.871   7.113  0.2059 -0.3681 -0.7118
 1838SOL    HW117150   0.971   1.806   7.067  1.1531 -1.5634  2.0093
 1838SOL    HW217151   0.904   1.945   7.054 -0.7027  0.4515  0.5259
 1839SOL     OW17152   1.691   3.670   9.276  0.8006  0.0908  0.3735
 1839SOL    HW117153   1.681   3.749   9.223  1.2312 -1.3613 -1.8606
 1839SOL    HW217154   1.762   3.699   9.334  0.3055 -0.0038  1.0296
 1840SOL     OW17155   4.555   3.685   6.755  0.1785 -0.3229 -0.3559
 1840SOL    HW117156   4.562   3.755   6.690 -1.3355  1.3919  1.3204
 1840SOL    HW217157   4.461   3.670   6.752  0.2762 -0.4535 -2.3796
 1841SOL     OW17158   2.279   3.237   8.024  0.0053 -1.1514 -0.1008
 1841SOL    HW117159   2.199   3.254   8.073 -0.1478  0.8063 -1.0045
 1841SOL    HW217160   2.269   3.144   8.005  2.8127 -2.0517  2.8883
 1842SOL     OW17161   2.736   2.209   1.596  0.2393  0.5884 -0.0180
 1842SOL    HW117162   2.652   2.201   1.641 -0.5049  0.4816 -1.4303
 1842SOL    HW217163   2.733   2.143   1.526  2.5616 -2.4567  2.7647
 1843SOL     OW17164   3.889   3.913   5.660  0.7697 -0.1498 -0.3117
 1843SOL    HW117165   3.924   3.831   5.627  0.1594  0.9790 -3.7958
 1843SOL    HW217166   3.900   3.898   5.754 -0.5118 -2.9993 -0.6207
 1844SOL     OW17167   1.211   1.873  14.572  0.0706 -0.2309 -0.1904
 1844SOL    HW117168   1.298   1.844  14.545 -0.9021  2.0778 -5.8669
 1844SOL    HW217169   1.165   1.849  14.492 -3.4976  0.7276  1.5854
 1845SOL     OW17170   4.453   2.379  13.445  0.1408  0.3854  0.4452
 1845SOL    HW117171   4.548   2.375  13.446  0.0303 -2.0522  0.8977
 1845SOL    HW217172   4.430   2.340  13.530 -1.0924 -1.6008 -0.7981
 1846SOL     OW17173   0.447   2.740  12.935  0.0631  0.3641 -0.4748
 1846SOL    HW117174   0.384   2.719  12.867 -0.7706 -0.4645  0.5478
 1846SOL    HW217175   0.515   2.677  12.912 -0.1982 -0.9775  2.4006
 1847SOL     OW17176   1.912   3.983   3.871 -0.2114 -0.2914  0.1391
 1847SOL    HW117177   2.000   4.006   3.842 -1.5985  1.8060 -2.3402
 1847SOL    HW217178   1.886   3.918   3.806  1.1455  0.9060 -1.5993
 1848SOL     OW17179   0.430   2.564   3.615  0.5958  0.0076  0.3662
 1848SOL    HW117180   0.465   2.477   3.595 -3.8149 -1.8547  0.7453
 1848SOL    HW217181   0.391   2.583   3.529 -0.7034  0.3195  1.0232
 1849SOL     OW17182   1.092   2.397   7.663 -0.3652  0.2000  0.0394
 1849SOL    HW117183   1.047   2.482   7.663  0.2835  0.5488  0.8326
 1849SOL    HW217184   1.048   2.354   7.589 -0.8916 -0.9761  1.0461
 1850SOL     OW17185   4.220   2.601  16.631  0.2015  0.2325  0.4160
 1850SOL    HW117186   4.186   2.682  16.593 -0.7869 -1.0519 -1.4863
 1850SOL    HW217187   4.211   2.542  16.557 -1.8506 -0.1590  0.9522
 1851SOL     OW17188   4.627   0.492   5.352 -0.0169  0.3583 -0.7399
 1851SOL    HW117189   4.579   0.510   5.433  1.7378  0.8542  0.2040
 1851SOL    HW217190   4.683   0.568   5.336  1.0252 -0.8283 -2.8694
 1852SOL     OW17191   4.069   4.398  13.827 -0.5070  0.4240 -0.1731
 1852SOL    HW117192   4.079   4.428  13.917  0.8683  2.0412 -0.8725
 1852SOL    HW217193   3.976   4.377  13.836 -0.0747 -1.9984 -1.1876
 1853SOL     OW17194   2.980   1.940   6.691 -0.6391  0.2998 -0.2478
 1853SOL    HW117195   3.008   2.028   6.665  1.1325 -0.1035  0.2441
 1853SOL    HW217196   2.887   1.946   6.671 -0.5616 -2.0400 -1.3317
 1854SOL     OW17197   3.684   0.283   5.077 -0.2876 -0.0561  0.5905
 1854SOL    HW117198   3.643   0.297   4.992 -0.7796  1.0851  1.0122
 1854SOL    HW217199   3.608   0.302   5.131  0.3224  0.4191  1.2847
 1855SOL     OW17200   1.866   2.360   0.657  0.2774  0.4911  0.2085
 1855SOL    HW117201   1.900   2.449   0.645 -0.3832  0.5460 -1.3240
 1855SOL    HW217202   1.935   2.329   0.716 -0.1857  0.4435  0.7227
 1856SOL     OW17203   4.093   1.056   4.544 -0.1268  0.0880 -0.4793
 1856SOL    HW117204   4.152   0.990   4.509  2.2776  1.6371  0.6949
 1856SOL    HW217205   4.149   1.128   4.573  0.1823 -0.7186  0.9276
 1857SOL     OW17206   2.403   1.162   4.606 -0.7981  0.3194 -0.2820
 1857SOL    HW117207   2.459   1.085   4.605 -1.2481  0.0140 -1.7370
 1857SOL    HW217208   2.470   1.224   4.636 -0.5909 -0.0697  0.0656
 1858SOL     OW17209   1.258   2.050   3.712 -0.6397 -0.0630 -0.0315
 1858SOL    HW117210   1.213   2.002   3.642 -0.2248 -0.8410  0.2454
 1858SOL    HW217211   1.263   2.139   3.678 -1.5013  0.2799  0.7423
 1859SOL     OW17212   1.529   1.515  16.353  0.6123 -0.1898 -0.6624
 1859SOL    HW117213   1.623   1.503  16.362  0.5266  0.7590  1.5708
 1859SOL    HW217214   1.531   1.582  16.285  1.3667  1.7407  1.2537
 1860SOL     OW17215   3.216   2.954  17.493  0.2491 -0.5073  0.1901
 1860SOL    HW117216   3.240   2.865  17.467 -0.4000 -1.0146  1.3281
 1860SOL    HW217217   3.296   2.970  17.543 -0.7383  0.9298  1.3071
 1861SOL     OW17218   1.564   3.262   2.070 -0.5553  0.2384  1.1729
 1861SOL    HW117219   1.567   3.166   2.075 -0.1046  0.0221 -2.9844
 1861SOL    HW217220   1.647   3.285   2.028 -0.9864 -0.4188 -0.0420
 1862SOL     OW17221   0.424   3.887   7.457  0.7625  0.7391  0.2915
 1862SOL    HW117222   0.355   3.919   7.400  0.7491  3.0377  1.6018
 1862SOL    HW217223   0.398   3.795   7.448  0.1866  0.8557  0.7373
 1863SOL     OW17224   1.795   3.139   6.500  0.2054 -0.5433 -0.3274
 1863SOL    HW117225   1.830   3.081   6.568  0.1202  1.4788  1.4305
 1863SOL    HW217226   1.840   3.222   6.516  0.7454 -0.3811 -2.7018
 1864SOL     OW17227   0.294   2.259   1.735  0.2479 -0.4989  0.4728
 1864SOL    HW117228   0.273   2.167   1.747  1.0680 -0.7167  0.2427
 1864SOL    HW217229   0.333   2.276   1.821  2.0044 -0.8615 -0.2597
 1865SOL     OW17230   1.971   3.644   5.820 -0.0793  0.2634  0.6942
 1865SOL    HW117231   1.958   3.665   5.727  0.0889  0.4377  0.7111
 1865SOL    HW217232   1.920   3.713   5.863  0.2586  0.3363  0.9749
 1866SOL     OW17233   4.108   2.901   6.652  0.5409 -0.0268  0.6655
 1866SOL    HW117234   4.154   2.963   6.709  0.1238 -0.3982  1.4062
 1866SOL    HW217235   4.067   2.850   6.722  0.0141 -0.7315 -0.1584
 1867SOL     OW17236   0.984   3.479   7.404  0.2719 -0.7555 -0.6754
 1867SOL    HW117237   0.992   3.444   7.493  2.6029  1.4709 -0.0050
 1867SOL    HW217238   1.006   3.571   7.416 -1.4624 -0.6011  1.2644
 1868SOL     OW17239   4.696   0.283   8.655  0.3790 -0.4108 -0.4517
 1868SOL    HW117240   4.706   0.278   8.750 -2.7953 -2.8349 -0.2085
 1868SOL    HW217241   4.600   0.289   8.649  0.3174 -1.3128 -0.4621
 1869SOL     OW17242   3.712   1.188   8.417  0.4137  0.1502  0.4332
 1869SOL    HW117243   3.801   1.223   8.417  0.4247  0.1137  1.9496
 1869SOL    HW217244   3.690   1.226   8.332 -0.8805  0.8701  1.1012
 1870SOL     OW17245   3.233   0.535   2.901  0.0963  0.0979  0.0305
 1870SOL    HW117246   3.204   0.445   2.918 -2.2092  0.4254 -2.2505
 1870SOL    HW217247   3.320   0.526   2.942  0.3793 -0.5897 -0.7254
 1871SOL     OW17248   2.222   4.242   1.515 -0.2262 -0.6242 -0.2850
 1871SOL    HW117249   2.266   4.182   1.454 -0.4168 -0.9854 -0.0671
 1871SOL    HW217250   2.173   4.301   1.459 -1.0635  0.4600  1.5671
 1872SOL     OW17251   0.746   4.098  10.567 -0.3175 -0.0552 -0.1718
 1872SOL    HW117252   0.664   4.082  10.520 -0.4046 -0.2010  0.0243
 1872SOL    HW217253   0.776   4.009  10.589  1.4711  0.9730  1.5288
 1873SOL     OW17254   3.775   3.316   6.938  0.4829 -0.5152 -0.1750
 1873SOL    HW117255   3.771   3.294   7.031 -1.6560  1.6184  0.2415
 1873SOL    HW217256   3.679   3.310   6.933  0.2571  1.8764  1.0516
 1874SOL     OW17257   2.421   4.643   8.415 -0.5376  0.2032  0.3725
 1874SOL    HW117258   2.387   4.606   8.496 -0.4040  1.0799  0.8410
 1874SOL    HW217259   2.504   4.675   8.452 -0.7510  1.9044 -0.6191
 1875SOL     OW17260   2.836   3.655   6.620  0.3762  0.5513  0.1340
 1875SOL    HW117261   2.890   3.734   6.618  1.2121 -0.0569 -1.0544
 1875SOL    HW217262   2.822   3.638   6.714 -1.4057 -1.6805 -0.5473
 1876SOL     OW17263   4.003   0.401  17.308  0.3606 -0.4839 -0.5745
 1876SOL    HW117264   4.035   0.492  17.311  1.6142 -0.9806  1.4263
 1876SOL    HW217265   4.002   0.385  17.402  0.3113 -0.6439 -0.6028
 1877SOL     OW17266   2.756   4.078   7.231  0.3825 -0.2397  0.2077
 1877SOL    HW117267   2.791   4.167   7.228  2.2386 -0.9855 -0.3135
 1877SOL    HW217268   2.725   4.065   7.320  1.0872 -0.1833  0.4568
 1878SOL     OW17269   2.362   0.874   6.982  0.2628 -0.0335  0.7320
 1878SOL    HW117270   2.438   0.896   6.928  1.1390 -2.7374  0.8676
 1878SOL    HW217271   2.376   0.944   7.046 -0.9945  0.4439  0.4887
 1879SOL     OW17272   1.246   0.112  13.547 -0.1854 -0.4639 -0.0247
 1879SOL    HW117273   1.200   0.086  13.626  0.2127 -1.1334 -0.0141
 1879SOL    HW217274   1.197   0.184  13.507 -2.7008 -1.5304  1.1328
 1880SOL     OW17275   0.067   1.794  11.924  0.7376  0.4637  0.1823
 1880SOL    HW117276   0.021   1.878  11.929 -2.2040 -1.1891  0.6807
 1880SOL    HW217277   0.039   1.738  11.996  0.3577  1.6424  0.9572
 1881SOL     OW17278   1.374   4.651   2.121 -0.6264 -0.0154  0.0263
 1881SOL    HW117279   1.356   4.633   2.213  0.1821 -0.8422  0.0229
 1881SOL    HW217280   1.282   4.660   2.098 -0.0879  2.6583 -1.0598
 1882SOL     OW17281   3.052   2.539  10.990 -0.2090 -0.0018  1.0852
 1882SOL    HW117282   3.042   2.597  10.915  1.4965  0.5875  1.3086
 1882SOL    HW217283   2.999   2.462  10.971 -1.7875  1.5464 -0.7347
 1883SOL     OW17284   3.179   3.902   4.086  0.1480  0.1479 -0.3379
 1883SOL    HW117285   3.188   3.883   4.179  0.7874 -0.4523 -0.5253
 1883SOL    HW217286   3.152   3.814   4.061 -1.6206 -0.1562  2.6431
 1884SOL     OW17287   4.632   1.830  17.531  0.1528  0.5559 -0.7398
 1884SOL    HW117288   4.723   1.860  17.528  0.4722 -0.2865  0.4869
 1884SOL    HW217289   4.632   1.817  17.626 -1.2012  1.5907 -0.5956
 1885SOL     OW17290   0.310   2.549   8.770 -0.3415 -0.3285 -0.0133
 1885SOL    HW117291   0.400   2.572   8.792 -0.4322  1.1399 -1.1818
 1885SOL    HW217292   0.274   2.631   8.805 -1.5302  0.7737 -3.8083
 1886SOL     OW17293   0.008   4.186   7.817  0.3618  0.6971  0.4560
 1886SOL    HW117294   0.083   4.127   7.822  0.8150  1.0676 -2.0189
 1886SOL    HW217295   4.694   4.166   7.895  0.6752 -0.1783  0.4360
 1887SOL     OW17296   0.556   4.345   7.458 -0.2009 -0.3491 -0.2934
 1887SOL    HW117297   0.618   4.397   7.407 -1.3454 -0.3911 -1.7287
 1887SOL    HW217298   0.477   4.398   7.453 -0.1122 -0.1528  0.3594
 1888SOL     OW17299   1.364   2.135   2.651 -0.1214 -0.6144 -1.0310
 1888SOL    HW117300   1.456   2.160   2.665 -0.3926 -2.3941  4.0954
 1888SOL    HW217301   1.335   2.213   2.605 -1.3450 -0.7576 -0.4997
 1889SOL     OW17302   0.882   4.229  17.463 -0.5627 -0.2391 -0.1262
 1889SOL    HW117303   0.793   4.262  17.456 -1.1460 -1.9911 -0.9680
 1889SOL    HW217304   0.872   4.177  17.542  0.8708  2.1769  1.6600
 1890SOL     OW17305   1.761   4.397   6.484  0.2589 -0.0883 -0.1078
 1890SOL    HW117306   1.721   4.352   6.558  2.7571 -1.2585  0.5332
 1890SOL    HW217307   1.855   4.396   6.503  0.1657  1.2039  0.3902
 1891SOL     OW17308   3.109   1.530   7.890 -0.2934 -0.2197  0.0605
 1891SOL    HW117309   3.060   1.454   7.860  2.6416 -2.2377  0.5153
 1891SOL    HW217310   3.198   1.510   7.864 -0.3414  0.2420 -0.4753
 1892SOL     OW17311   0.177   3.905  12.587  0.0675 -0.1414 -0.3030
 1892SOL    HW117312   0.224   3.924  12.668 -2.2856  0.7338  0.8776
 1892SOL    HW217313   0.226   3.958  12.524  1.4604 -0.5720  0.4272
 1893SOL     OW17314   2.136   0.175  15.288  0.2671 -0.3226 -0.2828
 1893SOL    HW117315   2.162   0.166  15.380 -1.6378 -2.4389  0.0510
 1893SOL    HW217316   2.185   0.257  15.280 -4.3093  2.3241 -1.0091
 1894SOL     OW17317   2.276   0.186   3.916  0.0043 -0.3793  0.6437
 1894SOL    HW117318   2.201   0.224   3.961 -0.6944 -1.2849  0.2536
 1894SOL    HW217319   2.235   0.142   3.841 -0.5150 -1.7702  1.7378
 1895SOL     OW17320   1.361   0.301   3.612 -0.0587  0.2345  0.7752
 1895SOL    HW117321   1.335   0.380   3.659 -0.0304 -0.4486  1.9263
 1895SOL    HW217322   1.309   0.231   3.652  1.6923 -2.0581 -0.8946
 1896SOL     OW17323   4.161   1.049   5.128 -0.1212 -0.4945  0.1514
 1896SOL    HW117324   4.087   1.017   5.179 -1.1195 -1.4152 -1.8758
 1896SOL    HW217325   4.225   0.977   5.134  0.5811 -0.0538 -1.8968
 1897SOL     OW17326   3.444   0.088   2.809 -0.3489 -0.2880 -0.4864
 1897SOL    HW117327   3.474   0.006   2.771 -0.9144 -1.0978  0.8301
 1897SOL    HW217328   3.413   0.055   2.893  0.9950 -0.4597 -0.0698
 1898SOL     OW17329   4.291   0.007   2.859 -0.7039 -0.2412  0.0464
 1898SOL    HW117330   4.316   4.731   2.767  3.1015 -0.7842  1.1720
 1898SOL    HW217331   4.224   0.074   2.852 -0.4747 -0.0470 -0.3057
 1899SOL     OW17332   4.423   3.326   4.272 -0.0589 -0.2124  0.3520
 1899SOL    HW117333   4.486   3.378   4.322 -0.6693  0.4649  0.4199
 1899SOL    HW217334   4.412   3.253   4.333 -2.3699  0.8937  1.2608
 1900SOL     OW17335   2.452   0.617  16.110 -0.0550 -0.0468 -0.2544
 1900SOL    HW117336   2.421   0.623  16.200  1.7130 -1.5460  0.4237
 1900SOL    HW217337   2.454   0.713  16.100 -0.3964 -0.1781 -1.6818
 1901SOL     OW17338   0.932   0.733   5.816  0.7595  0.7871  0.1132
 1901SOL    HW117339   0.954   0.826   5.811 -2.1830  1.4695 -0.0869
 1901SOL    HW217340   0.941   0.707   5.724  1.4732  2.6299 -0.3470
 1902SOL     OW17341   2.915   1.722   7.996 -0.1173  0.4979 -0.2708
 1902SOL    HW117342   2.980   1.791   8.010  0.3621 -0.0675  0.3151
 1902SOL    HW217343   2.977   1.649   7.987  0.9832  1.2278  1.3964
 1903SOL     OW17344   0.861   3.859   5.136 -0.0346 -0.3220  0.4265
 1903SOL    HW117345   0.866   3.910   5.216 -1.2229  0.1943  0.1737
 1903SOL    HW217346   0.947   3.876   5.098  0.2247  0.5814  1.4358
 1904SOL     OW17347   0.026   1.034   8.819 -0.2327 -0.2821 -0.0779
 1904SOL    HW117348   0.092   1.077   8.765 -0.4437  1.3275  0.9459
 1904SOL    HW217349   0.025   0.946   8.780 -0.0465 -0.9566  1.4279
 1905SOL     OW17350   4.337   1.510   5.603  0.3919  0.3738  0.3033
 1905SOL    HW117351   4.376   1.512   5.691 -0.9710 -0.3322  0.9280
 1905SOL    HW217352   4.317   1.417   5.600  2.2167 -0.0516  1.2013
 1906SOL     OW17353   3.582   4.440   1.503 -0.4910  0.1693  0.0363
 1906SOL    HW117354   3.510   4.484   1.457  0.1804  0.6203 -0.5938
 1906SOL    HW217355   3.607   4.391   1.425  1.6742 -2.6098  2.4942
 1907SOL     OW17356   2.511   3.650   4.798  0.6925 -0.6085  0.4941
 1907SOL    HW117357   2.567   3.726   4.816 -0.8972  1.1668 -1.9676
 1907SOL    HW217358   2.457   3.660   4.876  1.3780 -0.8674  0.9942
 1908SOL     OW17359   1.580   3.589   2.468 -0.0331 -0.2658  0.2784
 1908SOL    HW117360   1.618   3.526   2.407  1.3583 -0.0356  0.9260
 1908SOL    HW217361   1.653   3.611   2.525 -0.0655  0.7043 -0.0546
 1909SOL     OW17362   1.223   2.762   3.655 -0.5865  0.3184  0.4500
 1909SOL    HW117363   1.172   2.687   3.623  0.4540 -0.2978  0.2253
 1909SOL    HW217364   1.149   2.821   3.645 -1.8458 -1.5056 -1.0568
 1910SOL     OW17365   0.431   2.755   9.964 -0.1723  0.3688 -0.2834
 1910SOL    HW117366   0.417   2.787   9.875 -1.7014  3.9539  1.2391
 1910SOL    HW217367   0.520   2.786   9.981 -0.2607 -0.7206  2.1235
 1911SOL     OW17368   2.401   4.715  16.407 -0.6104 -0.0854 -0.1961
 1911SOL    HW117369   2.308   4.693  16.403 -0.5329 -0.5966  0.6973
 1911SOL    HW217370   2.428   4.637  16.360 -0.6331 -0.0957 -0.1919
 1912SOL     OW17371   0.159   2.046   2.624 -0.2278 -0.0042  0.4136
 1912SOL    HW117372   0.181   2.016   2.536 -0.5445 -1.6277  0.8975
 1912SOL    HW217373   0.205   2.129   2.637 -1.1125  0.0657  3.1087
 1913SOL     OW17374   4.322   1.674   6.259  0.4184  0.1897 -0.1098
 1913SOL    HW117375   4.386   1.730   6.303  0.8714 -0.6862  0.3532
 1913SOL    HW217376   4.362   1.649   6.175  0.7799  0.8920 -0.1446
 1914SOL     OW17377   1.145   3.703   4.296  0.0405 -0.2381  0.0652
 1914SOL    HW117378   1.083   3.702   4.368 -1.8452 -1.5159 -1.5971
 1914SOL    HW217379   1.190   3.621   4.316 -0.2614 -0.5821 -0.6510
 1915SOL     OW17380   3.401   3.651   9.564 -0.2149 -0.2942  0.1164
 1915SOL    HW117381   3.395   3.607   9.648 -0.1185  2.5295  1.6030
 1915SOL    HW217382   3.322   3.704   9.552  0.6688  0.7867 -1.0241
 1916SOL     OW17383   3.970   3.435  17.225  0.1226  0.1741  0.0739
 1916SOL    HW117384   4.013   3.517  17.249 -0.7678  0.2004  1.5651
 1916SOL    HW217385   3.914   3.453  17.150  0.8633 -1.2866 -0.8459
 1917SOL     OW17386   4.514   1.864   1.490 -0.2697  0.3228  1.0447
 1917SOL    HW117387   4.505   1.953   1.456  0.7774 -0.0010 -0.1034
 1917SOL    HW217388   4.560   1.824   1.416  1.4544  0.0019  2.2954
 1918SOL     OW17389   1.444   2.408   6.059  0.1252 -0.5864 -0.3698
 1918SOL    HW117390   1.466   2.387   6.150 -0.9007 -1.8212 -0.4126
 1918SOL    HW217391   1.416   2.499   6.061  2.8666  0.2750 -1.3677
 1919SOL     OW17392   1.209   2.634   4.069 -0.0943 -0.0005  0.2993
 1919SOL    HW117393   1.270   2.586   4.125  2.1301 -1.5038 -3.4208
 1919SOL    HW217394   1.142   2.635   4.137 -0.6016  1.0567 -0.2166
 1920SOL     OW17395   1.024   3.302   0.992 -0.1191  0.6940 -0.5259
 1920SOL    HW117396   0.935   3.300   0.954  0.4221  0.3289 -1.7911
 1920SOL    HW217397   1.069   3.377   0.953 -0.7119  1.9926  1.2982
 1921SOL     OW17398   0.209   3.779   8.767  0.1103  0.0831 -0.1135
 1921SOL    HW117399   0.142   3.751   8.830 -0.6927  1.2818 -0.4355
 1921SOL    HW217400   0.145   3.805   8.700 -0.4120 -1.2166 -0.1173
 1922SOL     OW17401   0.916   3.010   4.472  0.1164 -0.0602  0.0449
 1922SOL    HW117402   0.963   3.086   4.436  1.8200 -1.0319  0.2219
 1922SOL    HW217403   0.844   3.052   4.520  0.9613  0.6757  0.6683
 1923SOL     OW17404   0.644   0.329  13.509 -0.0179  0.2481 -0.9036
 1923SOL    HW117405   0.621   0.349  13.600  3.1157 -0.4783  0.0498
 1923SOL    HW217406   0.734   0.297  13.516 -0.6995 -1.2251  1.2222
 1924SOL     OW17407   1.965   3.199   1.679 -0.5002 -0.1870 -0.4043
 1924SOL    HW117408   1.953   3.106   1.662 -1.5732 -0.0716 -0.2478
 1924SOL    HW217409   1.900   3.232   1.618 -0.3818  0.6280 -0.0873
 1925SOL     OW17410   0.085   0.459   4.804  0.1334 -0.2915  0.3746
 1925SOL    HW117411   0.030   0.425   4.875  2.0634  0.4859  2.2622
 1925SOL    HW217412   0.091   0.383   4.746 -1.5937 -0.2751  0.1592
 1926SOL     OW17413   1.533   4.552  10.418  0.3139 -0.2845 -0.0827
 1926SOL    HW117414   1.556   4.529  10.328  0.8940  0.0851 -0.0325
 1926SOL    HW217415   1.446   4.512  10.424 -0.0118  0.5037  0.3901
 1927SOL     OW17416   0.261   1.424   5.949  0.0860 -0.0338 -0.7218
 1927SOL    HW117417   0.318   1.469   5.886 -0.1846  0.2414 -0.7746
 1927SOL    HW217418   0.202   1.491   5.984  0.1099  0.5816 -1.8320
 1928SOL     OW17419   1.610   2.332   2.088  0.4175 -0.3458  0.5041
 1928SOL    HW117420   1.692   2.380   2.078 -1.3329  2.3591 -0.9805
 1928SOL    HW217421   1.643   2.254   2.131  1.0530  0.1055  0.8337
 1929SOL     OW17422   0.018   2.351   7.296 -0.1354  0.3244  0.5548
 1929SOL    HW117423   4.660   2.349   7.284  0.0097  1.4501 -0.8050
 1929SOL    HW217424   0.029   2.296   7.373  2.1850 -1.0598 -0.7534
 1930SOL     OW17425   3.961   3.669  13.866 -0.4893  0.9816 -0.2101
 1930SOL    HW117426   4.005   3.632  13.790  0.1290 -1.1522  1.1779
 1930SOL    HW217427   3.877   3.694  13.829 -0.5530 -1.2897 -1.5763
 1931SOL     OW17428   4.547   3.772   8.172  0.3384  0.8001  0.0879
 1931SOL    HW117429   4.554   3.693   8.119 -0.8296  0.7994 -0.0552
 1931SOL    HW217430   4.464   3.798   8.132 -0.5139  0.2835  1.5110
 1932SOL     OW17431   4.642   0.480   4.426  0.2517 -0.0032  0.4997
 1932SOL    HW117432   4.636   0.576   4.420  1.2784  0.1320  1.5977
 1932SOL    HW217433   4.676   0.459   4.339 -0.7100 -1.8872  0.5733
 1933SOL     OW17434   3.890   3.717   8.425 -0.0458 -0.9672 -0.2816
 1933SOL    HW117435   3.877   3.635   8.376 -0.4975 -1.0067 -0.0903
 1933SOL    HW217436   3.937   3.676   8.497  1.2948 -0.4118 -0.8306
 1934SOL     OW17437   2.176   0.215  17.308  0.0643  0.4918  0.0872
 1934SOL    HW117438   2.184   0.184  17.398  0.4063  1.0829  0.2564
 1934SOL    HW217439   2.095   0.265  17.317 -0.5849 -0.2369 -1.6990
 1935SOL     OW17440   4.500   3.696   2.313  0.1858  0.2297  0.4104
 1935SOL    HW117441   4.478   3.750   2.389 -3.5736 -1.5330  0.5994
 1935SOL    HW217442   4.425   3.636   2.313 -1.0317  1.7578  1.2164
 1936SOL     OW17443   4.311   1.713   2.689  0.2303 -0.7657 -0.2543
 1936SOL    HW117444   4.406   1.723   2.700 -0.1625  1.4066  0.9750
 1936SOL    HW217445   4.294   1.804   2.666 -0.4486 -1.2732 -1.7707
 1937SOL     OW17446   1.635   4.287   7.240  0.5100  0.0120 -0.4533
 1937SOL    HW117447   1.553   4.317   7.201  0.9905  0.0314 -1.4472
 1937SOL    HW217448   1.606   4.197   7.256 -0.0714  0.7078  2.3222
 1938SOL     OW17449   3.677   2.162   2.100  0.4932  0.1132 -0.2384
 1938SOL    HW117450   3.721   2.237   2.139 -1.2164  0.7214  0.5100
 1938SOL    HW217451   3.687   2.187   2.008  1.3028  1.1404  0.1328
 1939SOL     OW17452   1.315   0.347   7.575 -0.0810  0.6418 -0.4104
 1939SOL    HW117453   1.394   0.355   7.628 -0.1102  3.1945 -0.7387
 1939SOL    HW217454   1.255   0.408   7.619 -1.2098 -1.6162  1.1832
 1940SOL     OW17455   0.890   3.547   4.716  0.2226  0.6351 -0.1579
 1940SOL    HW117456   0.938   3.474   4.757 -0.5231  0.7545  0.9265
 1940SOL    HW217457   0.859   3.590   4.795  3.1346 -0.5080  1.6395
 1941SOL     OW17458   0.308   1.436  11.271  0.2791 -0.0661 -0.1294
 1941SOL    HW117459   0.371   1.393  11.329 -1.6286 -0.0826  1.9421
 1941SOL    HW217460   0.224   1.399  11.299 -0.4692  2.5526  1.0400
 1942SOL     OW17461   2.616   0.097   3.640 -1.0241 -0.3908  0.0947
 1942SOL    HW117462   2.552   0.036   3.676 -1.1500 -0.3044  0.0182
 1942SOL    HW217463   2.563   0.172   3.668 -1.3208  0.1585 -1.9660
 1943SOL     OW17464   1.128   3.221  16.876 -0.6199 -0.2189  0.4981
 1943SOL    HW117465   1.215   3.184  16.890  0.1489  1.4686  0.1663
 1943SOL    HW217466   1.088   3.206  16.962 -0.0594 -1.3721  0.5666
 1944SOL     OW17467   4.494   0.187   4.020 -0.8455 -0.2819 -0.3242
 1944SOL    HW117468   4.457   0.100   4.033  0.2896 -0.9715 -1.7248
 1944SOL    HW217469   4.431   0.230   3.962  1.1886  0.1818 -2.1910
 1945SOL     OW17470   4.055   4.205   5.585  0.0459  0.6342 -0.7070
 1945SOL    HW117471   3.969   4.187   5.622  0.0609 -1.3776 -1.6435
 1945SOL    HW217472   4.108   4.134   5.622  0.5849  2.3844  1.8811
 1946SOL     OW17473   2.002   4.363   4.059  0.0551  0.3672  0.5120
 1946SOL    HW117474   1.911   4.388   4.045  0.2035  1.1231  0.8739
 1946SOL    HW217475   1.984   4.269   4.058  0.1264  0.3547  0.3815
 1947SOL     OW17476   1.973   0.841  12.306 -0.1750  0.2440 -0.0767
 1947SOL    HW117477   1.910   0.800  12.364 -0.0873 -0.7362 -0.6745
 1947SOL    HW217478   1.972   0.925  12.352 -0.8259 -0.4692  1.2133
 1948SOL     OW17479   2.231   2.079  12.355 -0.2362  0.8050  0.5957
 1948SOL    HW117480   2.319   2.118  12.356 -0.3368  1.0377  0.2117
 1948SOL    HW217481   2.172   2.146  12.390 -0.9689  0.2907  0.3407
 1949SOL     OW17482   1.722   3.376  13.859  0.4996 -0.0976  0.3547
 1949SOL    HW117483   1.734   3.281  13.867  0.6855 -0.2471 -1.6183
 1949SOL    HW217484   1.627   3.367  13.853  0.5501 -0.7669  0.5329
 1950SOL     OW17485   4.447   4.143   7.945 -0.1079  0.3664 -0.0987
 1950SOL    HW117486   4.410   4.172   8.028  2.6223  0.2976  1.1446
 1950SOL    HW217487   4.419   4.218   7.892 -1.9696 -0.3532 -0.1248
 1951SOL     OW17488   1.008   1.996   4.809 -0.1887  0.1536 -0.0037
 1951SOL    HW117489   1.002   1.901   4.802 -1.5756  0.1031  1.6422
 1951SOL    HW217490   1.071   2.003   4.881 -1.1384 -1.2664  0.9740
 1952SOL     OW17491   4.135   1.143  11.245  0.0664  0.3090 -0.2868
 1952SOL    HW117492   4.210   1.193  11.212  0.3201  1.4281  2.0286
 1952SOL    HW217493   4.067   1.210  11.251 -1.3090 -1.1706  0.4431
 1953SOL     OW17494   1.363   2.655   5.806 -0.2488 -0.0011  0.3331
 1953SOL    HW117495   1.416   2.577   5.821  1.4604  1.4693  1.9717
 1953SOL    HW217496   1.392   2.687   5.721  1.7159  2.1762  1.8126
 1954SOL     OW17497   3.615   3.372   4.693  0.1783 -0.5381 -0.2935
 1954SOL    HW117498   3.584   3.424   4.619 -1.8679  1.3663  1.8793
 1954SOL    HW217499   3.637   3.438   4.760  0.4962 -2.3388  1.3637
 1955SOL     OW17500   3.079   3.633   3.276 -0.2159 -0.7672  0.2608
 1955SOL    HW117501   3.044   3.594   3.356  0.0106 -1.4254  0.0354
 1955SOL    HW217502   3.115   3.720   3.296  0.3421 -0.9708  0.1534
 1956SOL     OW17503   2.156   4.242   7.676  0.4702 -0.2876  0.4651
 1956SOL    HW117504   2.223   4.288   7.726  0.3685  0.0556  0.2914
 1956SOL    HW217505   2.150   4.173   7.742  3.5955 -0.5120  0.5294
 1957SOL     OW17506   3.796   2.220   9.667 -0.1711  0.0796 -0.4092
 1957SOL    HW117507   3.720   2.206   9.611 -1.2652 -2.0136  1.6042
 1957SOL    HW217508   3.764   2.157   9.731 -0.3636 -3.7817 -4.2872
 1958SOL     OW17509   2.724   0.335   3.903 -0.4593  0.1357 -0.4175
 1958SOL    HW117510   2.816   0.316   3.887 -0.3836 -0.0071  0.1895
 1958SOL    HW217511   2.729   0.364   3.994  0.0990 -1.1673 -0.0268
 1959SOL     OW17512   0.166   3.186   2.020  0.1315 -0.1783 -0.4414
 1959SOL    HW117513   0.095   3.232   2.064  1.8597  2.4076 -0.3042
 1959SOL    HW217514   0.241   3.243   2.040  1.8025 -1.1824 -3.8439
 1960SOL     OW17515   4.355   2.864  14.037 -0.3880  0.8639 -0.0721
 1960SOL    HW117516   4.423   2.883  14.102 -0.2643  0.8857 -0.2085
 1960SOL    HW217517   4.277   2.900  14.079 -0.4033  1.3027 -0.4804
 1961SOL     OW17518   2.849   3.485   0.966  0.6485 -0.1751 -0.6571
 1961SOL    HW117519   2.916   3.465   1.031 -0.0324  0.4821  0.2433
 1961SOL    HW217520   2.774   3.446   1.010  1.2368  0.4034  0.8468
 1962SOL     OW17521   0.294   1.156   7.833 -0.0995 -0.1185 -0.0006
 1962SOL    HW117522   0.390   1.160   7.836 -0.1079 -1.2160  1.7456
 1962SOL    HW217523   0.268   1.165   7.742 -1.2970 -1.6290  0.1889
 1963SOL     OW17524   2.515   3.064   3.226 -0.1529 -0.0676 -0.2203
 1963SOL    HW117525   2.501   2.991   3.165  1.4108 -1.5756  1.2412
 1963SOL    HW217526   2.609   3.061   3.243 -0.9584  1.7072  4.3006
 1964SOL     OW17527   0.985   1.273   8.914 -0.3415  0.0418  0.2655
 1964SOL    HW117528   1.038   1.293   8.838  0.1803  0.6122  0.7842
 1964SOL    HW217529   0.991   1.347   8.975 -0.0276  0.7315 -0.6050
 1965SOL     OW17530   4.074   4.534   7.672  0.0042 -0.1479  0.3004
 1965SOL    HW117531   4.122   4.617   7.678 -0.8243  0.2267  1.6623
 1965SOL    HW217532   3.991   4.581   7.677 -0.7287 -1.5893  1.6709
 1966SOL     OW17533   4.253   2.363  15.164  0.0284 -0.0167 -0.0878
 1966SOL    HW117534   4.327   2.341  15.221 -1.3915 -1.1785  1.3286
 1966SOL    HW217535   4.271   2.450  15.129  1.5409 -1.0917 -1.9190
 1967SOL     OW17536   3.259   2.673   7.748  0.2560  0.2834 -0.9148
 1967SOL    HW117537   3.210   2.614   7.689 -1.4062  0.0277  0.7246
 1967SOL    HW217538   3.252   2.757   7.703  0.9585  1.1885  0.6901
 1968SOL     OW17539   4.544   1.057   6.671 -0.1347 -0.0365 -0.3854
 1968SOL    HW117540   4.453   1.027   6.670 -0.3633  0.6245  1.9971
 1968SOL    HW217541   4.583   0.972   6.694 -0.0536  0.2408  0.4781
 1969SOL     OW17542   0.310   3.866   0.164  0.2860 -0.3753 -0.2087
 1969SOL    HW117543   0.301   3.882   0.258  2.1770 -1.1839  0.1108
 1969SOL    HW217544   0.373   3.794   0.157  0.1805 -0.5717  0.8827
 1970SOL     OW17545   2.011   4.559  11.419 -0.1910 -0.0626 -0.2338
 1970SOL    HW117546   1.961   4.529  11.495  0.0725 -0.8232 -0.3658
 1970SOL    HW217547   2.103   4.545  11.443  0.0698 -0.4401 -1.4544
 1971SOL     OW17548   4.554   1.825   6.331  0.0906 -0.2733 -0.5119
 1971SOL    HW117549   4.542   1.901   6.388  1.2233  1.6261 -2.7896
 1971SOL    HW217550   4.515   1.866   6.254  0.5238  1.5742  0.2489
 1972SOL     OW17551   4.197   3.249   5.127 -0.6681 -0.1006 -0.0223
 1972SOL    HW117552   4.158   3.161   5.135  0.1671 -0.3908  0.8278
 1972SOL    HW217553   4.127   3.308   5.100  1.7345  2.4410 -0.6157
 1973SOL     OW17554   2.583   1.539   3.368 -0.2348 -0.4569  0.1829
 1973SOL    HW117555   2.496   1.500   3.378 -0.8169  1.2882  2.0798
 1973SOL    HW217556   2.637   1.461   3.359 -1.2147 -1.1020 -0.1668
 1974SOL     OW17557   4.021   3.399   1.864 -0.4168  0.2893 -0.1335
 1974SOL    HW117558   4.101   3.452   1.859  0.4414 -0.9104  1.1027
 1974SOL    HW217559   3.997   3.403   1.772 -1.3106 -0.2409  0.0793
 1975SOL     OW17560   0.073   0.637   4.021 -0.2948  0.5186 -0.2458
 1975SOL    HW117561   0.012   0.710   4.023 -0.5160  0.2922  1.2296
 1975SOL    HW217562   0.029   0.564   3.978  0.6988  0.2383 -0.7830
 1976SOL     OW17563   4.534   0.863  13.172  0.0184  0.1052  0.1674
 1976SOL    HW117564   4.570   0.852  13.260  0.6474  2.3688  0.1964
 1976SOL    HW217565   4.587   0.942  13.157 -0.1421 -0.6902 -4.5652
 1977SOL     OW17566   1.536   4.533   4.773  0.4259 -0.1578 -0.7154
 1977SOL    HW117567   1.547   4.627   4.777 -1.8880  0.0646  0.6029
 1977SOL    HW217568   1.460   4.519   4.830  1.9017  0.4598  1.3709
 1978SOL     OW17569   1.091   0.254  13.180  0.2426 -0.8424  0.1105
 1978SOL    HW117570   1.087   0.315  13.106 -2.4384  0.0731  0.9815
 1978SOL    HW217571   1.184   0.235  13.171  0.3242  0.0406 -0.9222
 1979SOL     OW17572   0.122   1.367  16.759  0.3303  0.1464 -0.9067
 1979SOL    HW117573   0.110   1.276  16.786  1.9562 -0.0951 -1.0158
 1979SOL    HW217574   0.060   1.372  16.686 -1.6653 -0.5954  0.7222
 1980SOL     OW17575   0.319   4.508  13.447 -0.3399  0.5866  0.5584
 1980SOL    HW117576   0.296   4.416  13.466  0.3392  0.3021 -0.0086
 1980SOL    HW217577   0.409   4.494  13.416  0.5217  3.5690  1.7185
 1981SOL     OW17578   2.150   3.643  12.821 -0.4689  0.5641 -0.5297
 1981SOL    HW117579   2.207   3.713  12.853 -0.7836  1.6485 -2.3519
 1981SOL    HW217580   2.063   3.679  12.804  0.5761  1.3496 -4.1995
 1982SOL     OW17581   2.850   3.546  13.539 -0.0625 -0.2437  0.3013
 1982SOL    HW117582   2.859   3.632  13.498 -0.7234 -0.8629 -1.1210
 1982SOL    HW217583   2.888   3.566  13.625 -0.9977 -0.9428  0.8768
 1983SOL     OW17584   2.795   4.245   3.834  0.1228 -0.3557 -0.5781
 1983SOL    HW117585   2.863   4.178   3.825  0.1662 -0.3454 -0.3287
 1983SOL    HW217586   2.742   4.225   3.912  0.3830  1.2176 -0.0148
 1984SOL     OW17587   3.039   2.532   9.901 -0.7199  0.0783 -0.1367
 1984SOL    HW117588   3.076   2.593   9.964 -1.1613 -0.9594  1.1138
 1984SOL    HW217589   3.065   2.584   9.825  0.2636 -2.2142 -1.3798
 1985SOL     OW17590   0.106   0.633   8.441 -0.8252 -0.0205 -0.1872
 1985SOL    HW117591   0.060   0.572   8.383  1.3286 -1.0890 -0.7656
 1985SOL    HW217592   0.160   0.576   8.496 -0.2434  1.1668  0.4769
 1986SOL     OW17593   2.715   1.643   7.834  0.0800  0.3453  0.1116
 1986SOL    HW117594   2.633   1.622   7.878  0.2038  1.2688  0.7939
 1986SOL    HW217595   2.762   1.687   7.905  0.0263 -0.7400  0.8145
 1987SOL     OW17596   2.726   1.754  17.135 -0.2515 -0.2797 -0.2870
 1987SOL    HW117597   2.784   1.771  17.061  0.7299 -2.2054  0.0599
 1987SOL    HW217598   2.792   1.708  17.186 -1.0927  0.1095  1.1834
 1988SOL     OW17599   4.689   2.808   0.029 -0.5859 -0.4051  0.4194
 1988SOL    HW117600   4.706   2.888   0.078  0.5531  1.3918 -2.8845
 1988SOL    HW217601   4.718   2.750   0.100 -1.6874 -1.6171 -0.1237
 1989SOL     OW17602   0.489   3.269  17.478  0.0458  0.8041 -0.5907
 1989SOL    HW117603   0.493   3.232  17.566 -0.2383  1.5689 -0.2568
 1989SOL    HW217604   0.579   3.277  17.445 -0.4122 -2.5401 -2.6188
 1990SOL     OW17605   2.297   2.866   3.645  0.1150 -0.1541 -0.2628
 1990SOL    HW117606   2.354   2.819   3.705  0.5825  0.0308 -0.5578
 1990SOL    HW217607   2.274   2.801   3.579  1.6689 -2.1037  1.1182
 1991SOL     OW17608   1.341   2.976   4.853  0.4779  0.4205 -0.4423
 1991SOL    HW117609   1.347   3.066   4.887 -2.4916 -0.3248  2.0338
 1991SOL    HW217610   1.273   2.941   4.910 -0.0229  0.9251 -0.7326
 1992SOL     OW17611   0.513   1.175   9.112  0.2088  0.0089 -0.7425
 1992SOL    HW117612   0.441   1.145   9.167  0.7542 -0.7232 -0.4248
 1992SOL    HW217613   0.525   1.261   9.152  1.6681  0.6538 -2.5288
 1993SOL     OW17614   3.436   1.996   2.107  0.1262 -0.6873 -0.8471
 1993SOL    HW117615   3.351   2.027   2.138  0.5543  0.0078 -0.3763
 1993SOL    HW217616   3.486   2.062   2.154 -0.9213 -0.8420  0.5046
 1994SOL     OW17617   0.964   4.113   3.840 -0.8204  0.2263  0.1035
 1994SOL    HW117618   1.054   4.083   3.856 -1.3244 -1.2725  0.1324
 1994SOL    HW217619   0.978   4.195   3.888 -1.7822  0.5661 -0.1964
 1995SOL     OW17620   3.685   4.376   8.880 -0.4528  0.4394 -0.1129
 1995SOL    HW117621   3.728   4.409   8.959  0.4790 -0.0042 -0.4267
 1995SOL    HW217622   3.761   4.330   8.845  0.0803 -0.0839  1.7021
 1996SOL     OW17623   3.138   4.628  10.483 -0.2572  0.1176  0.3508
 1996SOL    HW117624   3.213   4.653  10.536  0.4113  0.4516 -0.7604
 1996SOL    HW217625   3.139   4.532  10.486  0.2150  0.1451  1.0785
 1997SOL     OW17626   4.700   2.691   3.812 -0.5062  0.3525 -0.2072
 1997SOL    HW117627   0.016   2.638   3.753 -2.9199 -3.6187  1.1344
 1997SOL    HW217628   4.647   2.627   3.859  1.0661  0.3099  1.5028
 1998SOL     OW17629   3.664   4.181   1.799  0.8466  0.0845  0.2996
 1998SOL    HW117630   3.749   4.214   1.769  1.0216 -1.8686 -1.3772
 1998SOL    HW217631   3.682   4.182   1.893  0.2564 -0.9188  0.4213
 1999SOL     OW17632   3.310   2.104   6.494 -0.2363 -0.3613  0.2953
 1999SOL    HW117633   3.388   2.068   6.537  0.5966  1.1240  0.0191
 1999SOL    HW217634   3.255   2.026   6.490 -0.8495  0.2127 -2.2581
 2000SOL     OW17635   3.100   3.410   5.500  0.3427  0.2247 -0.1544
 2000SOL    HW117636   3.014   3.416   5.458  0.0735 -0.6162  0.2849
 2000SOL    HW217637   3.092   3.317   5.518  0.4946  0.4860  1.2387
 2001SOL     OW17638   0.419   0.819  14.612 -0.4698 -0.1168 -0.2172
 2001SOL    HW117639   0.478   0.890  14.636 -1.3790  0.3418  0.6487
 2001SOL    HW217640   0.460   0.744  14.654  0.1766 -0.0759 -0.7757
 2002SOL     OW17641   3.089   1.060   9.405  0.5905 -0.1117  1.1758
 2002SOL    HW117642   3.094   1.144   9.360 -2.5946  0.4531  1.9218
 2002SOL    HW217643   3.076   1.089   9.495 -0.3436 -0.8443  1.2785
 2003SOL     OW17644   2.668   3.770  13.783  0.1978  0.2760 -0.1379
 2003SOL    HW117645   2.659   3.820  13.864 -2.3065 -1.6225  0.7422
 2003SOL    HW217646   2.590   3.795  13.733  0.3338  1.0651  0.0401
 2004SOL     OW17647   1.054   2.372   5.529  0.2836 -0.0978  0.2746
 2004SOL    HW117648   1.144   2.346   5.514  0.0481 -0.0067 -1.2500
 2004SOL    HW217649   1.055   2.363   5.624  1.1477 -0.1123  0.2560
 2005SOL     OW17650   4.733   2.888   9.488  0.5857  0.3026  0.0743
 2005SOL    HW117651   0.037   2.955   9.542  1.8384 -0.3630 -0.0645
 2005SOL    HW217652   4.709   2.832   9.562 -1.7044  1.6832  0.3825
 2006SOL     OW17653   0.277   4.619  12.677  0.4048 -0.2521  0.7347
 2006SOL    HW117654   0.280   4.612  12.773 -2.5835 -0.5148  0.7931
 2006SOL    HW217655   0.303   4.711  12.671 -0.3674 -0.0880 -0.0495
 2007SOL     OW17656   3.633   0.392   9.084  0.0333  0.3182 -0.5179
 2007SOL    HW117657   3.568   0.462   9.092  2.0094  2.0713  0.2063
 2007SOL    HW217658   3.615   0.357   8.997 -0.9115 -0.9372  0.1847
 2008SOL     OW17659   2.684   1.604  16.846 -0.1676 -0.4455 -0.0732
 2008SOL    HW117660   2.633   1.685  16.851 -2.6246 -2.0502  0.5119
 2008SOL    HW217661   2.644   1.551  16.915  0.1364 -1.5595 -0.7585
 2009SOL     OW17662   2.911   0.353  15.937 -0.0895 -0.6234 -0.2744
 2009SOL    HW117663   2.872   0.420  15.992  0.4258  0.9011 -1.7694
 2009SOL    HW217664   2.926   0.283  16.001 -0.3265 -0.8790 -0.4969
 2010SOL     OW17665   3.910   1.106   4.760 -0.1992  0.0593  0.1660
 2010SOL    HW117666   3.818   1.107   4.733 -0.3769 -3.6609  0.6995
 2010SOL    HW217667   3.948   1.090   4.674  0.7742  3.4877 -0.0560
 2011SOL     OW17668   1.054   1.066   7.349 -0.0608 -0.4282 -0.2126
 2011SOL    HW117669   0.992   1.130   7.383  0.5972  0.3947 -0.5349
 2011SOL    HW217670   1.097   1.126   7.287 -1.7470 -0.5321 -1.4821
 2012SOL     OW17671   2.374   0.833   1.970  0.5067 -0.0031  0.0447
 2012SOL    HW117672   2.326   0.752   1.949 -0.9779  0.5519  1.2618
 2012SOL    HW217673   2.441   0.790   2.023 -0.2853  0.0752  1.0991
 2013SOL     OW17674   2.697   4.083   5.714 -0.6007  0.6414 -0.5797
 2013SOL    HW117675   2.677   4.028   5.790  1.1535  0.7491 -0.0465
 2013SOL    HW217676   2.781   4.046   5.688 -0.7513  0.6200 -1.0396
 2014SOL     OW17677   1.823   2.770   8.688  0.0327 -0.1023 -0.0401
 2014SOL    HW117678   1.881   2.697   8.713  0.8362  1.1610  1.7776
 2014SOL    HW217679   1.882   2.790   8.615  0.2612 -0.2531  0.1039
 2015SOL     OW17680   0.156   3.420   1.129 -0.1244 -0.2987 -0.0865
 2015SOL    HW117681   0.233   3.473   1.147  0.8804 -1.4985 -0.7707
 2015SOL    HW217682   0.179   3.348   1.188 -0.2679 -1.3516 -1.3161
 2016SOL     OW17683   1.427   4.214   5.926  0.8589 -0.0732 -0.1128
 2016SOL    HW117684   1.496   4.149   5.934  1.1861  0.3955  0.8755
 2016SOL    HW217685   1.482   4.291   5.915  1.0189  0.2166  2.7372
 2017SOL     OW17686   0.056   0.863   7.961 -0.2096 -0.6163  0.4046
 2017SOL    HW117687   0.132   0.807   7.974 -0.8589 -1.5929  0.0097
 2017SOL    HW217688   4.718   0.805   7.949 -0.3983 -0.1660 -0.5594
 2018SOL     OW17689   0.125   4.439   6.091  0.3130 -0.4000  0.3215
 2018SOL    HW117690   0.169   4.517   6.057 -2.5262  0.6564 -0.9773
 2018SOL    HW217691   0.200   4.394   6.129  1.3026  0.2162 -0.9411
 2019SOL     OW17692   3.974   3.808   7.542  0.7653 -0.2805  0.4661
 2019SOL    HW117693   3.887   3.831   7.509  1.6189  1.0823 -0.8494
 2019SOL    HW217694   4.014   3.891   7.568 -2.5291  1.5412 -0.3999
 2020SOL     OW17695   2.107   1.388   8.208  0.3526  0.1827 -0.0844
 2020SOL    HW117696   2.061   1.447   8.268 -2.6018 -0.3458 -1.8361
 2020SOL    HW217697   2.113   1.306   8.256 -1.6769  0.6835  1.0347
 2021SOL     OW17698   3.398   4.703   6.696 -0.4069  0.3474  0.0779
 2021SOL    HW117699   3.435   4.656   6.771 -1.2230  0.7458  0.7264
 2021SOL    HW217700   3.481   4.710   6.647 -0.1113  0.3272  0.5768
 2022SOL     OW17701   2.655   0.650  13.593  0.0623  0.0331 -0.2323
 2022SOL    HW117702   2.735   0.622  13.638  0.1530  3.2793  1.6499
 2022SOL    HW217703   2.686   0.734  13.561  0.5187 -0.3063 -0.6730
 2023SOL     OW17704   2.035   2.904   3.978  0.2073  0.5171 -0.0441
 2023SOL    HW117705   2.040   2.825   3.924 -1.2958 -0.6850  1.5783
 2023SOL    HW217706   2.051   2.864   4.064 -1.0927  0.1334  0.0203
 2024SOL     OW17707   2.926   0.095   8.900  0.1886  0.7065  0.4092
 2024SOL    HW117708   2.941   0.028   8.966 -0.2314  0.4292  0.2234
 2024SOL    HW217709   3.009   0.134   8.871  0.4995  0.6869  1.2747
 2025SOL     OW17710   1.522   1.319  16.552 -0.3952  0.1396  0.1402
 2025SOL    HW117711   1.431   1.319  16.582 -0.7264 -0.0311 -0.8734
 2025SOL    HW217712   1.520   1.371  16.472  0.8834 -0.0455 -0.0136
 2026SOL     OW17713   1.992   1.972  10.732  0.1005 -0.2352  0.3767
 2026SOL    HW117714   2.011   2.036  10.800  0.9378  2.0652 -2.0568
 2026SOL    HW217715   2.040   1.896  10.765 -0.8792 -0.4859  1.2284
 2027SOL     OW17716   2.051   1.229   1.900  0.4592 -0.1902 -0.0134
 2027SOL    HW117717   2.004   1.190   1.973 -0.3932  1.3209  0.2444
 2027SOL    HW217718   2.115   1.161   1.881  1.3151  0.7830 -0.6747
 2028SOL     OW17719   4.734   1.760   5.080  0.3407 -0.0069  0.5267
 2028SOL    HW117720   4.639   1.754   5.091  0.2749 -1.1311 -0.5523
 2028SOL    HW217721   0.011   1.850   5.049 -0.0485  0.6411  2.2554
 2029SOL     OW17722   2.012   0.023  17.058 -0.4418 -0.5172  0.9461
 2029SOL    HW117723   1.925   0.002  17.023 -0.9464  0.2362  1.7284
 2029SOL    HW217724   2.018   0.117  17.071 -0.7401 -0.7673  2.8985
 2030SOL     OW17725   4.343   0.584   4.759 -0.0592 -0.3949 -0.1711
 2030SOL    HW117726   4.269   0.535   4.795  2.0217 -1.8127  2.1518
 2030SOL    HW217727   4.393   0.519   4.710  1.7415 -0.4694  1.7745
 2031SOL     OW17728   1.687   1.034   6.975 -0.7052 -0.2895  0.0979
 2031SOL    HW117729   1.601   1.014   6.937 -1.1523  1.3416  0.2821
 2031SOL    HW217730   1.738   0.954   6.963  2.4455  1.7470 -0.1277
 2032SOL     OW17731   3.304   2.175  13.764 -0.1585  0.2686  0.8930
 2032SOL    HW117732   3.294   2.238  13.694 -1.1297  1.5936  2.2120
 2032SOL    HW217733   3.390   2.142  13.739 -0.2249  0.8241 -0.0648
 2033SOL     OW17734   1.965   1.410   6.986 -0.3067  0.3592 -0.2974
 2033SOL    HW117735   2.023   1.387   7.059  0.4295 -1.7413 -1.5239
 2033SOL    HW217736   2.008   1.490   6.955  3.2459 -2.0981 -1.7189
 2034SOL     OW17737   0.510   3.380   2.718 -0.5019  0.3757  0.3891
 2034SOL    HW117738   0.515   3.309   2.782  1.4337  0.2610  0.1150
 2034SOL    HW217739   0.507   3.335   2.633  0.1946  1.7644 -0.3745
 2035SOL     OW17740   2.514   4.319   2.957  0.4996 -0.2824  0.1029
 2035SOL    HW117741   2.582   4.285   3.015 -0.5764  0.4038  1.7691
 2035SOL    HW217742   2.557   4.319   2.872  1.0327  0.1946  0.3705
 2036SOL     OW17743   1.419   0.442  12.107  0.0589 -0.0697 -0.1947
 2036SOL    HW117744   1.458   0.437  12.194 -1.0770 -0.8095  0.2784
 2036SOL    HW217745   1.407   0.537  12.103  3.4550  0.4922  3.1813
 2037SOL     OW17746   1.658   3.845   5.537 -0.5490 -0.0306 -0.1926
 2037SOL    HW117747   1.748   3.823   5.558 -0.0523  3.6874  1.6158
 2037SOL    HW217748   1.642   3.927   5.585 -0.1409  0.0080 -0.1269
 2038SOL     OW17749   4.054   1.722  14.859  0.1100  0.2120  0.3925
 2038SOL    HW117750   4.108   1.648  14.886  1.7321  0.4004 -2.2669
 2038SOL    HW217751   4.030   1.691  14.771 -0.6485 -0.6810  0.9069
 2039SOL     OW17752   4.442   1.093   7.448  0.4395  0.5264 -0.0019
 2039SOL    HW117753   4.528   1.125   7.422  0.9795 -1.1549 -0.3028
 2039SOL    HW217754   4.428   1.007   7.407 -0.5651  1.5680 -1.8424
 2040SOL     OW17755   2.828   4.581   9.517 -0.3305  0.0616  0.7571
 2040SOL    HW117756   2.905   4.555   9.568 -0.5605  0.1697  1.1591
 2040SOL    HW217757   2.868   4.583   9.430  1.2742  1.6786  1.5189
 2041SOL     OW17758   0.891   4.506   0.400 -0.6454 -0.7405  0.0617
 2041SOL    HW117759   0.829   4.549   0.341 -0.6660  1.8179  1.9413
 2041SOL    HW217760   0.876   4.565   0.474 -0.9270 -1.5047  0.6236
 2042SOL     OW17761   3.482   2.921   6.767 -0.1919  0.1014  0.3388
 2042SOL    HW117762   3.563   2.901   6.719  1.0329 -2.3906  3.4442
 2042SOL    HW217763   3.428   2.947   6.692  1.9067  0.0783 -1.2101
 2043SOL     OW17764   2.014   0.532   2.482  0.3318  0.1076 -0.7617
 2043SOL    HW117765   2.029   0.624   2.501  2.0452 -0.7574  2.2474
 2043SOL    HW217766   2.105   0.502   2.482  0.2517 -0.1706  0.8505
 2044SOL     OW17767   0.929   2.150   5.406  0.3664  0.3415 -0.6866
 2044SOL    HW117768   0.968   2.233   5.433 -0.5502 -0.0764  1.9208
 2044SOL    HW217769   0.895   2.171   5.319  0.2265  1.0141 -0.4654
 2045SOL     OW17770   2.589   4.321   4.799  0.1900 -0.1937  0.1311
 2045SOL    HW117771   2.530   4.377   4.848  0.8734 -2.1802  3.2507
 2045SOL    HW217772   2.654   4.384   4.767 -1.2904  1.0039 -0.4793
 2046SOL     OW17773   4.256   3.994  17.297 -0.0599 -0.4202 -0.2880
 2046SOL    HW117774   4.321   3.969  17.363 -0.4196  1.7188  0.8775
 2046SOL    HW217775   4.203   3.914  17.295  2.6709 -2.2417  0.8954
 2047SOL     OW17776   4.226   3.874   4.799  0.3582  0.5607  0.5225
 2047SOL    HW117777   4.195   3.799   4.750  1.1810  1.3667 -1.2404
 2047SOL    HW217778   4.182   3.862   4.883  0.8890  2.3714  1.0655
 2048SOL     OW17779   2.311   0.488  15.534 -0.6134  0.4298  0.4261
 2048SOL    HW117780   2.307   0.439  15.617 -0.6231  0.2304  0.3084
 2048SOL    HW217781   2.230   0.539  15.527  0.0690  1.3921 -0.4108
 2049SOL     OW17782   1.898   4.433   5.951 -0.0470 -0.7409  0.3836
 2049SOL    HW117783   1.810   4.458   5.981  1.5164  3.1659  1.7218
 2049SOL    HW217784   1.906   4.371   6.023 -1.1827 -1.6007 -0.2386
 2050SOL     OW17785   4.439   3.919  11.482  0.2068  0.3557  0.2217
 2050SOL    HW117786   4.527   3.945  11.455  0.2453 -1.6551 -1.6139
 2050SOL    HW217787   4.399   4.002  11.507 -0.1397 -0.3266  1.9015
 2051SOL     OW17788   1.911   1.110   3.400 -0.2310 -0.0632 -0.2144
 2051SOL    HW117789   1.950   1.023   3.385 -2.6369 -1.0819 -0.5916
 2051SOL    HW217790   1.916   1.153   3.314  1.8351 -1.1725 -0.6623
 2052SOL     OW17791   1.769   0.379   8.087 -0.3401 -0.6736 -0.0195
 2052SOL    HW117792   1.788   0.286   8.097 -0.8794 -0.8206 -0.3922
 2052SOL    HW217793   1.806   0.403   8.002 -1.0178 -2.2990 -0.7575
 2053SOL     OW17794   2.079   4.498   3.392 -0.0914 -0.7237 -0.0482
 2053SOL    HW117795   2.074   4.593   3.375 -0.5238 -0.4459  1.6397
 2053SOL    HW217796   1.984   4.485   3.383 -0.5402  1.2429  1.9051
 2054SOL     OW17797   4.007   4.455   0.732 -0.4598  0.0303 -0.0282
 2054SOL    HW117798   3.974   4.369   0.707 -0.4877  0.0295  0.0128
 2054SOL    HW217799   3.951   4.514   0.681  1.2075  1.3111 -0.3957
 2055SOL     OW17800   1.878   2.875   1.850  0.5743  0.0315 -0.2279
 2055SOL    HW117801   1.877   2.903   1.758 -0.4940  1.0872  0.1030
 2055SOL    HW217802   1.971   2.862   1.869  0.2817 -1.2016  0.3789
 2056SOL     OW17803   0.827   2.826  12.623  0.2406 -0.1647  0.2757
 2056SOL    HW117804   0.741   2.855  12.654 -0.0755  0.1017 -0.8596
 2056SOL    HW217805   0.804   2.753  12.566  2.4353  0.0440 -0.8594
 2057SOL     OW17806   2.175   4.457   2.756  0.2843 -0.4888 -0.5439
 2057SOL    HW117807   2.259   4.456   2.710 -0.4316  2.3050 -1.9378
 2057SOL    HW217808   2.130   4.380   2.721 -0.8065 -0.0406 -0.1205
 2058SOL     OW17809   1.870   0.573  13.602 -0.0504  0.0496 -0.4728
 2058SOL    HW117810   1.963   0.576  13.624 -0.0275 -0.2013 -0.5345
 2058SOL    HW217811   1.850   0.653  13.555  1.7104 -0.9903 -2.9730
 2059SOL     OW17812   1.647   4.533   3.152 -0.1402  0.0598 -0.4699
 2059SOL    HW117813   1.715   4.470   3.127 -1.8247 -1.6607 -0.6685
 2059SOL    HW217814   1.691   4.618   3.148  1.3552 -0.6589  0.9427
 2060SOL     OW17815   4.295   0.756   8.724  0.2521 -0.5437  0.2914
 2060SOL    HW117816   4.313   0.759   8.818  0.8695 -0.2461  0.1653
 2060SOL    HW217817   4.207   0.719   8.720 -0.7779  1.9170  0.2792
 2061SOL     OW17818   3.953   0.222   7.475  0.2105  0.1980 -0.6523
 2061SOL    HW117819   4.039   0.244   7.439 -0.2592  2.8034 -0.1593
 2061SOL    HW217820   3.916   0.308   7.494  2.1030  1.0358 -0.7932
 2062SOL     OW17821   4.461   1.431   7.377 -0.2160 -0.1379 -0.3298
 2062SOL    HW117822   4.455   1.508   7.433 -0.1746  0.5567 -1.2745
 2062SOL    HW217823   4.402   1.365   7.412  0.7340 -1.2703 -0.8402
 2063SOL     OW17824   0.724   0.992   7.661 -0.0890  0.5687 -0.1645
 2063SOL    HW117825   0.650   0.991   7.600 -2.7744 -0.9674  3.1065
 2063SOL    HW217826   0.721   0.905   7.700 -0.6295 -0.3923 -2.3615
 2064SOL     OW17827   0.589   2.470   1.807 -0.0810 -0.2486 -0.3040
 2064SOL    HW117828   0.655   2.538   1.796  0.8588 -0.7652  2.1955
 2064SOL    HW217829   0.646   2.402   1.770  0.4022 -0.7156  1.3224
 2065SOL     OW17830   2.234   2.124   5.132  0.3102 -0.2068  0.7402
 2065SOL    HW117831   2.230   2.137   5.227  0.0026  2.0362  0.4275
 2065SOL    HW217832   2.150   2.162   5.105  0.4536 -2.1545 -2.4312
 2066SOL     OW17833   0.253   3.965   6.661 -0.4906  0.7848  0.6027
 2066SOL    HW117834   0.259   3.872   6.684 -1.7558  0.4376 -0.4624
 2066SOL    HW217835   0.161   3.992   6.673 -0.6356 -0.0443  1.3904
 2067SOL     OW17836   2.008   3.820   5.266 -0.0670 -0.0166  0.0835
 2067SOL    HW117837   1.914   3.824   5.281  0.5008  0.5581  3.3849
 2067SOL    HW217838   2.028   3.727   5.278 -0.4286 -0.2134 -0.7898
 2068SOL     OW17839   0.921   4.234   9.765  0.2353 -0.2363 -0.5542
 2068SOL    HW117840   1.005   4.193   9.742 -0.0503 -1.1792  0.0694
 2068SOL    HW217841   0.935   4.245   9.858  1.5204  2.0982 -1.0492
 2069SOL     OW17842   0.250   2.256  16.541 -0.0187  0.1238  0.4315
 2069SOL    HW117843   0.198   2.336  16.533 -1.0107 -0.4884  0.7449
 2069SOL    HW217844   0.254   2.253  16.636  1.0730  1.1977  0.4286
 2070SOL     OW17845   0.372   3.308  15.866  0.4844  1.3856 -0.4275
 2070SOL    HW117846   0.409   3.304  15.954  1.7584 -0.6820 -1.0719
 2070SOL    HW217847   0.305   3.375  15.882  0.4639  1.5201 -1.0779
 2071SOL     OW17848   4.297   4.520   2.372 -0.3569 -0.0854  0.1334
 2071SOL    HW117849   4.259   4.605   2.391  0.8231  0.6142 -0.6410
 2071SOL    HW217850   4.390   4.528   2.354  0.3338 -2.6440  2.6186
 2072SOL     OW17851   1.457   2.172   8.293 -0.5543  0.5627  0.4253
 2072SOL    HW117852   1.422   2.210   8.213  1.6631  0.0013 -0.8072
 2072SOL    HW217853   1.541   2.149   8.254 -1.3196  0.2032 -1.0151
 2073SOL     OW17854   4.000   1.449   5.146  0.8358  0.2494 -0.0493
 2073SOL    HW117855   3.952   1.525   5.179  0.0013 -0.2853 -0.0189
 2073SOL    HW217856   4.041   1.410   5.223 -0.9224 -2.4101 -0.4630
 2074SOL     OW17857   1.649   2.244   4.946  0.0405 -0.0986  0.4787
 2074SOL    HW117858   1.607   2.225   4.863  0.6965  1.3407 -0.1961
 2074SOL    HW217859   1.572   2.286   4.984 -0.5548  2.5275 -3.5694
 2075SOL     OW17860   4.550   1.803   2.266  0.2360 -0.2642 -1.1129
 2075SOL    HW117861   4.643   1.816   2.280  0.4197 -0.3758 -2.2144
 2075SOL    HW217862   4.552   1.708   2.281  0.0821 -0.4264 -2.1076
 2076SOL     OW17863   2.429   2.979  14.431 -0.0731 -0.1779 -0.1674
 2076SOL    HW117864   2.491   2.969  14.503  1.8431 -3.8274 -2.3235
 2076SOL    HW217865   2.389   3.064  14.449 -0.3960 -0.6043  1.1455
 2077SOL     OW17866   1.064   1.336   7.418  0.0633  0.1242  0.2609
 2077SOL    HW117867   1.048   1.425   7.448  1.9760  0.5517 -0.0061
 2077SOL    HW217868   1.133   1.358   7.355  1.0482  0.4410  1.4572
 2078SOL     OW17869   3.531   1.406  16.560 -0.3994 -0.2460  0.0455
 2078SOL    HW117870   3.436   1.399  16.567 -0.4338 -1.6733 -1.7534
 2078SOL    HW217871   3.531   1.446  16.473 -1.6587  1.2834  0.7513
 2079SOL     OW17872   2.639   3.344   1.561  0.6564 -0.1394  0.6090
 2079SOL    HW117873   2.604   3.400   1.492 -0.6189 -0.5258  0.9514
 2079SOL    HW217874   2.575   3.367   1.628  1.2674  1.4754  0.6442
 2080SOL     OW17875   2.447   1.704   2.083  0.3522  0.1764 -0.7776
 2080SOL    HW117876   2.537   1.706   2.114  0.5083  3.1729 -1.4012
 2080SOL    HW217877   2.401   1.749   2.154  0.6488 -1.5036  0.4704
 2081SOL     OW17878   0.808   1.076   8.951  0.4946 -0.1594 -0.1129
 2081SOL    HW117879   0.896   1.059   8.983  0.2161  1.2389  1.4199
 2081SOL    HW217880   0.766   1.142   9.006  0.7589  1.7485 -2.1840
 2082SOL     OW17881   2.027   1.563   0.704  0.3887  0.2874  0.5085
 2082SOL    HW117882   2.104   1.611   0.674  1.5021 -1.9675 -0.1504
 2082SOL    HW217883   1.985   1.548   0.619 -0.3013  0.1468  0.8715
 2083SOL     OW17884   1.909   3.590   7.122 -0.5807 -0.4128  0.1103
 2083SOL    HW117885   1.980   3.604   7.059  0.9419 -2.9168  1.2423
 2083SOL    HW217886   1.957   3.593   7.204 -0.4014  3.0711 -0.1590
 2084SOL     OW17887   1.498   0.883   1.556  0.4586  0.0478  0.8173
 2084SOL    HW117888   1.492   0.792   1.530 -0.5300  0.7193 -1.3186
 2084SOL    HW217889   1.404   0.902   1.551  0.8307  1.1152 -2.1270
 2085SOL     OW17890   1.463   0.812   9.012  0.1851 -0.2819  0.3840
 2085SOL    HW117891   1.489   0.895   9.053 -0.0067  0.0893 -0.2417
 2085SOL    HW217892   1.547   0.779   8.980  0.2294 -0.7120  0.9371
 2086SOL     OW17893   3.440   1.701  16.609 -0.3080  0.2828 -0.2226
 2086SOL    HW117894   3.459   1.711  16.516 -1.4567  0.2969 -0.4551
 2086SOL    HW217895   3.367   1.639  16.603  0.7945 -0.9631 -0.6142
 2087SOL     OW17896   4.045   0.647   9.581  0.3486  0.4348 -0.1395
 2087SOL    HW117897   4.083   0.560   9.594 -2.2887 -0.7074 -0.0305
 2087SOL    HW217898   4.040   0.650   9.485  0.4210  2.1430 -0.0873
 2088SOL     OW17899   1.207   3.808   1.655  0.2877  0.1547 -0.4799
 2088SOL    HW117900   1.134   3.756   1.623  0.8884 -1.2347  0.4339
 2088SOL    HW217901   1.235   3.755   1.729 -2.1130 -2.3777 -1.4150
 2089SOL     OW17902   2.519   0.748   2.176 -0.1144 -0.2666 -0.0830
 2089SOL    HW117903   2.598   0.802   2.170 -0.8432  0.5419 -2.5462
 2089SOL    HW217904   2.551   0.675   2.228 -1.1758 -0.5650  0.1348
 2090SOL     OW17905   4.024   3.078  14.620  0.2733 -0.1159 -0.4474
 2090SOL    HW117906   4.004   3.021  14.545  1.6503 -0.7540 -0.3387
 2090SOL    HW217907   4.119   3.090  14.620 -0.0287  2.2428  0.4604
 2091SOL     OW17908   2.141   0.089   7.198  0.1708  0.7136 -0.0817
 2091SOL    HW117909   2.113   0.152   7.131  1.2406 -0.9949 -2.1023
 2091SOL    HW217910   2.224   0.057   7.164 -0.4113 -0.7100 -0.1763
 2092SOL     OW17911   0.994   3.684   6.041  0.2448  0.7773  0.0626
 2092SOL    HW117912   0.908   3.720   6.063 -0.6787 -2.5029  1.7095
 2092SOL    HW217913   0.973   3.639   5.960 -2.0166  0.2167  0.9683
 2093SOL     OW17914   4.419   3.104   1.300  0.8924 -0.1753 -0.1295
 2093SOL    HW117915   4.427   3.009   1.307  2.3108 -0.1459 -1.2376
 2093SOL    HW217916   4.406   3.123   1.393 -0.3526  2.0957 -0.7727
 2094SOL     OW17917   2.601   4.023   3.270 -0.2392  0.4614 -0.3995
 2094SOL    HW117918   2.642   4.057   3.350 -1.1304  2.3020 -0.7259
 2094SOL    HW217919   2.601   3.930   3.294  0.3019  1.1246  2.1455
 2095SOL     OW17920   0.767   3.605  11.497 -0.6784  0.5760 -0.0532
 2095SOL    HW117921   0.806   3.520  11.518 -0.1561  0.4126 -1.6997
 2095SOL    HW217922   0.825   3.662  11.547 -1.2474  0.3705  0.8344
 2096SOL     OW17923   4.647   3.234  16.871 -0.2524  0.2440 -0.6236
 2096SOL    HW117924   4.722   3.182  16.843 -0.8059  1.4160 -4.1723
 2096SOL    HW217925   4.579   3.200  16.812 -2.5334 -0.8529  2.6038
 2097SOL     OW17926   0.647   2.700   6.246 -0.3108  0.2547  0.2532
 2097SOL    HW117927   0.592   2.779   6.243 -0.3119  0.2891  1.0513
 2097SOL    HW217928   0.578   2.643   6.280  0.6865  0.1844  2.1450
 2098SOL     OW17929   3.732   4.006  17.268 -0.0567  0.3878  0.0781
 2098SOL    HW117930   3.668   4.039  17.331 -0.7362  0.8993 -0.8912
 2098SOL    HW217931   3.714   4.043  17.182 -0.0063 -0.0139 -0.1079
 2099SOL     OW17932   3.538   3.267   7.838 -0.4643  0.4578  0.4414
 2099SOL    HW117933   3.456   3.289   7.794 -1.3651 -2.7955  0.4494
 2099SOL    HW217934   3.560   3.180   7.802  0.8231  1.2489 -0.6958
 2100SOL     OW17935   4.300   0.749  14.228 -0.0603  0.6002 -0.2874
 2100SOL    HW117936   4.301   0.826  14.286 -1.0495 -1.2285  2.1369
 2100SOL    HW217937   4.366   0.772  14.162  0.5337  0.3466  0.2232
 2101SOL     OW17938   3.968   0.043   4.117  0.1483 -0.4102 -0.1531
 2101SOL    HW117939   3.977   0.004   4.205 -1.4480 -1.8603 -0.6233
 2101SOL    HW217940   3.966   0.136   4.138 -1.3511 -0.3486 -0.5311
 2102SOL     OW17941   0.480   4.217   5.169 -0.1209  0.1455 -0.2701
 2102SOL    HW117942   0.454   4.182   5.083  0.5980 -1.2937  0.0941
 2102SOL    HW217943   0.571   4.187   5.165 -0.0227  0.7768 -2.6346
 2103SOL     OW17944   0.273   0.147   3.809 -0.0729  0.5341  0.2566
 2103SOL    HW117945   0.211   0.141   3.881  0.4497  2.1451  0.8415
 2103SOL    HW217946   0.259   0.070   3.754 -0.1963  1.3597 -0.8760
 2104SOL     OW17947   3.387   2.149   7.461  0.1777 -0.5225 -0.2804
 2104SOL    HW117948   3.354   2.081   7.521 -3.3540  1.2227 -0.2844
 2104SOL    HW217949   3.333   2.225   7.484 -1.4505 -1.6020 -0.4845
 2105SOL     OW17950   3.532   1.735   1.850 -0.3794  0.2143 -0.1007
 2105SOL    HW117951   3.516   1.659   1.794  0.4717  0.3289 -0.5094
 2105SOL    HW217952   3.621   1.715   1.880 -0.5158  0.4818  0.4743
 2106SOL     OW17953   1.924   1.101   7.169 -0.2169  0.2090 -0.1838
 2106SOL    HW117954   1.949   1.190   7.196  0.5479  0.3039 -1.2018
 2106SOL    HW217955   1.877   1.105   7.085 -0.2577  2.0103 -0.0756
 2107SOL     OW17956   1.088   2.475   9.422  0.0964  0.1494  0.2733
 2107SOL    HW117957   1.027   2.401   9.416  0.4844 -0.0892 -0.7138
 2107SOL    HW217958   1.113   2.482   9.514  2.1314  0.2273 -0.3006
 2108SOL     OW17959   3.621   4.493   9.473 -0.3961  0.5737  0.8441
 2108SOL    HW117960   3.566   4.475   9.549  1.7613 -0.0714  2.2479
 2108SOL    HW217961   3.705   4.511   9.514  1.0629  1.3366 -2.4730
 2109SOL     OW17962   1.323   4.406   6.774  0.3483 -0.5194  0.9747
 2109SOL    HW117963   1.351   4.318   6.749  1.7135  0.2699 -0.2907
 2109SOL    HW217964   1.384   4.457   6.720 -0.3326 -0.1080  0.5997
 2110SOL     OW17965   1.535   3.262   2.972 -0.4916 -0.2078  0.1935
 2110SOL    HW117966   1.524   3.312   2.891 -1.3786 -1.3475 -0.3965
 2110SOL    HW217967   1.614   3.300   3.011 -1.2915  1.9261 -0.2767
 2111SOL     OW17968   3.741   3.096   2.972 -0.8033  0.0208  0.1306
 2111SOL    HW117969   3.798   3.019   2.969 -1.3578 -0.3432 -1.0952
 2111SOL    HW217970   3.694   3.088   3.055 -0.9947 -0.4403 -0.0198
 2112SOL     OW17971   0.589   1.221  15.185 -0.0068  0.2214 -0.3469
 2112SOL    HW117972   0.509   1.268  15.160 -1.5901  0.0113  4.2847
 2112SOL    HW217973   0.552   1.170  15.256  1.9016 -0.0070  0.4825
 2113SOL     OW17974   0.529   0.122  12.479 -0.5389  0.2380  0.7691
 2113SOL    HW117975   0.481   0.079  12.409  0.3588  0.3296  0.1043
 2113SOL    HW217976   0.449   0.134  12.531  0.4212  2.2654  1.7946
 2114SOL     OW17977   3.423   4.453   2.636 -0.0689  0.8141  0.1860
 2114SOL    HW117978   3.408   4.443   2.730  2.3598 -1.2307  0.3363
 2114SOL    HW217979   3.333   4.473   2.608 -0.2601  2.0894  1.7128
 2115SOL     OW17980   2.356   3.460  12.367 -0.4928 -0.3395 -0.7771
 2115SOL    HW117981   2.287   3.515  12.331 -1.1836 -2.0753 -2.0812
 2115SOL    HW217982   2.371   3.507  12.449  1.1492 -0.8156 -0.8025
 2116SOL     OW17983   2.668   2.321   8.808  0.7592  0.1693  0.3986
 2116SOL    HW117984   2.741   2.382   8.799  1.2564 -0.3722  0.7529
 2116SOL    HW217985   2.645   2.321   8.715 -0.5378 -2.7533  0.7401
 2117SOL     OW17986   1.923   1.763   8.603  0.1767 -0.1099  0.3781
 2117SOL    HW117987   1.987   1.835   8.602  0.1691 -0.1086 -0.0466
 2117SOL    HW217988   1.840   1.804   8.580  0.4724  0.3292  0.0930
 2118SOL     OW17989   0.316   1.562   2.484  0.0470 -0.3095 -0.4966
 2118SOL    HW117990   0.377   1.635   2.490  0.0328 -0.2340 -1.3929
 2118SOL    HW217991   0.355   1.500   2.546  0.0081  0.7257  0.5579
 2119SOL     OW17992   3.932   4.224   8.924 -0.2620 -0.1714  0.1327
 2119SOL    HW117993   3.977   4.164   8.865 -0.1111 -1.1333  1.2243
 2119SOL    HW217994   3.904   4.161   8.991 -1.2682  0.9024  0.7343
 2120SOL     OW17995   4.309   3.653   8.360 -0.5526 -0.1579  0.2576
 2120SOL    HW117996   4.238   3.694   8.310 -0.9966 -2.8638 -1.3614
 2120SOL    HW217997   4.270   3.566   8.372  0.0606 -0.2612  1.4783
 2121SOL     OW17998   0.554   4.178   7.905 -0.3127  0.1172 -0.0380
 2121SOL    HW117999   0.631   4.193   7.849 -0.2101  0.3829  0.1689
 2121SOL    HW218000   0.513   4.116   7.846 -0.7897  0.5579 -0.1695
 2122SOL     OW18001   1.352   1.596   7.123  0.2159  0.4614 -0.0895
 2122SOL    HW118002   1.429   1.637   7.084 -0.2598  0.4189 -1.0987
 2122SOL    HW218003   1.366   1.511   7.081  3.1997  0.7264  0.4023
 2123SOL     OW18004   4.020   1.087   9.387 -0.6192  0.0848 -0.3448
 2123SOL    HW118005   3.963   1.095   9.464  1.2337 -0.0710  1.0392
 2123SOL    HW218006   4.062   1.001   9.390 -0.3849  0.1647 -1.2723
 2124SOL     OW18007   4.681   1.117   8.514  0.4277 -0.6655  0.0700
 2124SOL    HW118008   4.683   1.176   8.590 -0.9160 -0.2993 -0.1941
 2124SOL    HW218009   4.613   1.058   8.546 -0.0789 -0.5584 -0.8379
 2125SOL     OW18010   1.530   3.941  10.810 -0.0163  0.0327  0.1054
 2125SOL    HW118011   1.520   3.970  10.901 -0.5628  3.3250 -1.0252
 2125SOL    HW218012   1.564   4.014  10.759 -0.2454 -1.9736 -2.8936
 2126SOL     OW18013   4.317   2.620   2.214  0.1323  0.8554  0.0207
 2126SOL    HW118014   4.407   2.607   2.243 -0.4342  2.4449  2.4679
 2126SOL    HW218015   4.284   2.664   2.292 -2.3702  1.0096 -1.0955
 2127SOL     OW18016   3.564   1.857   8.065  0.5654  0.2028  0.0274
 2127SOL    HW118017   3.578   1.789   8.131  2.9342  2.4110  1.8403
 2127SOL    HW218018   3.645   1.907   8.074 -0.2551  1.2043  1.7987
 2128SOL     OW18019   2.151   1.342   2.144 -0.1242 -0.0144 -0.0079
 2128SOL    HW118020   2.145   1.311   2.054 -0.7545 -0.9825  0.3685
 2128SOL    HW218021   2.061   1.366   2.166 -0.0273 -0.2818  0.6983
 2129SOL     OW18022   4.048   3.116  11.761  0.1617 -0.6568 -0.3928
 2129SOL    HW118023   4.055   3.120  11.857 -1.9087  0.0527 -0.2867
 2129SOL    HW218024   3.967   3.067  11.748 -2.3255  2.9935  1.3475
 2130SOL     OW18025   1.112   0.349   5.878 -0.1752 -0.7470  0.2704
 2130SOL    HW118026   1.116   0.395   5.793 -3.3985  2.7804  2.0188
 2130SOL    HW218027   1.129   0.418   5.942 -1.9722  0.2679 -0.3443
 2131SOL     OW18028   3.775   0.964  14.818 -0.5512  0.0131  0.1452
 2131SOL    HW118029   3.763   0.932  14.729  2.0545  1.5114 -0.7465
 2131SOL    HW218030   3.725   0.896  14.863  1.9202 -1.3726  0.8145
 2132SOL     OW18031   3.712   2.037  13.676 -0.4169 -0.2934  0.2460
 2132SOL    HW118032   3.795   2.071  13.640  0.7065 -0.8470  2.3229
 2132SOL    HW218033   3.646   2.086  13.627  0.9329  1.0275 -0.2597
 2133SOL     OW18034   3.405   3.837   1.812  0.2127 -0.7009 -0.1763
 2133SOL    HW118035   3.415   3.768   1.746 -0.6296 -0.4814 -0.5376
 2133SOL    HW218036   3.347   3.792   1.873 -0.3190 -1.8142 -1.4942
 2134SOL     OW18037   2.462   2.431   0.524  0.6116  0.1976  0.3270
 2134SOL    HW118038   2.370   2.417   0.545 -0.2271  1.9999 -2.1047
 2134SOL    HW218039   2.438   2.489   0.452  1.3380  0.1556  0.0491
 2135SOL     OW18040   3.479   3.429  17.581  1.0435  0.4273  0.5468
 2135SOL    HW118041   3.409   3.395  17.637  1.7270 -0.5897  0.7804
 2135SOL    HW218042   3.484   3.358  17.518  0.2891  0.4201  0.5066
 2136SOL     OW18043   3.737   1.221   0.390 -0.5193  0.2336  0.0353
 2136SOL    HW118044   3.744   1.311   0.360 -1.0915 -0.1768 -1.3232
 2136SOL    HW218045   3.687   1.183   0.317  2.4081  0.1721 -1.9314
 2137SOL     OW18046   2.561   4.679   5.718  0.2176  0.1374  0.6957
 2137SOL    HW118047   2.470   4.652   5.714  0.4248 -0.6381  1.1291
 2137SOL    HW218048   2.596   4.641   5.637  0.7636  2.0682  0.0392
 2138SOL     OW18049   3.421   4.045   0.988 -0.0160  0.0992  0.6148
 2138SOL    HW118050   3.360   4.009   0.924 -0.9284  2.2007  0.2879
 2138SOL    HW218051   3.454   3.966   1.031  0.9150  0.0096 -0.2748
 2139SOL     OW18052   3.642   2.442   5.682 -0.3482  0.0813  0.3563
 2139SOL    HW118053   3.629   2.348   5.699  3.1253 -0.4108  0.2954
 2139SOL    HW218054   3.570   2.465   5.623  1.2485 -1.6025 -2.2939
 2140SOL     OW18055   3.585   0.340   4.810  0.4349  0.2438  0.6776
 2140SOL    HW118056   3.504   0.383   4.784  0.7788  0.3413 -0.2039
 2140SOL    HW218057   3.581   0.262   4.754 -3.6227  1.7566 -1.1187
 2141SOL     OW18058   4.090   0.614   9.260  0.1062  0.7619  0.2281
 2141SOL    HW118059   4.021   0.550   9.278  0.2124  0.3584 -0.7987
 2141SOL    HW218060   4.098   0.590   9.167 -2.1891  0.2114  0.1770
 2142SOL     OW18061   2.639   1.649   4.001  0.2154 -0.1822 -0.4251
 2142SOL    HW118062   2.719   1.612   4.036  1.1630  0.4429 -1.9282
 2142SOL    HW218063   2.611   1.581   3.939 -2.1700  0.2079  0.2134
 2143SOL     OW18064   0.098   0.067   7.152 -0.5829 -0.0992  0.2752
 2143SOL    HW118065   0.094   0.159   7.180 -2.2012 -0.4048  1.0685
 2143SOL    HW218066   0.131   0.022   7.230 -0.2826  0.2210  0.3347
 2144SOL     OW18067   2.007   1.964   6.644 -0.6778  0.1998 -0.4382
 2144SOL    HW118068   1.934   1.936   6.699  1.1060 -4.3751 -0.3385
 2144SOL    HW218069   2.034   2.043   6.691 -0.6873  0.6041 -1.1222
 2145SOL     OW18070   4.621   2.952  12.657  0.3311  0.2937  0.3280
 2145SOL    HW118071   4.570   2.897  12.716 -1.1447 -0.3995 -1.6129
 2145SOL    HW218072   4.698   2.899  12.639  1.3293  2.0589 -0.5790
 2146SOL     OW18073   3.595   2.165   6.876  1.0475  0.2983 -0.0574
 2146SOL    HW118074   3.642   2.231   6.928  0.5831  0.2970  0.3653
 2146SOL    HW218075   3.594   2.096   6.942 -1.4256  1.2614  0.9062
 2147SOL     OW18076   2.781   4.503   3.689 -0.1152 -0.4627 -0.0334
 2147SOL    HW118077   2.766   4.595   3.712 -2.1518 -1.9197  4.6080
 2147SOL    HW218078   2.727   4.462   3.757  0.1082  0.9287  0.9975
 2148SOL     OW18079   3.733   4.357   7.502  0.7202  0.5582  0.1135
 2148SOL    HW118080   3.744   4.262   7.489  1.1886  0.7072 -0.5898
 2148SOL    HW218081   3.750   4.363   7.595  0.7222 -2.6191  0.3474
 2149SOL     OW18082   4.048   0.431   2.253  0.2409 -0.5600 -0.3803
 2149SOL    HW118083   4.001   0.380   2.187  2.2334 -0.5484 -1.7895
 2149SOL    HW218084   4.098   0.496   2.203 -1.6758  1.4151  0.2399
 2150SOL     OW18085   2.102   0.236   5.983 -0.3851  0.5896 -0.3749
 2150SOL    HW118086   2.197   0.239   5.994 -0.6358  3.0823  1.2326
 2150SOL    HW218087   2.094   0.274   5.895 -0.5815 -0.0215 -0.6228
 2151SOL     OW18088   2.730   1.520   4.965 -0.0468  0.0896  0.7157
 2151SOL    HW118089   2.673   1.533   4.890  2.6240  2.0985 -0.9378
 2151SOL    HW218090   2.755   1.612   4.969 -1.9552  0.5769  1.4941
 2152SOL     OW18091   1.521   3.818   3.099  0.0169 -0.1074  0.4556
 2152SOL    HW118092   1.540   3.883   3.167  0.3416 -0.8417  1.0729
 2152SOL    HW218093   1.561   3.866   3.027  0.3704  0.9099  1.3355
 2153SOL     OW18094   0.973   3.201  12.769  0.4595  0.8749  0.4874
 2153SOL    HW118095   1.054   3.197  12.719 -0.3003  0.1555 -0.6771
 2153SOL    HW218096   0.912   3.204  12.695  2.3874 -1.2678 -1.1891
 2154SOL     OW18097   4.165   3.694   4.598  0.2660  0.2369 -0.4035
 2154SOL    HW118098   4.158   3.601   4.579  1.5063 -0.1902  1.3408
 2154SOL    HW218099   4.072   3.696   4.621  0.1445  0.2781 -0.8848
 2155SOL     OW18100   0.134   1.537   2.258 -0.0520  0.1037 -0.6978
 2155SOL    HW118101   0.207   1.551   2.318  1.1447 -2.1249 -1.6478
 2155SOL    HW218102   0.067   1.525   2.326  3.3514  0.0889  2.6718
 2156SOL     OW18103   4.254   0.757   4.229  0.3434  0.0279 -0.0160
 2156SOL    HW118104   4.223   0.770   4.140  0.2245 -0.2774 -0.0180
 2156SOL    HW218105   4.318   0.686   4.222 -0.4311 -0.4777 -1.9397
 2157SOL     OW18106   2.111   3.580   6.877 -0.3036 -0.5443  0.3315
 2157SOL    HW118107   2.059   3.526   6.818  0.9518 -0.8668 -0.4827
 2157SOL    HW218108   2.193   3.545   6.843 -0.0253  0.1964  0.2331
 2158SOL     OW18109   3.029   3.316  16.817  0.5636  0.3482 -0.7917
 2158SOL    HW118110   2.935   3.299  16.805  0.8154 -1.8803  0.4071
 2158SOL    HW218111   3.033   3.406  16.851  0.4761 -0.6520  1.8417
 2159SOL     OW18112   2.593   2.717   4.459 -0.1775  0.2783 -0.0339
 2159SOL    HW118113   2.651   2.678   4.393  0.9221  1.5379  0.1762
 2159SOL    HW218114   2.621   2.808   4.448 -0.9767  0.3102 -1.8113
 2160SOL     OW18115   1.211   0.404   9.554  0.2354 -0.1782  0.5060
 2160SOL    HW118116   1.172   0.419   9.640 -0.4990  1.0541 -0.0349
 2160SOL    HW218117   1.131   0.395   9.502  1.0472  1.8353 -1.1204
 2161SOL     OW18118   4.117   1.705   3.676 -0.0531  1.0305  0.2799
 2161SOL    HW118119   4.078   1.769   3.617 -0.0360 -0.1911 -1.0728
 2161SOL    HW218120   4.123   1.623   3.627  2.6416  1.7718 -0.6200
 2162SOL     OW18121   0.167   2.036  17.278  0.0917 -0.3085  0.1192
 2162SOL    HW118122   0.093   2.006  17.225  0.7651 -0.7258 -0.5680
 2162SOL    HW218123   0.172   1.980  17.355 -1.9390  0.2270  0.6445
 2163SOL     OW18124   4.348   2.701   7.917 -0.1803 -1.0951  0.0501
 2163SOL    HW118125   4.375   2.723   7.828 -0.5331  0.3940  0.3099
 2163SOL    HW218126   4.254   2.698   7.897 -0.6342  1.2488  1.9080
 2164SOL     OW18127   3.136   0.196   9.433  0.3042 -0.0049  0.2905
 2164SOL    HW118128   3.074   0.123   9.441 -0.7057  0.7014 -1.0854
 2164SOL    HW218129   3.102   0.258   9.498  1.2389  0.9125 -0.0995
 2165SOL     OW18130   1.133   2.513  12.791 -0.0183  0.0711 -0.1688
 2165SOL    HW118131   1.146   2.580  12.858 -0.4991  0.8670 -0.8714
 2165SOL    HW218132   1.188   2.552  12.722  0.2322 -0.6270 -0.3694
 2166SOL     OW18133   4.349   3.433   0.129 -0.3069 -0.0598  0.4324
 2166SOL    HW118134   4.383   3.351   0.094  1.7506  2.1939 -2.8404
 2166SOL    HW218135   4.369   3.484   0.051 -1.7189 -1.6978 -0.9975
 2167SOL     OW18136   1.506   0.749  15.013 -0.6873 -0.2282  0.1352
 2167SOL    HW118137   1.506   0.653  15.016 -0.8538 -0.1549  1.9545
 2167SOL    HW218138   1.414   0.765  14.991 -0.0798  2.5123 -0.4494
 2168SOL     OW18139   2.505   3.065   5.687  0.1520 -0.0117  0.3620
 2168SOL    HW118140   2.462   3.105   5.612  1.0377 -2.2304 -1.3478
 2168SOL    HW218141   2.436   3.072   5.753 -1.3287 -2.6018 -0.8901
 2169SOL     OW18142   0.198   1.830   6.959  0.1507  0.1037  0.5102
 2169SOL    HW118143   0.277   1.801   7.004  0.0418 -3.1080 -1.4153
 2169SOL    HW218144   0.217   1.924   6.960 -0.2579  0.1959 -0.9195
 2170SOL     OW18145   1.575   3.723   8.160 -0.1580 -0.0523  0.1639
 2170SOL    HW118146   1.607   3.789   8.222  0.7432  0.1990 -0.5730
 2170SOL    HW218147   1.580   3.781   8.084 -1.1190 -1.1120 -0.7083
 2171SOL     OW18148   2.230   0.721   7.435 -0.3373  0.1888  0.3173
 2171SOL    HW118149   2.140   0.692   7.418 -0.2047 -0.7180  1.1950
 2171SOL    HW218150   2.221   0.816   7.450  0.6743 -0.0800  2.6391
 2172SOL     OW18151   3.249   2.950   7.673 -0.4968  0.5133  0.0494
 2172SOL    HW118152   3.277   3.001   7.597 -0.5195  1.5029  0.7010
 2172SOL    HW218153   3.156   2.941   7.652 -0.7032  1.5036  0.5335
 2173SOL     OW18154   4.109   3.318   8.992 -0.4154 -0.1324  0.3573
 2173SOL    HW118155   4.158   3.304   9.073  2.2609 -1.5019 -1.4832
 2173SOL    HW218156   4.115   3.229   8.956  0.8007 -0.9250  2.5193
 2174SOL     OW18157   0.389   2.921   6.795  0.5357  0.3571  0.5887
 2174SOL    HW118158   0.474   2.910   6.754  0.2550 -0.9939  0.3917
 2174SOL    HW218159   0.398   2.867   6.873 -2.2767 -0.6157  0.2264
 2175SOL     OW18160   4.536   1.678   3.611  0.2331 -0.2395  0.7339
 2175SOL    HW118161   4.598   1.750   3.605 -1.4308  1.1723  0.2879
 2175SOL    HW218162   4.473   1.709   3.677 -1.2400 -1.3353 -0.1357
 2176SOL     OW18163   3.890   4.457  13.563  0.6505 -0.3059 -0.1462
 2176SOL    HW118164   3.875   4.422  13.476 -1.6372 -1.1538  0.6032
 2176SOL    HW218165   3.846   4.389  13.614  1.8014 -1.1624 -0.2941
 2177SOL     OW18166   3.392   1.546   5.898 -0.0079  0.1900  0.1406
 2177SOL    HW118167   3.360   1.632   5.924 -0.5208 -0.1719  0.6901
 2177SOL    HW218168   3.333   1.490   5.947  0.1978  1.3335  1.6801
 2178SOL     OW18169   1.797   4.067   6.224 -0.2137 -0.0947 -0.0564
 2178SOL    HW118170   1.759   4.045   6.309  2.0681 -1.0951  0.7136
 2178SOL    HW218171   1.785   4.160   6.206 -0.6641  0.3564  2.5445
 2179SOL     OW18172   1.153   3.904   8.926  0.9818 -0.1070  0.1484
 2179SOL    HW118173   1.075   3.956   8.908  2.3299  1.5560 -0.8746
 2179SOL    HW218174   1.105   3.831   8.965  2.5221 -0.9777  0.4309
 2180SOL     OW18175   2.226   0.103   5.641 -0.0694 -0.0382 -0.2065
 2180SOL    HW118176   2.221   0.084   5.547 -0.1663  1.0793 -0.4290
 2180SOL    HW218177   2.306   0.156   5.632 -0.8067  0.6342 -2.8034
 2181SOL     OW18178   2.299   4.503   6.032 -0.1693  0.3325  0.4088
 2181SOL    HW118179   2.334   4.561   5.964  1.0492 -0.9105 -0.0194
 2181SOL    HW218180   2.240   4.566   6.074 -1.4938 -0.0643 -0.9100
 2182SOL     OW18181   3.076   0.133   4.643 -0.3046  0.5842 -0.4550
 2182SOL    HW118182   3.160   0.117   4.685 -1.5265 -2.8340  0.6981
 2182SOL    HW218183   3.019   0.093   4.708  1.8467  1.8704  2.2014
 2183SOL     OW18184   3.624   1.369   5.948 -0.1788  0.4927  0.1796
 2183SOL    HW118185   3.713   1.404   5.950  0.3479 -0.9613  2.0910
 2183SOL    HW218186   3.569   1.443   5.922  1.8284  1.0316 -2.5515
 2184SOL     OW18187   0.505   1.022  14.945 -0.0759  0.0263 -0.1524
 2184SOL    HW118188   0.564   1.057  15.012 -0.4463 -0.4112  0.3985
 2184SOL    HW218189   0.415   1.033  14.975  0.7148 -3.3500  3.5071
 2185SOL     OW18190   2.411   0.447   5.281  0.3115 -0.5593 -0.7243
 2185SOL    HW118191   2.356   0.500   5.339  1.3186 -0.2918 -0.0093
 2185SOL    HW218192   2.484   0.432   5.342  0.1335 -1.1116 -0.6494
 2186SOL     OW18193   1.707   0.674  17.604  0.4586  0.0432  0.4168
 2186SOL    HW118194   1.664   0.714  17.680  0.4485  0.3342  0.2595
 2186SOL    HW218195   1.756   0.602  17.644 -1.9588 -1.0248  1.4414
 2187SOL     OW18196   3.854   3.200  15.679  0.2835  0.1177  0.2169
 2187SOL    HW118197   3.939   3.205  15.722 -0.4328  1.0552  1.5389
 2187SOL    HW218198   3.815   3.285  15.696 -0.4590 -0.1668 -0.0462
 2188SOL     OW18199   3.728   2.720   6.120  0.3942  0.2142  0.2622
 2188SOL    HW118200   3.815   2.710   6.159 -0.0382  0.3890  1.2607
 2188SOL    HW218201   3.761   2.722   6.030  0.2874  0.8881  0.2414
 2189SOL     OW18202   0.310   0.275   9.001 -0.4600  0.4071 -0.4998
 2189SOL    HW118203   0.260   0.356   8.999  1.8772  1.8556  0.4630
 2189SOL    HW218204   0.395   0.314   8.984 -0.7184  0.9532 -0.5258
 2190SOL     OW18205   2.966   4.227   4.081  0.2881 -0.2944 -0.0341
 2190SOL    HW118206   2.942   4.170   4.008 -2.1721 -0.7584  1.1432
 2190SOL    HW218207   2.966   4.315   4.043  1.0541  0.4996  1.8412
 2191SOL     OW18208   2.646   1.155   3.166 -0.4723  0.3118  0.4163
 2191SOL    HW118209   2.567   1.179   3.214 -1.0222 -0.9160  0.1246
 2191SOL    HW218210   2.620   1.071   3.129 -0.0529  0.8023 -0.9878
 2192SOL     OW18211   3.846   1.196   5.516  0.8327  0.4988 -0.0503
 2192SOL    HW118212   3.896   1.267   5.558  0.5441  0.8242 -0.2546
 2192SOL    HW218213   3.755   1.225   5.510  1.3434  2.3735  1.1670
 2193SOL     OW18214   4.440   2.848   0.073  0.1841 -0.2961  0.0252
 2193SOL    HW118215   4.531   2.821   0.060 -0.7727 -3.5615  0.0994
 2193SOL    HW218216   4.446   2.896   0.155 -0.4774  1.3354 -0.8812
 2194SOL     OW18217   4.595   0.974   4.816 -0.1812  0.3538  0.1528
 2194SOL    HW118218   4.632   0.978   4.728  0.0148  2.2439  0.3315
 2194SOL    HW218219   4.551   1.058   4.826  0.6174  1.0318 -2.1536
 2195SOL     OW18220   1.580   0.109   5.455  0.2666  0.0387 -0.1904
 2195SOL    HW118221   1.642   0.040   5.478  0.8566  0.4013 -0.6694
 2195SOL    HW218222   1.639   0.173   5.414 -0.4313 -0.4213 -1.9475
 2196SOL     OW18223   2.791   0.995   8.341 -0.7417 -0.6343  0.0293
 2196SOL    HW118224   2.822   1.010   8.252 -0.1843  1.4445  0.5670
 2196SOL    HW218225   2.857   1.035   8.398 -2.6480  3.4884 -0.6664
 2197SOL     OW18226   0.478   2.553  15.109 -0.5372  0.3446 -0.6575
 2197SOL    HW118227   0.487   2.648  15.116  2.0672 -0.0843  2.0989
 2197SOL    HW218228   0.571   2.533  15.108 -0.2908  1.4007  0.7773
 2198SOL     OW18229   2.202   4.563   5.232 -0.3776 -0.1581  0.1127
 2198SOL    HW118230   2.275   4.530   5.179  0.2613 -0.8480  1.4149
 2198SOL    HW218231   2.134   4.585   5.169 -1.5863 -2.3920  0.6196
 2199SOL     OW18232   0.122   0.943  11.702 -0.2791 -0.1116 -0.0837
 2199SOL    HW118233   0.103   0.992  11.621  3.2288  0.0600 -0.7769
 2199SOL    HW218234   0.041   0.943  11.754 -0.3890 -0.0008 -0.2538
 2200SOL     OW18235   3.236   2.876   5.539  0.2772 -0.0663 -0.6669
 2200SOL    HW118236   3.231   2.971   5.552 -0.5157  0.1915 -2.7984
 2200SOL    HW218237   3.270   2.861   5.451 -0.9635  2.2832 -1.5425
 2201SOL     OW18238   3.962   0.422   9.372  0.2715  0.1852  0.8526
 2201SOL    HW118239   4.022   0.351   9.397  0.8290  1.1429  2.2068
 2201SOL    HW218240   3.876   0.380   9.378 -0.2474  1.3977  1.7084
 2202SOL     OW18241   1.556   2.123  10.317 -0.7439 -0.3083 -0.2956
 2202SOL    HW118242   1.649   2.143  10.304 -0.2753 -2.3750 -0.1793
 2202SOL    HW218243   1.555   2.126  10.412 -1.2067 -0.8629 -0.2825
 2203SOL     OW18244   2.643   4.563   5.457 -0.0763 -0.3085 -0.2150
 2203SOL    HW118245   2.620   4.642   5.408  0.1263 -0.3729 -0.4160
 2203SOL    HW218246   2.738   4.574   5.453 -0.1726 -0.3963 -3.0100
 2204SOL     OW18247   2.472   0.028   2.817 -0.4822 -0.0853 -0.1191
 2204SOL    HW118248   2.436   4.690   2.864  0.3312 -0.0572  0.5501
 2204SOL    HW218249   2.553   4.723   2.790  0.3709  1.9606 -0.7491
 2205SOL     OW18250   0.795   0.389   5.763  0.0192 -0.1785  0.5817
 2205SOL    HW118251   0.799   0.293   5.772 -1.7792 -0.3780 -0.7569
 2205SOL    HW218252   0.882   0.415   5.734  0.9085 -0.8532  2.7079
 2206SOL     OW18253   1.977   4.735  12.251  0.3201  0.0971  0.1447
 2206SOL    HW118254   2.014   0.070  12.200  1.6558 -0.8095 -0.1729
 2206SOL    HW218255   2.005   0.010  12.342 -0.5363  3.0866  0.0105
 2207SOL     OW18256   4.647   4.724   4.638  0.5982  0.5896  0.1800
 2207SOL    HW118257   4.715   4.668   4.674  0.1693 -0.5841 -0.8067
 2207SOL    HW218258   4.568   4.676   4.663  1.2752  0.0251  1.2101
 2208SOL     OW18259   0.213   0.208   4.577  0.0283  0.5323 -0.2340
 2208SOL    HW118260   0.176   0.296   4.590 -0.4650  0.3546 -0.4246
 2208SOL    HW218261   0.146   0.164   4.525  0.2841  0.0792 -0.1805
 2209SOL     OW18262   2.251   4.204  10.173 -0.0156  0.1860  0.0260
 2209SOL    HW118263   2.327   4.162  10.213  1.1899  1.6260 -0.7482
 2209SOL    HW218264   2.298   4.265  10.116 -0.4810  0.2049 -0.3343
 2210SOL     OW18265   1.798   2.345   6.518  0.0523 -0.6814  0.4773
 2210SOL    HW118266   1.822   2.264   6.473 -0.1980 -1.2135  1.3151
 2210SOL    HW218267   1.733   2.315   6.581 -0.4632 -0.5659 -0.0016
 2211SOL     OW18268   2.745   3.504   1.918  0.6646 -0.6729 -0.0574
 2211SOL    HW118269   2.730   3.471   1.830  4.1271 -2.0396 -0.1019
 2211SOL    HW218270   2.814   3.447   1.950 -0.9575 -1.2971  2.4167
 2212SOL     OW18271   3.444   3.037  17.625  0.5204  0.1391 -0.5291
 2212SOL    HW118272   3.434   3.113  17.567 -2.1139  0.0829 -0.1634
 2212SOL    HW218273   3.508   3.068  17.688 -1.8065  3.1611  0.3326
 2213SOL     OW18274   2.226   0.868   8.353  0.1993 -0.3916  0.0884
 2213SOL    HW118275   2.153   0.816   8.319  0.3944  0.3622 -1.4984
 2213SOL    HW218276   2.223   0.860   8.448 -1.6548 -2.2617 -0.1252
 2214SOL     OW18277   2.717   2.714   8.194 -0.1322  0.0470 -0.5210
 2214SOL    HW118278   2.631   2.715   8.237  0.0372 -0.5198 -0.1749
 2214SOL    HW218279   2.744   2.630   8.231 -0.6719  0.3958  0.6603
 2215SOL     OW18280   2.734   2.612   2.416  0.2091 -0.0508 -0.2450
 2215SOL    HW118281   2.670   2.606   2.487 -0.7763  0.0280 -1.1137
 2215SOL    HW218282   2.817   2.617   2.464  0.6260 -0.3988 -0.9265
 2216SOL     OW18283   3.079   3.170  17.582 -0.4034 -0.4738 -0.2292
 2216SOL    HW118284   3.073   3.114  17.659  1.2194 -0.4531 -0.0803
 2216SOL    HW218285   3.107   3.102  17.520 -0.1946  0.4850 -1.1977
 2217SOL     OW18286   1.828   3.994  10.206  0.4597  0.5447  0.0640
 2217SOL    HW118287   1.779   3.926  10.253 -0.2370  0.2500 -1.0946
 2217SOL    HW218288   1.848   3.958  10.120 -0.0665 -0.7202  0.4696
 2218SOL     OW18289   3.147   2.137   6.053 -0.1938  0.2055  0.2738
 2218SOL    HW118290   3.162   2.044   6.068 -0.8816  0.0092 -0.2669
 2218SOL    HW218291   3.197   2.174   6.125  0.5313 -1.1757  0.4697
 2219SOL     OW18292   0.893   4.437   7.696 -0.0725 -0.2766 -0.5590
 2219SOL    HW118293   0.897   4.447   7.601 -1.1428 -2.0022 -0.7895
 2219SOL    HW218294   0.947   4.512   7.721 -0.9521 -0.5105  2.0593
 2220SOL     OW18295   3.857   0.120   6.595  0.1543 -0.3967 -0.1516
 2220SOL    HW118296   3.912   0.079   6.661  0.6408  0.7142  0.1188
 2220SOL    HW218297   3.843   0.204   6.639  0.6526 -0.4564  0.1212
 2221SOL     OW18298   3.306   4.531   0.577  0.3644 -0.4202 -0.1664
 2221SOL    HW118299   3.231   4.511   0.521 -0.7341  1.0903  0.7477
 2221SOL    HW218300   3.365   4.588   0.528 -1.2415  0.7180 -0.7645
 2222SOL     OW18301   1.614   1.520   6.755  0.0743 -0.2281  0.4535
 2222SOL    HW118302   1.668   1.441   6.749  1.1035  0.2885  2.9418
 2222SOL    HW218303   1.624   1.527   6.850  2.9341 -0.3040  0.1664
 2223SOL     OW18304   3.156   1.029   1.495  0.5785  0.4173 -0.5131
 2223SOL    HW118305   3.126   0.964   1.431  0.8321 -0.9946  0.8085
 2223SOL    HW218306   3.073   1.056   1.535  0.6688  0.1020 -0.1100
 2224SOL     OW18307   0.932   1.527   4.367 -0.2361 -0.2806  0.4965
 2224SOL    HW118308   1.004   1.464   4.367  0.3658  0.4092 -0.6008
 2224SOL    HW218309   0.956   1.596   4.429 -2.6273  1.0296 -0.0408
 2225SOL     OW18310   2.229   1.996   8.424  0.6690 -0.8122  0.4406
 2225SOL    HW118311   2.206   2.003   8.332 -0.1183 -1.2911  0.6031
 2225SOL    HW218312   2.323   2.018   8.421  0.5743 -0.3145  1.0158
 2226SOL     OW18313   0.544   2.537  10.639 -0.2907  0.4248 -0.1317
 2226SOL    HW118314   0.541   2.554  10.544  0.6342  4.1602  0.5182
 2226SOL    HW218315   0.638   2.534  10.656 -0.4149  1.2314  0.6527
 2227SOL     OW18316   2.884   3.482   6.304  0.0365 -0.7415  0.3368
 2227SOL    HW118317   2.937   3.562   6.307 -0.1836 -0.5497 -1.1183
 2227SOL    HW218318   2.954   3.422   6.280  0.6124  0.4953 -1.0720
 2228SOL     OW18319   1.214   1.903   2.786 -0.3655  0.0360  0.2513
 2228SOL    HW118320   1.125   1.891   2.752 -0.9888  0.0248  1.8655
 2228SOL    HW218321   1.236   1.983   2.740  2.0699 -0.4116  0.6195
 2229SOL     OW18322   2.090   3.097   9.966  0.3498  0.0073 -0.1368
 2229SOL    HW118323   2.173   3.063   9.999  1.6377  1.4565 -1.8565
 2229SOL    HW218324   2.112   3.103   9.873  0.4554 -0.4123 -0.1397
 2230SOL     OW18325   0.925   2.482   8.665 -0.0632  0.3323  0.1343
 2230SOL    HW118326   0.992   2.540   8.629  0.1965  0.4154  0.7420
 2230SOL    HW218327   0.852   2.512   8.612 -1.0950  0.5312  1.6580
 2231SOL     OW18328   0.639   4.185   5.905  0.4416  0.3630  0.0414
 2231SOL    HW118329   0.707   4.197   5.839 -0.8800 -1.1877 -1.5990
 2231SOL    HW218330   0.589   4.113   5.867  2.2906 -1.3056  0.7674
 2232SOL     OW18331   3.990   2.107   8.533  0.7492 -0.8664  0.0981
 2232SOL    HW118332   4.030   2.068   8.611  2.5297 -0.0291 -0.3906
 2232SOL    HW218333   3.900   2.074   8.535 -0.2925  1.9982  0.5137
 2233SOL     OW18334   2.634   0.871   3.653  0.7912 -0.1638  0.5819
 2233SOL    HW118335   2.619   0.865   3.558  0.7589 -0.8955  0.6273
 2233SOL    HW218336   2.624   0.960   3.684  0.1970  0.5684 -1.6959
 2234SOL     OW18337   4.715   1.017   0.320 -0.0801 -0.2131  0.4438
 2234SOL    HW118338   4.692   1.066   0.399 -1.9008 -0.6790  0.2130
 2234SOL    HW218339   0.071   1.037   0.320 -0.2481  0.5817  0.6208
 2235SOL     OW18340   1.154   1.081   8.487  0.1288  0.6255  0.2525
 2235SOL    HW118341   1.110   1.016   8.542 -2.4885  1.2607 -1.1454
 2235SOL    HW218342   1.163   1.034   8.405  0.1308 -1.3182  1.3545
 2236SOL     OW18343   4.231   3.456   8.783 -0.5378  0.5115 -0.2723
 2236SOL    HW118344   4.181   3.408   8.849 -0.3676  1.1747  0.3354
 2236SOL    HW218345   4.304   3.393   8.780 -1.3651 -0.4675  0.0785
 2237SOL     OW18346   4.481   1.457  11.723  0.4227  0.5261 -0.2883
 2237SOL    HW118347   4.457   1.542  11.759 -1.0274  0.5913 -1.4328
 2237SOL    HW218348   4.575   1.475  11.721  0.3574  1.1735  2.7953
 2238SOL     OW18349   1.425   2.598   3.838  0.3188  0.5058 -0.3849
 2238SOL    HW118350   1.343   2.598   3.888  0.7566  3.4100  0.2980
 2238SOL    HW218351   1.422   2.679   3.787 -0.2347  0.9580  0.3542
 2239SOL     OW18352   2.080   1.976   5.891 -0.2595  0.2673 -0.1969
 2239SOL    HW118353   2.094   2.066   5.860 -1.6390  0.4214 -0.3853
 2239SOL    HW218354   2.024   1.940   5.822 -0.3239 -0.1281  0.0644
 2240SOL     OW18355   1.454   3.244   6.316 -0.5793 -0.3015 -0.1959
 2240SOL    HW118356   1.429   3.189   6.241 -0.7241 -1.0569  0.4101
 2240SOL    HW218357   1.545   3.256   6.288 -0.4050  2.2646  1.4465
 2241SOL     OW18358   1.146   1.254   2.720 -0.3463  0.5748 -0.3482
 2241SOL    HW118359   1.169   1.220   2.634 -1.7340  0.0213 -0.4934
 2241SOL    HW218360   1.210   1.325   2.721  0.6311 -0.2789 -2.6793
 2242SOL     OW18361   2.895   2.160  17.625 -0.2485 -0.1321  0.5899
 2242SOL    HW118362   2.903   2.180  17.718 -1.4575 -0.7782  0.8256
 2242SOL    HW218363   2.889   2.065  17.635 -0.3794 -0.0724  1.0543
 2243SOL     OW18364   2.750   2.928   9.158 -0.3259 -0.3502 -0.3846
 2243SOL    HW118365   2.715   2.897   9.075 -3.1755  0.7308  0.3926
 2243SOL    HW218366   2.674   2.937   9.216 -0.5869  1.7869 -1.0540
 2244SOL     OW18367   0.395   3.011  17.389  0.5368  0.3058  0.7557
 2244SOL    HW118368   0.402   3.023  17.484  0.6395 -1.8332  1.0280
 2244SOL    HW218369   0.443   3.090  17.365 -0.2084 -0.0868 -2.0611
 2245SOL     OW18370   1.284   2.642   8.690 -0.5865  0.2736 -0.0506
 2245SOL    HW118371   1.243   2.643   8.777 -0.5976 -1.1287 -0.0366
 2245SOL    HW218372   1.325   2.556   8.699 -0.9857  0.1055  0.1886
 2246SOL     OW18373   3.498   4.128  15.515  0.3539 -0.1592 -0.9597
 2246SOL    HW118374   3.537   4.095  15.434  0.1106 -1.7256 -0.4216
 2246SOL    HW218375   3.518   4.048  15.562  0.0450 -0.1577 -0.8266
 2247SOL     OW18376   0.508   3.627   3.323 -0.5569 -0.1253  0.8136
 2247SOL    HW118377   0.525   3.683   3.399  1.6535 -0.1258  0.3419
 2247SOL    HW218378   0.512   3.537   3.355 -1.1519 -0.2997  0.4004
 2248SOL     OW18379   0.381   2.742  16.904  0.6101  0.2947 -0.1531
 2248SOL    HW118380   0.426   2.701  16.978 -0.1934 -1.7789 -0.7931
 2248SOL    HW218381   0.452   2.763  16.844  2.5919 -1.4494  1.5508
 2249SOL     OW18382   1.490   4.365  16.117 -0.1522 -0.1691  0.2727
 2249SOL    HW118383   1.446   4.397  16.196  0.4050  0.8844  0.1565
 2249SOL    HW218384   1.417   4.335  16.062 -0.7150 -0.0909  0.9720
 2250SOL     OW18385   0.014   2.100  11.434  0.0203  0.0865  0.4704
 2250SOL    HW118386   4.677   2.079  11.379  0.2328 -1.6440  0.8435
 2250SOL    HW218387   4.732   2.183  11.476 -0.2886 -0.3764  1.2449
 2251SOL     OW18388   3.083   1.858   6.171 -0.0945  0.1926  0.3477
 2251SOL    HW118389   3.008   1.884   6.224 -2.0019 -2.6635 -0.9394
 2251SOL    HW218390   3.024   1.830   6.101 -0.9450  4.3034 -0.5698
 2252SOL     OW18391   3.037   3.354   2.396 -0.4387 -0.1699 -0.0738
 2252SOL    HW118392   3.128   3.383   2.387 -0.8983  1.1211 -0.4845
 2252SOL    HW218393   3.000   3.425   2.448  4.0385  1.9235  0.2626
 2253SOL     OW18394   4.642   1.200   5.814  0.2992  0.2270  0.1154
 2253SOL    HW118395   4.736   1.182   5.819  0.0257 -1.2297 -0.1241
 2253SOL    HW218396   4.605   1.125   5.768  2.4848  1.5217 -3.7399
 2254SOL     OW18397   0.742   2.817  12.253 -0.0557 -0.5016 -1.0700
 2254SOL    HW118398   0.732   2.807  12.159 -1.8172 -2.2549 -0.7013
 2254SOL    HW218399   0.743   2.912  12.257  1.7124 -0.5221 -1.0973
 2255SOL     OW18400   3.270   1.906   5.607 -0.7771 -0.0520 -0.2619
 2255SOL    HW118401   3.232   1.985   5.646  0.6608  0.3694  0.2610
 2255SOL    HW218402   3.233   1.888   5.520 -1.7259  2.5497 -0.4086
 2256SOL     OW18403   1.117   0.348  13.444  0.8084  0.6862 -0.4480
 2256SOL    HW118404   1.116   0.330  13.350 -0.6447 -0.5839 -0.1860
 2256SOL    HW218405   1.129   0.443  13.450  3.0433  0.1896  2.5399
 2257SOL     OW18406   3.488   1.887   4.544  0.1324 -0.0770 -0.0320
 2257SOL    HW118407   3.574   1.926   4.556 -0.6767  1.7647 -0.1898
 2257SOL    HW218408   3.477   1.882   4.449  0.1053  0.2545 -0.0465
 2258SOL     OW18409   2.226   1.983   8.154  0.2537 -0.0411 -0.0329
 2258SOL    HW118410   2.143   2.020   8.122  0.2557  0.3240  0.3801
 2258SOL    HW218411   2.282   2.053   8.121 -0.9754  1.4739  1.0950
 2259SOL     OW18412   3.669   3.895   2.618 -0.2311 -0.4682 -0.0892
 2259SOL    HW118413   3.646   3.955   2.688 -1.2481 -2.5909  1.3952
 2259SOL    HW218414   3.582   3.858   2.608 -1.0869  1.7800 -0.9348
 2260SOL     OW18415   1.536   0.572   9.349  0.7399 -0.3129 -0.4993
 2260SOL    HW118416   1.614   0.541   9.301  1.2485  0.0442  0.0965
 2260SOL    HW218417   1.508   0.498   9.402  2.4551 -1.7838 -1.6237
 2261SOL     OW18418   2.937   1.736   4.034 -0.2583  0.7002  0.1883
 2261SOL    HW118419   2.899   1.769   4.116 -1.2622 -1.2339  0.5046
 2261SOL    HW218420   3.022   1.718   4.073 -0.2106  0.5840  0.0269
 2262SOL     OW18421   4.280   2.140   2.830 -0.1361  0.0571  0.2312
 2262SOL    HW118422   4.194   2.181   2.823 -1.9194 -3.5645  0.7629
 2262SOL    HW218423   4.303   2.125   2.738  2.6967  2.9121  0.4682
 2263SOL     OW18424   4.204   2.873   0.680  0.4610 -0.3637 -0.0199
 2263SOL    HW118425   4.278   2.897   0.736  1.1972  0.3835 -1.3304
 2263SOL    HW218426   4.189   2.783   0.710  0.9135 -1.4182 -2.9574
 2264SOL     OW18427   1.984   2.245   5.229  0.0314 -0.2701 -0.2148
 2264SOL    HW118428   1.899   2.281   5.254  0.6812  0.4959  0.8680
 2264SOL    HW218429   2.043   2.304   5.276 -0.9217 -1.2587  2.2208
 2265SOL     OW18430   3.620   1.663   1.535 -0.1978 -0.7974 -0.1582
 2265SOL    HW118431   3.702   1.710   1.547 -0.2500 -0.5633 -0.7432
 2265SOL    HW218432   3.591   1.692   1.449  2.3337  1.4708 -0.2336
 2266SOL     OW18433   2.118   0.380   4.013  0.4184 -0.1616  0.1577
 2266SOL    HW118434   2.026   0.405   4.002 -0.5324 -1.5214  5.4001
 2266SOL    HW218435   2.162   0.462   3.991  0.8666 -0.3578  0.3378
 2267SOL     OW18436   4.334   3.639  17.401  0.2313 -0.6038  0.1843
 2267SOL    HW118437   4.274   3.690  17.347  0.2692 -0.3901  0.3418
 2267SOL    HW218438   4.342   3.557  17.353 -1.4618 -0.7702  0.1923
 2268SOL     OW18439   1.319   1.959   8.893  0.1139 -0.2728 -0.1614
 2268SOL    HW118440   1.400   2.001   8.864 -0.5672  1.0937 -0.1113
 2268SOL    HW218441   1.321   1.872   8.855 -0.3337  0.0778 -0.9932
 2269SOL     OW18442   0.615   1.371   9.263  0.7017 -0.6940 -0.7202
 2269SOL    HW118443   0.658   1.297   9.306  0.4035 -0.0233  0.7121
 2269SOL    HW218444   0.671   1.440   9.297  1.4106 -0.9795 -1.2939
 2270SOL     OW18445   1.158   4.593  13.346 -0.6534 -0.3741 -0.2103
 2270SOL    HW118446   1.218   4.562  13.414 -0.0427  0.5114 -0.3401
 2270SOL    HW218447   1.210   4.596  13.266  0.0535  0.4215  0.2745
 2271SOL     OW18448   0.713   4.400  10.659 -0.0352 -0.1629 -0.0841
 2271SOL    HW118449   0.703   4.491  10.631 -2.5396 -0.4474 -0.0794
 2271SOL    HW218450   0.623   4.378  10.683 -0.2235  2.5554  1.6969
 2272SOL     OW18451   0.089   3.096   9.661 -0.0708  0.0547 -0.0034
 2272SOL    HW118452   0.160   3.139   9.708  0.5737 -1.7139  0.6347
 2272SOL    HW218453   0.048   3.171   9.617 -1.0151  0.9019  2.3241
 2273SOL     OW18454   1.149   1.445  14.750 -0.4194 -0.6005 -0.1613
 2273SOL    HW118455   1.089   1.509  14.790  0.2413  0.1463 -0.3699
 2273SOL    HW218456   1.099   1.368  14.777 -2.3988  0.4995 -0.6931
 2274SOL     OW18457   0.526   4.021   6.622 -0.6868 -0.6597  0.1550
 2274SOL    HW118458   0.541   4.033   6.716  0.0150 -1.2037  0.1166
 2274SOL    HW218459   0.431   4.024   6.625 -0.5494  0.6846  3.3392
 2275SOL     OW18460   0.198   3.566   9.669  0.0774 -0.8209 -0.2988
 2275SOL    HW118461   0.239   3.641   9.712 -1.7444  0.8336 -1.4516
 2275SOL    HW218462   0.261   3.544   9.600  1.5438  0.0837  0.7471
 2276SOL     OW18463   4.497   2.117   3.550  0.2559 -0.6564 -0.1301
 2276SOL    HW118464   4.577   2.094   3.504  0.9109 -2.6049  1.9617
 2276SOL    HW218465   4.431   2.054   3.520  0.2170  0.1086 -1.6543
 2277SOL     OW18466   3.892   1.886  14.514  0.5037  0.6354  0.3365
 2277SOL    HW118467   3.944   1.820  14.561  0.0203  0.6755  0.9322
 2277SOL    HW218468   3.801   1.861  14.529  0.3719 -0.9939 -3.1067
 2278SOL     OW18469   3.777   2.988   0.918  0.0627 -0.3691 -0.1866
 2278SOL    HW118470   3.774   3.001   0.823 -0.7563 -1.1107 -0.2648
 2278SOL    HW218471   3.804   2.896   0.925  1.3374 -0.0609 -1.0767
 2279SOL     OW18472   1.750   2.231  16.605 -0.2919  0.3348  0.0012
 2279SOL    HW118473   1.836   2.252  16.569 -0.5005  0.3027 -0.5252
 2279SOL    HW218474   1.774   2.178  16.681 -1.2781  2.0094  1.4948
 2280SOL     OW18475   1.177   1.176   5.094 -0.0375 -1.0401  0.4554
 2280SOL    HW118476   1.242   1.224   5.042  0.5086 -2.6634 -0.3478
 2280SOL    HW218477   1.166   1.229   5.173 -0.4938 -1.6798  0.8217
 2281SOL     OW18478   0.391   1.360   4.719 -0.2888 -0.0248 -0.9091
 2281SOL    HW118479   0.466   1.395   4.767 -1.0606 -0.8456  0.8683
 2281SOL    HW218480   0.430   1.346   4.633  1.0670  2.1861 -0.6522
 2282SOL     OW18481   1.692   4.194   8.532 -0.0829 -0.3527 -0.4280
 2282SOL    HW118482   1.734   4.262   8.584  0.2985 -1.3196  0.5262
 2282SOL    HW218483   1.607   4.234   8.512  1.3350  2.4104 -0.8636
 2283SOL     OW18484   4.205   3.848   8.593 -0.1394  0.1700 -0.6119
 2283SOL    HW118485   4.152   3.799   8.656 -0.9431 -0.4890 -1.8273
 2283SOL    HW218486   4.215   3.779   8.527 -2.2918  0.2065 -0.9597
 2284SOL     OW18487   3.125   4.714   1.362  0.1853  0.3350  0.0319
 2284SOL    HW118488   3.069   0.054   1.357  2.3155  1.7551 -1.1061
 2284SOL    HW218489   3.066   4.650   1.403  0.8598  0.2160  0.8109
 2285SOL     OW18490   2.963   0.228   4.195 -0.2206 -0.2360 -0.4110
 2285SOL    HW118491   2.894   0.294   4.189  1.8410  1.8092 -1.9464
 2285SOL    HW218492   2.950   0.173   4.117 -1.0580  0.0971 -0.4982
 2286SOL     OW18493   0.324   2.523   3.966  0.5696 -0.3427  0.2184
 2286SOL    HW118494   0.313   2.610   3.927 -1.1190 -1.6619 -2.2408
 2286SOL    HW218495   0.385   2.478   3.907 -0.6935  0.0060 -1.3621
 2287SOL     OW18496   1.897   0.313   6.448  0.2699 -0.4206 -0.2294
 2287SOL    HW118497   1.813   0.274   6.472 -0.4975  1.2605 -0.1894
 2287SOL    HW218498   1.896   0.401   6.486  1.0934  0.5657 -2.5011
 2288SOL     OW18499   0.655   1.975   3.828 -0.1494 -0.2522 -0.3126
 2288SOL    HW118500   0.748   1.999   3.826  0.4355 -2.4313  1.9971
 2288SOL    HW218501   0.636   1.922   3.905  1.1318  0.8116  0.7342
 2289SOL     OW18502   2.961   2.060   0.794 -0.1100  0.4871 -0.0830
 2289SOL    HW118503   2.892   2.014   0.844 -1.5004 -0.0503 -2.5056
 2289SOL    HW218504   3.017   2.101   0.860 -1.2953 -1.0996  1.9321
 2290SOL     OW18505   0.545   1.433   4.097  0.2037  0.8899  0.0173
 2290SOL    HW118506   0.514   1.344   4.078 -1.5009  1.6482 -0.7866
 2290SOL    HW218507   0.543   1.479   4.013 -0.0303 -1.8256 -1.4671
 2291SOL     OW18508   3.078   3.860   0.459 -0.0102 -0.6388 -0.1637
 2291SOL    HW118509   3.110   3.786   0.511 -1.3219 -0.6256  0.6621
 2291SOL    HW218510   3.156   3.916   0.465 -1.4411  1.3639 -0.1868
 2292SOL     OW18511   2.203   3.714   6.550  0.0286 -0.2011  0.6246
 2292SOL    HW118512   2.262   3.744   6.480 -0.9944 -0.0472 -0.1660
 2292SOL    HW218513   2.117   3.718   6.508 -0.2619 -3.8252  0.8588
 2293SOL     OW18514   3.804   0.903   5.776  0.0285 -0.3866 -0.5851
 2293SOL    HW118515   3.805   0.845   5.851 -1.7429 -0.3352 -0.5185
 2293SOL    HW218516   3.716   0.936   5.793  0.6536  0.9771 -0.0131
 2294SOL     OW18517   2.016   4.324   3.760 -0.0257  0.3025  0.1441
 2294SOL    HW118518   2.067   4.269   3.819  0.6736  2.9390  2.0133
 2294SOL    HW218519   1.978   4.261   3.699 -1.3984 -0.8149  2.1668
 2295SOL     OW18520   3.483   3.220  17.410  0.7247 -0.3844 -0.1162
 2295SOL    HW118521   3.449   3.168  17.338  1.3536 -0.5311 -0.3039
 2295SOL    HW218522   3.573   3.187  17.412  0.9334  0.1186 -1.0703
 2296SOL     OW18523   1.192   0.505   7.302  0.0834  0.2032 -0.2537
 2296SOL    HW118524   1.186   0.600   7.316  1.2303  0.1660  0.4645
 2296SOL    HW218525   1.278   0.498   7.261 -0.2296  0.2019 -0.9127
 2297SOL     OW18526   0.648   1.542  12.097  0.0750 -0.1740  0.3253
 2297SOL    HW118527   0.729   1.585  12.071  0.1209 -1.6057 -1.9643
 2297SOL    HW218528   0.614   1.499  12.019 -0.7217  1.7363 -0.3843
 2298SOL     OW18529   0.761   2.006  15.916  0.0426 -0.0164  0.0132
 2298SOL    HW118530   0.681   1.955  15.899 -0.2978  0.5657 -0.1257
 2298SOL    HW218531   0.736   2.091  15.952 -0.7965  0.6109 -2.0997
 2299SOL     OW18532   4.315   4.134  11.897 -0.2114  0.1057  0.2439
 2299SOL    HW118533   4.282   4.195  11.963  2.2958 -0.1894  1.7864
 2299SOL    HW218534   4.282   4.056  11.941 -1.4213  1.1944  1.2568
 2300SOL     OW18535   0.100   4.490   9.777 -0.2726 -0.2185  0.6068
 2300SOL    HW118536   0.163   4.461   9.843 -1.1132  0.1082  1.5563
 2300SOL    HW218537   0.019   4.500   9.827  0.3843  0.9090  1.4569
 2301SOL     OW18538   0.674   0.093   3.269 -0.2139 -0.6612  0.2328
 2301SOL    HW118539   0.710   0.046   3.345  0.2509 -1.5331 -0.5295
 2301SOL    HW218540   0.633   0.163   3.319  0.1071 -2.7179  3.4549
 2302SOL     OW18541   3.597   2.999   8.961  0.5047  0.0594 -0.2273
 2302SOL    HW118542   3.537   3.001   8.886 -1.0746  2.4850  1.1065
 2302SOL    HW218543   3.536   3.011   9.033 -0.7074 -3.2336 -0.6618
 2303SOL     OW18544   4.661   0.938   1.774  0.0649  0.1028 -0.0188
 2303SOL    HW118545   4.722   1.008   1.800  0.3573 -0.2442  0.2255
 2303SOL    HW218546   4.637   0.975   1.689 -0.2911 -3.1782 -1.3488
 2304SOL     OW18547   0.818   2.107   6.042 -0.0947 -0.4811 -0.1032
 2304SOL    HW118548   0.792   2.075   6.128 -2.7793  2.3060  0.1448
 2304SOL    HW218549   0.906   2.069   6.032  0.3286  0.0924  1.3452
 2305SOL     OW18550   3.602   3.204   2.091  0.5475  0.3936 -0.2909
 2305SOL    HW118551   3.573   3.184   2.002 -1.8600  0.6400  0.4283
 2305SOL    HW218552   3.528   3.197   2.152  0.7007  1.7775  0.0344
 2306SOL     OW18553   2.632   4.341   5.728  0.1914 -0.1826 -0.0408
 2306SOL    HW118554   2.650   4.252   5.696 -0.4657 -0.2524 -0.2040
 2306SOL    HW218555   2.601   4.372   5.644  1.9511  0.5191 -0.4325
 2307SOL     OW18556   3.475   0.893   9.138 -0.2211 -0.1447 -0.5583
 2307SOL    HW118557   3.408   0.836   9.100 -2.8477  1.2735  1.9320
 2307SOL    HW218558   3.550   0.861   9.088 -0.0026 -0.8473  0.2131
 2308SOL     OW18559   2.535   2.150   0.209 -0.4240 -0.2994  0.0398
 2308SOL    HW118560   2.504   2.230   0.167 -0.1933 -1.2322 -1.9604
 2308SOL    HW218561   2.604   2.191   0.260 -2.0621  0.8233  1.3378
 2309SOL     OW18562   2.597   1.687   8.455  0.6995  0.1132 -0.2479
 2309SOL    HW118563   2.603   1.755   8.522  0.3264 -0.6762  0.5759
 2309SOL    HW218564   2.533   1.625   8.490  2.2239 -0.4811  1.4900
 2310SOL     OW18565   0.272   2.083   7.009 -0.2109 -0.0227  0.3693
 2310SOL    HW118566   0.196   2.138   7.026 -0.5101  0.0642 -1.2134
 2310SOL    HW218567   0.335   2.155   7.014 -0.8962  0.5271  1.1640
 2311SOL     OW18568   0.689   2.125   1.342 -0.0723  0.4362 -0.4691
 2311SOL    HW118569   0.714   2.033   1.341 -0.5318  0.3064  0.1377
 2311SOL    HW218570   0.749   2.150   1.271  0.0725  1.9042  0.1720
 2312SOL     OW18571   0.146   1.844  10.224 -0.6655 -0.1148 -0.0544
 2312SOL    HW118572   0.056   1.874  10.235 -0.6209  0.0753 -0.1966
 2312SOL    HW218573   0.147   1.874  10.133  0.5231 -0.3826 -0.1345
 2313SOL     OW18574   3.019   0.905   7.288  0.2305  0.0182 -0.4741
 2313SOL    HW118575   3.081   0.892   7.360  0.1049 -2.3237 -0.7660
 2313SOL    HW218576   2.968   0.824   7.286  0.3210 -0.0189 -1.2382
 2314SOL     OW18577   4.285   4.500  17.669  0.3581 -0.3411 -0.1986
 2314SOL    HW118578   4.373   4.465  17.677  0.8160  0.8598  0.0888
 2314SOL    HW218579   4.303   4.592  17.648 -1.3855  0.5885  2.3403
 2315SOL     OW18580   0.420   1.770   2.084 -0.2096  0.2794  0.5533
 2315SOL    HW118581   0.445   1.678   2.091 -1.3877 -0.0650  0.2443
 2315SOL    HW218582   0.506   1.811   2.080 -0.6427  1.0657 -0.4607
 2316SOL     OW18583   1.285   3.400   7.664 -0.2052 -0.0110  0.2154
 2316SOL    HW118584   1.192   3.394   7.640  0.0093  0.4514 -0.7473
 2316SOL    HW218585   1.328   3.386   7.580  0.1184  0.9845  0.2168
 2317SOL     OW18586   0.074   0.768  17.289 -0.0361 -0.0251  0.8807
 2317SOL    HW118587   0.020   0.737  17.216 -1.4124  1.3235  1.3337
 2317SOL    HW218588   0.041   0.714  17.361 -1.1134 -1.8181 -0.9529
 2318SOL     OW18589   1.800   3.325   7.640  0.7270 -0.0489  0.3978
 2318SOL    HW118590   1.830   3.242   7.676 -0.7778  0.3362  2.5091
 2318SOL    HW218591   1.707   3.331   7.661  1.0135  3.6362  0.6674
 2319SOL     OW18592   0.324   0.702  15.820 -0.2467 -0.1187 -0.2485
 2319SOL    HW118593   0.381   0.697  15.897 -0.9987  2.2532  0.4767
 2319SOL    HW218594   0.305   0.609  15.813  0.0822 -0.0626 -1.8720
 2320SOL     OW18595   2.417   1.703   7.217 -0.0952  0.0589  0.0689
 2320SOL    HW118596   2.351   1.644   7.254 -0.7553  1.8119  1.6671
 2320SOL    HW218597   2.431   1.663   7.130 -0.0676 -0.9813  0.5468
 2321SOL     OW18598   3.056   0.624   6.769 -0.0667 -0.1642 -0.6212
 2321SOL    HW118599   3.127   0.560   6.777  0.0319 -0.3175 -2.8080
 2321SOL    HW218600   3.085   0.693   6.830  0.9057  0.3506 -1.6651
 2322SOL     OW18601   2.134   4.364   8.123  0.9525 -0.1852  0.1794
 2322SOL    HW118602   2.218   4.380   8.167  1.3267  1.8307 -1.2837
 2322SOL    HW218603   2.133   4.268   8.118  0.0799 -0.0512 -1.9718
 2323SOL     OW18604   1.053   2.656   9.882  0.2054 -0.2828 -0.0142
 2323SOL    HW118605   1.050   2.694   9.795  0.2318  2.0445  0.9858
 2323SOL    HW218606   0.990   2.715   9.924  0.0933 -1.4644  1.4755
 2324SOL     OW18607   4.719   4.599   5.203 -0.0493  0.7120  0.0735
 2324SOL    HW118608   4.708   4.511   5.168 -2.4084  0.7963  0.5959
 2324SOL    HW218609   4.642   4.584   5.258  1.0417  0.2089  1.4571
 2325SOL     OW18610   2.785   1.159   2.915 -0.4743  0.1308  0.1653
 2325SOL    HW118611   2.767   1.237   2.863  0.7460  0.2798 -0.0327
 2325SOL    HW218612   2.722   1.163   2.986 -1.4449  2.7447 -0.8463
 2326SOL     OW18613   2.663   4.465  15.890 -0.0897 -1.2177 -0.2854
 2326SOL    HW118614   2.609   4.488  15.815 -1.3372 -2.9962  0.0906
 2326SOL    HW218615   2.749   4.447  15.852 -1.0345 -1.2244 -2.3943
 2327SOL     OW18616   3.671   3.102   4.651 -0.0187  0.0007  0.1861
 2327SOL    HW118617   3.653   3.196   4.657 -0.3094 -0.0524  0.1625
 2327SOL    HW218618   3.618   3.068   4.723 -1.1658  1.6484  0.1310
 2328SOL     OW18619   0.008   3.007   1.578  0.1309  0.0399 -0.3307
 2328SOL    HW118620   0.007   2.918   1.541  2.0599  0.4080 -1.3122
 2328SOL    HW218621   0.050   2.993   1.663  1.3331  1.2859 -0.7184
 2329SOL     OW18622   4.737   2.898  13.749  0.4599  0.3096  0.0923
 2329SOL    HW118623   0.028   2.948  13.673  1.8818  3.6700  2.8632
 2329SOL    HW218624   4.707   2.965  13.811  1.6011 -0.5752  1.5941
 2330SOL     OW18625   1.292   2.283   4.766 -0.0229 -0.2465 -0.4404
 2330SOL    HW118626   1.276   2.264   4.673  0.4042  0.4137 -0.6477
 2330SOL    HW218627   1.363   2.347   4.770 -0.4718  0.1249  1.5687
 2331SOL     OW18628   0.520   1.002   4.828  0.4966 -0.0750 -0.0212
 2331SOL    HW118629   0.552   1.067   4.766  1.1957 -1.0683 -0.7096
 2331SOL    HW218630   0.503   0.930   4.767 -0.5715 -0.7599  1.0849
 2332SOL     OW18631   3.940   4.115   8.026 -0.2417 -0.1545  0.2599
 2332SOL    HW118632   3.926   4.036   8.078  0.0342  0.5292  1.3478
 2332SOL    HW218633   3.988   4.079   7.951  0.1713 -0.2387  0.5703
 2333SOL     OW18634   1.022   0.450   7.794  0.0355 -0.2570  0.2860
 2333SOL    HW118635   1.004   0.396   7.717  0.2624  0.1115 -0.0253
 2333SOL    HW218636   1.116   0.463   7.789 -0.0951  0.5438 -0.1255
 2334SOL     OW18637   0.619   0.840   6.900 -0.1747  0.0147 -0.5307
 2334SOL    HW118638   0.614   0.861   6.993  0.6059  1.1788 -0.7540
 2334SOL    HW218639   0.532   0.804   6.884 -0.5678  0.5288  0.4287
 2335SOL     OW18640   4.134   0.686   4.619 -0.1241 -0.4808  0.0319
 2335SOL    HW118641   4.061   0.700   4.679 -0.6279  2.0950 -1.1800
 2335SOL    HW218642   4.199   0.650   4.679  1.1818  0.9303 -0.5484
 2336SOL     OW18643   3.822   1.542   3.665 -1.2006 -0.4954  0.4989
 2336SOL    HW118644   3.887   1.586   3.720 -0.6901  0.1789 -0.6506
 2336SOL    HW218645   3.876   1.535   3.586 -0.9598 -1.3309  0.7452
 2337SOL     OW18646   0.351   3.176   5.017 -0.3757  0.4599  0.1107
 2337SOL    HW118647   0.377   3.095   5.060 -2.1324 -0.3627 -0.3815
 2337SOL    HW218648   0.298   3.132   4.950  0.8454 -0.2449 -0.3881
 2338SOL     OW18649   3.418   2.858   5.751  0.2789  0.9294  0.1208
 2338SOL    HW118650   3.347   2.849   5.687  1.1437 -2.0068 -0.4198
 2338SOL    HW218651   3.399   2.798   5.823 -1.2048  0.2033 -0.8826
 2339SOL     OW18652   0.628   4.068   2.234 -0.5159  0.2255 -0.0256
 2339SOL    HW118653   0.643   3.981   2.198  0.0919  0.5948 -0.6584
 2339SOL    HW218654   0.666   4.047   2.320 -1.7057  1.2088  0.7340
 2340SOL     OW18655   0.251   2.273   5.927  0.6701  0.3803  0.1224
 2340SOL    HW118656   0.303   2.354   5.927 -0.6590  1.2398 -1.2632
 2340SOL    HW218657   0.260   2.235   5.839 -2.0637  0.2677 -0.1190
 2341SOL     OW18658   4.140   3.734   0.589  0.2485 -0.3310 -0.0803
 2341SOL    HW118659   4.192   3.688   0.522  1.0322  1.0298 -0.4260
 2341SOL    HW218660   4.120   3.813   0.538  1.9561 -0.4086 -0.9036
 2342SOL     OW18661   1.483   1.330   7.919  0.3641 -0.3226 -0.3295
 2342SOL    HW118662   1.435   1.337   7.836 -2.3186  1.9880  1.4253
 2342SOL    HW218663   1.552   1.270   7.890  0.2079  0.2950 -1.9486
 2343SOL     OW18664   3.829   4.517  12.826 -0.3804 -0.8328 -0.2804
 2343SOL    HW118665   3.736   4.496  12.838 -0.6035  0.3373  0.0379
 2343SOL    HW218666   3.855   4.442  12.772  0.6937  0.0532 -0.9946
 2344SOL     OW18667   4.602   4.429  13.912  0.0273 -0.5329  0.0927
 2344SOL    HW118668   4.631   4.364  13.976 -4.1922 -2.8128 -0.3599
 2344SOL    HW218669   4.516   4.395  13.890 -2.0909  0.9232  6.0551
 2345SOL     OW18670   0.217   2.536   7.320 -0.1873 -0.9144  0.6687
 2345SOL    HW118671   0.222   2.527   7.415  0.0680 -0.6149  0.6859
 2345SOL    HW218672   0.132   2.499   7.298  0.1460 -0.6531 -1.0233
 2346SOL     OW18673   1.855   2.269   2.397  0.1400  0.1334 -0.7132
 2346SOL    HW118674   1.777   2.320   2.419 -0.3405 -0.5518 -0.8235
 2346SOL    HW218675   1.823   2.211   2.328  1.0613  1.0483 -1.8993
 2347SOL     OW18676   3.335   2.747  10.841  0.2889 -0.0169  0.0928
 2347SOL    HW118677   3.383   2.789  10.770  1.1388 -0.0385  0.6466
 2347SOL    HW218678   3.246   2.740  10.806  0.6605  2.1563 -1.3197
 2348SOL     OW18679   2.079   0.651   6.013  0.1740  0.2856 -0.1991
 2348SOL    HW118680   2.115   0.697   6.088  0.1532  1.5619 -0.9667
 2348SOL    HW218681   1.985   0.644   6.029  0.1820  0.0331 -0.2673
 2349SOL     OW18682   2.201   2.092   1.865 -0.7634  0.8002 -0.2379
 2349SOL    HW118683   2.255   2.167   1.888  0.7331 -0.2337 -0.3687
 2349SOL    HW218684   2.256   2.015   1.883  0.0577  1.8263  1.6704
 2350SOL     OW18685   3.128   1.407   3.947 -0.4971  0.0847  0.0104
 2350SOL    HW118686   3.222   1.397   3.929 -0.1168  3.2755  0.2751
 2350SOL    HW218687   3.105   1.449   3.864 -1.4283  0.4205  0.4492
 2351SOL     OW18688   1.953   1.347  15.036  0.3402  0.2470 -0.4370
 2351SOL    HW118689   1.931   1.307  14.951 -1.1785  0.1519 -0.0071
 2351SOL    HW218690   2.012   1.416  15.006 -1.1166  1.5759 -0.2566
 2352SOL     OW18691   0.975   4.516   3.010 -0.1501  0.1466 -0.5734
 2352SOL    HW118692   0.887   4.509   3.047 -0.0232 -2.0564 -0.6820
 2352SOL    HW218693   0.998   4.424   2.998  0.4074  0.3826 -1.2928
 2353SOL     OW18694   3.026   2.408   6.439  0.2706  0.2712  0.5287
 2353SOL    HW118695   3.121   2.422   6.435  0.0246  1.4992 -1.2729
 2353SOL    HW218696   2.998   2.495   6.468 -2.4283 -0.4715  0.0762
 2354SOL     OW18697   4.061   4.291   7.486 -0.9505  0.0441 -0.0288
 2354SOL    HW118698   4.032   4.355   7.552 -0.1450 -1.7422  2.0599
 2354SOL    HW218699   4.058   4.351   7.411  0.5623  0.8865  0.5855
 2355SOL     OW18700   0.099   1.181  10.814 -0.0320  0.2868  0.8092
 2355SOL    HW118701   0.106   1.188  10.909  1.5292  0.1251  0.7116
 2355SOL    HW218702   0.006   1.197  10.796 -0.1651 -3.2912 -1.6309
 2356SOL     OW18703   2.911   4.329  10.525  0.0176 -0.0686 -0.3436
 2356SOL    HW118704   2.955   4.268  10.466 -0.2788  0.6317 -1.2817
 2356SOL    HW218705   2.982   4.339  10.589  1.2610 -0.3213 -1.6830
 2357SOL     OW18706   1.194   1.010   4.122  0.5363 -0.1457 -0.4052
 2357SOL    HW118707   1.107   0.971   4.128 -0.1271  1.1891 -1.5821
 2357SOL    HW218708   1.169   1.076   4.058 -2.6080 -1.3414 -0.4287
 2358SOL     OW18709   2.591   3.793   0.968  0.0643  0.7545 -0.0558
 2358SOL    HW118710   2.648   3.863   0.998 -0.7550  1.8443 -1.0175
 2358SOL    HW218711   2.518   3.808   1.028 -0.2280 -1.8354  0.2439
 2359SOL     OW18712   4.720   1.613  11.402  0.3452 -0.5077 -0.4109
 2359SOL    HW118713   4.629   1.608  11.372 -1.2457  0.3101  4.2395
 2359SOL    HW218714   4.711   1.683  11.467  1.5161 -0.4101 -0.3607
 2360SOL     OW18715   0.467   2.023   9.020  0.4040 -0.1641 -0.2448
 2360SOL    HW118716   0.529   2.028   9.093 -1.4403 -1.3075  1.4057
 2360SOL    HW218717   0.419   2.103   9.038 -1.1529 -1.5394  1.7793
 2361SOL     OW18718   0.013   0.347  16.161  0.6152  0.1118  0.1466
 2361SOL    HW118719   4.704   0.417  16.207 -2.7134 -0.2387 -2.7035
 2361SOL    HW218720   4.729   0.269  16.212  0.9976  1.3385  2.1946
 2362SOL     OW18721   1.455   2.012   2.274  0.1644  0.6436  0.4962
 2362SOL    HW118722   1.473   1.923   2.244  0.6958  1.2205 -0.8669
 2362SOL    HW218723   1.408   1.991   2.355 -0.1427 -0.3303  0.0643
 2363SOL     OW18724   1.180   0.586   6.955  0.0507  0.1376 -0.1858
 2363SOL    HW118725   1.229   0.543   7.025 -0.7640 -0.4372  0.0251
 2363SOL    HW218726   1.102   0.609   7.005  1.2940 -2.5597  2.9653
 2364SOL     OW18727   3.028   0.127   4.993 -0.6975  0.2178  0.1641
 2364SOL    HW118728   2.999   0.064   4.927  0.7891  0.4163 -0.6876
 2364SOL    HW218729   2.947   0.151   5.037  0.0923  1.4527  0.9656
 2365SOL     OW18730   4.256   2.521   4.387  0.1932 -0.3053  0.4513
 2365SOL    HW118731   4.244   2.609   4.423 -0.7290 -1.3977  2.7903
 2365SOL    HW218732   4.290   2.471   4.461  1.1514 -0.5236 -0.1376
 2366SOL     OW18733   3.128   2.079   3.019  0.0016  0.2583 -0.0371
 2366SOL    HW118734   3.120   2.127   2.936 -0.7912 -0.2488 -0.2509
 2366SOL    HW218735   3.153   1.994   2.983 -0.9439 -0.0105 -0.0560
 2367SOL     OW18736   0.409   2.856   2.977 -0.7445  0.5245 -0.0245
 2367SOL    HW118737   0.407   2.765   3.007  0.2747  0.8105  0.9083
 2367SOL    HW218738   0.337   2.863   2.914 -1.6010  0.5977  0.9726
 2368SOL     OW18739   2.614   1.249   6.140  0.2590  0.2750 -0.0081
 2368SOL    HW118740   2.652   1.323   6.189  0.7749 -0.6544  1.0067
 2368SOL    HW218741   2.591   1.301   6.063 -2.0145 -0.6189  0.0698
 2369SOL     OW18742   0.619   0.425  15.002 -0.4523  0.2840 -0.4810
 2369SOL    HW118743   0.703   0.380  14.999  0.2878  1.5964  0.8791
 2369SOL    HW218744   0.633   0.485  14.929 -0.3728  1.5431  0.5765
 2370SOL     OW18745   0.763   3.516   7.247  0.3333 -0.2209 -0.0309
 2370SOL    HW118746   0.720   3.433   7.226  0.3894  0.1769 -1.6587
 2370SOL    HW218747   0.836   3.488   7.302  0.0276 -0.6904  0.1396
 2371SOL     OW18748   1.272   4.357   2.689  0.3544 -0.4427 -0.0168
 2371SOL    HW118749   1.322   4.416   2.746  0.4542  0.3414 -0.9070
 2371SOL    HW218750   1.276   4.398   2.603 -0.3982 -0.3613 -0.0132
 2372SOL     OW18751   2.232   0.465  14.772 -0.0931 -0.8267 -0.0774
 2372SOL    HW118752   2.309   0.509  14.810  0.1783 -1.1008 -0.3097
 2372SOL    HW218753   2.174   0.539  14.754  1.9133  1.4408  2.7335
 2373SOL     OW18754   1.912   0.282  12.598 -0.5330 -0.5411  0.5873
 2373SOL    HW118755   1.991   0.330  12.572 -1.0319 -0.7830 -1.3180
 2373SOL    HW218756   1.946   0.193  12.594 -1.9482 -1.0375 -0.0700
 2374SOL     OW18757   2.700   0.574  14.603  0.0297 -0.7899 -0.0120
 2374SOL    HW118758   2.724   0.493  14.647  1.9990 -0.0414  0.3035
 2374SOL    HW218759   2.753   0.647  14.634  0.6023 -1.0677 -0.3448
 2375SOL     OW18760   1.589   4.026  13.435  0.0182  0.6734  0.3983
 2375SOL    HW118761   1.640   3.962  13.385 -1.2537 -0.0325  0.0003
 2375SOL    HW218762   1.658   4.091  13.446  1.0317 -0.1454 -0.9993
 2376SOL     OW18763   0.941   3.616  12.833  0.8187 -0.2798  0.5019
 2376SOL    HW118764   1.007   3.661  12.886  1.0807 -1.6226  1.2964
 2376SOL    HW218765   0.900   3.547  12.884  1.2147 -1.7653 -1.2011
 2377SOL     OW18766   3.663   1.365   7.390 -0.3072  0.6505  0.0808
 2377SOL    HW118767   3.709   1.413   7.459 -0.9814  1.1237  0.2071
 2377SOL    HW218768   3.581   1.340   7.434  0.3177 -1.0547  0.2719
 2378SOL     OW18769   1.769   2.058   2.828  0.4375 -0.2657  0.4819
 2378SOL    HW118770   1.840   1.997   2.848  1.4186  1.3590  2.0212
 2378SOL    HW218771   1.739   2.027   2.743  0.8381 -2.4163  1.1375
 2379SOL     OW18772   3.731   3.426  10.642 -0.1886 -0.7535  0.2757
 2379SOL    HW118773   3.747   3.333  10.628  1.9222 -0.1024 -1.6266
 2379SOL    HW218774   3.803   3.476  10.604 -0.3269  0.5006  1.6420
 2380SOL     OW18775   0.987   3.276   3.806 -0.5784 -0.6026  0.1568
 2380SOL    HW118776   0.927   3.223   3.754  0.6316 -1.6247 -0.1749
 2380SOL    HW218777   1.007   3.359   3.762  0.3929 -0.7357  0.3597
 2381SOL     OW18778   2.432   3.402   1.751  0.0834  0.2220  0.3104
 2381SOL    HW118779   2.346   3.380   1.713  0.8051 -0.1849 -1.0783
 2381SOL    HW218780   2.390   3.410   1.837 -0.8417 -3.1625  0.1786
 2382SOL     OW18781   1.260   4.054   5.815  0.0167 -0.0786 -0.5062
 2382SOL    HW118782   1.319   4.104   5.872 -0.7846  0.4479 -0.1331
 2382SOL    HW218783   1.272   4.102   5.732  0.0701 -0.7655 -0.8939
 2383SOL     OW18784   0.894   1.815  15.144  0.2810 -0.1032  0.0270
 2383SOL    HW118785   0.910   1.837  15.236 -0.7042  1.6263 -0.2297
 2383SOL    HW218786   0.983   1.791  15.116 -0.1570  1.8639 -2.9845
 2384SOL     OW18787   0.097   4.234   8.215  0.1059 -0.3421  0.3464
 2384SOL    HW118788   0.094   4.165   8.281 -0.1777 -0.5504  0.1202
 2384SOL    HW218789   0.179   4.277   8.239  0.2428 -0.8504  0.7816
 2385SOL     OW18790   4.109   3.357   1.372 -0.6122  0.4436  0.0725
 2385SOL    HW118791   4.171   3.422   1.405 -2.2516  2.6316 -1.1640
 2385SOL    HW218792   4.106   3.377   1.278  0.6774  0.0459 -0.0620
 2386SOL     OW18793   3.690   1.587  17.074  0.7968 -0.1885  0.0094
 2386SOL    HW118794   3.687   1.621  16.985  0.9938  1.5047  0.6466
 2386SOL    HW218795   3.636   1.509  17.087  1.2607 -0.6634 -0.9696
 2387SOL     OW18796   4.431   2.028   3.968 -0.0539  0.2412 -0.1366
 2387SOL    HW118797   4.402   1.945   4.004 -1.0394  0.5464 -0.2459
 2387SOL    HW218798   4.375   2.027   3.890 -0.8676 -1.3487  0.4622
 2388SOL     OW18799   3.166   2.750   4.098  0.2895 -0.3395 -0.0430
 2388SOL    HW118800   3.260   2.735   4.106  0.1539 -0.7969  0.6957
 2388SOL    HW218801   3.149   2.774   4.189  0.4140 -0.2919 -0.0332
 2389SOL     OW18802   2.461   2.292   1.920  0.4012 -0.0139  0.1097
 2389SOL    HW118803   2.550   2.314   1.950  0.2623 -0.3812  0.7856
 2389SOL    HW218804   2.472   2.216   1.863 -0.3521  0.3296 -0.4936
 2390SOL     OW18805   4.141   4.653   8.816  0.0215  0.8152 -0.1519
 2390SOL    HW118806   4.048   4.675   8.821 -0.3269  0.0997 -3.4928
 2390SOL    HW218807   4.168   0.007   8.815  0.1438  0.8114  2.4939
 2391SOL     OW18808   3.181   2.208   2.781  0.1325  0.1845  0.1121
 2391SOL    HW118809   3.218   2.208   2.693 -0.0458 -0.4027  0.0370
 2391SOL    HW218810   3.246   2.257   2.831  1.7997 -0.2419 -1.6540
 2392SOL     OW18811   0.708   0.717   9.440  0.8945  0.4039  0.5862
 2392SOL    HW118812   0.623   0.755   9.416  0.5661  0.7054  2.1518
 2392SOL    HW218813   0.733   0.776   9.512 -0.6904  1.7175  0.0766
 2393SOL     OW18814   2.281   0.889  16.295  0.2224 -0.2482 -0.0122
 2393SOL    HW118815   2.370   0.890  16.261 -1.0873 -2.3277 -3.4531
 2393SOL    HW218816   2.297   0.865  16.387  0.3447 -4.2876 -1.1017
 2394SOL     OW18817   3.269   0.094   2.399 -0.4460  0.3743  0.4715
 2394SOL    HW118818   3.212   0.024   2.369  0.7583  0.2771 -1.5703
 2394SOL    HW218819   3.264   0.085   2.495 -0.1682 -1.8520  0.2658
 2395SOL     OW18820   4.187   2.569   9.131  0.4314  0.2719 -0.8516
 2395SOL    HW118821   4.166   2.650   9.178 -2.3218 -1.7085  1.3173
 2395SOL    HW218822   4.119   2.558   9.065 -0.2055 -2.2915  0.2471
 2396SOL     OW18823   1.687   3.719   7.492 -0.5470 -0.3724 -0.0016
 2396SOL    HW118824   1.594   3.700   7.483 -0.9982  0.6752  2.5973
 2396SOL    HW218825   1.703   3.717   7.586 -2.5531  3.3194  0.4240
 2397SOL     OW18826   2.856   2.604  14.763  0.5398  0.1475  0.4398
 2397SOL    HW118827   2.791   2.540  14.734 -0.5645  2.4962 -2.3191
 2397SOL    HW218828   2.843   2.605  14.857  0.0688  1.4786  0.3633
 2398SOL     OW18829   0.171   1.328   9.024  0.4629  0.0424 -0.1271
 2398SOL    HW118830   0.255   1.359   8.989  1.5190 -1.0599  1.4333
 2398SOL    HW218831   0.171   1.352   9.117 -0.1124 -0.0935 -0.0952
 2399SOL     OW18832   1.468   2.167   6.250  0.1931 -0.0333  0.3534
 2399SOL    HW118833   1.538   2.125   6.200 -0.6255 -1.0453  0.0563
 2399SOL    HW218834   1.516   2.243   6.283  1.2688  0.4260 -2.2561
 2400SOL     OW18835   1.501   1.295   4.311 -0.0868  0.6410 -0.6958
 2400SOL    HW118836   1.454   1.357   4.254 -0.7276  0.8444  0.0592
 2400SOL    HW218837   1.434   1.232   4.338 -0.0899  0.0562 -2.0483
 2401SOL     OW18838   0.684   2.668   3.991  0.1692  0.3981 -0.1449
 2401SOL    HW118839   0.625   2.677   3.917  1.0857 -0.1096 -0.9384
 2401SOL    HW218840   0.715   2.578   3.980 -0.5255  0.3354 -1.5011
 2402SOL     OW18841   3.203   2.514   7.974 -0.0184 -0.0448  0.6612
 2402SOL    HW118842   3.276   2.535   8.033 -0.0007 -2.4571  1.4957
 2402SOL    HW218843   3.221   2.579   7.906 -0.7231  0.3299  0.8288
 2403SOL     OW18844   2.106   3.311   5.235 -0.4461  0.3752 -0.7942
 2403SOL    HW118845   2.063   3.240   5.188 -1.4426  0.3695  0.1339
 2403SOL    HW218846   2.198   3.303   5.207 -0.6314 -0.1185 -1.2556
 2404SOL     OW18847   2.505   0.741  14.479  0.1490  0.4595 -0.1916
 2404SOL    HW118848   2.563   0.681  14.526 -1.4125 -0.9328 -0.0136
 2404SOL    HW218849   2.555   0.775  14.405 -0.5003  2.7260  0.4123
 2405SOL     OW18850   4.402   4.035   4.249 -0.5276 -0.1128  0.3450
 2405SOL    HW118851   4.448   3.966   4.298 -0.4889 -1.5587 -1.7234
 2405SOL    HW218852   4.405   4.111   4.307  0.7871 -0.7149  1.0661
 2406SOL     OW18853   0.501   0.324   2.790 -0.4977  0.1948 -0.1795
 2406SOL    HW118854   0.508   0.231   2.766 -2.4719  0.5053 -2.0108
 2406SOL    HW218855   0.582   0.339   2.839  0.4609  0.7458 -1.9497
 2407SOL     OW18856   3.162   0.447  12.281 -0.3583 -0.8527  0.4682
 2407SOL    HW118857   3.196   0.390  12.211  1.9259  0.3042  0.6399
 2407SOL    HW218858   3.103   0.498  12.225  0.8796  1.4243  1.2522
 2408SOL     OW18859   2.962   2.818   6.175 -0.5092  0.1382 -0.1474
 2408SOL    HW118860   3.008   2.857   6.249 -0.2472 -1.6202  0.6226
 2408SOL    HW218861   2.991   2.857   6.092  1.1225  2.5359  1.5587
 2409SOL     OW18862   2.243   2.136  11.164 -0.3261 -0.2987 -0.2920
 2409SOL    HW118863   2.167   2.172  11.210  1.8351  0.9723  2.2840
 2409SOL    HW218864   2.231   2.042  11.174 -0.4833 -0.0117  2.0180
 2410SOL     OW18865   4.616   0.465  16.522 -0.1567 -0.1935 -0.2906
 2410SOL    HW118866   4.706   0.438  16.504 -0.1685  0.0230 -0.6836
 2410SOL    HW218867   4.606   0.464  16.617  2.1841 -1.4206 -0.0492
 2411SOL     OW18868   3.535   0.623   0.115  0.3044  0.5675  0.1977
 2411SOL    HW118869   3.565   0.537   0.142  1.0118  0.4676 -0.9141
 2411SOL    HW218870   3.442   0.615   0.138  0.9333 -1.7644  1.9819
 2412SOL     OW18871   2.214   4.310   4.606  0.0204  0.2591  0.0640
 2412SOL    HW118872   2.162   4.312   4.525 -1.2663 -2.5755  0.8188
 2412SOL    HW218873   2.234   4.220   4.630 -0.7253  0.0256 -0.1930
 2413SOL     OW18874   3.531   4.289  13.403 -0.4572  0.0768  0.4231
 2413SOL    HW118875   3.447   4.312  13.362 -0.3558  0.7551  0.5905
 2413SOL    HW218876   3.594   4.310  13.335  1.5174 -3.0139  1.3220
 2414SOL     OW18877   4.512   0.256   0.581  0.4629 -0.4163  0.0477
 2414SOL    HW118878   4.607   0.266   0.591  0.2176 -0.7240  2.5030
 2414SOL    HW218879   4.489   0.343   0.548  2.4103  0.5472  1.1790
 2415SOL     OW18880   0.924   3.080   8.209  0.5868  0.6356  0.5548
 2415SOL    HW118881   0.956   3.005   8.260  0.6536  0.2573 -0.0425
 2415SOL    HW218882   0.861   3.123   8.267  0.0088  0.5529 -0.0164
 2416SOL     OW18883   1.459   0.122   3.415  0.0320 -0.1942  0.0427
 2416SOL    HW118884   1.416   0.193   3.463  0.8593  1.2841 -1.4301
 2416SOL    HW218885   1.380   0.076   3.383 -1.3438  2.3316 -0.1704
 2417SOL     OW18886   0.968   0.909   2.631 -0.2723 -0.1113  0.3612
 2417SOL    HW118887   1.013   0.859   2.699 -0.5468 -0.3105  0.3967
 2417SOL    HW218888   0.954   0.848   2.558 -0.4928 -0.2954  0.5588
 2418SOL     OW18889   2.877   1.841   4.275 -0.3538 -0.9928 -0.4364
 2418SOL    HW118890   2.935   1.804   4.341 -2.1188  0.3262  1.8325
 2418SOL    HW218891   2.796   1.852   4.325  1.2176  0.3177  1.8287
 2419SOL     OW18892   4.048   0.466   4.777  0.2366  0.2501 -0.7782
 2419SOL    HW118893   4.054   0.487   4.870 -4.9114 -1.3070 -0.1195
 2419SOL    HW218894   3.958   0.493   4.759 -0.5758 -1.2741  1.0185
 2420SOL     OW18895   3.678   2.420   7.057 -0.5476  0.2198 -0.2169
 2420SOL    HW118896   3.609   2.485   7.060 -0.6753  0.0248  0.8684
 2420SOL    HW218897   3.663   2.377   7.141 -0.0314 -0.4254 -0.4463
 2421SOL     OW18898   3.019   1.417   6.552 -0.2946 -0.0355  0.3778
 2421SOL    HW118899   3.039   1.506   6.582  1.7550 -0.4566  0.3004
 2421SOL    HW218900   3.096   1.370   6.584  0.6546  0.9023 -0.5128
 2422SOL     OW18901   3.132   3.089   5.128 -0.3219  0.1984  0.0887
 2422SOL    HW118902   3.081   3.116   5.051 -4.1569  0.2006  2.6279
 2422SOL    HW218903   3.171   3.172   5.154  1.1149 -0.4910  0.1280
 2423SOL     OW18904   1.839   1.947   3.463 -0.1367  0.4363  0.2232
 2423SOL    HW118905   1.791   1.869   3.433 -0.4538  1.2460 -1.3743
 2423SOL    HW218906   1.788   1.980   3.537  0.4287  2.3488 -0.2604
 2424SOL     OW18907   1.581   2.144   6.642 -0.1211  0.2771  0.3671
 2424SOL    HW118908   1.529   2.078   6.596 -1.8476  1.6666  0.3024
 2424SOL    HW218909   1.531   2.225   6.649  2.0278  1.6747 -0.4391
 2425SOL     OW18910   2.033   3.682   3.086 -0.3058  0.2524 -0.0258
 2425SOL    HW118911   2.122   3.705   3.112  0.1896 -3.7146  1.7683
 2425SOL    HW218912   2.037   3.596   3.127  0.9407  0.0906 -0.4580
 2426SOL     OW18913   2.932   1.727  17.347 -0.4212 -0.0251 -0.1265
 2426SOL    HW118914   3.013   1.679  17.359 -0.0149  0.7398  0.2003
 2426SOL    HW218915   2.974   1.813  17.340  1.2795 -0.7008  1.9552
 2427SOL     OW18916   3.696   0.760   8.946 -0.3584 -0.0463  0.3350
 2427SOL    HW118917   3.662   0.696   8.883 -1.0609  1.1376 -0.4930
 2427SOL    HW218918   3.775   0.709   8.962  0.2275  1.0181  0.7790
 2428SOL     OW18919   2.825   2.048   3.984 -0.8804  0.0735  0.9228
 2428SOL    HW118920   2.729   2.043   3.975 -1.0469  2.7429  1.3335
 2428SOL    HW218921   2.851   1.965   4.024 -0.2386  0.2517  0.8745
 2429SOL     OW18922   1.652   4.186  10.636  0.0032 -0.0931  0.1040
 2429SOL    HW118923   1.721   4.228  10.584 -0.5339  0.7481  0.0707
 2429SOL    HW218924   1.604   4.261  10.671 -0.7224 -0.2481 -0.5587
 2430SOL     OW18925   3.442   4.724  12.804 -0.4403 -0.3752 -0.2715
 2430SOL    HW118926   3.474   0.013  12.718 -1.0717 -1.8558 -0.9525
 2430SOL    HW218927   3.444   0.071  12.850  2.3251 -2.4660  3.4152
 2431SOL     OW18928   0.839   3.689   7.045 -0.1649  0.9131  0.5283
 2431SOL    HW118929   0.910   3.739   7.087  2.5982 -0.2316 -2.7787
 2431SOL    HW218930   0.845   3.612   7.101 -0.5651  0.8656  0.5042
 2432SOL     OW18931   2.067   1.666  10.934  0.0436  0.2781 -0.1995
 2432SOL    HW118932   1.997   1.638  10.993 -1.0620  2.5471 -0.4249
 2432SOL    HW218933   2.125   1.590  10.931 -1.8187 -1.2207  3.1096
 2433SOL     OW18934   3.828   0.817   7.407 -0.9641  0.0448 -0.1951
 2433SOL    HW118935   3.736   0.844   7.407 -0.2050  2.5872  0.2429
 2433SOL    HW218936   3.864   0.860   7.485 -0.3686 -0.0194 -0.4308
 2434SOL     OW18937   4.334   0.183   6.874  0.5088 -0.0413 -0.3742
 2434SOL    HW118938   4.428   0.204   6.876  0.5752 -0.2026 -2.2167
 2434SOL    HW218939   4.309   0.204   6.785  0.9770 -0.7646 -0.6836
 2435SOL     OW18940   4.491   3.782   3.970 -0.3171 -0.0137 -0.5246
 2435SOL    HW118941   4.517   3.873   3.958 -1.1455  0.2589 -0.2777
 2435SOL    HW218942   4.456   3.771   3.881 -2.3545  0.9141  0.1498
 2436SOL     OW18943   3.907   3.002   4.637 -0.0686 -0.2311  0.8525
 2436SOL    HW118944   3.905   2.960   4.551 -1.9160  0.5178  0.5312
 2436SOL    HW218945   3.819   3.039   4.637 -0.5289 -1.3036 -1.0486
 2437SOL     OW18946   1.552   1.124   2.784  0.0215 -0.2868 -0.0784
 2437SOL    HW118947   1.503   1.065   2.727 -1.0449  1.3039 -0.8265
 2437SOL    HW218948   1.641   1.102   2.757 -0.0071 -1.2394  0.5949
 2438SOL     OW18949   0.979   0.658   7.488  0.8519 -0.2659 -0.1183
 2438SOL    HW118950   1.039   0.597   7.531 -0.4968 -2.3605 -1.2439
 2438SOL    HW218951   1.001   0.746   7.520 -1.4650  0.9932 -1.9469
 2439SOL     OW18952   1.909   3.622  13.941  0.5996  0.2156  0.8235
 2439SOL    HW118953   1.855   3.547  13.915  1.5325 -0.9677  2.3205
 2439SOL    HW218954   1.981   3.592  13.996  0.5820 -0.9873  0.1936
 2440SOL     OW18955   4.156   4.517   6.360  0.5899  0.0914  0.4428
 2440SOL    HW118956   4.078   4.546   6.408  0.7086  0.5447  0.3580
 2440SOL    HW218957   4.203   4.596   6.334 -0.7866  0.3891 -1.1217
 2441SOL     OW18958   1.336   3.734   6.862  0.0606  0.2634  0.2727
 2441SOL    HW118959   1.268   3.679   6.823  1.3501  0.1700 -1.8216
 2441SOL    HW218960   1.404   3.669   6.878 -0.0471  0.4291  1.4235
 2442SOL     OW18961   2.437   0.581   2.968 -0.1723  0.1633  0.0016
 2442SOL    HW118962   2.464   0.489   2.972 -0.2284 -0.0155 -3.4772
 2442SOL    HW218963   2.517   0.625   2.999  0.3298 -0.0227 -1.0205
 2443SOL     OW18964   2.687   2.056   6.196  0.8835  0.0595 -0.1076
 2443SOL    HW118965   2.697   2.043   6.102 -1.7503  2.4996 -0.7420
 2443SOL    HW218966   2.749   1.998   6.239  0.3104 -1.2491 -1.0706
 2444SOL     OW18967   2.470   2.251  14.218 -0.3442  0.6861 -0.2126
 2444SOL    HW118968   2.389   2.273  14.171 -0.3377  0.0338 -0.5182
 2444SOL    HW218969   2.534   2.259  14.147  1.9181  2.4638  1.9922
 2445SOL     OW18970   2.336   3.903  15.380 -0.0217  0.2523 -0.0174
 2445SOL    HW118971   2.332   3.835  15.313  1.0484 -2.3918  2.5761
 2445SOL    HW218972   2.423   3.888  15.417  0.0504 -0.1719 -0.3580
 2446SOL     OW18973   3.069   2.833   5.128 -0.4964 -0.3093 -0.1907
 2446SOL    HW118974   3.159   2.802   5.126 -0.3429  0.0907  0.7489
 2446SOL    HW218975   3.092   2.925   5.125  1.4798 -0.8389 -0.7886
 2447SOL     OW18976   4.097   2.521   0.524  0.4870  0.0410 -0.2528
 2447SOL    HW118977   4.184   2.482   0.535  1.1121  1.8041  1.0086
 2447SOL    HW218978   4.049   2.463   0.464 -0.5636  1.9057 -1.1975
 2448SOL     OW18979   0.217   3.986   7.004 -0.3151 -0.1848 -0.6139
 2448SOL    HW118980   0.273   3.931   6.948  2.5238  1.1655  0.9429
 2448SOL    HW218981   0.132   3.947   6.985 -0.9101  0.4299  0.8184
 2449SOL     OW18982   1.401   4.376   7.145 -0.7181  0.1741 -0.0680
 2449SOL    HW118983   1.370   4.463   7.170  0.1331  0.5303 -0.2605
 2449SOL    HW218984   1.326   4.326   7.114  0.9858 -1.7169 -1.1372
 2450SOL     OW18985   0.679   4.645  15.387 -0.0240  0.1750  0.2758
 2450SOL    HW118986   0.610   4.617  15.326  0.4454  1.3052 -0.7843
 2450SOL    HW218987   0.732   4.567  15.398 -0.5870 -0.3605 -0.7522
 2451SOL     OW18988   0.756   4.673   5.642  0.0414 -0.1155 -0.1630
 2451SOL    HW118989   0.704   0.009   5.610  1.0620  0.2582 -0.9240
 2451SOL    HW218990   0.704   4.601   5.605 -2.9680  2.7887 -1.5565
 2452SOL     OW18991   0.132   3.670   7.378  0.2977  0.0698  0.2390
 2452SOL    HW118992   0.140   3.753   7.330 -1.9324 -0.5620 -1.1977
 2452SOL    HW218993   0.060   3.631   7.329 -0.9301 -0.4131  2.4870
 2453SOL     OW18994   2.402   1.164   3.289  0.1680  0.3268 -0.3244
 2453SOL    HW118995   2.383   1.160   3.383 -0.5369 -1.6799 -0.5436
 2453SOL    HW218996   2.318   1.145   3.247  0.3505 -1.1333 -0.0163
 2454SOL     OW18997   3.526   2.527   3.147  0.0757 -0.0950  0.5390
 2454SOL    HW118998   3.539   2.535   3.052 -2.3891  1.3767  0.3300
 2454SOL    HW218999   3.512   2.433   3.150  0.9769 -0.2148  0.9538
 2455SOL     OW19000   4.180   1.286  14.633 -0.1720  0.4156  0.0857
 2455SOL    HW119001   4.139   1.205  14.663 -2.1320  1.1460 -0.5932
 2455SOL    HW219002   4.108   1.310  14.575 -1.3559 -0.3258  1.2561
 2456SOL     OW19003   3.350   1.111   8.244  0.5756 -0.7520 -0.4910
 2456SOL    HW119004   3.308   1.138   8.163  0.7993  0.8812 -0.0538
 2456SOL    HW219005   3.428   1.062   8.217  0.2552 -1.1705 -0.6495
 2457SOL     OW19006   4.006   2.410  13.494  0.5542  0.1137  0.3284
 2457SOL    HW119007   4.088   2.372  13.461 -0.3780  1.1657 -3.2263
 2457SOL    HW219008   3.992   2.361  13.574 -0.4103  0.5279  0.4103
 2458SOL     OW19009   1.964   4.671   8.702 -0.1367  0.2531 -0.0603
 2458SOL    HW119010   2.019   4.615   8.756  0.9435  0.3186 -1.0814
 2458SOL    HW219011   1.906   4.716   8.764 -0.3540  0.3035 -0.2975
 2459SOL     OW19012   4.278   1.945  12.735 -0.1343 -0.1979 -0.3345
 2459SOL    HW119013   4.264   1.980  12.823  3.6059  1.5169 -0.4097
 2459SOL    HW219014   4.184   1.933  12.725 -0.6342  0.8707  2.9112
 2460SOL     OW19015   0.488   0.345   3.152  0.5698 -0.1501  0.1031
 2460SOL    HW119016   0.553   0.390   3.098  0.8729  0.4829  1.0083
 2460SOL    HW219017   0.508   0.365   3.243 -0.1012  0.3349  0.1404
 2461SOL     OW19018   2.035   0.720   4.125 -0.3850  0.0104 -0.1648
 2461SOL    HW119019   2.048   0.732   4.031  2.0130 -0.5561  0.1018
 2461SOL    HW219020   1.953   0.671   4.131 -0.7876  0.8496  1.1873
 2462SOL     OW19021   2.330   2.207   4.000  0.3273  0.6335 -0.5262
 2462SOL    HW119022   2.297   2.236   4.085  0.5162  0.7950 -0.5083
 2462SOL    HW219023   2.272   2.131   3.989  0.7916 -0.1366  2.2852
 2463SOL     OW19024   0.565   2.932   4.403 -0.1101 -0.2607 -0.4392
 2463SOL    HW119025   0.636   2.979   4.447 -1.9839  0.7425  1.5599
 2463SOL    HW219026   0.604   2.910   4.319  0.8853  2.8045 -0.7997
 2464SOL     OW19027   1.423   3.977   7.523 -0.1183 -0.3462 -0.3235
 2464SOL    HW119028   1.471   4.000   7.602 -0.3980  1.3694 -0.6692
 2464SOL    HW219029   1.430   3.882   7.513 -1.2480 -0.5672  0.9410
 2465SOL     OW19030   1.172   1.684   5.179 -0.5392  0.0457  0.4179
 2465SOL    HW119031   1.214   1.612   5.132 -0.0289 -0.0788  1.0510
 2465SOL    HW219032   1.159   1.743   5.105  1.8526 -1.4131 -1.1742
 2466SOL     OW19033   3.952   2.632   6.232  0.2017 -0.1219 -0.6901
 2466SOL    HW119034   4.006   2.605   6.307  0.3978 -0.4929 -0.9676
 2466SOL    HW219035   3.989   2.575   6.166 -0.2977  0.9764 -1.9222
 2467SOL     OW19036   0.393   3.208  11.982  0.2046  0.1030 -0.0359
 2467SOL    HW119037   0.317   3.151  11.977  1.2489 -1.2440 -0.5742
 2467SOL    HW219038   0.390   3.248  12.070 -0.4455  0.3301 -0.1602
 2468SOL     OW19039   3.374   0.994   4.930 -0.2825 -0.7381 -0.2789
 2468SOL    HW119040   3.343   1.063   4.872  1.8866  1.4987  1.2247
 2468SOL    HW219041   3.467   1.007   4.914  0.1146 -0.6554  2.0609
 2469SOL     OW19042   2.126   0.911  11.144 -0.1415 -0.3402  0.2991
 2469SOL    HW119043   2.169   0.854  11.208  0.7676 -0.1484 -0.1408
 2469SOL    HW219044   2.096   0.849  11.077  0.9805 -0.0674 -0.4674
 2470SOL     OW19045   4.257   3.816   4.111 -0.2038 -0.2086 -0.7383
 2470SOL    HW119046   4.268   3.894   4.164 -0.8467  0.3902 -1.4832
 2470SOL    HW219047   4.342   3.809   4.067  0.4439  1.5472  0.2520
 2471SOL     OW19048   0.232   2.733   3.793  0.5013  0.0584  0.1656
 2471SOL    HW119049   0.136   2.730   3.795  0.3827  1.4814 -2.6458
 2471SOL    HW219050   0.253   2.656   3.740  0.2898 -0.1616  0.3988
 2472SOL     OW19051   3.594   2.149   6.563  0.3072 -1.3973 -0.1576
 2472SOL    HW119052   3.577   2.229   6.513 -2.2629 -1.8776 -0.0332
 2472SOL    HW219053   3.614   2.177   6.652  0.4098 -1.1749 -0.2496
 2473SOL     OW19054   0.639   2.965  15.468  0.4843  0.0794  0.4169
 2473SOL    HW119055   0.554   2.980  15.509 -0.7165  0.4088 -2.1635
 2473SOL    HW219056   0.673   2.890  15.515 -3.0069  0.0989  2.9273
 2474SOL     OW19057   2.201   3.703   3.823  0.6463 -0.3925  0.2469
 2474SOL    HW119058   2.179   3.684   3.914  0.7203  0.6799  0.4879
 2474SOL    HW219059   2.126   3.672   3.773  1.2195  1.3713 -1.6920
 2475SOL     OW19060   1.574   1.822  12.125  0.4271  0.1757 -0.5519
 2475SOL    HW119061   1.515   1.815  12.051  1.0682 -1.0117 -0.9475
 2475SOL    HW219062   1.521   1.886  12.173  1.0169 -0.5486  1.0779
 2476SOL     OW19063   1.891   2.006  10.074  0.5632 -0.2063 -0.4579
 2476SOL    HW119064   1.932   1.933  10.028  2.6783 -0.4481  1.8212
 2476SOL    HW219065   1.805   2.023  10.034  0.4494  1.3105  0.4051
 2477SOL     OW19066   0.279   0.240   6.941  0.1630 -0.1803 -0.4334
 2477SOL    HW119067   0.341   0.201   7.002  2.4039  1.9241 -1.3537
 2477SOL    HW219068   0.198   0.195   6.966 -0.2196 -1.1073 -3.3993
 2478SOL     OW19069   3.682   2.441   2.557  0.2635  0.3440 -0.3747
 2478SOL    HW119070   3.706   2.507   2.492 -0.5042 -0.5584 -1.5785
 2478SOL    HW219071   3.695   2.359   2.510  0.6678  0.0148  0.2969
 2479SOL     OW19072   0.444   3.930   4.595  0.0860  0.3371  0.5855
 2479SOL    HW119073   0.362   3.939   4.546  0.5117  0.1756 -0.1638
 2479SOL    HW219074   0.416   3.931   4.686 -0.9239 -1.9002  0.3094
 2480SOL     OW19075   3.178   2.612   2.972  0.4218  0.2315  0.7924
 2480SOL    HW119076   3.236   2.680   3.006 -0.4021 -0.3326  3.3193
 2480SOL    HW219077   3.180   2.550   3.044 -0.0930 -0.5335  0.1459
 2481SOL     OW19078   2.788   4.290  17.190  0.3359 -0.1562  0.0184
 2481SOL    HW119079   2.852   4.229  17.226  0.5218  0.2960  0.4423
 2481SOL    HW219080   2.841   4.337  17.126 -1.6034 -0.0233 -1.5013
 2482SOL     OW19081   3.145   3.420   4.191  0.3552  0.0541  0.2522
 2482SOL    HW119082   3.154   3.505   4.148 -0.5575 -0.1419 -0.3113
 2482SOL    HW219083   3.223   3.377   4.157 -0.0387 -0.3480 -0.1476
 2483SOL     OW19084   3.603   4.174  16.517  0.1837 -0.0578  0.0135
 2483SOL    HW119085   3.634   4.084  16.508  0.9384  0.3170 -1.1324
 2483SOL    HW219086   3.612   4.194  16.610  1.4257  1.4772 -0.4309
 2484SOL     OW19087   1.041   1.467   4.900 -0.1096  0.2444 -0.3370
 2484SOL    HW119088   0.985   1.472   4.977 -0.6401 -0.1653 -0.6928
 2484SOL    HW219089   1.003   1.390   4.857 -0.2024  0.6668 -1.0064
 2485SOL     OW19090   1.753   3.977   6.503 -0.3582  0.7537  0.3265
 2485SOL    HW119091   1.747   4.046   6.569  0.3722  1.4099 -0.2957
 2485SOL    HW219092   1.676   3.926   6.527 -0.0620 -0.0286 -0.4179
 2486SOL     OW19093   0.595   0.883   3.139 -0.1440 -0.3977 -0.3328
 2486SOL    HW119094   0.655   0.910   3.070 -0.0762 -0.0727 -0.1461
 2486SOL    HW219095   0.514   0.928   3.118 -0.3411 -2.3869 -3.7505
 2487SOL     OW19096   0.965   1.958   7.368 -0.2025  0.2001 -0.4807
 2487SOL    HW119097   0.963   1.914   7.283 -0.2405  0.0945 -0.4241
 2487SOL    HW219098   0.957   1.887   7.431  0.8904 -1.0755 -1.7691
 2488SOL     OW19099   1.541   1.166   4.846 -0.2748 -0.8940  0.6324
 2488SOL    HW119100   1.497   1.198   4.767  0.9125  0.5886  0.5825
 2488SOL    HW219101   1.628   1.204   4.845  0.8640 -3.5336  0.7569
 2489SOL     OW19102   3.394   2.542   6.844  0.2180 -0.1102 -0.0801
 2489SOL    HW119103   3.471   2.587   6.881 -1.0273  2.3421 -0.4415
 2489SOL    HW219104   3.313   2.572   6.884 -0.6614  0.2520 -2.1178
 2490SOL     OW19105   4.136   0.090   7.660 -0.1606  0.1683  0.2735
 2490SOL    HW119106   4.060   0.119   7.610 -0.6056 -0.0347  0.8285
 2490SOL    HW219107   4.193   0.167   7.657  0.4260 -0.2285  1.1847
 2491SOL     OW19108   0.985   0.861  16.834 -0.1320  0.7607  0.0206
 2491SOL    HW119109   1.019   0.889  16.920  0.8719 -0.2233 -0.0616
 2491SOL    HW219110   0.890   0.857  16.847  0.1043 -0.5388  1.3459
 2492SOL     OW19111   2.563   1.091   7.661  0.0931 -0.3960 -0.4707
 2492SOL    HW119112   2.474   1.085   7.697 -1.0520 -0.1656 -3.3029
 2492SOL    HW219113   2.589   1.169   7.710 -0.7767 -0.6071  0.3423
 2493SOL     OW19114   2.813   3.503   3.470 -0.0310 -0.0552 -0.1095
 2493SOL    HW119115   2.885   3.443   3.451  0.9688  1.5406 -1.4217
 2493SOL    HW219116   2.775   3.512   3.383  1.0311 -2.8978 -0.8453
 2494SOL     OW19117   1.115   2.281   6.523 -0.0149  0.1053 -0.3638
 2494SOL    HW119118   1.125   2.186   6.528 -0.9215  0.0189 -0.1760
 2494SOL    HW219119   1.021   2.274   6.509 -0.0820 -0.7880  0.5399
 2495SOL     OW19120   4.691   3.530   7.562  0.0630  0.7851  0.7851
 2495SOL    HW119121   0.007   3.453   7.544 -0.0735  1.1136 -1.0301
 2495SOL    HW219122   0.003   3.605   7.529  2.8258 -1.3027  0.2201
 2496SOL     OW19123   3.881   0.558   9.019 -0.0457 -0.2745  0.2877
 2496SOL    HW119124   3.808   0.542   9.078 -0.4908  0.0992 -0.1638
 2496SOL    HW219125   3.893   0.468   8.989 -1.4494  0.5245 -2.7161
 2497SOL     OW19126   1.712   2.957   1.261  0.7214  0.2174  0.0911
 2497SOL    HW119127   1.624   2.996   1.264  0.3806 -0.5551 -0.0694
 2497SOL    HW219128   1.711   2.883   1.322  1.4580 -0.2790 -0.5128
 2498SOL     OW19129   2.087   3.398   6.414  0.2694  0.2708  0.7998
 2498SOL    HW119130   2.069   3.374   6.323 -0.6605 -3.1183  1.8726
 2498SOL    HW219131   2.178   3.366   6.408 -0.6410 -1.7928 -2.4485
 2499SOL     OW19132   1.529   4.624   9.618  0.3774  0.2238  0.5446
 2499SOL    HW119133   1.525   4.715   9.649 -1.5974  0.1760  0.4463
 2499SOL    HW219134   1.606   4.590   9.664  1.7264 -0.6639 -2.3544
 2500SOL     OW19135   4.124   2.643   3.843  0.1500  0.3817  0.1477
 2500SOL    HW119136   4.204   2.672   3.798  0.8406 -0.4241  0.8520
 2500SOL    HW219137   4.162   2.581   3.905  0.6155 -1.2014 -1.7349
 2501SOL     OW19138   0.081   1.706  13.758  0.1535 -0.4173  0.1998
 2501SOL    HW119139   0.153   1.688  13.818  1.3530 -0.2465 -1.1984
 2501SOL    HW219140   0.075   1.801  13.767  0.2640 -0.1289 -2.7858
 2502SOL     OW19141   3.585   3.529   9.051 -0.6742 -0.6301  0.1596
 2502SOL    HW119142   3.596   3.617   9.086 -0.1580 -1.5869  2.3751
 2502SOL    HW219143   3.657   3.543   8.989 -0.3252  2.0373  1.1732
 2503SOL     OW19144   4.317   1.600   5.355 -0.3601 -0.2226  0.1760
 2503SOL    HW119145   4.234   1.553   5.351 -0.6231  0.0746  2.1872
 2503SOL    HW219146   4.358   1.554   5.428 -0.9630  0.4761  0.9578
 2504SOL     OW19147   4.419   0.017   2.127 -0.0666 -0.1214  0.0508
 2504SOL    HW119148   4.353   0.082   2.103  0.8116  0.3646 -1.0968
 2504SOL    HW219149   4.435   4.705   2.046 -1.2765 -0.6545  0.1491
 2505SOL     OW19150   0.777   1.320  13.460 -0.3193 -0.4156 -0.3151
 2505SOL    HW119151   0.763   1.226  13.452  1.8265 -0.8421  0.7874
 2505SOL    HW219152   0.870   1.331  13.438 -0.3850 -2.1022 -1.3811
 2506SOL     OW19153   3.887   4.584   4.899  0.4047  0.3648  0.0968
 2506SOL    HW119154   3.887   4.556   4.990 -0.0006  1.0127  0.2987
 2506SOL    HW219155   3.872   4.678   4.911  1.0167  0.3958  0.5969
 2507SOL     OW19156   2.778   1.982  13.567  0.5587  0.2910 -0.4745
 2507SOL    HW119157   2.855   2.031  13.537 -0.2383  0.4530 -2.2627
 2507SOL    HW219158   2.774   1.998  13.661  0.3234  0.3388 -0.4942
 2508SOL     OW19159   4.402   1.807   7.925 -0.6123 -0.4355  0.3903
 2508SOL    HW119160   4.395   1.727   7.978  0.9071 -1.4413 -0.9036
 2508SOL    HW219161   4.469   1.773   7.866  1.7291 -0.2259  2.9379
 2509SOL     OW19162   4.277   1.785   5.580  0.0502 -0.0931 -0.2000
 2509SOL    HW119163   4.198   1.789   5.635  1.7349  0.6549  2.1469
 2509SOL    HW219164   4.287   1.690   5.569 -1.0708  0.0117 -2.2837
 2510SOL     OW19165   1.151   4.114   2.746 -0.2109 -0.4400  0.0627
 2510SOL    HW119166   1.134   4.055   2.672  0.6147  0.4152 -0.8061
 2510SOL    HW219167   1.199   4.190   2.713  1.5299 -2.0931 -1.2460
 2511SOL     OW19168   2.197   1.547   5.198 -0.2248 -0.0789  0.3515
 2511SOL    HW119169   2.175   1.630   5.240 -0.7684  1.2160 -2.4247
 2511SOL    HW219170   2.291   1.553   5.213 -0.0368  0.0364 -0.8156
 2512SOL     OW19171   0.912   0.315   9.466 -0.2663  0.0986  0.3093
 2512SOL    HW119172   0.922   0.283   9.376 -2.2067  0.8999 -0.1816
 2512SOL    HW219173   0.938   0.407   9.459 -0.6452  0.0525 -1.6921
 2513SOL     OW19174   2.118   2.887  10.973  0.4934  0.4123  0.1324
 2513SOL    HW119175   2.182   2.915  11.038  1.6103 -1.2918 -0.2297
 2513SOL    HW219176   2.038   2.892  11.026 -0.4218  1.4115 -1.3480
 2514SOL     OW19177   3.091   2.620  14.616  0.5162  0.2716 -0.2128
 2514SOL    HW119178   3.153   2.591  14.683  0.1696  1.3607  0.5805
 2514SOL    HW219179   3.004   2.601  14.650 -0.5603  1.9076 -1.9875
 2515SOL     OW19180   2.802   3.102   6.081 -0.4371  0.2357  0.4047
 2515SOL    HW119181   2.740   3.167   6.048 -0.9846 -0.9205 -0.8533
 2515SOL    HW219182   2.888   3.131   6.052 -1.8565  0.6853 -3.4014
 2516SOL     OW19183   2.248   1.515   1.210  0.5208 -0.1362  0.2756
 2516SOL    HW119184   2.162   1.474   1.222 -0.2107  1.9017  2.1804
 2516SOL    HW219185   2.273   1.462   1.135 -0.3449  0.8880 -0.7348
 2517SOL     OW19186   1.473   0.567  10.525  0.1211 -0.3410 -0.3835
 2517SOL    HW119187   1.420   0.560  10.445 -0.1546  3.7614 -0.5368
 2517SOL    HW219188   1.536   0.498  10.504  0.8389 -0.2884  1.6479
 2518SOL     OW19189   3.022   1.533   1.888 -0.4195  0.1612 -0.5714
 2518SOL    HW119190   3.074   1.454   1.878  1.3888  1.0784  1.5019
 2518SOL    HW219191   3.026   1.562   1.797 -0.7434 -2.1692 -1.3081
 2519SOL     OW19192   3.149   0.837   1.869  0.0269 -0.3750 -0.0111
 2519SOL    HW119193   3.089   0.800   1.804 -0.7446 -1.8933  1.5871
 2519SOL    HW219194   3.232   0.804   1.835 -0.5300 -1.1939 -0.5680
 2520SOL     OW19195   2.220   1.800   0.864  0.2960 -0.0756  0.3555
 2520SOL    HW119196   2.155   1.766   0.926  0.2742 -0.7026 -0.0143
 2520SOL    HW219197   2.182   1.881   0.831  2.6288  1.8510  2.4267
 2521SOL     OW19198   2.213   1.251   6.565  0.5990 -0.3928  0.5275
 2521SOL    HW119199   2.184   1.202   6.488 -0.6928 -0.2432  0.9246
 2521SOL    HW219200   2.281   1.305   6.524  0.0518 -0.5340 -0.5779
 2522SOL     OW19201   4.130   3.889   6.547  0.2871 -0.4847 -0.4884
 2522SOL    HW119202   4.136   3.984   6.540 -1.3977 -0.0778  3.7197
 2522SOL    HW219203   4.200   3.858   6.489  1.8464 -0.1867  1.2276
 2523SOL     OW19204   0.129   3.319  10.621  0.6502 -0.4556  0.4159
 2523SOL    HW119205   0.125   3.278  10.708 -0.0020 -0.5947  0.3241
 2523SOL    HW219206   0.130   3.237  10.572 -2.7291  0.5632 -1.3755
 2524SOL     OW19207   0.214   1.077   6.569  0.0282 -0.0278 -0.3180
 2524SOL    HW119208   0.187   1.109   6.483  2.8854  1.1299 -0.7820
 2524SOL    HW219209   0.231   1.163   6.607  0.3663 -0.3604  0.2890
 2525SOL     OW19210   0.235   0.126  13.512  0.1030  0.2066  0.7665
 2525SOL    HW119211   0.262   0.089  13.428  1.8691  0.7820  1.0776
 2525SOL    HW219212   0.154   0.172  13.490  0.6975  0.3131 -1.2275
 2526SOL     OW19213   0.074   4.696  16.919  0.4551  0.2016 -0.4356
 2526SOL    HW119214   0.157   0.004  16.934  1.2071 -0.4506 -2.5774
 2526SOL    HW219215   0.020   0.020  16.869  1.2253 -0.9164 -2.6332
 2527SOL     OW19216   3.718   2.549   3.687 -0.2018  0.1375  0.2268
 2527SOL    HW119217   3.676   2.529   3.604 -2.3521  2.2940  0.7838
 2527SOL    HW219218   3.812   2.552   3.667 -0.4689  1.6171 -0.7597
 2528SOL     OW19219   0.209   3.327   2.951  0.0702  0.1091 -0.0309
 2528SOL    HW119220   0.206   3.366   2.864  0.7688  0.5220  0.1349
 2528SOL    HW219221   0.302   3.303   2.945  0.6902  2.2213  1.2717
 2529SOL     OW19222   3.807   4.415  10.758 -0.4556 -0.7349 -0.1197
 2529SOL    HW119223   3.712   4.421  10.757 -0.3868  0.6818  1.1393
 2529SOL    HW219224   3.822   4.465  10.838 -0.7554 -1.6937  0.5389
 2530SOL     OW19225   3.016   2.295  15.408 -0.4246  0.6232 -0.2718
 2530SOL    HW119226   2.924   2.273  15.396 -0.0325 -0.5370 -1.1514
 2530SOL    HW219227   3.037   2.343  15.328 -0.0371  2.6505  1.0459
 2531SOL     OW19228   1.451   2.911   6.833 -0.7018  0.2020  0.1396
 2531SOL    HW119229   1.502   2.831   6.848 -1.9793 -0.8563 -1.2617
 2531SOL    HW219230   1.413   2.907   6.745  1.9910 -1.2716 -0.9404
 2532SOL     OW19231   1.971   0.214   7.643  0.2060  0.0679  0.9057
 2532SOL    HW119232   2.031   0.151   7.604  1.7608  1.1931  1.4845
 2532SOL    HW219233   1.987   0.288   7.585  1.2598 -0.8406  0.0534
 2533SOL     OW19234   3.121   3.472   0.787 -0.0874 -0.5088 -0.6163
 2533SOL    HW119235   3.042   3.424   0.812  0.2475  0.4691  2.2596
 2533SOL    HW219236   3.117   3.536   0.858 -0.8633 -0.1448 -0.9831
 2534SOL     OW19237   2.806   0.750  14.830 -0.1442  0.6929  0.3821
 2534SOL    HW119238   2.899   0.737  14.814 -0.1167  0.9277  0.3445
 2534SOL    HW219239   2.779   0.695  14.903  2.8277 -0.4350  0.6310
 2535SOL     OW19240   0.397   2.564   7.129  0.3801  0.1461  0.4354
 2535SOL    HW119241   0.474   2.559   7.186  0.7613 -4.4562 -0.4550
 2535SOL    HW219242   0.327   2.540   7.190  1.3101 -3.8593 -0.0279
 2536SOL     OW19243   1.021   0.241   7.582  0.0823  0.1917  0.2431
 2536SOL    HW119244   0.971   0.161   7.600 -0.6439  0.9349  1.5489
 2536SOL    HW219245   1.012   0.247   7.487 -2.2163  2.9274  0.6394
 2537SOL     OW19246   4.386   2.104  14.837 -0.1991 -0.2754  0.4015
 2537SOL    HW119247   4.353   2.186  14.876  0.8412 -0.2922  1.2965
 2537SOL    HW219248   4.310   2.047  14.829  1.4631 -2.7187  2.4844
 2538SOL     OW19249   0.905   0.752   9.257  0.3110 -0.3425 -0.0166
 2538SOL    HW119250   0.834   0.747   9.321  0.6018  1.8753  0.4838
 2538SOL    HW219251   0.856   0.742   9.176  0.7507  1.4582 -0.4882
 2539SOL     OW19252   2.587   2.668   9.258  0.8691 -0.1186  0.0869
 2539SOL    HW119253   2.600   2.618   9.339  0.5022 -3.3538 -1.8383
 2539SOL    HW219254   2.575   2.753   9.300  0.5784  1.0954 -2.4656
 2540SOL     OW19255   3.349   3.235  15.669 -0.5030 -0.2947  0.3050
 2540SOL    HW119256   3.405   3.247  15.746 -1.2471  1.6327  0.5399
 2540SOL    HW219257   3.262   3.269  15.689 -0.7363  0.2938 -1.7492
 2541SOL     OW19258   2.647   0.951   4.876  0.1265  0.7836 -0.1903
 2541SOL    HW119259   2.606   1.018   4.930 -0.4439  0.4133 -0.1670
 2541SOL    HW219260   2.666   0.883   4.941  3.6907  0.8488 -1.1648
 2542SOL     OW19261   0.132   2.019   9.713  0.4214 -0.2168  0.5824
 2542SOL    HW119262   0.127   2.031   9.618 -1.8079  0.3377  0.7578
 2542SOL    HW219263   0.220   2.051   9.732  1.2684 -3.3548  1.7669
 2543SOL     OW19264   0.656   3.162  15.293  0.0862 -0.8643  0.5155
 2543SOL    HW119265   0.700   3.096  15.241  0.9779  0.5949 -0.5545
 2543SOL    HW219266   0.629   3.100  15.361  1.3071  0.5910  2.3411
 2544SOL     OW19267   1.603   0.514   4.698  0.6174 -0.7744 -0.0556
 2544SOL    HW119268   1.574   0.423   4.704 -1.3994 -0.1516 -0.4505
 2544SOL    HW219269   1.544   0.566   4.753  1.1401 -1.8277  1.4855
 2545SOL     OW19270   2.316   3.496   6.713  0.2248 -0.0190 -0.0430
 2545SOL    HW119271   2.410   3.511   6.715 -0.5945  4.8918  3.4992
 2545SOL    HW219272   2.299   3.544   6.631  2.0085 -2.1324 -1.6179
 2546SOL     OW19273   2.759   3.712   3.663  0.9387 -0.2513  0.0966
 2546SOL    HW119274   2.730   3.640   3.719 -1.2966  2.2763  2.1994
 2546SOL    HW219275   2.818   3.668   3.603  0.4035 -1.2079  0.2837
 2547SOL     OW19276   0.291   0.906   7.519 -0.0163  0.1317 -0.5155
 2547SOL    HW119277   0.247   0.937   7.440  1.5001 -0.1497 -1.4642
 2547SOL    HW219278   0.222   0.923   7.584  0.3834  2.0586 -0.6021
 2548SOL     OW19279   3.462   2.573   6.559  0.4145 -0.0620  0.2371
 2548SOL    HW119280   3.556   2.569   6.574  0.5767  0.9205 -0.4674
 2548SOL    HW219281   3.425   2.590   6.646 -0.3568  1.8634 -0.4513
 2549SOL     OW19282   4.123   0.765   7.336  0.1845  0.3029 -0.1813
 2549SOL    HW119283   4.034   0.784   7.366  0.3781  0.3653  0.3715
 2549SOL    HW219284   4.116   0.752   7.242 -0.3454 -0.3172 -0.0552
 2550SOL     OW19285   2.173   0.993   8.799  0.1003 -0.3822 -0.2421
 2550SOL    HW119286   2.256   1.022   8.837 -0.7171  0.1607  1.1358
 2550SOL    HW219287   2.175   0.900   8.822 -1.0428 -1.1834 -3.4328
 2551SOL     OW19288   1.611   4.065  14.898 -0.3941 -0.4167  0.4630
 2551SOL    HW119289   1.706   4.069  14.885 -0.2617  1.0246  1.9057
 2551SOL    HW219290   1.577   4.085  14.810 -2.6228 -0.0697  1.4123
 2552SOL     OW19291   2.396   4.295   1.829  0.4445  0.2011 -0.1073
 2552SOL    HW119292   2.489   4.277   1.811  0.8416  1.8285  0.2717
 2552SOL    HW219293   2.405   4.288   1.924  1.1526  1.3213 -0.0880
 2553SOL     OW19294   2.663   3.916  13.998  0.0298  0.4885 -0.7144
 2553SOL    HW119295   2.624   3.997  13.965 -1.9317 -0.7726 -1.5029
 2553SOL    HW219296   2.660   3.930  14.092  1.9034 -1.5829 -0.3429
 2554SOL     OW19297   3.237   3.709  12.387 -0.3235  0.0280 -0.2469
 2554SOL    HW119298   3.249   3.801  12.365 -1.2203 -0.0213 -0.9433
 2554SOL    HW219299   3.225   3.669  12.300  1.0467 -2.1344  0.5526
 2555SOL     OW19300   1.508   4.278   5.044  0.5854  0.6449 -0.1856
 2555SOL    HW119301   1.591   4.320   5.067  1.5800 -1.6507  0.4020
 2555SOL    HW219302   1.509   4.219   5.119 -0.7923  2.0119  0.8934
 2556SOL     OW19303   1.185   0.150  14.788  0.0785 -0.1236 -0.3637
 2556SOL    HW119304   1.247   0.118  14.723 -2.2805 -1.4978 -1.9635
 2556SOL    HW219305   1.234   0.216  14.837  2.5573 -1.7799 -0.6386
 2557SOL     OW19306   3.026   1.167   4.078  0.6768  0.7527 -0.4410
 2557SOL    HW119307   3.048   1.156   4.170 -0.5949  0.6669 -0.1474
 2557SOL    HW219308   3.061   1.255   4.069  2.7992  0.1484  2.1160
 2558SOL     OW19309   2.937   2.401   0.363  0.1229  0.1328  0.0807
 2558SOL    HW119310   2.973   2.488   0.348  0.2087  0.2469  0.8980
 2558SOL    HW219311   2.866   2.437   0.415 -0.1448 -2.1082  1.2849
 2559SOL     OW19312   0.218   2.372   8.610 -0.1203  0.1429 -0.0761
 2559SOL    HW119313   0.255   2.413   8.688 -1.0954  0.7968  0.0387
 2559SOL    HW219314   0.128   2.407   8.611 -0.3503 -0.4324 -0.8165
 2560SOL     OW19315   2.512   3.054  10.789  0.1432 -0.1912 -0.1492
 2560SOL    HW119316   2.598   3.066  10.748  0.7595 -3.7809  0.0279
 2560SOL    HW219317   2.532   2.970  10.832 -0.3448 -1.6350 -2.7200
 2561SOL     OW19318   1.719   4.215   8.174 -0.3654 -0.1493  0.2701
 2561SOL    HW119319   1.731   4.146   8.109  0.8186 -0.3793  0.7496
 2561SOL    HW219320   1.775   4.282   8.136 -2.8799  1.0037 -1.4259
 2562SOL     OW19321   1.205   3.213   0.802  0.2888 -0.0109  0.4257
 2562SOL    HW119322   1.260   3.289   0.820 -1.4785  1.3792 -0.0848
 2562SOL    HW219323   1.162   3.195   0.886  0.4317  0.4152  0.5901
 2563SOL     OW19324   0.706   1.429   8.324  0.2107 -0.3309 -0.2026
 2563SOL    HW119325   0.730   1.342   8.356 -1.1346 -0.2819  0.9119
 2563SOL    HW219326   0.630   1.436   8.382  0.2412  0.0081 -0.2062
 2564SOL     OW19327   1.975   3.178   2.426 -0.6816  0.3786 -0.8094
 2564SOL    HW119328   1.977   3.121   2.502  1.3007 -0.5197 -1.5391
 2564SOL    HW219329   1.985   3.257   2.479  0.0881 -0.4005  0.2087
 2565SOL     OW19330   0.286   1.315  14.317  0.4066 -0.6255 -0.7197
 2565SOL    HW119331   0.368   1.363  14.330 -1.7706  2.7461  0.5514
 2565SOL    HW219332   0.247   1.376  14.254 -0.0427  1.0363  1.1937
 2566SOL     OW19333   4.540   3.703  10.442  0.4952  0.2473 -0.5654
 2566SOL    HW119334   4.606   3.634  10.439  0.0265 -0.1882 -0.9687
 2566SOL    HW219335   4.561   3.750  10.522 -0.4958 -1.8628  0.9101
 2567SOL     OW19336   0.850   2.501  12.752  0.2144  0.0351 -0.4873
 2567SOL    HW119337   0.894   2.426  12.711  1.0760 -0.2676  0.9733
 2567SOL    HW219338   0.922   2.538  12.802 -0.2282  0.0696  0.1186
 2568SOL     OW19339   1.640   2.309   2.801  0.5690  0.2008  0.5559
 2568SOL    HW119340   1.696   2.360   2.743  0.6958  0.5108  0.9561
 2568SOL    HW219341   1.700   2.236   2.819  0.3716  0.1238  0.9096
 2569SOL     OW19342   4.662   2.058  13.420 -0.8810  0.5565  0.3062
 2569SOL    HW119343   4.688   2.076  13.329  1.1105 -0.2129  0.7256
 2569SOL    HW219344   4.707   1.976  13.439 -1.7367 -0.2172 -0.9717
 2570SOL     OW19345   1.200   4.220   0.950  0.3529 -0.7090  0.4515
 2570SOL    HW119346   1.213   4.267   0.867 -2.4711 -1.9623 -0.6799
 2570SOL    HW219347   1.290   4.193   0.969  0.7593 -1.5964 -2.6713
 2571SOL     OW19348   1.282   3.114  17.118 -0.2698  0.5804  0.0693
 2571SOL    HW119349   1.222   3.074  17.182  0.2384 -0.6978 -0.2612
 2571SOL    HW219350   1.246   3.203  17.112 -1.2933  0.1312 -0.4747
 2572SOL     OW19351   0.013   1.656  15.048  0.7551 -0.7701 -0.3319
 2572SOL    HW119352   0.094   1.695  15.079  0.4596 -0.3349 -0.1107
 2572SOL    HW219353   0.013   1.686  14.957 -0.5936 -1.0358 -0.4160
 2573SOL     OW19354   3.266   2.718  17.368  0.3083  0.0319  0.2961
 2573SOL    HW119355   3.260   2.649  17.302 -1.6811 -0.8369  1.3772
 2573SOL    HW219356   3.360   2.736  17.372  0.2190  1.0646 -2.1967
 2574SOL     OW19357   0.768   2.605   4.644  0.3377 -0.0264 -0.6098
 2574SOL    HW119358   0.803   2.577   4.560 -1.8699  0.3266 -1.6467
 2574SOL    HW219359   0.809   2.553   4.713 -0.5462 -0.0168 -0.0747
 2575SOL     OW19360   2.938   2.484   8.020  0.4043 -0.5806 -0.5159
 2575SOL    HW119361   3.031   2.506   8.025 -0.0253  0.3970  3.0612
 2575SOL    HW219362   2.945   2.394   7.988 -2.4133 -0.9910  0.0969
 2576SOL     OW19363   3.313   4.455  10.141 -0.3898 -0.2975  0.6284
 2576SOL    HW119364   3.261   4.394  10.087 -1.5407  2.6653 -1.6005
 2576SOL    HW219365   3.314   4.407  10.224  1.4787 -1.9046 -0.3254
 2577SOL     OW19366   3.226   2.275   3.544  0.4614 -0.1084 -0.1450
 2577SOL    HW119367   3.136   2.303   3.526  0.7345  0.0180 -1.3234
 2577SOL    HW219368   3.235   2.217   3.468  0.8288  1.0180 -0.9668
 2578SOL     OW19369   4.412   3.365   2.587 -0.1704 -0.6792  0.7985
 2578SOL    HW119370   4.485   3.425   2.568 -0.0028 -1.1402 -0.0228
 2578SOL    HW219371   4.401   3.365   2.682 -1.3707 -4.1870  0.6554
 2579SOL     OW19372   3.043   3.864   8.304  0.3276 -0.0299  0.0385
 2579SOL    HW119373   3.094   3.859   8.384  1.9385  0.2962 -0.9710
 2579SOL    HW219374   3.029   3.771   8.288 -0.0056  0.1392 -0.6952
 2580SOL     OW19375   1.839   2.889   5.365  0.0690 -0.2402  0.5627
 2580SOL    HW119376   1.914   2.910   5.310  1.7073  0.5684  3.1178
 2580SOL    HW219377   1.861   2.799   5.389 -1.4946 -0.5120  0.9781
 2581SOL     OW19378   2.688   3.323   1.122  0.3162 -0.1418 -0.2842
 2581SOL    HW119379   2.722   3.261   1.187 -1.5158  0.1096  0.9343
 2581SOL    HW219380   2.612   3.357   1.170  1.1410 -0.5330  1.3052
 2582SOL     OW19381   1.166   1.171   9.905  0.1314  0.4464 -0.0916
 2582SOL    HW119382   1.217   1.119   9.967  2.0517  0.3551 -1.7598
 2582SOL    HW219383   1.110   1.212   9.971  0.1823  1.5439 -0.7307
 2583SOL     OW19384   1.063   4.085  12.242  0.3364  0.2076  0.1343
 2583SOL    HW119385   1.015   4.020  12.192 -1.0099 -0.7334  2.6282
 2583SOL    HW219386   1.133   4.026  12.271 -1.2338 -0.6967  2.1404
 2584SOL     OW19387   0.978   0.029  13.364 -0.2504 -0.4616 -0.4152
 2584SOL    HW119388   1.036   4.690  13.365  1.2221  0.6276 -2.1696
 2584SOL    HW219389   1.033   0.093  13.320 -0.8911  1.4876  1.5968
 2585SOL     OW19390   3.189   4.565   4.666  0.0469  0.3904 -0.0072
 2585SOL    HW119391   3.230   4.637   4.714 -2.3608  2.1874 -0.6684
 2585SOL    HW219392   3.268   4.517   4.638 -0.3690 -0.6659  0.6343
 2586SOL     OW19393   1.085   0.563   8.921  0.1986 -0.0388  0.0916
 2586SOL    HW119394   1.140   0.487   8.902  1.0730 -0.1780  3.0626
 2586SOL    HW219395   1.135   0.608   8.990 -1.5098  2.9908 -0.6814
 2587SOL     OW19396   4.615   3.172   3.112  0.4130 -0.0440  0.7770
 2587SOL    HW119397   4.619   3.137   3.201  0.1395 -3.0892 -0.4057
 2587SOL    HW219398   4.675   3.246   3.108 -0.1173  0.4880  2.7226
 2588SOL     OW19399   2.277   3.817   2.241  0.1912 -0.4757 -0.1690
 2588SOL    HW119400   2.292   3.889   2.302 -0.6915 -0.8793  0.5311
 2588SOL    HW219401   2.364   3.808   2.202  0.3373 -0.7726  0.2148
 2589SOL     OW19402   1.400   2.456   1.399  0.9658  0.1071 -0.3593
 2589SOL    HW119403   1.492   2.448   1.422  0.7174  4.8965  2.3641
 2589SOL    HW219404   1.407   2.497   1.312  3.5480 -1.1382 -0.7227
 2590SOL     OW19405   2.670   3.558   3.249 -0.0336  0.2226  0.3034
 2590SOL    HW119406   2.662   3.629   3.186 -1.5431  0.1444  0.4111
 2590SOL    HW219407   2.615   3.600   3.315  0.4239  2.3899 -0.6851
 2591SOL     OW19408   3.421   4.340  12.637  0.3270  0.2830  0.0795
 2591SOL    HW119409   3.361   4.290  12.691  0.3509 -1.4048 -1.4707
 2591SOL    HW219410   3.493   4.365  12.695  0.2708 -0.1673  0.3403
 2592SOL     OW19411   0.999   2.479   6.084 -0.4857 -0.1588 -0.4982
 2592SOL    HW119412   1.059   2.412   6.052 -2.5887 -2.0793 -0.4064
 2592SOL    HW219413   0.970   2.443   6.167 -1.5089  0.2119 -0.6854
 2593SOL     OW19414   4.007   2.687   8.574  0.5941  0.1957  0.3374
 2593SOL    HW119415   4.012   2.782   8.566 -0.2701  0.1904 -0.2421
 2593SOL    HW219416   3.922   2.676   8.619  0.6471  0.5773  0.5268
 2594SOL     OW19417   0.939   4.015   5.361  0.0566  0.0941  0.2399
 2594SOL    HW119418   0.891   4.083   5.409 -0.0790  1.4973 -1.8660
 2594SOL    HW219419   1.021   4.060   5.337  0.9264 -1.7397 -0.1964
 2595SOL     OW19420   4.170   1.877  13.994  0.4377  0.4436 -0.0313
 2595SOL    HW119421   4.261   1.902  13.980  0.0384  1.8085 -0.1451
 2595SOL    HW219422   4.118   1.939  13.944 -3.2767  0.2736  3.5676
 2596SOL     OW19423   1.401   2.090   7.062  0.0377 -0.3062 -0.0335
 2596SOL    HW119424   1.394   2.105   7.157 -0.9135 -2.2894  0.1947
 2596SOL    HW219425   1.311   2.116   7.039 -0.2603 -0.1637  1.2853
 2597SOL     OW19426   1.331   2.900   0.637 -0.4660  0.2311 -0.6355
 2597SOL    HW119427   1.377   2.817   0.622  1.0828  0.9274  0.2137
 2597SOL    HW219428   1.389   2.936   0.705 -1.7378 -1.5943  1.4302
 2598SOL     OW19429   1.984   4.595  17.685  0.0127 -0.4235 -0.4947
 2598SOL    HW119430   2.071   4.597  17.644  0.0781 -2.2874 -0.4488
 2598SOL    HW219431   1.976   4.507  17.721 -2.6237  0.0182 -0.0383
 2599SOL     OW19432   2.494   3.173   8.572 -0.1367  0.1412 -0.0368
 2599SOL    HW119433   2.566   3.216   8.527  0.8281 -1.9240 -0.4927
 2599SOL    HW219434   2.506   3.204   8.662 -0.2741 -1.7207  0.6380
 2600SOL     OW19435   2.541   0.289  14.170 -0.0445  0.3609  0.3182
 2600SOL    HW119436   2.541   0.322  14.260  2.2651  0.5461  0.2502
 2600SOL    HW219437   2.626   0.247  14.157  0.4791  0.4459  3.4858
 2601SOL     OW19438   0.663   0.021  15.642  0.2520 -0.7711  0.1997
 2601SOL    HW119439   0.646   0.016  15.548 -1.2371  1.3877  0.3755
 2601SOL    HW219440   0.759   0.016  15.635  0.3700  0.0240  1.2440
 2602SOL     OW19441   4.042   3.161   2.398  0.1360  0.1644 -0.5123
 2602SOL    HW119442   4.044   3.192   2.308 -1.6112  0.0309 -0.5951
 2602SOL    HW219443   4.057   3.240   2.451  2.7825 -1.6894  1.5281
 2603SOL     OW19444   0.790   0.827   8.801 -0.3023 -0.4038 -0.0926
 2603SOL    HW119445   0.800   0.849   8.709 -0.8600 -0.8500 -0.2656
 2603SOL    HW219446   0.795   0.914   8.841 -2.1913  0.1968 -1.1782
 2604SOL     OW19447   1.368   2.910   3.338  0.0707  0.2003  0.1481
 2604SOL    HW119448   1.359   2.978   3.270 -1.8164  1.2914  1.4835
 2604SOL    HW219449   1.282   2.869   3.341  1.4982 -2.9349 -1.9992
 2605SOL     OW19450   3.783   4.162   2.083 -0.1942 -0.7744  0.3609
 2605SOL    HW119451   3.834   4.083   2.095  1.6185  0.0342 -1.9616
 2605SOL    HW219452   3.833   4.226   2.134 -2.9166  0.7973  1.0798
 2606SOL     OW19453   3.625   1.491  13.143  0.0285 -0.0548  0.4202
 2606SOL    HW119454   3.694   1.556  13.137 -2.1101  2.0813 -1.0451
 2606SOL    HW219455   3.633   1.458  13.053 -0.9197 -0.9811  0.6765
 2607SOL     OW19456   2.888   0.068   6.577 -0.0578  0.0704  0.5275
 2607SOL    HW119457   2.960   0.064   6.514 -1.2732 -1.3084 -0.7534
 2607SOL    HW219458   2.938   0.095   6.654 -1.7894  4.0573  0.2166
 2608SOL     OW19459   1.356   2.324   8.055  0.6034 -0.0398  0.5641
 2608SOL    HW119460   1.377   2.346   7.964 -0.0566 -1.8416 -0.0430
 2608SOL    HW219461   1.288   2.391   8.056  2.9337  2.3039  0.1949
 2609SOL     OW19462   0.903   4.664  10.545 -0.1774 -0.3905 -0.4339
 2609SOL    HW119463   0.967   4.714  10.494  0.4531  1.2893  1.9889
 2609SOL    HW219464   0.823   4.698  10.505  0.2037  1.5644  0.4650
 2610SOL     OW19465   1.954   1.067   8.615  0.3796 -0.2835 -0.2035
 2610SOL    HW119466   1.912   1.124   8.680 -0.9249  1.1057 -2.2929
 2610SOL    HW219467   2.040   1.064   8.656  0.5837  0.8584 -0.5692
 2611SOL     OW19468   2.385   0.594  15.092 -0.2321  0.2621 -0.3678
 2611SOL    HW119469   2.389   0.589  14.997  2.2375 -0.7402 -0.2127
 2611SOL    HW219470   2.387   0.687  15.112 -0.8135 -0.0550  1.2234
 2612SOL     OW19471   0.702   3.343   4.058  0.1479 -0.0738  0.2429
 2612SOL    HW119472   0.699   3.421   4.114  1.7655 -0.2490  0.5704
 2612SOL    HW219473   0.654   3.384   3.986 -3.0645 -0.5542  2.0799
 2613SOL     OW19474   3.749   3.533  11.188  0.0293  0.3038 -0.0031
 2613SOL    HW119475   3.693   3.462  11.157  1.3244 -0.4228 -0.6747
 2613SOL    HW219476   3.700   3.564  11.264 -0.6522  0.4911 -0.5124
 2614SOL     OW19477   0.602   3.723   8.132 -0.1196  0.4533 -0.5149
 2614SOL    HW119478   0.673   3.763   8.182  0.0642  1.7006 -1.7984
 2614SOL    HW219479   0.562   3.671   8.203 -1.6282  1.0308 -0.9317
 2615SOL     OW19480   4.450   2.154  15.591 -0.5496 -0.3844 -0.1942
 2615SOL    HW119481   4.532   2.200  15.606 -0.0263 -0.4687 -2.6587
 2615SOL    HW219482   4.442   2.116  15.678 -1.1479  2.1263  0.8299
 2616SOL     OW19483   3.409   1.797   8.667  0.6888  0.0381  0.1364
 2616SOL    HW119484   3.478   1.856   8.635 -0.8741  0.8392 -1.7329
 2616SOL    HW219485   3.412   1.800   8.763 -0.4606 -0.1408  0.1745
 2617SOL     OW19486   0.089   4.261   2.458 -0.1923  0.1580  0.3831
 2617SOL    HW119487   0.003   4.222   2.472 -0.2097 -0.2191 -0.7457
 2617SOL    HW219488   0.080   4.356   2.466 -0.2161  0.2115 -0.2320
 2618SOL     OW19489   1.436   0.553   6.805  0.2592 -0.5866  0.3185
 2618SOL    HW119490   1.467   0.463   6.812 -2.0060 -1.2594  1.6345
 2618SOL    HW219491   1.360   0.543   6.863 -0.4192 -0.8277 -0.6074
 2619SOL     OW19492   1.087   2.992   0.676  0.2341 -0.6068 -0.0239
 2619SOL    HW119493   1.171   2.947   0.663  0.8708 -0.0632  2.0991
 2619SOL    HW219494   1.118   3.075   0.712 -1.5558 -0.9489  2.2982
 2620SOL     OW19495   1.508   3.907  12.915 -0.5950  0.6973 -0.3312
 2620SOL    HW119496   1.474   3.994  12.935  0.1799  0.8075  0.4566
 2620SOL    HW219497   1.450   3.853  12.969  0.4784 -0.5549 -0.4279
 2621SOL     OW19498   4.187   0.175   8.855  0.0975  0.7268 -1.0123
 2621SOL    HW119499   4.105   0.219   8.876 -0.8703 -1.6248  0.1399
 2621SOL    HW219500   4.248   0.206   8.922  0.5846  0.2379 -1.2271
 2622SOL     OW19501   1.653   4.700  12.760  0.3492  0.4053  0.0440
 2622SOL    HW119502   1.738   4.738  12.783 -0.3221  2.4242 -0.7584
 2622SOL    HW219503   1.664   4.605  12.752 -0.9915  0.3192 -0.6877
 2623SOL     OW19504   0.857   3.876   3.720 -0.0062 -0.4328 -0.1371
 2623SOL    HW119505   0.883   3.961   3.756  1.7028 -1.1602  0.3638
 2623SOL    HW219506   0.884   3.822   3.794  1.6475  1.1242  0.4290
 2624SOL     OW19507   4.352   4.075  15.363  0.0541 -0.2534 -0.3968
 2624SOL    HW119508   4.298   4.153  15.360  1.8572  0.9587 -1.0061
 2624SOL    HW219509   4.403   4.089  15.284  1.0358 -2.3675 -0.1486
 2625SOL     OW19510   2.219   1.197  17.293  0.5083  0.1107 -0.0576
 2625SOL    HW119511   2.161   1.207  17.369  1.3466 -0.5690  0.6845
 2625SOL    HW219512   2.206   1.102  17.289 -0.3124  0.1546  1.2842
 2626SOL     OW19513   2.824   2.708  11.053  0.0900  0.2367 -0.8999
 2626SOL    HW119514   2.900   2.658  11.024 -0.1049 -0.0690 -0.8808
 2626SOL    HW219515   2.790   2.644  11.115  3.3882  0.4942  1.2036
 2627SOL     OW19516   2.588   1.303   4.829 -0.4503 -0.0027 -0.4693
 2627SOL    HW119517   2.603   1.286   4.922 -0.5001  0.1049 -0.4406
 2627SOL    HW219518   2.519   1.370   4.837 -0.1742  0.2621 -0.2822
 2628SOL     OW19519   1.743   1.399   4.253 -0.4538  0.3216  0.7929
 2628SOL    HW119520   1.669   1.338   4.256  0.2500 -0.6274 -1.3696
 2628SOL    HW219521   1.703   1.481   4.223  0.5674  0.6005  0.2089
 2629SOL     OW19522   3.132   3.429   6.202 -0.7869 -0.1661 -0.2692
 2629SOL    HW119523   3.085   3.379   6.135 -0.5376 -2.3988  1.2589
 2629SOL    HW219524   3.208   3.459   6.151  1.1547 -0.8345  2.2139
 2630SOL     OW19525   0.402   4.422   7.971  0.2049 -0.1278 -0.0860
 2630SOL    HW119526   0.308   4.427   7.989  0.1811 -0.1505 -0.2076
 2630SOL    HW219527   0.416   4.337   7.929  0.2520 -0.8561  1.3847
 2631SOL     OW19528   2.152   0.380  13.870  0.1009  0.6604  0.3844
 2631SOL    HW119529   2.190   0.415  13.951 -2.0658  0.9751  1.2747
 2631SOL    HW219530   2.060   0.392  13.892 -0.2945 -1.1611 -0.2767
 2632SOL     OW19531   2.411   3.167   7.258  0.1186  0.4283 -0.0113
 2632SOL    HW119532   2.474   3.153   7.329  0.6127  0.6021 -0.4160
 2632SOL    HW219533   2.378   3.256   7.266 -0.8508 -0.0933  1.8666
 2633SOL     OW19534   0.446   2.419   8.166 -0.1176 -0.4606 -0.2745
 2633SOL    HW119535   0.450   2.503   8.121 -1.8642  0.0916  0.5729
 2633SOL    HW219536   0.371   2.434   8.223  0.1968 -0.7761  0.2206
 2634SOL     OW19537   0.562   2.042   8.359 -0.2514  0.0903 -0.0440
 2634SOL    HW119538   0.508   2.008   8.430  0.6068 -1.6614 -0.2454
 2634SOL    HW219539   0.504   2.076   8.291 -3.0821 -2.8682  0.9405
 2635SOL     OW19540   3.723   0.280   3.316 -0.1586 -0.1944  0.8430
 2635SOL    HW119541   3.676   0.250   3.239 -0.7009  1.1259  0.6676
 2635SOL    HW219542   3.814   0.257   3.296  0.3214  0.7636  1.9486
 2636SOL     OW19543   3.283   1.379   6.293 -0.0232  0.5373 -0.1850
 2636SOL    HW119544   3.253   1.466   6.267  0.1592  0.2208 -1.4179
 2636SOL    HW219545   3.196   1.359   6.328 -0.0144 -1.1677 -1.1288
 2637SOL     OW19546   4.312   4.139   3.106  0.4105  0.3807 -0.4243
 2637SOL    HW119547   4.264   4.176   3.181  2.6450  0.5713  0.9102
 2637SOL    HW219548   4.263   4.056   3.110  0.4628  0.3577 -0.2597
 2638SOL     OW19549   4.608   0.710  17.122  0.0219 -0.2269  0.0605
 2638SOL    HW119550   4.577   0.740  17.037  0.2199 -0.6637 -0.1646
 2638SOL    HW219551   4.526   0.720  17.171  0.7205  3.6533  0.4021
 2639SOL     OW19552   4.392   3.570   0.903 -0.2585  0.1719 -0.2108
 2639SOL    HW119553   4.469   3.515   0.886  1.9391  2.7474  1.3513
 2639SOL    HW219554   4.324   3.514   0.866  0.9511 -2.7154  1.9153
 2640SOL     OW19555   1.879   2.396   2.037 -0.3866  0.3565  0.0812
 2640SOL    HW119556   1.884   2.343   1.957  1.7573  0.9915 -0.2333
 2640SOL    HW219557   1.971   2.424   2.041  0.3699 -2.4919  2.9678
 2641SOL     OW19558   1.270   3.053   8.791 -0.7482 -0.6089  0.5957
 2641SOL    HW119559   1.333   3.035   8.722  1.5976  0.3215  2.5106
 2641SOL    HW219560   1.323   3.034   8.869  0.3710 -1.8440 -0.4542
 2642SOL     OW19561   4.310   2.110   2.014  0.5328  0.0942  0.3618
 2642SOL    HW119562   4.381   2.046   2.007  0.0035 -0.0130 -4.2617
 2642SOL    HW219563   4.354   2.190   1.986  0.0483  0.5191  0.8212
 2643SOL     OW19564   1.753   0.106   6.148 -0.1400 -0.2222 -0.2692
 2643SOL    HW119565   1.776   0.173   6.084  0.6084  0.5481  0.7890
 2643SOL    HW219566   1.658   0.106   6.157 -0.1140 -0.8334  0.0230
 2644SOL     OW19567   1.510   2.769   3.021  0.2536 -0.2513  0.4225
 2644SOL    HW119568   1.589   2.723   2.994 -0.5169 -0.7419 -1.0338
 2644SOL    HW219569   1.446   2.723   2.966 -2.6613  2.2149  1.7603
 2645SOL     OW19570   0.501   4.526  16.943 -0.3459 -0.1656  0.1169
 2645SOL    HW119571   0.564   4.597  16.930 -0.3207 -0.5248 -1.6379
 2645SOL    HW219572   0.457   4.509  16.860  1.7084 -0.4218 -0.9139
 2646SOL     OW19573   1.810   0.621   8.216 -0.1835  0.8210  0.4595
 2646SOL    HW119574   1.826   0.680   8.143 -0.5591  1.3524  0.8113
 2646SOL    HW219575   1.794   0.534   8.177  0.8816  1.7329 -2.0452
 2647SOL     OW19576   2.975   1.427   8.440  0.5941 -0.0273  0.2069
 2647SOL    HW119577   3.046   1.432   8.503 -0.2388  0.3582  1.1215
 2647SOL    HW219578   2.916   1.486   8.488  0.6859  0.3878 -0.1964
 2648SOL     OW19579   3.719   0.076   9.051  0.1664 -1.0205  0.1253
 2648SOL    HW119580   3.635   0.116   9.074  0.0793 -0.4657 -1.1622
 2648SOL    HW219581   3.761   0.056   9.134  0.5110 -0.4160  0.0912
 2649SOL     OW19582   1.680   3.612   3.070  0.3954 -0.3505 -0.3919
 2649SOL    HW119583   1.712   3.615   3.160 -0.2467  1.5321 -0.2087
 2649SOL    HW219584   1.639   3.699   3.064  0.8987 -0.0616  0.3224
 2650SOL     OW19585   0.436   0.034   7.728  0.3052  0.0833  0.3980
 2650SOL    HW119586   0.500   0.027   7.657  0.4082 -1.5587  0.6629
 2650SOL    HW219587   0.380   4.698   7.703 -0.5114  0.6369  0.5938
 2651SOL     OW19588   0.428   0.246   3.578 -0.3404 -0.1013 -0.1213
 2651SOL    HW119589   0.352   0.269   3.632  0.2231  2.6986 -0.5172
 2651SOL    HW219590   0.480   0.195   3.640 -0.7541  1.2154  1.3132
 2652SOL     OW19591   3.987   3.384  15.410  0.4924  0.3336  0.1103
 2652SOL    HW119592   3.900   3.369  15.373  1.3284 -2.9856 -0.4882
 2652SOL    HW219593   4.001   3.472  15.372 -2.4621  0.9210  0.4048
 2653SOL     OW19594   0.404   2.393   0.251  0.5224  0.4850  0.2861
 2653SOL    HW119595   0.341   2.368   0.319  0.0238  2.8038  0.7064
 2653SOL    HW219596   0.421   2.482   0.283 -0.3644  1.8252 -3.0475
 2654SOL     OW19597   1.503   1.559   5.719  0.0524  0.1508  0.3527
 2654SOL    HW119598   1.592   1.580   5.692 -0.1542  1.1045  0.4345
 2654SOL    HW219599   1.492   1.634   5.777  1.3182  1.0125 -0.5368
 2655SOL     OW19600   0.574   0.176   6.547  0.1955  0.1826  0.8104
 2655SOL    HW119601   0.497   0.221   6.512 -0.1599 -1.0461 -0.0330
 2655SOL    HW219602   0.617   0.148   6.466 -0.8673  0.3882  0.1684
 2656SOL     OW19603   1.037   0.085   8.422 -0.6884  0.1939  0.2852
 2656SOL    HW119604   1.084   0.167   8.438 -0.8192  0.6993 -1.9775
 2656SOL    HW219605   0.959   0.116   8.376 -1.5099 -0.4503  1.2492
 2657SOL     OW19606   2.937   1.237   2.011 -0.0731 -0.6776 -0.4952
 2657SOL    HW119607   2.935   1.331   1.990  0.8729 -0.4428  0.4763
 2657SOL    HW219608   3.025   1.224   2.047  0.0459  0.9422 -0.1870
 2658SOL     OW19609   2.368   1.464  16.744 -0.1998 -0.1405 -0.0423
 2658SOL    HW119610   2.394   1.372  16.749 -0.8942 -0.2625  1.1574
 2658SOL    HW219611   2.356   1.493  16.834  3.2183  1.6975 -0.1728
 2659SOL     OW19612   1.070   3.083   3.416 -0.5722 -0.0493  0.4226
 2659SOL    HW119613   1.016   3.098   3.493  0.7218  1.9950  0.9270
 2659SOL    HW219614   1.063   3.167   3.372 -1.8864  0.4375  1.5788
 2660SOL     OW19615   2.712   0.030   6.377 -0.2823 -0.3041  0.5505
 2660SOL    HW119616   2.758   4.706   6.321  0.4168  0.3288  0.4279
 2660SOL    HW219617   2.772   0.043   6.450  1.7025  1.2554 -1.3516
 2661SOL     OW19618   4.586   4.363   8.246  0.8344 -0.5149 -0.3781
 2661SOL    HW119619   4.610   4.451   8.218 -0.7761 -0.1351 -0.5824
 2661SOL    HW219620   4.664   4.310   8.229  0.6902 -1.5351  2.1434
 2662SOL     OW19621   4.223   3.147   4.222 -0.3089  0.4115 -0.5833
 2662SOL    HW119622   4.284   3.218   4.243  0.2401 -0.1575 -0.2485
 2662SOL    HW219623   4.207   3.105   4.306 -2.2245 -0.1027 -1.2063
 2663SOL     OW19624   2.327   0.882   4.778  0.6593 -0.5981  0.1047
 2663SOL    HW119625   2.392   0.945   4.747  2.2468 -0.9288  2.8467
 2663SOL    HW219626   2.364   0.805   4.734  0.5307 -0.7684  0.2928
 2664SOL     OW19627   0.554   0.929   7.428  0.3675  0.1604  0.1652
 2664SOL    HW119628   0.462   0.924   7.457  0.1239  0.2164 -0.5935
 2664SOL    HW219629   0.569   0.843   7.388 -0.4938  0.0726  0.0151
 2665SOL     OW19630   1.774   2.370   4.668  0.2259  0.6580 -0.0718
 2665SOL    HW119631   1.804   2.279   4.670  3.1313  1.5802 -1.8975
 2665SOL    HW219632   1.847   2.418   4.705  0.4969 -0.5202  0.9074
 2666SOL     OW19633   0.150   1.377  14.538 -0.1551 -0.2753  0.1778
 2666SOL    HW119634   0.156   1.454  14.482  0.7379  0.4308  1.2418
 2666SOL    HW219635   0.206   1.326  14.479  0.8241 -1.7131  2.3719
 2667SOL     OW19636   1.866   1.857   6.990  0.3566  0.0645 -0.0289
 2667SOL    HW119637   1.778   1.847   7.027  0.4295  0.3842  0.2407
 2667SOL    HW219638   1.840   1.898   6.908  2.0753  1.9213  0.3391
 2668SOL     OW19639   2.120   2.468   1.955  0.0157  0.0067  0.6115
 2668SOL    HW119640   2.130   2.482   1.861  1.6552  1.0869  0.9459
 2668SOL    HW219641   2.185   2.528   1.991 -1.1988  1.9998 -0.5030
 2669SOL     OW19642   2.027   0.347   3.546  0.5370  0.2703 -0.6118
 2669SOL    HW119643   1.984   0.261   3.543  0.8263  0.0357  1.6610
 2669SOL    HW219644   2.104   0.339   3.491  2.1711  1.0422  1.5867
 2670SOL     OW19645   2.029   2.455   2.348  0.4211 -0.2781 -0.2613
 2670SOL    HW119646   1.959   2.390   2.349  0.1547  0.0052 -0.8534
 2670SOL    HW219647   2.110   2.405   2.353  1.4323  1.4685  0.9734
 2671SOL     OW19648   1.092   4.434   5.599  0.1684 -0.5852 -0.4763
 2671SOL    HW119649   1.037   4.461   5.672  1.7476  1.1235  0.0693
 2671SOL    HW219650   1.018   4.395   5.554 -2.6895  2.0286  1.9573
 2672SOL     OW19651   3.261   2.100   8.105 -0.5727  0.2407 -0.0187
 2672SOL    HW119652   3.276   2.186   8.146 -1.9243 -0.3652  1.7183
 2672SOL    HW219653   3.330   2.108   8.039  1.0349  1.2532  1.7336
 2673SOL     OW19654   2.952   2.321   9.004  0.0257 -0.3799 -0.0037
 2673SOL    HW119655   3.033   2.357   8.967 -0.3883  0.8169  0.2584
 2673SOL    HW219656   2.902   2.400   9.022 -0.2894 -1.1797  2.6446
 2674SOL     OW19657   1.267   3.497  12.653 -0.4189  0.0452 -0.6680
 2674SOL    HW119658   1.333   3.551  12.696 -1.2358  1.4986 -1.2382
 2674SOL    HW219659   1.224   3.569  12.607  0.9201  0.6968 -0.8912
 2675SOL     OW19660   3.859   4.108   7.433  0.3774  0.1640  0.2227
 2675SOL    HW119661   3.943   4.150   7.452 -0.0954  0.9364  0.6483
 2675SOL    HW219662   3.842   4.114   7.339 -1.7119  0.9123  0.6367
 2676SOL     OW19663   2.843   3.822   8.012 -0.1258 -0.0405 -0.0241
 2676SOL    HW119664   2.848   3.918   8.008 -2.3698  0.0777  0.0381
 2676SOL    HW219665   2.817   3.795   7.924 -1.3099 -0.0485  0.3310
 2677SOL     OW19666   2.313   0.549   1.959 -0.4399  0.7268 -0.0157
 2677SOL    HW119667   2.291   0.512   2.045  1.4178 -0.2758  0.0196
 2677SOL    HW219668   2.292   0.474   1.903 -1.8108  0.7668  0.4289
 2678SOL     OW19669   3.387   0.151   3.266 -0.5639 -0.0296 -0.7016
 2678SOL    HW119670   3.305   0.161   3.314  1.1237 -0.5922  2.2435
 2678SOL    HW219671   3.446   0.202   3.321 -0.6251 -1.4935  0.7312
 2679SOL     OW19672   3.280   0.462  15.361 -0.6690  1.1141  0.7528
 2679SOL    HW119673   3.280   0.411  15.280  1.8404  2.0194  0.1718
 2679SOL    HW219674   3.231   0.405  15.420  0.6183 -1.6408 -0.8788
 2680SOL     OW19675   2.804   1.851   2.496  0.1518 -0.0167  0.0526
 2680SOL    HW119676   2.732   1.875   2.438  1.4023  1.4684 -0.8928
 2680SOL    HW219677   2.828   1.934   2.536 -0.1702  0.0520  0.1023
 2681SOL     OW19678   2.058   2.493   4.737  0.1672  0.8571  0.3316
 2681SOL    HW119679   2.036   2.443   4.816 -2.5797 -0.2616 -1.1460
 2681SOL    HW219680   2.134   2.544   4.764  0.3373  0.3867  0.7599
 2682SOL     OW19681   0.300   4.237  12.807  0.3014  0.0523  0.2501
 2682SOL    HW119682   0.250   4.178  12.863  0.5664  1.1287  1.6363
 2682SOL    HW219683   0.353   4.289  12.868  1.4022 -1.6611  0.7732
 2683SOL     OW19684   4.134   4.715   0.674 -0.0767  0.0697  0.2492
 2683SOL    HW119685   4.074   4.646   0.704 -1.2210  1.0434  0.1903
 2683SOL    HW219686   4.180   4.733   0.756  1.3181 -0.3776 -0.4393
 2684SOL     OW19687   1.331   0.885   5.579 -0.3624  0.3228  0.1536
 2684SOL    HW119688   1.377   0.913   5.657  0.8395 -1.0336 -0.0724
 2684SOL    HW219689   1.369   0.798   5.573 -0.8642  0.1137 -0.0292
 2685SOL     OW19690   2.707   1.349   8.342  0.0914  0.1433 -0.5666
 2685SOL    HW119691   2.682   1.437   8.370  0.8002 -0.2762  1.4439
 2685SOL    HW219692   2.789   1.344   8.392 -0.4220  1.0563  0.3856
 2686SOL     OW19693   3.290   4.191  16.244  0.5343 -0.4058  0.3158
 2686SOL    HW119694   3.241   4.110  16.255 -0.0902  0.1325  1.5437
 2686SOL    HW219695   3.303   4.216  16.336  0.0182 -1.1353  0.5852
 2687SOL     OW19696   1.526   1.777   6.784  0.7886  0.4189 -0.2378
 2687SOL    HW119697   1.446   1.771   6.731 -1.2456 -0.2291  2.9335
 2687SOL    HW219698   1.568   1.698   6.751  2.7782  1.6259 -0.6043
 2688SOL     OW19699   2.305   3.748   8.987  0.4009 -0.0228 -0.3044
 2688SOL    HW119700   2.359   3.669   8.994  0.8495  0.4394  1.5152
 2688SOL    HW219701   2.282   3.734   8.895  0.2282 -2.9849  0.1922
 2689SOL     OW19702   2.217   4.209   4.147 -0.4359 -0.0394  0.4225
 2689SOL    HW119703   2.210   4.124   4.191  1.0590 -0.8561 -0.9614
 2689SOL    HW219704   2.133   4.248   4.174 -0.6296  0.1060 -0.4024
 2690SOL     OW19705   3.707   2.335   0.553 -0.4826  0.1049 -0.0726
 2690SOL    HW119706   3.698   2.417   0.601  0.8904  0.9045 -1.1737
 2690SOL    HW219707   3.708   2.272   0.624  0.4269 -0.3170 -0.4551
 2691SOL     OW19708   3.845   2.697  16.450  0.4495 -0.2729  0.2895
 2691SOL    HW119709   3.780   2.676  16.517  1.1849  1.8577  1.6667
 2691SOL    HW219710   3.811   2.776  16.408  0.8706 -0.7279 -0.9093
 2692SOL     OW19711   0.637   1.285  14.683  0.2337 -1.0294 -0.4451
 2692SOL    HW119712   0.626   1.300  14.777  3.1451 -0.6067 -0.1933
 2692SOL    HW219713   0.598   1.365  14.649  1.1651 -1.6535 -2.9808
 2693SOL     OW19714   0.785   2.656   9.225 -0.4169  0.1923  0.4402
 2693SOL    HW119715   0.782   2.750   9.211 -1.3952 -0.2712 -2.4573
 2693SOL    HW219716   0.743   2.614   9.150  0.0652 -0.3522  0.4712
 2694SOL     OW19717   3.775   3.600   8.759  0.4896  0.0377 -0.8100
 2694SOL    HW119718   3.785   3.695   8.767  0.7872 -0.0889  0.3359
 2694SOL    HW219719   3.833   3.569   8.828 -1.9220  1.7849  1.9954
 2695SOL     OW19720   1.235   0.739   5.877  0.0175 -0.0588  0.0485
 2695SOL    HW119721   1.177   0.714   5.806 -0.4440 -3.1795  1.5503
 2695SOL    HW219722   1.179   0.794   5.931  0.4266  0.7242 -0.3177
 2696SOL     OW19723   3.209   4.300   2.387  0.3207 -0.0731 -0.0619
 2696SOL    HW119724   3.260   4.221   2.409  1.3708  1.3177  2.5082
 2696SOL    HW219725   3.264   4.338   2.318 -0.6889 -0.8438 -1.2757
 2697SOL     OW19726   0.957   2.315   5.162 -0.0003 -0.0731  0.0619
 2697SOL    HW119727   1.025   2.258   5.199  0.7935  0.3880 -0.6808
 2697SOL    HW219728   1.004   2.385   5.117 -0.8558 -0.1631 -0.9636
 2698SOL     OW19729   1.651   2.749   7.897 -0.0476 -0.5774  0.1005
 2698SOL    HW119730   1.639   2.757   7.802  1.5310 -3.3438 -0.3276
 2698SOL    HW219731   1.746   2.741   7.909  0.1461  1.7724  0.0860
 2699SOL     OW19732   4.648   1.731   5.379  0.2075  0.0486 -0.8905
 2699SOL    HW119733   4.637   1.799   5.445  0.3544 -1.0361  0.2457
 2699SOL    HW219734   4.574   1.746   5.319 -0.0444 -1.6267 -0.9914
 2700SOL     OW19735   1.710   3.656  14.387  0.1275  0.1066 -0.0719
 2700SOL    HW119736   1.691   3.563  14.395  0.8968 -0.1063 -0.7559
 2700SOL    HW219737   1.627   3.692  14.354  0.4629  0.6757 -0.3069
 2701SOL     OW19738   2.979   4.605   4.222 -0.0541  0.7371  0.2842
 2701SOL    HW119739   2.985   4.699   4.239  1.5092  0.2847  2.3206
 2701SOL    HW219740   2.915   4.578   4.288 -0.0795 -0.1379 -0.1020
 2702SOL     OW19741   1.050   1.363   8.560 -0.3675  0.3226 -1.1269
 2702SOL    HW119742   0.969   1.332   8.600  1.5734 -2.1606  0.8823
 2702SOL    HW219743   1.115   1.294   8.574 -0.3767  1.3876  4.0417
 2703SOL     OW19744   4.119   0.013   9.376  0.1138 -0.6248  0.1026
 2703SOL    HW119745   4.095   0.052   9.460 -0.3066  0.7935 -0.6711
 2703SOL    HW219746   4.212   0.035   9.373 -0.4329  1.6438 -0.4216
 2704SOL     OW19747   2.052   2.905   6.478 -0.3577  0.3319  0.8158
 2704SOL    HW119748   2.044   2.845   6.552 -1.4889  2.4778  2.4261
 2704SOL    HW219749   2.093   2.981   6.518 -1.2284  0.9226  0.5958
 2705SOL     OW19750   0.159   0.568   5.606 -0.4144  1.0391  0.0139
 2705SOL    HW119751   0.230   0.598   5.550  1.0199  0.8116  1.7220
 2705SOL    HW219752   0.205   0.524   5.678 -3.2117  0.0093  1.1937
 2706SOL     OW19753   2.539   1.312   0.539 -0.2884  0.0425  0.4456
 2706SOL    HW119754   2.469   1.297   0.602 -0.8048 -1.7857 -0.5770
 2706SOL    HW219755   2.589   1.375   0.591  0.9867  1.8880 -2.9705
 2707SOL     OW19756   0.115   4.475   8.464 -0.0631  0.1803  0.8549
 2707SOL    HW119757   0.153   4.548   8.514 -0.9494  0.7676  0.6734
 2707SOL    HW219758   0.195   4.433   8.432  0.4037  0.8840  1.0756
 2708SOL     OW19759   4.298   2.430   8.736  0.2685  0.2526  0.7720
 2708SOL    HW119760   4.305   2.504   8.796 -0.0742  2.0615 -1.4626
 2708SOL    HW219761   4.209   2.403   8.761 -0.3633  1.9142  0.3075
 2709SOL     OW19762   0.430   0.542  11.394  0.1649  0.0491 -0.1831
 2709SOL    HW119763   0.461   0.562  11.306  1.6407  0.0717  0.3386
 2709SOL    HW219764   0.500   0.590  11.438  1.1936 -0.0081 -1.7677
 2710SOL     OW19765   1.394   1.107   2.361  1.1764  0.2555 -0.1415
 2710SOL    HW119766   1.397   1.202   2.361  0.6966  0.2738  0.6128
 2710SOL    HW219767   1.316   1.104   2.417  1.4380 -1.0240  0.1658
 2711SOL     OW19768   1.692   1.995   8.595  0.1371  0.1187 -0.0247
 2711SOL    HW119769   1.627   2.063   8.613  0.4898  1.1715 -2.6364
 2711SOL    HW219770   1.764   2.043   8.635 -2.2597  2.0273  1.9548
 2712SOL     OW19771   1.628   4.020   3.267 -0.0619  0.0484 -0.4923
 2712SOL    HW119772   1.723   4.029   3.272  0.0321 -1.4822  0.3038
 2712SOL    HW219773   1.604   4.093   3.324  0.5919 -0.6909  0.7245
 2713SOL     OW19774   0.195   2.782   5.220 -0.1867 -0.5482  0.4099
 2713SOL    HW119775   0.131   2.851   5.203  1.1816  0.2682 -1.4469
 2713SOL    HW219776   0.147   2.701   5.202 -0.7436 -0.2999  0.7958
 2714SOL     OW19777   2.304   0.179   2.667  0.1274  0.3256  0.3109
 2714SOL    HW119778   2.293   0.270   2.696 -0.5021 -0.0997  1.4099
 2714SOL    HW219779   2.369   0.153   2.733 -0.2905  0.2495  0.6973
 2715SOL     OW19780   2.862   2.833   9.991  0.3880  0.3706  0.4587
 2715SOL    HW119781   2.933   2.769   9.988 -0.2459 -0.4463  2.8828
 2715SOL    HW219782   2.888   2.889  10.064 -0.2866  1.2249  0.0423
 2716SOL     OW19783   3.876   0.874  17.649 -0.1434  0.1405 -0.9533
 2716SOL    HW119784   3.828   0.857  17.730  1.8291 -0.3182  0.1107
 2716SOL    HW219785   3.840   0.801  17.599 -0.4358  0.0282 -0.5775
 2717SOL     OW19786   0.133   2.092   0.250  0.1020  0.3227  0.2516
 2717SOL    HW119787   0.167   2.110   0.163 -0.8327  0.8951  0.0001
 2717SOL    HW219788   0.061   2.031   0.232  0.6855 -0.2376 -0.1743
 2718SOL     OW19789   3.846   3.999  14.420  0.4259  0.2120 -0.0853
 2718SOL    HW119790   3.774   4.061  14.429 -0.5727 -0.8802 -0.5942
 2718SOL    HW219791   3.847   3.960  14.332 -0.0052  1.7775 -0.7770
 2719SOL     OW19792   2.425   0.600  13.173  0.6972 -0.5959 -0.0161
 2719SOL    HW119793   2.422   0.580  13.266  1.2697 -0.5248  0.0217
 2719SOL    HW219794   2.334   0.593  13.145  0.5734  1.3546 -0.0859
 2720SOL     OW19795   3.512   2.332   7.784 -0.0414 -0.4303 -0.2012
 2720SOL    HW119796   3.497   2.237   7.789 -0.9456 -0.2613  0.2373
 2720SOL    HW219797   3.564   2.343   7.705 -2.9341 -3.6921 -2.5605
 2721SOL     OW19798   4.555   1.669   2.905 -0.2534 -0.2189 -0.2505
 2721SOL    HW119799   4.570   1.752   2.859  1.9269 -0.1109  0.6303
 2721SOL    HW219800   4.525   1.608   2.837 -1.0300  2.3843 -2.2670
 2722SOL     OW19801   3.241   3.232  10.018 -0.0578 -0.2275  0.0327
 2722SOL    HW119802   3.176   3.297   9.992  1.2355  0.8516 -0.5488
 2722SOL    HW219803   3.288   3.213   9.937 -1.4615 -1.3578 -0.5161
 2723SOL     OW19804   2.118   0.479  13.370  0.0752  0.1900 -0.0428
 2723SOL    HW119805   2.062   0.410  13.405 -0.1918  0.7817  0.6842
 2723SOL    HW219806   2.153   0.517  13.450  1.1647 -1.5312  0.3077
 2724SOL     OW19807   4.543   3.590   4.825 -0.0091 -0.5161 -0.0144
 2724SOL    HW119808   4.570   3.512   4.874  0.0274 -1.1309 -1.0139
 2724SOL    HW219809   4.583   3.658   4.880 -2.4533  0.7027  0.2636
 2725SOL     OW19810   0.525   2.690   8.130  0.1969 -0.2482  0.3969
 2725SOL    HW119811   0.573   2.729   8.203  1.8184 -0.5293 -0.5133
 2725SOL    HW219812   0.444   2.740   8.131 -1.2763 -2.6250 -0.8371
 2726SOL     OW19813   0.324   0.462   5.834 -0.0720 -0.3104  0.3415
 2726SOL    HW119814   0.416   0.450   5.812  0.8848  1.9732  3.2005
 2726SOL    HW219815   0.296   0.371   5.822  3.4836 -1.2518 -0.7085
 2727SOL     OW19816   0.093   1.019  15.902 -0.4425 -0.4402 -0.9369
 2727SOL    HW119817   0.063   1.000  15.814  1.1229  0.5031 -1.6792
 2727SOL    HW219818   0.044   1.096  15.930  0.4421  0.3287 -1.4939
 2728SOL     OW19819   2.130   2.448   7.304  0.1804  0.1013  0.8518
 2728SOL    HW119820   2.192   2.379   7.279  0.0166  0.2860 -0.0635
 2728SOL    HW219821   2.107   2.497   7.226 -0.4422 -0.8392  0.4456
 2729SOL     OW19822   1.090   0.646   8.004 -0.0205 -0.0545 -0.1690
 2729SOL    HW119823   1.086   0.741   8.003 -1.2305 -0.1060 -0.7576
 2729SOL    HW219824   1.083   0.620   7.912  0.6729 -1.4214  0.1616
 2730SOL     OW19825   2.713   1.039   0.398  0.1120 -0.3967 -0.0808
 2730SOL    HW119826   2.684   1.130   0.407  2.3575  0.0678  2.2950
 2730SOL    HW219827   2.803   1.059   0.424 -0.2217 -0.6899  1.3032
 2731SOL     OW19828   1.916   2.572   1.343  0.3174  0.2228 -0.2607
 2731SOL    HW119829   1.970   2.520   1.283  3.2032 -0.0584  2.5975
 2731SOL    HW219830   1.974   2.645   1.363  0.5254  0.3871 -1.4454
 2732SOL     OW19831   3.852   3.299   2.630 -0.0249  0.1064  0.3068
 2732SOL    HW119832   3.931   3.259   2.667 -0.0433 -0.3577 -0.1545
 2732SOL    HW219833   3.870   3.393   2.618 -1.2500  0.2297 -0.4938
 2733SOL     OW19834   0.341   4.574  10.976  0.2586  0.1400  0.4842
 2733SOL    HW119835   0.290   4.502  11.013  0.8689 -1.5026 -1.8690
 2733SOL    HW219836   0.426   4.574  11.019  0.1021  0.6101  0.7892
 2734SOL     OW19837   3.092   3.519   5.177  0.0738  0.3782  0.0412
 2734SOL    HW119838   3.045   3.457   5.233 -3.1974  1.1365 -1.8823
 2734SOL    HW219839   3.096   3.601   5.227  3.3929 -0.6935  1.4822
 2735SOL     OW19840   2.084   3.592   2.338 -0.3314  0.2961 -0.1542
 2735SOL    HW119841   2.146   3.665   2.327 -1.0853  0.7796 -1.1918
 2735SOL    HW219842   2.125   3.532   2.276  1.4900  0.6816  0.6607
 2736SOL     OW19843   3.116   3.410   1.663 -0.0832  0.3071  0.0410
 2736SOL    HW119844   3.166   3.387   1.742 -1.3998  1.4585  1.2082
 2736SOL    HW219845   3.029   3.374   1.679  0.9344 -1.1202  2.4066
 2737SOL     OW19846   0.824   1.013  17.136 -0.2268 -0.0727 -0.3632
 2737SOL    HW119847   0.731   0.992  17.133  0.0260 -1.3512  0.6024
 2737SOL    HW219848   0.867   0.937  17.176  0.0174 -0.2017 -0.8772
 2738SOL     OW19849   1.082   1.261   6.273  0.0905 -0.3711 -0.0415
 2738SOL    HW119850   1.018   1.331   6.262  1.3004  0.4944 -1.3615
 2738SOL    HW219851   1.035   1.195   6.325 -0.8182 -0.4244 -0.9323
 2739SOL     OW19852   2.732   4.053  14.542 -0.0980  0.5950 -0.2207
 2739SOL    HW119853   2.821   4.018  14.546 -1.1434 -1.9175  0.6630
 2739SOL    HW219854   2.710   4.051  14.635  2.7307  1.0866  0.4727
 2740SOL     OW19855   0.702   2.251   8.485 -0.0503 -0.0345 -0.2710
 2740SOL    HW119856   0.652   2.257   8.566  2.8112  0.5403  1.4409
 2740SOL    HW219857   0.655   2.182   8.438  0.9039  0.1935 -1.5395
 2741SOL     OW19858   1.663   1.263   4.555 -0.1113  0.4219  0.3487
 2741SOL    HW119859   1.747   1.219   4.540 -0.6982 -1.1003  1.4742
 2741SOL    HW219860   1.609   1.247   4.478 -2.2256  1.2298  1.6904
 2742SOL     OW19861   1.995   0.576  10.205 -0.1569  0.5781 -0.0219
 2742SOL    HW119862   1.990   0.671  10.211 -0.5019  0.5838 -0.4264
 2742SOL    HW219863   1.937   0.560  10.131  0.2358 -0.9161 -0.0038
 2743SOL     OW19864   1.505   1.014  13.898 -0.0960  0.0292  0.0333
 2743SOL    HW119865   1.549   0.931  13.885  1.9923  1.1369  0.0105
 2743SOL    HW219866   1.586   1.065  13.902  0.0750 -0.1558 -1.1626
 2744SOL     OW19867   1.030   2.505   7.252 -0.4050  0.0035  0.4687
 2744SOL    HW119868   0.986   2.472   7.173  1.4841 -0.9991 -0.1695
 2744SOL    HW219869   1.069   2.422   7.280  0.4356  0.1546 -0.2655
 2745SOL     OW19870   0.384   1.816  14.940  0.0304  0.4290 -0.4045
 2745SOL    HW119871   0.321   1.792  14.872  0.3150  2.3039 -1.3374
 2745SOL    HW219872   0.326   1.802  15.014  1.1424 -2.4268 -0.0621
 2746SOL     OW19873   0.238   2.155   6.547  0.3988  0.1028  0.6062
 2746SOL    HW119874   0.233   2.118   6.459  0.2669 -2.1736  1.5864
 2746SOL    HW219875   0.148   2.180   6.569 -1.0882 -3.4517 -1.4600
 2747SOL     OW19876   2.765   1.639   0.807 -0.0524 -0.0576 -0.5875
 2747SOL    HW119877   2.699   1.692   0.852  0.9185  0.2905  0.4281
 2747SOL    HW219878   2.725   1.641   0.720 -1.4896  0.4598  0.0737
 2748SOL     OW19879   1.171   4.566  11.493  0.2944 -0.1680 -0.1343
 2748SOL    HW119880   1.194   4.637  11.433  1.3070 -2.5734 -2.6097
 2748SOL    HW219881   1.233   4.590  11.562  0.5481 -2.2321  0.3555
 2749SOL     OW19882   4.344   0.082   2.585  0.2423 -0.0819  0.1244
 2749SOL    HW119883   4.257   0.088   2.545 -0.7873  0.3694  2.3639
 2749SOL    HW219884   4.399   0.060   2.510  1.2867  0.0471  0.8503
 2750SOL     OW19885   1.784   2.630  12.258  0.0202 -0.0313 -0.2928
 2750SOL    HW119886   1.689   2.631  12.265  0.1952 -1.0296  2.0051
 2750SOL    HW219887   1.801   2.707  12.203  0.2521 -0.7609 -1.2479
 2751SOL     OW19888   4.003   3.706   5.511 -0.2745 -0.4572 -0.4655
 2751SOL    HW119889   3.992   3.643   5.583  0.0991  0.9540  0.8318
 2751SOL    HW219890   3.933   3.667   5.459  0.5103 -0.5824 -1.4148
 2752SOL     OW19891   3.889   3.355   7.556 -0.5639  0.1869 -0.0301
 2752SOL    HW119892   3.944   3.399   7.491 -1.1980 -0.3658 -0.9446
 2752SOL    HW219893   3.801   3.365   7.519 -1.1328  1.7921  1.7292
 2753SOL     OW19894   1.706   2.275   5.304 -0.0963 -0.0344  0.3272
 2753SOL    HW119895   1.667   2.286   5.390 -0.3010 -0.9025  0.3415
 2753SOL    HW219896   1.675   2.188   5.277  0.7321 -0.1364 -0.3173
 2754SOL     OW19897   2.130   4.335   2.478 -0.3017 -0.3798  0.1323
 2754SOL    HW119898   2.066   4.390   2.522  0.1394 -0.1342  0.4615
 2754SOL    HW219899   2.089   4.249   2.468  1.1099 -1.2071  1.4230
 2755SOL     OW19900   1.852   3.625   2.506  0.2026  0.1164  0.4555
 2755SOL    HW119901   1.899   3.610   2.424 -3.7397 -3.2434 -1.1303
 2755SOL    HW219902   1.828   3.716   2.489  0.2995 -0.2509 -1.6585
 2756SOL     OW19903   2.613   1.928   2.315 -0.4322 -0.4731 -0.3586
 2756SOL    HW119904   2.581   2.002   2.366  0.4581 -1.1496  1.1704
 2756SOL    HW219905   2.529   1.889   2.290 -0.4481 -0.5882 -0.1237
 2757SOL     OW19906   1.913   4.335   6.218 -0.6710 -0.1210  0.4301
 2757SOL    HW119907   1.989   4.302   6.266 -0.0352  1.9218  0.8376
 2757SOL    HW219908   1.875   4.393   6.284 -2.4913 -1.7349  0.7993
 2758SOL     OW19909   1.044   4.654   7.744 -0.7453  0.0669 -0.1742
 2758SOL    HW119910   0.967   4.702   7.713 -0.7051  0.4496  0.3190
 2758SOL    HW219911   1.108   4.725   7.735 -0.8739  0.3560  1.1705
 2759SOL     OW19912   2.529   0.635  15.831  0.2178  0.0513 -0.0193
 2759SOL    HW119913   2.452   0.590  15.795  0.5078 -0.1796 -0.3521
 2759SOL    HW219914   2.524   0.606  15.922 -1.7913  0.4365 -0.0091
 2760SOL     OW19915   3.957   2.128   1.937  0.3405 -0.0663  0.3132
 2760SOL    HW119916   4.010   2.081   1.873  1.7891  2.5620 -0.4436
 2760SOL    HW219917   3.903   2.180   1.877 -0.3073 -0.2541  0.7342
 2761SOL     OW19918   0.389   2.721   6.034  0.2236  0.4084  0.3058
 2761SOL    HW119919   0.423   2.791   5.978 -1.3024 -0.3530 -1.5948
 2761SOL    HW219920   0.406   2.637   5.990  0.5483  0.0966  1.0324
 2762SOL     OW19921   1.557   1.055   5.369 -0.7058 -0.5069  0.3002
 2762SOL    HW119922   1.484   1.097   5.324 -0.9861 -0.4128  0.8390
 2762SOL    HW219923   1.547   1.083   5.460 -0.6546  2.5796 -0.6700
 2763SOL     OW19924   3.673   3.663   0.233 -0.2488 -0.2441  0.2419
 2763SOL    HW119925   3.651   3.642   0.142 -0.2490 -0.4536  0.2908
 2763SOL    HW219926   3.692   3.757   0.234  0.0611 -0.3175  0.8271
 2764SOL     OW19927   1.879   1.670   4.718  0.1668  0.1666 -0.2044
 2764SOL    HW119928   1.804   1.612   4.704  1.1463 -0.8811 -1.0558
 2764SOL    HW219929   1.843   1.738   4.775  0.4076  0.4089 -0.3429
 2765SOL     OW19930   2.541   3.241  15.387 -0.2885 -0.5729 -0.2314
 2765SOL    HW119931   2.580   3.197  15.312  0.6718  0.2630 -0.2200
 2765SOL    HW219932   2.523   3.329  15.357 -2.5410 -0.6464  0.9408
 2766SOL     OW19933   1.073   2.357   3.807 -0.5644 -0.3348  0.8756
 2766SOL    HW119934   1.034   2.317   3.884  0.4768 -0.7251  1.1997
 2766SOL    HW219935   1.164   2.331   3.820 -0.2105  0.7602  0.6482
 2767SOL     OW19936   1.306   3.352  15.230  0.1284  0.3694 -0.7152
 2767SOL    HW119937   1.229   3.309  15.267  0.4596  1.7338  1.5416
 2767SOL    HW219938   1.370   3.280  15.231  2.6507  2.6210 -0.5082
 2768SOL     OW19939   2.746   4.222   8.473 -0.2918 -0.8011 -0.4051
 2768SOL    HW119940   2.677   4.180   8.523 -0.3627 -0.1944  0.0044
 2768SOL    HW219941   2.792   4.269   8.542 -1.6495 -0.5227  0.2989
 2769SOL     OW19942   2.378   3.078  16.467 -0.0171  0.3593 -0.0197
 2769SOL    HW119943   2.351   3.167  16.489 -1.1270  0.0772 -0.2422
 2769SOL    HW219944   2.294   3.033  16.455  1.0516 -2.3818  2.5681
 2770SOL     OW19945   2.090   3.077  10.504 -0.7805  0.2112  0.0114
 2770SOL    HW119946   2.166   3.081  10.563 -1.3306  0.6648  0.6802
 2770SOL    HW219947   2.131   3.126  10.433  1.9296 -0.9061  0.7659
 2771SOL     OW19948   4.432   4.716  13.627  0.1902 -0.2556 -0.2932
 2771SOL    HW119949   4.394   4.634  13.594  2.5647 -1.2867 -0.4321
 2771SOL    HW219950   4.358   0.015  13.675 -0.4691 -0.8210 -0.8619
 2772SOL     OW19951   0.574   0.931   7.139  0.4750  0.1448  0.6520
 2772SOL    HW119952   0.570   0.846   7.184  0.1636 -0.3524 -0.3082
 2772SOL    HW219953   0.624   0.981   7.203  2.3130  0.4958 -1.0892
 2773SOL     OW19954   0.350   1.234   2.432 -0.3917 -0.3481 -0.1920
 2773SOL    HW119955   0.408   1.256   2.359 -0.0482 -0.6688 -0.0186
 2773SOL    HW219956   0.290   1.169   2.395 -1.4246  0.5620 -0.0994
 2774SOL     OW19957   0.779   4.727   3.501  0.3829 -0.0773 -0.2492
 2774SOL    HW119958   0.861   4.690   3.534 -0.2684 -0.6385  0.7276
 2774SOL    HW219959   0.768   0.062   3.562 -2.8355  1.1845 -2.3232
 2775SOL     OW19960   3.253   2.032  14.578  0.2408  0.2493 -0.1342
 2775SOL    HW119961   3.246   1.959  14.517 -0.6075  0.7839 -0.6736
 2775SOL    HW219962   3.289   2.101  14.521 -0.0929  0.0182 -0.6267
 2776SOL     OW19963   3.640   3.441   1.620  0.0357  0.2340 -0.3171
 2776SOL    HW119964   3.681   3.527   1.624 -1.6815  0.9921  0.7258
 2776SOL    HW219965   3.647   3.414   1.528 -2.1924 -0.9461 -0.1581
 2777SOL     OW19966   1.593   4.632   8.379 -0.2804 -0.4889  0.3041
 2777SOL    HW119967   1.554   4.575   8.314 -0.1008 -0.0401 -0.1934
 2777SOL    HW219968   1.682   4.637   8.343 -0.1928  0.3039  0.6283
 2778SOL     OW19969   3.330   2.717  12.833 -0.4892 -0.0958  0.3139
 2778SOL    HW119970   3.306   2.810  12.840  0.9130  0.4778 -2.6624
 2778SOL    HW219971   3.286   2.693  12.752  0.7730  1.1485 -0.7434
 2779SOL     OW19972   1.805   0.508  12.400 -0.2434  0.4707  0.4570
 2779SOL    HW119973   1.874   0.469  12.454 -1.5812  0.0259  1.8264
 2779SOL    HW219974   1.788   0.591  12.445 -1.3821  0.8986 -0.7715
 2780SOL     OW19975   3.908   3.689   1.956 -0.0343  0.0103  0.0126
 2780SOL    HW119976   3.957   3.637   2.019  1.3821  0.1983 -0.9367
 2780SOL    HW219977   3.975   3.682   1.888 -0.7938  0.5871 -0.7983
 2781SOL     OW19978   1.023   1.228  14.845  0.3130 -0.4503  0.1404
 2781SOL    HW119979   0.967   1.231  14.768  1.5831 -0.5187 -0.7929
 2781SOL    HW219980   0.949   1.228  14.905 -0.0129  1.1008 -0.2640
 2782SOL     OW19981   2.455   0.224   5.154 -0.4095 -0.0746  0.0827
 2782SOL    HW119982   2.501   0.203   5.235  0.0569  2.2405  0.3953
 2782SOL    HW219983   2.419   0.310   5.176 -0.1805 -0.1864  0.8827
 2783SOL     OW19984   4.673   1.577   6.788  0.0174 -0.3971 -0.1522
 2783SOL    HW119985   4.608   1.614   6.728 -1.1208 -1.3908  0.4698
 2783SOL    HW219986   4.671   1.484   6.764  0.3537 -0.8652  1.6186
 2784SOL     OW19987   0.138   2.456   4.187  0.0368  0.0994 -0.3493
 2784SOL    HW119988   0.114   2.364   4.181 -1.0264  0.2661  1.3429
 2784SOL    HW219989   0.181   2.476   4.103 -0.0175 -0.5865 -0.5396
 2785SOL     OW19990   0.895   0.295   4.754 -0.8470  0.0924 -0.3617
 2785SOL    HW119991   0.963   0.362   4.747  1.0802 -1.9681 -1.2128
 2785SOL    HW219992   0.881   0.270   4.662  0.6263  0.9789 -0.8273
 2786SOL     OW19993   3.477   2.438   8.021 -0.6924  0.2874 -0.1273
 2786SOL    HW119994   3.558   2.416   8.068 -1.7008  1.5957  2.2284
 2786SOL    HW219995   3.496   2.403   7.934 -1.9148 -0.3042 -0.1437
 2787SOL     OW19996   2.302   3.241   4.821 -0.2157 -0.4113  0.4175
 2787SOL    HW119997   2.266   3.154   4.836 -2.0176  0.2657  0.0049
 2787SOL    HW219998   2.229   3.297   4.847  0.6501  1.5212 -1.3017
 2788SOL     OW19999   4.561   0.186  17.397  0.2316  0.1799 -0.3883
 2788SOL    HW120000   4.503   0.244  17.445  0.8397 -0.3260  0.9570
 2788SOL    HW220001   4.607   0.244  17.336  3.3132 -2.4381 -0.6178
 2789SOL     OW20002   3.507   0.878   6.203  0.6045  0.4740  0.5816
 2789SOL    HW120003   3.511   0.785   6.224 -0.5077  0.0139 -1.2334
 2789SOL    HW220004   3.524   0.909   6.292 -1.4524 -2.0944  1.8384
 2790SOL     OW20005   0.649   2.303   7.178 -0.7675  0.5676  0.4883
 2790SOL    HW120006   0.580   2.267   7.122 -0.3572 -0.6927  0.7818
 2790SOL    HW220007   0.609   2.383   7.211 -3.9312 -1.5234  1.7192
 2791SOL     OW20008   2.410   1.090   8.945 -0.1785 -0.4721  0.1512
 2791SOL    HW120009   2.496   1.053   8.925  0.6732  1.2169  0.7446
 2791SOL    HW220010   2.426   1.184   8.940  0.5076 -0.5473  1.0541
 2792SOL     OW20011   2.930   2.539   4.892 -0.1471  0.6392  0.4478
 2792SOL    HW120012   2.961   2.458   4.932  2.3903  1.4998  0.2060
 2792SOL    HW220013   3.015   2.578   4.872  0.6127 -0.4712  1.5673
 2793SOL     OW20014   0.303   0.441   6.740 -0.0993 -0.4751  0.0547
 2793SOL    HW120015   0.374   0.502   6.721 -1.5924  1.3228  0.3729
 2793SOL    HW220016   0.338   0.404   6.821  0.1173  0.6716  0.4794
 2794SOL     OW20017   2.090   4.083   5.159 -0.3651 -0.4487  0.0751
 2794SOL    HW120018   2.090   3.988   5.172  0.5204 -0.6098 -1.0068
 2794SOL    HW220019   2.003   4.090   5.119 -0.1726  0.8037 -0.1271
 2795SOL     OW20020   3.318   0.527   7.681  0.3673 -0.7817 -0.1338
 2795SOL    HW120021   3.382   0.456   7.677  0.1440 -1.0416  1.0461
 2795SOL    HW220022   3.311   0.527   7.776 -4.2738 -2.1339 -0.4704
 2796SOL     OW20023   4.093   0.310   6.978  0.0929 -0.1929  0.1992
 2796SOL    HW120024   4.055   0.296   6.891  0.5327  0.0972 -0.0366
 2796SOL    HW220025   4.185   0.297   6.957 -0.2424 -1.5220 -0.5121
 2797SOL     OW20026   2.705   0.226  16.979  0.5142  0.3336  0.2464
 2797SOL    HW120027   2.734   0.165  16.911  0.6425 -3.0092  3.2539
 2797SOL    HW220028   2.774   0.213  17.044  0.8204 -0.3070 -0.2024
 2798SOL     OW20029   2.784   1.564   1.099  0.5428  0.1081 -0.2064
 2798SOL    HW120030   2.791   1.473   1.068  0.9700  0.0669  0.0146
 2798SOL    HW220031   2.772   1.605   1.013  0.9045 -2.7176 -1.6284
 2799SOL     OW20032   3.976   1.571   7.257 -0.3856 -0.6840  0.3592
 2799SOL    HW120033   3.970   1.515   7.180  0.1860 -0.4257  0.1231
 2799SOL    HW220034   3.884   1.593   7.266 -0.4019 -0.4825 -0.3171
 2800SOL     OW20035   1.109   2.016   6.567  0.0593  0.3841  0.4567
 2800SOL    HW120036   1.195   2.013   6.523 -0.3079 -0.2571 -0.2172
 2800SOL    HW220037   1.128   1.983   6.655  2.4401 -0.0505 -0.2156
 2801SOL     OW20038   1.616   0.363   7.425  0.0607 -0.8171  0.1892
 2801SOL    HW120039   1.653   0.277   7.407  1.9874 -0.2579  1.5105
 2801SOL    HW220040   1.677   0.419   7.378  1.4765  1.6773  4.9884
 2802SOL     OW20041   4.370   0.473   8.116  0.1690  0.0407  0.9018
 2802SOL    HW120042   4.406   0.407   8.175  3.0777 -0.0530 -0.9554
 2802SOL    HW220043   4.312   0.421   8.061  1.6387 -1.4173  0.7233
 2803SOL     OW20044   3.412   4.561   7.809 -0.0577 -0.3239  0.3389
 2803SOL    HW120045   3.459   4.486   7.846  0.8049 -0.4153 -0.9590
 2803SOL    HW220046   3.349   4.575   7.880  0.3630 -0.0811  0.6639
 2804SOL     OW20047   0.251   1.835   2.982 -0.4820 -0.5112 -0.6027
 2804SOL    HW120048   0.323   1.897   2.968  1.0347 -2.3235 -0.8821
 2804SOL    HW220049   0.265   1.803   3.071 -1.8501 -0.3736 -0.3404
 2805SOL     OW20050   1.235   2.380   8.409  0.0048 -0.6108 -0.5527
 2805SOL    HW120051   1.181   2.309   8.375 -3.0191  1.6418 -0.4851
 2805SOL    HW220052   1.316   2.338   8.437 -1.5793 -2.1906  1.5715
 2806SOL     OW20053   3.255   0.791   5.048 -0.7217  0.0869 -0.8989
 2806SOL    HW120054   3.279   0.884   5.040  1.3126 -0.3865 -0.3668
 2806SOL    HW220055   3.299   0.768   4.966 -0.5064 -1.5979 -0.3106
 2807SOL     OW20056   1.239   0.127   8.738  0.3682  0.2572  0.1163
 2807SOL    HW120057   1.294   0.128   8.660  0.8165 -0.4549  0.4318
 2807SOL    HW220058   1.210   0.036   8.740  2.3146 -0.3063  2.2040
 2808SOL     OW20059   1.629   2.061   3.634 -0.3966  0.4744  0.3114
 2808SOL    HW120060   1.545   2.102   3.613 -0.1563  0.1686 -1.2131
 2808SOL    HW220061   1.689   2.132   3.655  0.6326 -0.0617 -0.8279
 2809SOL     OW20062   1.741   2.878   2.347 -0.2442 -0.0560  0.4867
 2809SOL    HW120063   1.817   2.840   2.391 -0.9155  2.9473  4.3058
 2809SOL    HW220064   1.784   2.911   2.269 -0.3813  1.1502  0.9217
 2810SOL     OW20065   1.575   0.360   6.921  0.4228 -0.0622  0.0238
 2810SOL    HW120066   1.612   0.435   6.968 -0.7950  0.3230  0.3599
 2810SOL    HW220067   1.645   0.295   6.930  0.5721  0.3044  1.5952
 2811SOL     OW20068   4.645   0.688   2.293  0.1953  0.5807  0.2608
 2811SOL    HW120069   4.616   0.614   2.240  0.1274  0.1827  0.8459
 2811SOL    HW220070   0.002   0.691   2.284  0.1231 -1.8283 -1.2816
 2812SOL     OW20071   0.660   3.476   6.020 -0.5045  0.2493 -0.0057
 2812SOL    HW120072   0.600   3.510   5.953 -0.1476  1.5942  0.3526
 2812SOL    HW220073   0.663   3.549   6.083  0.2636  0.2409 -0.0314
 2813SOL     OW20074   2.247   2.686   4.817  0.2587 -0.4773  0.0807
 2813SOL    HW120075   2.338   2.675   4.791  0.2929  0.9327 -0.4445
 2813SOL    HW220076   2.228   2.748   4.746  3.6589 -0.7246 -1.0320
 2814SOL     OW20077   0.311   0.104   3.367  0.5347 -0.2124 -0.5496
 2814SOL    HW120078   0.366   0.135   3.439 -1.1356 -1.7054  1.3863
 2814SOL    HW220079   0.357   0.133   3.288 -0.2122  2.5476  0.0145
 2815SOL     OW20080   2.841   1.057   9.057  0.3482 -1.2270 -0.7043
 2815SOL    HW120081   2.902   0.986   9.036  2.7171  0.2634  1.0657
 2815SOL    HW220082   2.887   1.133   9.023 -0.3207 -1.5237 -2.2421
 2816SOL     OW20083   3.253   2.489   5.276  0.1693 -0.0343 -0.0391
 2816SOL    HW120084   3.162   2.462   5.267  0.1783  0.3216 -1.2371
 2816SOL    HW220085   3.289   2.442   5.201 -1.2598  1.3806 -1.6277
 2817SOL     OW20086   2.942   1.373   0.484  0.3018 -0.2010  0.0444
 2817SOL    HW120087   3.034   1.386   0.459  0.0144 -0.3161 -1.0855
 2817SOL    HW220088   2.894   1.405   0.407 -2.0097  0.2968  1.6968
 2818SOL     OW20089   4.088   4.392   4.204 -0.4519  0.1313 -0.0516
 2818SOL    HW120090   4.109   4.461   4.141  0.4426 -0.8906 -0.8687
 2818SOL    HW220091   4.065   4.323   4.142  1.4265  1.3861 -2.1170
 2819SOL     OW20092   1.416   2.618   2.789  0.7643  0.0332 -0.8583
 2819SOL    HW120093   1.426   2.692   2.730 -0.6153 -1.3993 -2.8748
 2819SOL    HW220094   1.370   2.549   2.742  2.9280 -0.9730 -1.5075
 2820SOL     OW20095   1.246   0.731   9.118  0.1888 -0.8419  0.2862
 2820SOL    HW120096   1.285   0.759   9.201  0.9690  0.2243 -0.4332
 2820SOL    HW220097   1.322   0.758   9.067 -0.2277 -0.1531  0.0249
 2821SOL     OW20098   2.253   0.413   6.559 -0.0372 -0.7970 -0.5770
 2821SOL    HW120099   2.256   0.318   6.569  1.2156 -0.8159 -1.1682
 2821SOL    HW220100   2.327   0.434   6.616 -0.5610 -1.4524  0.3566
 2822SOL     OW20101   4.599   2.691   5.257  0.3254 -0.3980  0.2046
 2822SOL    HW120102   4.528   2.724   5.202 -0.2752 -2.5655 -0.3221
 2822SOL    HW220103   4.612   2.602   5.224  1.1629  0.1281 -0.8902
 2823SOL     OW20104   2.464   0.650   3.774  0.1700 -0.1303  0.0204
 2823SOL    HW120105   2.510   0.729   3.746  0.5686 -0.2261  0.3925
 2823SOL    HW220106   2.461   0.601   3.692 -0.0097  0.7207 -0.4818
 2824SOL     OW20107   2.153   1.835  15.638  0.2617  0.3953 -0.0525
 2824SOL    HW120108   2.157   1.807  15.546 -0.9007  1.8972 -0.5540
 2824SOL    HW220109   2.224   1.783  15.676 -0.2417  0.3167  0.7699
 2825SOL     OW20110   1.371   2.931   5.254 -0.2472  0.1228 -0.0754
 2825SOL    HW120111   1.347   2.841   5.275  1.1286 -0.6637 -1.8957
 2825SOL    HW220112   1.289   2.978   5.237  0.4013  1.4130  0.3502
 2826SOL     OW20113   0.331   2.308   3.435  0.6173  0.1272  0.3393
 2826SOL    HW120114   0.244   2.348   3.438  0.0476 -0.9102 -2.0452
 2826SOL    HW220115   0.328   2.237   3.499 -0.4327 -0.0799  0.0566
 2827SOL     OW20116   2.349   2.013  15.208 -0.1048 -0.4268 -0.3728
 2827SOL    HW120117   2.262   2.020  15.168 -0.3311  0.5525  0.2931
 2827SOL    HW220118   2.338   2.024  15.302 -0.5770 -3.7988 -0.0093
 2828SOL     OW20119   0.646   0.918   9.105 -0.0827  0.2544 -0.7652
 2828SOL    HW120120   0.702   0.960   9.040  2.8750 -1.1323  0.8752
 2828SOL    HW220121   0.567   0.972   9.105 -0.7605 -0.7423 -1.5159
 2829SOL     OW20122   2.472   0.280   3.762 -0.1941  0.1489 -0.3477
 2829SOL    HW120123   2.540   0.306   3.825 -0.2500 -0.6341  0.0255
 2829SOL    HW220124   2.400   0.249   3.817  0.3005 -3.2252 -1.6326
 2830SOL     OW20125   3.985   0.205   2.381 -0.1201  0.2306  0.1526
 2830SOL    HW120126   3.960   0.220   2.472 -1.1339 -0.0718 -0.0790
 2830SOL    HW220127   4.021   0.289   2.353  0.1560  0.3907  1.0047
 2831SOL     OW20128   3.987   0.357   5.784  0.6333  0.4517 -0.8022
 2831SOL    HW120129   3.965   0.423   5.718 -0.2504 -0.4718 -1.4320
 2831SOL    HW220130   4.063   0.390   5.831 -0.5035  1.5386  0.2741
 2832SOL     OW20131   0.164   1.874   4.463 -0.2303 -0.3691 -0.0790
 2832SOL    HW120132   0.257   1.853   4.459  0.3738  2.2436  0.3725
 2832SOL    HW220133   0.157   1.872   4.559 -2.6346 -0.0612 -0.2576
 2833SOL     OW20134   0.561   1.231   3.257  0.0387 -0.2317  0.0451
 2833SOL    HW120135   0.509   1.158   3.290 -1.6761  1.5997  1.4295
 2833SOL    HW220136   0.653   1.207   3.263  0.4221  0.7008 -2.3346
 2834SOL     OW20137   0.698   3.162   0.071  0.3787 -0.0764 -0.0937
 2834SOL    HW120138   0.724   3.251   0.092 -0.7153  0.2754 -0.2547
 2834SOL    HW220139   0.712   3.118   0.155 -1.0039  0.4269  0.4018
 2835SOL     OW20140   2.202   1.758   1.698  0.1010  0.8037  0.0243
 2835SOL    HW120141   2.280   1.798   1.738 -0.4398 -0.5093  2.3502
 2835SOL    HW220142   2.215   1.668   1.727 -0.1455  0.8581  0.3041
 2836SOL     OW20143   3.836   4.644   5.502 -0.0888  0.4185  0.3430
 2836SOL    HW120144   3.777   4.717   5.520 -1.2613 -0.4455 -0.0082
 2836SOL    HW220145   3.833   4.627   5.407  2.2781  0.3900  0.2747
 2837SOL     OW20146   3.529   4.253   2.481  0.0696 -0.4384 -0.0331
 2837SOL    HW120147   3.469   4.179   2.471 -1.5336  0.7621  0.6466
 2837SOL    HW220148   3.472   4.320   2.519  1.5960  1.4718 -1.0758
 2838SOL     OW20149   1.194   4.345   3.896  0.5841  0.1542  0.6365
 2838SOL    HW120150   1.126   4.332   3.963  1.3643 -0.8947  1.2204
 2838SOL    HW220151   1.151   4.382   3.819 -0.8904 -0.6151  1.0793
 2839SOL     OW20152   3.854   4.669   8.861  0.5316 -0.0795  0.6201
 2839SOL    HW120153   3.806   4.725   8.922  1.1250 -0.6456  1.6063
 2839SOL    HW220154   3.883   4.597   8.917  0.0919  0.6040  1.7173
 2840SOL     OW20155   3.144   4.252   8.951  0.0006 -0.4568  0.4948
 2840SOL    HW120156   3.200   4.174   8.948  1.5700  0.7056 -0.6470
 2840SOL    HW220157   3.075   4.227   8.889  0.9957 -0.7869 -0.4823
 2841SOL     OW20158   0.766   0.880   9.653  0.0518  0.1673  0.1589
 2841SOL    HW120159   0.723   0.885   9.739 -0.0663 -0.3514  0.1330
 2841SOL    HW220160   0.844   0.934   9.662  0.2397 -0.2454  0.9857
 2842SOL     OW20161   4.272   2.073  11.364 -0.1866 -0.1998 -0.2410
 2842SOL    HW120162   4.208   2.075  11.435  1.6082  0.0853  1.3705
 2842SOL    HW220163   4.333   2.010  11.400  0.9724  1.2393  0.3237
 2843SOL     OW20164   3.979   1.241  10.463  0.3851 -0.0546  0.4603
 2843SOL    HW120165   3.895   1.196  10.470  0.8548 -1.2157 -1.7120
 2843SOL    HW220166   4.035   1.168  10.490 -0.9227 -0.6802  1.5152
 2844SOL     OW20167   2.027   4.398   6.516 -0.0966 -0.0823 -0.0169
 2844SOL    HW120168   2.100   4.376   6.573  0.4280  0.8670 -0.3184
 2844SOL    HW220169   2.078   4.441   6.447 -0.2313  2.1056  1.2691
 2845SOL     OW20170   4.497   2.471  11.825  0.3740  0.2659 -0.0728
 2845SOL    HW120171   4.464   2.542  11.880 -1.6794 -0.5744 -0.2378
 2845SOL    HW220172   4.492   2.501  11.734 -2.9349 -1.6649 -0.5021
 2846SOL     OW20173   0.762   0.107   6.741 -0.2178 -0.5213 -0.3017
 2846SOL    HW120174   0.690   0.159   6.707  2.0437  0.9618 -2.8566
 2846SOL    HW220175   0.733   0.078   6.827  0.7219  1.0482  0.5539
 2847SOL     OW20176   4.451   3.855   2.896 -0.7757  0.4028 -0.0087
 2847SOL    HW120177   4.503   3.774   2.896 -2.3273 -0.5834  1.9973
 2847SOL    HW220178   4.495   3.900   2.825  0.1792  0.7806  0.8248
 2848SOL     OW20179   2.419   0.241   9.295 -0.2983 -0.1210 -1.3082
 2848SOL    HW120180   2.498   0.258   9.347 -1.5325 -1.3847  0.9815
 2848SOL    HW220181   2.455   0.254   9.207 -0.0100  0.1821 -1.1418
 2849SOL     OW20182   0.521   2.408   0.721  0.0561 -0.0100 -0.4047
 2849SOL    HW120183   0.603   2.454   0.705  1.3506 -1.4908  1.8361
 2849SOL    HW220184   0.545   2.319   0.693  1.8115  0.2953  0.1194
 2850SOL     OW20185   3.306   1.921   2.710  0.5459  0.3473  0.5873
 2850SOL    HW120186   3.354   1.890   2.633 -0.3648  3.6992 -1.3682
 2850SOL    HW220187   3.271   2.008   2.686 -1.0969 -0.3594  0.4062
 2851SOL     OW20188   4.070   2.831   7.641  0.3362  0.1692  0.3375
 2851SOL    HW120189   4.135   2.858   7.577 -0.3127 -0.6897 -0.6704
 2851SOL    HW220190   4.031   2.916   7.660 -0.4103  0.1605 -1.1880
 2852SOL     OW20191   1.427   0.431   9.069  0.5592 -0.0962  0.0501
 2852SOL    HW120192   1.359   0.391   9.124  2.1041  0.7796  2.6053
 2852SOL    HW220193   1.452   0.502   9.128 -0.2666 -0.8685  1.3353
 2853SOL     OW20194   1.596   2.689  11.972 -0.5363  0.0633  0.8836
 2853SOL    HW120195   1.615   2.597  11.955  1.4003  0.6792 -0.3075
 2853SOL    HW220196   1.512   2.674  12.016 -1.8094 -0.6481 -1.7956
 2854SOL     OW20197   0.834   1.162   3.280  0.0835 -0.6685  0.2882
 2854SOL    HW120198   0.905   1.160   3.343  0.0829  2.4425  0.3856
 2854SOL    HW220199   0.857   1.244   3.236  0.2820 -0.5887  0.5465
 2855SOL     OW20200   3.496   4.381   8.304  0.0417 -0.3762  0.8665
 2855SOL    HW120201   3.405   4.404   8.324 -0.0938  0.6042 -0.8976
 2855SOL    HW220202   3.538   4.385   8.390  1.1942 -0.7442  0.3187
 2856SOL     OW20203   3.407   0.464   1.886  0.2762 -0.0406 -0.5811
 2856SOL    HW120204   3.319   0.455   1.849 -0.8307  0.2288  2.0043
 2856SOL    HW220205   3.381   0.514   1.963  2.0580 -0.6094  0.4098
 2857SOL     OW20206   3.306   1.744   0.608 -0.2251  0.1595  0.0226
 2857SOL    HW120207   3.257   1.664   0.629 -2.4867  1.6741  0.5262
 2857SOL    HW220208   3.238   1.785   0.553 -0.8714  0.3018  0.9401
 2858SOL     OW20209   0.260   1.601   4.758  0.1720  0.3388  0.0926
 2858SOL    HW120210   0.284   1.513   4.727 -2.7528 -0.6435  0.5995
 2858SOL    HW220211   0.307   1.654   4.694 -1.5869  1.4839 -0.2602
 2859SOL     OW20212   3.196   2.808   3.504 -0.1776 -0.0376  0.2545
 2859SOL    HW120213   3.156   2.741   3.560  1.0088 -1.4858 -0.6465
 2859SOL    HW220214   3.274   2.754   3.492 -1.3730 -1.8211  0.5891
 2860SOL     OW20215   2.245   0.746  11.320 -0.3091  0.2004 -0.0958
 2860SOL    HW120216   2.265   0.739  11.414  1.9055  2.2400 -0.4311
 2860SOL    HW220217   2.296   0.678  11.276  1.4274 -1.1196  3.9615
 2861SOL     OW20218   2.460   3.790  11.579  0.1248 -0.4737  0.7858
 2861SOL    HW120219   2.473   3.884  11.587  1.5869 -0.5688 -0.5728
 2861SOL    HW220220   2.546   3.757  11.605 -0.4056 -1.5670  1.1962
 2862SOL     OW20221   1.537   2.828   1.715  0.1005 -0.4695 -0.4136
 2862SOL    HW120222   1.563   2.809   1.805 -0.5485  0.7527  0.0300
 2862SOL    HW220223   1.476   2.754   1.717 -0.4227 -0.0209  0.1640
 2863SOL     OW20224   3.733   0.991   1.921  0.5592  0.0130  0.1151
 2863SOL    HW120225   3.714   0.897   1.929 -0.4209  0.1167 -1.0389
 2863SOL    HW220226   3.643   1.021   1.926  0.4617 -0.3636  0.6629
 2864SOL     OW20227   1.042   0.289  12.257 -0.1887  0.0009 -0.0442
 2864SOL    HW120228   0.983   0.361  12.280 -1.8118 -1.1387 -0.6378
 2864SOL    HW220229   1.010   0.229  12.324 -0.5617 -0.1271 -0.3401
 2865SOL     OW20230   2.803   0.428   3.000  0.0023 -0.4124 -0.2088
 2865SOL    HW120231   2.766   0.490   2.937 -0.8793 -1.4626 -0.7142
 2865SOL    HW220232   2.851   0.489   3.057 -1.2767 -0.3249  0.7805
 2866SOL     OW20233   0.056   0.181   1.103  0.2624  0.8333 -0.2427
 2866SOL    HW120234   0.047   0.103   1.048  0.2821  1.1118 -0.6441
 2866SOL    HW220235   0.138   0.169   1.152  0.3130 -0.8579 -0.7564
 2867SOL     OW20236   2.719   4.096   6.816  0.3707 -0.3425 -0.6723
 2867SOL    HW120237   2.780   4.142   6.760 -0.3205  1.5336  0.1097
 2867SOL    HW220238   2.763   4.110   6.900 -1.3569 -1.9446  0.5344
 2868SOL     OW20239   0.593   0.060   2.174 -0.1543  0.0131  0.2146
 2868SOL    HW120240   0.520   0.006   2.145 -1.8997  2.3041  0.3067
 2868SOL    HW220241   0.555   0.120   2.238 -0.7179 -0.2452  0.1117
 2869SOL     OW20242   3.164   0.842  10.195  0.3275 -0.1296 -0.0052
 2869SOL    HW120243   3.119   0.925  10.180  1.1293 -0.0825 -2.1022
 2869SOL    HW220244   3.155   0.840  10.290  0.4445 -2.7074 -0.0444
 2870SOL     OW20245   1.291   4.419  10.363  0.0303 -0.0914 -0.3346
 2870SOL    HW120246   1.312   4.326  10.376 -0.9913 -0.5926 -2.2255
 2870SOL    HW220247   1.196   4.416  10.356 -0.2131  1.1835  2.5964
 2871SOL     OW20248   0.647   1.301   2.463 -0.0509  0.3030 -0.2342
 2871SOL    HW120249   0.619   1.305   2.371  0.2639 -2.2499 -0.4411
 2871SOL    HW220250   0.567   1.274   2.509  0.4548 -1.2482 -0.2674
 2872SOL     OW20251   2.396   1.372   0.229 -0.0275 -0.6969 -0.4229
 2872SOL    HW120252   2.332   1.301   0.228 -0.4814 -0.3112  3.5729
 2872SOL    HW220253   2.459   1.346   0.296 -0.5308  0.4654  0.4838
 2873SOL     OW20254   3.710   3.343   1.356 -0.2522  0.0174 -0.2062
 2873SOL    HW120255   3.648   3.291   1.305  0.7435 -2.5958  1.2858
 2873SOL    HW220256   3.755   3.396   1.290  1.4624 -0.9043  0.2170
 2874SOL     OW20257   1.006   4.662   5.066 -0.7597  0.1644  0.1619
 2874SOL    HW120258   0.937   4.711   5.111 -1.4723  0.4858 -1.2723
 2874SOL    HW220259   0.990   4.693   4.976  1.4028  0.3038 -0.1663
 2875SOL     OW20260   1.925   3.436   6.628 -0.0708 -0.1670  0.2767
 2875SOL    HW120261   1.860   3.492   6.585  0.6236  0.4224 -0.0205
 2875SOL    HW220262   1.988   3.421   6.557 -0.3254 -1.3998  0.3246
 2876SOL     OW20263   0.126   2.301   6.197  0.4007  0.5243 -0.2256
 2876SOL    HW120264   0.148   2.394   6.199  2.1853  0.0982 -0.4496
 2876SOL    HW220265   0.188   2.267   6.132 -2.9857 -1.4735 -2.4563
 2877SOL     OW20266   2.807   1.051  10.721  1.0842 -0.2632 -0.6544
 2877SOL    HW120267   2.826   1.136  10.681 -1.3135 -0.1665 -1.5804
 2877SOL    HW220268   2.844   1.046  10.809  0.2167 -2.1002 -0.3943
 2878SOL     OW20269   2.284   2.729   0.041  0.0615  0.0753 -0.0703
 2878SOL    HW120270   2.360   2.685   0.001  0.6795 -0.7887  2.0764
 2878SOL    HW220271   2.256   2.671   0.112  1.3428 -1.1200 -0.5346
 2879SOL     OW20272   0.848   1.614   9.702  0.1149 -0.4538  0.2830
 2879SOL    HW120273   0.876   1.523   9.708  0.7739 -0.3523 -1.0724
 2879SOL    HW220274   0.895   1.629   9.620 -1.9560 -1.5211 -1.0923
 2880SOL     OW20275   2.868   4.152   6.504 -0.2302 -0.4443 -0.2175
 2880SOL    HW120276   2.772   4.151   6.501 -0.2505  0.4029 -0.0160
 2880SOL    HW220277   2.886   4.235   6.548 -1.7666 -0.7445  0.9972
 2881SOL     OW20278   2.145   1.200   6.048  0.0750  0.0422 -0.2394
 2881SOL    HW120279   2.066   1.152   6.025  0.3946 -1.3685  1.5777
 2881SOL    HW220280   2.202   1.173   5.976 -0.0695  1.2435 -0.7956
 2882SOL     OW20281   0.380   1.739   7.144  0.3983  0.5698 -0.0167
 2882SOL    HW120282   0.396   1.806   7.210 -1.5307  2.9840 -1.9896
 2882SOL    HW220283   0.470   1.711   7.134 -0.2236 -0.5677 -2.3789
 2883SOL     OW20284   3.563   0.168   7.910 -0.2252  0.0779  0.3614
 2883SOL    HW120285   3.649   0.179   7.949 -0.2700 -0.4440  0.6074
 2883SOL    HW220286   3.512   0.135   7.984 -0.7574  1.2379  0.5141
 2884SOL     OW20287   0.400   3.181   7.775 -0.3257 -0.7725  0.5832
 2884SOL    HW120288   0.452   3.215   7.848  0.7322  0.9118 -0.9615
 2884SOL    HW220289   0.318   3.174   7.823 -0.7233 -3.3104 -0.4983
 2885SOL     OW20290   1.809   3.922   4.513 -0.3000 -0.3742  0.2147
 2885SOL    HW120291   1.806   3.907   4.607 -1.4474  0.6360  0.3309
 2885SOL    HW220292   1.894   3.893   4.479  1.0968  0.6273  2.9298
 2886SOL     OW20293   2.017   1.696   2.726 -0.1745 -0.3100  0.1955
 2886SOL    HW120294   1.926   1.724   2.733 -0.2896 -0.8106  0.6944
 2886SOL    HW220295   2.054   1.759   2.664 -2.0277  1.7782  1.2306
 2887SOL     OW20296   2.490   2.572   8.976  0.5071 -0.5483 -0.1246
 2887SOL    HW120297   2.503   2.586   9.070 -0.1792  1.0990 -0.2653
 2887SOL    HW220298   2.409   2.520   8.976 -0.2092  0.5615  0.0471
 2888SOL     OW20299   2.815   1.738   8.270 -0.1750 -0.0608  0.1968
 2888SOL    HW120300   2.813   1.766   8.179 -0.5923 -0.3504  0.1142
 2888SOL    HW220301   2.723   1.730   8.294 -0.5337 -2.7059 -2.0615
 2889SOL     OW20302   3.946   1.500   5.564  1.1116  0.1581 -0.3466
 2889SOL    HW120303   3.990   1.499   5.648 -0.0721 -4.4141  0.2001
 2889SOL    HW220304   3.880   1.568   5.578  1.9903  0.6092  1.4983
 2890SOL     OW20305   0.274   0.175  12.645  0.2502 -0.3166  0.4808
 2890SOL    HW120306   0.254   0.256  12.597 -1.9718 -2.0231 -1.4281
 2890SOL    HW220307   0.268   0.214  12.732 -1.4663 -0.7694  0.5617
 2891SOL     OW20308   0.940   3.128   6.152  0.1045 -0.1541 -0.0508
 2891SOL    HW120309   0.930   3.033   6.140 -2.3903  0.1072 -0.0447
 2891SOL    HW220310   0.847   3.147   6.156  0.3313  0.4244  2.1874
 2892SOL     OW20311   1.399   2.341   5.073  0.2887  0.2263 -0.2730
 2892SOL    HW120312   1.317   2.383   5.047 -0.3449 -0.5670  0.4284
 2892SOL    HW220313   1.410   2.358   5.167  0.0472 -0.2321 -0.1589
 2893SOL     OW20314   0.947   2.601  11.638  0.0901  0.0978  0.4194
 2893SOL    HW120315   1.003   2.531  11.604 -0.3004  0.7519 -1.5521
 2893SOL    HW220316   0.871   2.602  11.580 -0.5588 -0.9120  1.2541
 2894SOL     OW20317   1.808   2.155   7.195 -0.4609  0.4338  0.1322
 2894SOL    HW120318   1.838   2.196   7.276  0.4871 -0.8495  0.4327
 2894SOL    HW220319   1.822   2.214   7.121  0.0101  1.1547  0.7955
 2895SOL     OW20320   1.039   4.506  17.142 -0.2868 -0.1674 -0.6676
 2895SOL    HW120321   1.108   4.443  17.162  0.3484  0.2398 -1.6082
 2895SOL    HW220322   0.964   4.446  17.139  0.1642 -0.8085  0.6690
 2896SOL     OW20323   4.130   2.601   1.461 -0.3679 -0.1904  0.5595
 2896SOL    HW120324   4.183   2.546   1.519 -0.1067  2.0839  2.4947
 2896SOL    HW220325   4.055   2.605   1.519 -0.1159 -0.9084  0.9361
 2897SOL     OW20326   0.905   3.853   5.762 -0.5908  0.2303  0.5675
 2897SOL    HW120327   0.941   3.764   5.767 -0.1770  0.4368  1.1445
 2897SOL    HW220328   0.967   3.901   5.816 -1.3271  0.7385  0.9573
 2898SOL     OW20329   2.321   2.358   4.651 -0.3960 -0.3065  0.2204
 2898SOL    HW120330   2.295   2.266   4.649 -1.0538 -0.0566 -3.0307
 2898SOL    HW220331   2.367   2.358   4.735 -3.3360  0.1651  1.8150
 2899SOL     OW20332   4.032   2.281  13.187 -0.3025  0.3293 -0.3874
 2899SOL    HW120333   4.064   2.219  13.253  1.2443  1.5525 -0.0117
 2899SOL    HW220334   4.067   2.360  13.227  1.5564 -0.9145  0.4331
 2900SOL     OW20335   3.381   4.283   5.545 -0.4314 -0.1375  0.0736
 2900SOL    HW120336   3.332   4.321   5.473  0.3812  1.6519  0.4607
 2900SOL    HW220337   3.466   4.326   5.533 -0.5237 -0.2989 -1.1047
 2901SOL     OW20338   1.257   4.035   3.834 -0.1818  0.3409 -0.1986
 2901SOL    HW120339   1.281   4.123   3.863 -3.0878  1.1850 -0.3351
 2901SOL    HW220340   1.301   3.976   3.895  0.5133  1.6126  0.5195
 2902SOL     OW20341   3.272   3.684   8.729 -0.3964 -0.6812  0.0508
 2902SOL    HW120342   3.258   3.716   8.640  1.0624  1.5419  0.6144
 2902SOL    HW220343   3.360   3.646   8.722  0.2300  0.7514  0.0326
 2903SOL     OW20344   1.318   0.260   9.301 -0.2790 -0.1576  0.5954
 2903SOL    HW120345   1.331   0.325   9.370 -1.1379 -0.7541  1.3049
 2903SOL    HW220346   1.372   0.183   9.318  0.0302  0.1388  0.9603
 2904SOL     OW20347   2.949   0.624   7.243  0.0246 -0.9968 -0.2307
 2904SOL    HW120348   2.973   0.573   7.320  2.5157  0.4248 -0.0742
 2904SOL    HW220349   2.920   0.550   7.190 -0.7163 -2.1996  1.8584
 2905SOL     OW20350   1.783   0.640   3.144  0.1260  0.2527  0.2533
 2905SOL    HW120351   1.718   0.710   3.159 -1.5764 -0.6402 -3.0454
 2905SOL    HW220352   1.769   0.581   3.218  2.1666  0.8841  1.1455
 2906SOL     OW20353   4.595   1.782   4.676 -0.4988  0.6599  0.2157
 2906SOL    HW120354   4.559   1.710   4.729 -1.3137  2.0332  1.5034
 2906SOL    HW220355   4.531   1.851   4.692 -3.8536 -2.4027  0.0693
 2907SOL     OW20356   1.721   4.364  12.691 -0.0364  0.3593  0.6129
 2907SOL    HW120357   1.732   4.276  12.726 -1.1331  0.3212  0.8586
 2907SOL    HW220358   1.647   4.353  12.631  0.2387 -0.4736  0.4317
 2908SOL     OW20359   3.980   0.786   4.900  0.1210  0.1239  0.8283
 2908SOL    HW120360   4.057   0.738   4.933 -0.3844 -1.7198 -0.6874
 2908SOL    HW220361   3.941   0.837   4.971  0.7838  1.9398 -0.1145
 2909SOL     OW20362   1.537   0.748   2.494  0.0448 -0.1437 -0.3748
 2909SOL    HW120363   1.574   0.735   2.407 -0.7806 -0.6771 -0.6480
 2909SOL    HW220364   1.617   0.740   2.546 -2.2963  0.5731  3.3770
 2910SOL     OW20365   1.724   3.543   6.478 -0.1133  0.3292 -0.0033
 2910SOL    HW120366   1.686   3.627   6.503  0.2069  0.2076  0.8823
 2910SOL    HW220367   1.645   3.489   6.474  1.8390 -2.4142 -1.3873
 2911SOL     OW20368   0.202   3.402  12.498  0.5838 -0.6891 -0.7052
 2911SOL    HW120369   0.263   3.466  12.534 -1.8683  0.9180  0.6149
 2911SOL    HW220370   0.168   3.456  12.427 -0.8242 -1.9243 -0.9853
 2912SOL     OW20371   3.510   1.754  13.583 -0.5705 -0.2284  0.0565
 2912SOL    HW120372   3.470   1.798  13.508  1.3059 -1.2611 -1.5573
 2912SOL    HW220373   3.527   1.669  13.543 -2.1497 -1.8678  2.8490
 2913SOL     OW20374   3.217   1.616   5.417 -0.0768  0.0908 -0.5967
 2913SOL    HW120375   3.214   1.535   5.366  1.2376 -0.2740 -0.1054
 2913SOL    HW220376   3.259   1.683   5.362 -0.7229 -0.3805 -1.6663
 2914SOL     OW20377   1.538   4.231   9.465 -0.5296 -0.5153 -0.5322
 2914SOL    HW120378   1.495   4.311   9.496 -0.8478 -0.9188  0.0683
 2914SOL    HW220379   1.495   4.167   9.521  0.4678 -0.0200  0.7968
 2915SOL     OW20380   3.342   0.138   7.712 -0.2417 -0.4823 -0.0599
 2915SOL    HW120381   3.263   0.090   7.737 -0.4412 -0.7904 -1.2886
 2915SOL    HW220382   3.406   0.128   7.783 -0.1943 -1.6657 -0.2625
 2916SOL     OW20383   0.183   1.163   5.880  0.0929  0.2817  0.2157
 2916SOL    HW120384   0.223   1.243   5.914  0.5351  0.4546 -0.7096
 2916SOL    HW220385   0.264   1.112   5.872 -0.6601 -0.5972 -1.7772
 2917SOL     OW20386   1.053   2.885   7.392  1.0745  0.3220 -0.2333
 2917SOL    HW120387   1.117   2.817   7.371  0.7218  0.4294 -1.6171
 2917SOL    HW220388   1.090   2.921   7.473  1.3353 -0.6784  0.0905
 2918SOL     OW20389   4.052   1.779   1.911 -0.0673 -0.3615  0.2830
 2918SOL    HW120390   4.093   1.839   1.850 -0.3500 -1.0133 -0.5425
 2918SOL    HW220391   4.100   1.698   1.894  1.0899  0.6480 -1.2135
 2919SOL     OW20392   4.344   2.730   3.674  0.1083 -0.4595  0.1354
 2919SOL    HW120393   4.423   2.689   3.639 -1.0992 -1.0534 -1.8761
 2919SOL    HW220394   4.387   2.810   3.705 -1.2987 -0.2358  1.5170
 2920SOL     OW20395   2.169   2.167  12.693  0.4147 -0.6297 -0.5069
 2920SOL    HW120396   2.140   2.204  12.610 -1.2834  2.1913  1.3394
 2920SOL    HW220397   2.239   2.228  12.714  0.7716 -1.2596  0.1634
 2921SOL     OW20398   2.974   4.059   6.284 -0.3073  0.6006  0.1889
 2921SOL    HW120399   2.899   4.083   6.229  0.5079 -0.7880 -1.4944
 2921SOL    HW220400   2.960   4.117   6.359 -1.5284 -1.2898  1.4335
 2922SOL     OW20401   4.201   0.349  10.252 -0.0194  0.5083  0.0615
 2922SOL    HW120402   4.296   0.356  10.265  0.0394 -1.1303  0.4849
 2922SOL    HW220403   4.180   0.441  10.240  1.3862  0.7491 -0.5608
 2923SOL     OW20404   4.603   0.022   7.530 -0.5328  0.1842 -0.1486
 2923SOL    HW120405   4.658   0.057   7.600 -1.9740  1.7453  0.2200
 2923SOL    HW220406   4.577   0.095   7.474  2.0907  1.3081  0.0975
 2924SOL     OW20407   0.069   4.274  13.783 -0.7052  0.5143  0.2520
 2924SOL    HW120408   4.737   4.334  13.811  0.9516  3.3574 -1.7139
 2924SOL    HW220409   0.143   4.293  13.840 -0.1686 -0.0322 -0.2671
 2925SOL     OW20410   3.545   3.989  17.488  0.0643  0.1555  0.1952
 2925SOL    HW120411   3.510   4.070  17.451  0.0704  1.0332  2.1665
 2925SOL    HW220412   3.465   3.939  17.508 -1.1496  0.4571 -3.8625
 2926SOL     OW20413   2.712   4.518  17.295 -0.0407 -0.1110 -0.1836
 2926SOL    HW120414   2.618   4.515  17.277  0.2734 -0.6744 -1.6969
 2926SOL    HW220415   2.743   4.434  17.263  1.8864 -0.2843  2.0955
 2927SOL     OW20416   0.039   4.572   8.931 -0.1056  0.1882 -0.1917
 2927SOL    HW120417   0.036   4.645   8.992  4.4802  0.4223 -0.2899
 2927SOL    HW220418   0.129   4.578   8.901  0.2846  0.2341  0.9861
 2928SOL     OW20419   1.456   0.899   5.881 -0.4943 -0.1142  0.3534
 2928SOL    HW120420   1.421   0.960   5.945 -0.5506  1.2761 -1.0109
 2928SOL    HW220421   1.386   0.839   5.855  1.3132 -1.6850 -0.9582
 2929SOL     OW20422   4.115   2.170  12.838  0.5538  0.4964  0.6288
 2929SOL    HW120423   4.201   2.213  12.835  0.6345  0.2529 -0.8305
 2929SOL    HW220424   4.061   2.221  12.778 -2.1715 -1.8019  1.1212
 2930SOL     OW20425   3.045   2.316   5.021 -0.1195  0.5058  0.3392
 2930SOL    HW120426   3.113   2.279   4.964  0.9678  1.4085  1.0346
 2930SOL    HW220427   3.016   2.246   5.080 -0.6981  1.2590  0.9439
 2931SOL     OW20428   1.647   0.615   0.508  0.0604 -0.5016  0.7213
 2931SOL    HW120429   1.698   0.551   0.557 -0.8271 -1.7826 -0.0349
 2931SOL    HW220430   1.651   0.578   0.420 -0.6816 -1.7248  1.2007
 2932SOL     OW20431   3.679   4.100   7.937 -0.0066 -0.2550 -0.4273
 2932SOL    HW120432   3.661   4.045   8.014  1.1144  0.7490  0.5630
 2932SOL    HW220433   3.772   4.112   7.955  0.3183  0.2994 -2.4623
 2933SOL     OW20434   4.247   0.097   8.235  0.2990  0.0286 -0.6055
 2933SOL    HW120435   4.231   0.036   8.163  0.5511 -1.0607  0.2558
 2933SOL    HW220436   4.280   0.043   8.307 -0.4134 -0.9837 -1.0489
 2934SOL     OW20437   3.477   3.928   5.462  0.1302  0.1960  0.3044
 2934SOL    HW120438   3.521   3.987   5.523 -0.1521 -0.8123  1.4908
 2934SOL    HW220439   3.503   3.843   5.497 -1.5597  0.1789  1.5182
 2935SOL     OW20440   0.171   3.235   7.952 -0.2316 -0.2918  0.4949
 2935SOL    HW120441   0.143   3.220   8.042 -1.0480 -2.9888 -0.1952
 2935SOL    HW220442   0.166   3.331   7.956 -0.3941 -0.2800  0.0748
 2936SOL     OW20443   1.784   0.952  11.144 -0.5979 -0.9647  0.2910
 2936SOL    HW120444   1.750   1.002  11.070 -0.4383 -1.0815  0.1394
 2936SOL    HW220445   1.831   0.879  11.105  2.4743 -0.6391  3.3622
 2937SOL     OW20446   2.824   2.937  15.856  0.4835  0.1275 -0.8806
 2937SOL    HW120447   2.878   2.983  15.792 -0.2285  0.9670 -0.8772
 2937SOL    HW220448   2.795   3.006  15.916  0.8858  0.6058 -1.2461
 2938SOL     OW20449   2.186   2.110  15.820 -0.2911 -0.2469  0.3614
 2938SOL    HW120450   2.144   2.162  15.750 -0.6500  0.0906  0.8254
 2938SOL    HW220451   2.275   2.143  15.810 -0.2313 -0.6361 -0.3481
 2939SOL     OW20452   1.929   0.927  17.458  0.5868 -0.0706  0.0542
 2939SOL    HW120453   1.849   0.922  17.407  0.6871 -0.1226 -0.0997
 2939SOL    HW220454   1.945   1.021  17.455  0.9424 -0.1423 -0.3151
 2940SOL     OW20455   2.581   1.370   7.780 -0.4139 -0.3101 -0.6003
 2940SOL    HW120456   2.533   1.442   7.821 -0.9540 -0.7021 -0.5431
 2940SOL    HW220457   2.594   1.313   7.856  1.0308  1.5067  0.5299
 2941SOL     OW20458   0.772   2.981  15.118  0.0731 -0.0295 -0.5411
 2941SOL    HW120459   0.812   3.007  15.035  0.0348  0.0463 -0.5357
 2941SOL    HW220460   0.819   2.900  15.136 -0.2712 -0.9219 -3.7007
 2942SOL     OW20461   1.590   3.586  16.726  0.3029  0.0254  0.4252
 2942SOL    HW120462   1.614   3.677  16.743 -0.6845  0.7455 -2.0322
 2942SOL    HW220463   1.606   3.571  16.632  1.4792  0.8272  0.4945
 2943SOL     OW20464   2.396   3.885   6.439  0.5724 -0.1492 -0.1631
 2943SOL    HW120465   2.357   3.909   6.355 -1.3341 -1.2464  0.4169
 2943SOL    HW220466   2.343   3.936   6.500  3.6992 -0.4546  2.8625
 2944SOL     OW20467   2.699   2.826   7.432  0.0062 -0.0206 -0.4084
 2944SOL    HW120468   2.780   2.784   7.462  0.1582  1.1723  0.8268
 2944SOL    HW220469   2.673   2.761   7.367 -0.8778 -0.4775  0.3930
 2945SOL     OW20470   2.383   0.513  11.706 -0.4157 -0.7659 -0.1973
 2945SOL    HW120471   2.474   0.541  11.709 -0.8630  0.7716 -1.0962
 2945SOL    HW220472   2.353   0.568  11.634  3.3921  0.7519 -0.5788
 2946SOL     OW20473   1.798   2.417   8.143  0.2607 -0.2923  0.3194
 2946SOL    HW120474   1.886   2.453   8.131 -0.6024  1.7563  0.2664
 2946SOL    HW220475   1.734   2.488   8.139 -1.4698 -1.8884 -1.0471
 2947SOL     OW20476   0.099   3.792   3.761 -0.9433  0.4835  0.1169
 2947SOL    HW120477   0.046   3.765   3.837  1.2455 -2.3717  0.6321
 2947SOL    HW220478   0.150   3.711   3.757 -1.9599 -0.1052 -0.9892
 2948SOL     OW20479   1.607   2.924  12.757  0.6876 -0.5356  0.1765
 2948SOL    HW120480   1.670   2.857  12.782 -0.5300 -1.3054  1.2075
 2948SOL    HW220481   1.532   2.867  12.774  0.4627  0.0834  1.2073
 2949SOL     OW20482   4.606   2.781  11.950 -0.2214  0.5833 -0.2556
 2949SOL    HW120483   4.627   2.875  11.952  0.9944  0.2930  1.6933
 2949SOL    HW220484   4.621   2.777  11.856 -1.0260  0.3094 -0.3653
 2950SOL     OW20485   4.283   4.030   6.755  0.6676 -0.3557  0.7379
 2950SOL    HW120486   4.264   3.951   6.806  0.1182 -0.0788  0.9564
 2950SOL    HW220487   4.273   4.007   6.663  0.8380 -0.7443  0.8168
 2951SOL     OW20488   2.147   3.912  15.910 -0.0318 -0.6312  0.2782
 2951SOL    HW120489   2.207   3.923  15.836 -1.5385  4.2512 -0.2227
 2951SOL    HW220490   2.090   3.843  15.875 -0.6015 -0.1991  0.3522
 2952SOL     OW20491   3.468   3.887   4.465  0.3704 -0.4983 -0.4143
 2952SOL    HW120492   3.476   3.980   4.483 -0.6311 -0.8672  1.9604
 2952SOL    HW220493   3.396   3.861   4.523  1.1766 -0.7730  0.4672
 2953SOL     OW20494   1.621   1.530   7.063  0.0970 -0.0481 -0.4294
 2953SOL    HW120495   1.587   1.458   7.115  0.3343  0.4869  0.4649
 2953SOL    HW220496   1.699   1.555   7.111 -0.1443 -2.9970  1.4612
 2954SOL     OW20497   1.733   3.095  16.941  0.4668  0.1158  0.3724
 2954SOL    HW120498   1.664   3.056  16.888 -0.8802  2.9999  0.0225
 2954SOL    HW220499   1.701   3.185  16.953  2.1709  0.7689  0.0457
 2955SOL     OW20500   0.636   0.602   7.636  0.1748  0.0095  0.0691
 2955SOL    HW120501   0.548   0.611   7.674 -0.2275 -0.6084 -0.7310
 2955SOL    HW220502   0.701   0.634   7.699 -0.4185  3.0813 -0.9250
 2956SOL     OW20503   2.365   4.025  10.364 -0.1410 -0.0635 -0.0177
 2956SOL    HW120504   2.407   4.003  10.447 -1.0804 -1.5574  0.0507
 2956SOL    HW220505   2.270   4.028  10.380 -0.4654 -1.5303 -1.7839
 2957SOL     OW20506   3.149   4.225   6.775  0.2295  0.3111 -0.0641
 2957SOL    HW120507   3.180   4.259   6.691  2.9368  2.3992  1.8042
 2957SOL    HW220508   3.174   4.133   6.762  1.8068  0.9920 -1.7368
 2958SOL     OW20509   3.027   0.393  14.543  0.3055  0.3509 -0.3573
 2958SOL    HW120510   3.111   0.349  14.532  0.7864  1.4150 -0.9564
 2958SOL    HW220511   3.054   0.479  14.511  3.5070  0.6149  3.0198
 2959SOL     OW20512   1.725   0.117   9.228 -0.6440  0.2288  0.3604
 2959SOL    HW120513   1.767   0.079   9.305 -2.2296  0.8677  1.5519
 2959SOL    HW220514   1.636   0.112   9.263 -0.7779 -0.2643 -0.0496
 2960SOL     OW20515   2.599   1.108   3.762  0.4020 -0.1028 -0.2558
 2960SOL    HW120516   2.650   1.076   3.836  1.4994 -0.7168 -1.2738
 2960SOL    HW220517   2.616   1.200   3.779 -0.8788  0.0494  0.2307
 2961SOL     OW20518   2.316   2.836   5.716  0.3961 -0.1031  0.4576
 2961SOL    HW120519   2.355   2.892   5.649  2.7697 -2.0253  0.2311
 2961SOL    HW220520   2.391   2.784   5.743 -2.1539 -3.9002  0.2193
 2962SOL     OW20521   1.242   0.451   0.895 -0.4859  0.3899  0.2698
 2962SOL    HW120522   1.321   0.484   0.851  0.2095  1.5403  2.3695
 2962SOL    HW220523   1.169   0.484   0.843  1.3917  0.3738 -2.4001
 2963SOL     OW20524   2.162   1.281   7.754  0.2302 -0.2468  0.4569
 2963SOL    HW120525   2.171   1.317   7.842 -0.7627 -0.6020  0.7041
 2963SOL    HW220526   2.221   1.206   7.761  0.1365 -0.3125  0.5434
 2964SOL     OW20527   2.690   0.072   0.163  0.2028  0.2549 -0.1154
 2964SOL    HW120528   2.767   0.129   0.162  1.0367 -0.8964 -1.8348
 2964SOL    HW220529   2.719   4.733   0.114 -1.5322 -0.3896 -0.1291
 2965SOL     OW20530   3.844   4.335   5.389  0.7707 -0.0613  0.0903
 2965SOL    HW120531   3.848   4.241   5.370  0.0755 -0.7768  3.4677
 2965SOL    HW220532   3.937   4.339   5.412  0.7172  0.0477  0.2827
 2966SOL     OW20533   1.962   4.295   8.535  0.2931 -0.1123 -0.1377
 2966SOL    HW120534   1.916   4.361   8.587  0.0871  0.5078 -1.1003
 2966SOL    HW220535   1.898   4.225   8.524  0.5619 -0.7073  2.2446
 2967SOL     OW20536   0.551   4.247   4.060 -0.1083 -0.5047 -0.1080
 2967SOL    HW120537   0.560   4.275   4.151  0.6326 -2.1099  0.2983
 2967SOL    HW220538   0.463   4.209   4.063 -0.4933  0.3976 -0.0054
 2968SOL     OW20539   1.448   3.363  12.054  0.0609  0.0485 -0.7169
 2968SOL    HW120540   1.356   3.369  12.077  0.2418 -0.4221  0.1201
 2968SOL    HW220541   1.468   3.405  11.970 -1.9165  1.3757 -0.5163
 2969SOL     OW20542   1.626   4.690   3.571 -0.1835 -0.3383 -0.1018
 2969SOL    HW120543   1.620   4.597   3.554  2.6574 -0.4253 -0.7124
 2969SOL    HW220544   1.563   4.722   3.507 -0.1137 -0.9852 -0.4970
 2970SOL     OW20545   4.451   1.642   4.229  0.1499  0.2253 -0.2405
 2970SOL    HW120546   4.429   1.716   4.285 -0.4843  0.3087 -0.6021
 2970SOL    HW220547   4.522   1.599   4.277  1.2211 -0.2773 -2.2837
 2971SOL     OW20548   1.181   4.551   0.392  0.2116 -0.0267  0.6467
 2971SOL    HW120549   1.085   4.544   0.400  0.2373 -1.0974  0.0359
 2971SOL    HW220550   1.181   4.642   0.421 -4.0286  0.7658 -1.8454
 2972SOL     OW20551   2.028   0.580  11.737 -0.2678  0.2329 -0.1969
 2972SOL    HW120552   1.937   0.606  11.751 -0.0564  0.7035  0.3014
 2972SOL    HW220553   2.073   0.661  11.759 -1.3837  1.2734 -1.6835
 2973SOL     OW20554   0.106   1.943   9.972  0.2735 -0.4070 -0.1032
 2973SOL    HW120555   0.047   1.869   9.960 -0.0141  0.0041 -1.2311
 2973SOL    HW220556   0.096   1.991   9.889 -0.9256 -0.4915 -0.0015
 2974SOL     OW20557   2.563   1.683  16.000 -0.5464 -0.5369 -0.6168
 2974SOL    HW120558   2.593   1.599  15.967 -0.1336 -0.8857  0.6304
 2974SOL    HW220559   2.533   1.670  16.090  1.9140 -3.1468 -0.1524
 2975SOL     OW20560   1.308   3.766  10.785  0.0599  0.0192  0.2119
 2975SOL    HW120561   1.384   3.823  10.800  0.0459  0.2480 -0.6140
 2975SOL    HW220562   1.346   3.693  10.833  1.0492  1.0814  1.0421
 2976SOL     OW20563   0.075   4.438  17.026 -0.7283 -0.5310  0.5126
 2976SOL    HW120564   4.723   4.470  17.036  0.0129  0.9727  2.4660
 2976SOL    HW220565   0.108   4.524  16.998 -3.4818  0.2853 -0.2070
 2977SOL     OW20566   3.090   1.559   1.091  0.2980  0.0418 -0.0198
 2977SOL    HW120567   3.016   1.498   1.081 -2.3181  3.2823 -0.3461
 2977SOL    HW220568   3.078   1.631   1.030 -1.0620  0.2016  0.4358
 2978SOL     OW20569   1.247   3.031  12.016  0.0951 -0.3646 -0.4738
 2978SOL    HW120570   1.200   3.029  11.932 -0.9306  0.4675  0.0949
 2978SOL    HW220571   1.203   3.088  12.078 -0.9006 -2.6686  0.9615
 2979SOL     OW20572   1.075   4.639   2.108  0.6832 -0.0545  0.3831
 2979SOL    HW120573   1.030   4.655   2.191  1.0058 -3.8254  1.2399
 2979SOL    HW220574   1.014   4.670   2.041  0.9183  1.2996  0.7755
 2980SOL     OW20575   0.854   2.371   2.522  0.4701  0.0281  0.0325
 2980SOL    HW120576   0.881   2.452   2.565  1.6002 -1.5854  2.3289
 2980SOL    HW220577   0.775   2.385   2.469  0.9817 -0.8629 -0.9678
 2981SOL     OW20578   1.378   3.529   3.178 -1.2286  1.0491 -0.0827
 2981SOL    HW120579   1.345   3.509   3.090  0.6416 -0.1000 -0.5028
 2981SOL    HW220580   1.468   3.554   3.157 -0.6104  0.0413  1.3680
 2982SOL     OW20581   0.469   2.139   6.241  0.5713  0.0074  0.5272
 2982SOL    HW120582   0.489   2.221   6.195 -0.6742 -1.3562 -2.4474
 2982SOL    HW220583   0.489   2.078   6.171  0.1293  1.7994 -1.1643
 2983SOL     OW20584   3.946   0.390   5.071  0.1408  0.4017 -0.5056
 2983SOL    HW120585   3.940   0.460   5.136  2.1862 -1.5583  1.7963
 2983SOL    HW220586   3.852   0.376   5.055 -0.0793  0.4949  0.6961
 2984SOL     OW20587   3.376   4.474   6.166 -0.4393 -0.0327 -0.2422
 2984SOL    HW120588   3.446   4.442   6.108  0.8700 -1.3303  2.0489
 2984SOL    HW220589   3.395   4.567   6.180 -0.1733 -0.0898 -0.2161
 2985SOL     OW20590   0.521   3.767   3.568 -1.2271 -0.6738  0.1036
 2985SOL    HW120591   0.603   3.812   3.585 -1.2767 -0.3803 -0.4643
 2985SOL    HW220592   0.504   3.725   3.653 -0.9533 -1.7432 -0.3717
 2986SOL     OW20593   1.061   2.458  11.299 -0.4624  0.2636 -0.2824
 2986SOL    HW120594   0.973   2.427  11.279 -0.7443 -0.9481  2.7984
 2986SOL    HW220595   1.092   2.482  11.212 -1.8180  0.4151 -0.7226
 2987SOL     OW20596   4.276   4.222   6.937  0.0631 -0.2540  0.0385
 2987SOL    HW120597   4.343   4.205   6.870  1.5629 -1.6980  1.9028
 2987SOL    HW220598   4.237   4.135   6.932 -1.6666  0.5553 -0.4322
 2988SOL     OW20599   2.951   1.442   2.522 -0.0722  0.1315  0.4153
 2988SOL    HW120600   2.903   1.431   2.440  0.2281 -1.5353  0.4596
 2988SOL    HW220601   2.977   1.531   2.497 -0.9735 -0.2079 -1.7904
 2989SOL     OW20602   1.012   1.154  11.558  0.5620  0.1659 -0.7907
 2989SOL    HW120603   1.001   1.060  11.571 -1.5424  0.4500 -0.6158
 2989SOL    HW220604   1.083   1.165  11.622  0.7666  0.9891 -1.1492
 2990SOL     OW20605   4.223   1.985  15.758 -0.1800 -0.5045 -0.0567
 2990SOL    HW120606   4.216   1.998  15.853  0.0752 -0.4971 -0.0400
 2990SOL    HW220607   4.130   1.970  15.740 -0.3115 -0.0060  0.2089
 2991SOL     OW20608   0.891   0.724  14.730  0.7291 -0.7385 -0.3537
 2991SOL    HW120609   0.956   0.792  14.710 -0.3194  0.8049  1.4628
 2991SOL    HW220610   0.944   0.645  14.718  2.8559  0.8463 -1.3951
 2992SOL     OW20611   3.085   3.176  15.865  0.0182 -0.1655 -0.0180
 2992SOL    HW120612   3.135   3.257  15.866  2.9898 -2.0048  0.8670
 2992SOL    HW220613   3.022   3.212  15.928 -0.8813 -0.1275 -0.9588
 2993SOL     OW20614   3.210   3.926   7.150 -0.3767 -0.0790 -0.3455
 2993SOL    HW120615   3.273   3.983   7.106  1.0958 -0.9267  0.6548
 2993SOL    HW220616   3.216   3.948   7.243 -0.4763  0.5734 -0.4946
 2994SOL     OW20617   0.342   3.631   1.800 -0.4370 -0.1216  0.0154
 2994SOL    HW120618   0.285   3.610   1.726  0.8593 -0.3528 -0.9152
 2994SOL    HW220619   0.426   3.601   1.767 -0.7311 -1.0404  0.0841
 2995SOL     OW20620   4.035   2.006   4.215 -0.9208  0.0430 -0.5564
 2995SOL    HW120621   4.045   1.911   4.224  0.1845  0.1472 -0.6435
 2995SOL    HW220622   4.046   2.012   4.120 -0.5122  2.7472 -0.3454
 2996SOL     OW20623   0.460   4.499   6.988 -0.0867  0.1855  0.5283
 2996SOL    HW120624   0.394   4.512   6.920  0.7091 -2.3883 -0.7451
 2996SOL    HW220625   0.442   4.413   7.027 -1.9198  0.7231  0.8734
 2997SOL     OW20626   4.110   2.777   0.428  0.3782  0.2949 -0.9093
 2997SOL    HW120627   4.101   2.688   0.460  0.1166  1.3362  1.9211
 2997SOL    HW220628   4.150   2.823   0.502  1.0626  1.4289 -1.9824
 2998SOL     OW20629   3.601   1.538   8.478  0.7654 -0.0158 -0.4834
 2998SOL    HW120630   3.547   1.462   8.457  0.7253 -0.0692 -0.1947
 2998SOL    HW220631   3.597   1.530   8.573 -1.2052  0.0329 -0.5773
 2999SOL     OW20632   3.134   2.441  16.520  0.2144 -0.0584 -0.6365
 2999SOL    HW120633   3.146   2.350  16.493  1.9381 -0.0140 -0.0433
 2999SOL    HW220634   3.070   2.466  16.454 -0.4734  0.1657  0.1187
 3000SOL     OW20635   3.010   1.325   8.196 -0.4341 -0.5028  1.3260
 3000SOL    HW120636   3.029   1.396   8.135 -0.8510 -0.9415  0.6828
 3000SOL    HW220637   2.973   1.371   8.271 -0.2348  0.9959  0.4867
 3001SOL     OW20638   2.043   1.819  14.497 -0.2972  0.2655  0.1184
 3001SOL    HW120639   2.021   1.826  14.590 -1.0574  2.6551 -0.2492
 3001SOL    HW220640   2.093   1.896  14.474 -0.9170  0.6122 -0.0797
 3002SOL     OW20641   3.408   3.022   9.186  0.1247  0.1985  0.6443
 3002SOL    HW120642   3.397   3.117   9.184 -0.4653  0.0666 -1.4586
 3002SOL    HW220643   3.318   3.000   9.160  0.7637 -1.2238 -0.3192
 3003SOL     OW20644   4.342   4.617   4.674 -0.0842  0.2743 -0.4826
 3003SOL    HW120645   4.272   4.646   4.732  0.1821 -1.2572  0.6106
 3003SOL    HW220646   4.402   4.587   4.742  0.2536  0.3639 -0.7380
 3004SOL     OW20647   0.111   4.646   7.392  0.9246  0.0907 -0.0323
 3004SOL    HW120648   0.096   4.563   7.437 -0.5569  1.0024  1.1701
 3004SOL    HW220649   0.034   4.695   7.423  2.4496  1.2942  1.8057
 3005SOL     OW20650   0.087   2.964   4.116 -0.6259 -0.3940  0.7758
 3005SOL    HW120651   0.060   2.875   4.139 -2.4456  0.0678  0.4695
 3005SOL    HW220652   0.026   2.981   4.043  1.4882 -0.0215 -0.9067
 3006SOL     OW20653   3.324   2.496   1.738 -0.0192  0.5645  0.1259
 3006SOL    HW120654   3.315   2.549   1.659 -0.9630  0.6559  0.2905
 3006SOL    HW220655   3.311   2.406   1.707 -0.2130  1.5320 -2.5780
 3007SOL     OW20656   0.903   1.054   6.872 -0.1127  0.2907  0.2267
 3007SOL    HW120657   0.854   0.971   6.874 -0.2467  0.2967 -2.7269
 3007SOL    HW220658   0.861   1.109   6.938  0.4206  0.4706  0.4107
 3008SOL     OW20659   0.881   3.498   5.246  0.2872  0.2065 -0.3024
 3008SOL    HW120660   0.791   3.530   5.238  0.4888  0.8803  0.1277
 3008SOL    HW220661   0.858   3.411   5.215 -0.7060  0.1986  0.4365
 3009SOL     OW20662   3.159   0.810  12.191 -0.1771 -0.0402  0.2100
 3009SOL    HW120663   3.141   0.876  12.123 -0.9155  0.6735  1.0826
 3009SOL    HW220664   3.121   0.737  12.143  0.6052 -0.2724 -0.0437
 3010SOL     OW20665   1.075   3.031  12.453  0.2652  0.0255  0.1748
 3010SOL    HW120666   1.133   3.023  12.377  0.7051  0.5900  0.4489
 3010SOL    HW220667   1.135   3.078  12.512 -0.2654  0.3108  0.4865
 3011SOL     OW20668   3.423   4.298   1.820  0.4980  0.0482 -0.1577
 3011SOL    HW120669   3.505   4.251   1.808 -0.3232 -1.2098 -0.9090
 3011SOL    HW220670   3.362   4.230   1.793  1.4575  0.5532 -3.5957
 3012SOL     OW20671   3.789   4.297   5.695 -0.5071  0.0259 -0.4173
 3012SOL    HW120672   3.862   4.359   5.690 -0.3473  0.1298  3.0737
 3012SOL    HW220673   3.728   4.330   5.761 -1.8470 -2.9857 -0.1333
 3013SOL     OW20674   2.342   1.036   7.830 -0.5371  0.3401  0.1121
 3013SOL    HW120675   2.284   0.966   7.801  1.6129 -1.0794 -0.8218
 3013SOL    HW220676   2.340   1.005   7.921  0.0727  0.3083  0.1180
 3014SOL     OW20677   1.986   1.774   9.382  0.2109  0.0711  0.9781
 3014SOL    HW120678   1.949   1.854   9.345 -0.0282 -0.4323  0.1144
 3014SOL    HW220679   1.971   1.704   9.318 -3.0098 -0.3540  2.1916
 3015SOL     OW20680   1.552   3.235   6.761  0.3129  0.4921  0.2262
 3015SOL    HW120681   1.536   3.287   6.682 -0.9684 -1.9628 -1.1096
 3015SOL    HW220682   1.573   3.150   6.725  1.0684 -0.0627  1.9896
 3016SOL     OW20683   1.637   1.069   8.718 -0.2804 -0.1869 -0.0586
 3016SOL    HW120684   1.581   1.006   8.672  0.4410  3.0383 -5.4123
 3016SOL    HW220685   1.666   1.131   8.650  2.5428  1.6699  2.8383
 3017SOL     OW20686   4.729   4.121   6.288 -0.3469  0.1097 -0.3623
 3017SOL    HW120687   0.026   4.078   6.366  0.9997 -0.1523 -1.0972
 3017SOL    HW220688   0.076   4.138   6.247 -0.4451 -1.0708 -1.0607
 3018SOL     OW20689   4.576   4.043   9.575 -0.5156 -0.6530 -0.0047
 3018SOL    HW120690   4.505   4.101   9.548 -1.8891 -1.7281  1.2811
 3018SOL    HW220691   4.592   3.981   9.504  0.0010  1.7009 -1.9637
 3019SOL     OW20692   2.860   2.411   8.625  0.0805  0.2964 -0.1488
 3019SOL    HW120693   2.868   2.432   8.532  2.2166 -0.4753 -0.1427
 3019SOL    HW220694   2.908   2.483   8.665 -0.1593  0.5729 -0.3580
 3020SOL     OW20695   0.779   4.081   4.705  0.0170 -0.3353  0.1983
 3020SOL    HW120696   0.743   4.100   4.619  0.0921 -1.8000 -0.1614
 3020SOL    HW220697   0.716   4.127   4.760 -0.1986  1.3059 -1.4364
 3021SOL     OW20698   0.302   3.821  15.124 -0.1808 -0.2603 -0.3682
 3021SOL    HW120699   0.389   3.795  15.093  0.6128  2.1081 -0.1039
 3021SOL    HW220700   0.261   3.804  15.039 -0.3183  1.4300 -0.6485
 3022SOL     OW20701   3.726   1.277   9.321  0.4393  0.6285 -0.3846
 3022SOL    HW120702   3.682   1.232   9.393 -0.5392  2.0043 -0.1188
 3022SOL    HW220703   3.702   1.226   9.244  3.8457  0.0713 -1.0702
 3023SOL     OW20704   0.382   0.251   8.183  0.2831 -0.3060 -0.2829
 3023SOL    HW120705   0.422   0.179   8.232 -1.2089 -0.7240  0.3503
 3023SOL    HW220706   0.343   0.208   8.107  1.0848  1.4750 -1.6999
 3024SOL     OW20707   3.695   4.216   9.411 -0.1188 -0.0144  0.2675
 3024SOL    HW120708   3.772   4.235   9.356  0.8495 -1.7949  1.0258
 3024SOL    HW220709   3.664   4.303   9.436  0.4654 -0.1358  1.3994
 3025SOL     OW20710   0.388   2.777  13.180 -0.0862  0.5866  0.0043
 3025SOL    HW120711   0.445   2.707  13.212 -0.8076 -0.2290 -0.5167
 3025SOL    HW220712   0.407   2.765  13.087 -0.1804 -0.2206  0.0882
 3026SOL     OW20713   3.604   0.566   3.727  0.0423 -0.7588 -0.4268
 3026SOL    HW120714   3.567   0.532   3.645 -1.0035 -0.2930 -0.1461
 3026SOL    HW220715   3.680   0.510   3.743 -0.7501 -1.6432  0.2173
 3027SOL     OW20716   4.587   0.619   3.482 -0.7879  0.5775 -0.1688
 3027SOL    HW120717   4.663   0.570   3.515 -0.5269  1.2900  0.2826
 3027SOL    HW220718   4.514   0.560   3.499 -0.2728  0.3849  1.3702
 3028SOL     OW20719   4.375   4.133   5.960 -0.7244 -0.0475 -0.1902
 3028SOL    HW120720   4.288   4.147   5.922  0.7883  2.6399 -2.5922
 3028SOL    HW220721   4.427   4.133   5.880 -1.8490 -0.6910 -0.9264
 3029SOL     OW20722   0.729   1.512  14.892 -0.2915 -0.6570 -0.5788
 3029SOL    HW120723   0.710   1.551  14.977  0.9345 -3.1377  0.8412
 3029SOL    HW220724   0.670   1.556  14.831  0.6988 -0.4516 -1.3786
 3030SOL     OW20725   1.752   3.494   3.820 -0.2507 -0.1989  0.3479
 3030SOL    HW120726   1.769   3.531   3.906 -1.4943 -1.2310  1.0266
 3030SOL    HW220727   1.658   3.503   3.806 -0.3127 -1.5391 -0.0780
 3031SOL     OW20728   3.527   2.222  13.575 -0.0287 -0.1649  0.0696
 3031SOL    HW120729   3.455   2.285  13.582 -0.5645 -0.7447 -0.2315
 3031SOL    HW220730   3.604   2.274  13.598  0.0382  0.0702 -0.6768
 3032SOL     OW20731   3.850   4.148   7.167  0.6410  0.0240 -0.0966
 3032SOL    HW120732   3.777   4.105   7.122  1.0006  0.8039 -1.4148
 3032SOL    HW220733   3.859   4.228   7.116  0.7806 -0.8153 -1.3769
 3033SOL     OW20734   0.404   3.619  16.286  0.6344  0.2112 -0.2547
 3033SOL    HW120735   0.480   3.638  16.342 -0.9822  2.4758  1.1703
 3033SOL    HW220736   0.407   3.675  16.208  1.3502  2.0341  1.0780
 3034SOL     OW20737   1.668   3.461   4.528 -1.0062  0.1163 -0.1544
 3034SOL    HW120738   1.667   3.410   4.608  1.6280  0.2179 -0.0461
 3034SOL    HW220739   1.610   3.416   4.466 -0.4412 -1.5458  0.5333
 3035SOL     OW20740   4.373   3.476   6.448  0.1304 -0.3103  0.9205
 3035SOL    HW120741   4.367   3.440   6.537 -2.4539 -0.5659  0.6584
 3035SOL    HW220742   4.417   3.406   6.401  1.2892  0.3758  0.9759
 3036SOL     OW20743   4.546   1.531  15.182 -0.1767 -0.1356  0.0010
 3036SOL    HW120744   4.535   1.490  15.097 -0.1438 -1.7331  0.7693
 3036SOL    HW220745   4.626   1.582  15.167 -0.8004  1.7466  2.8837
 3037SOL     OW20746   0.897   1.166   2.419  0.2378 -0.8572 -0.0367
 3037SOL    HW120747   0.826   1.230   2.419 -0.8221 -2.0415  1.6247
 3037SOL    HW220748   0.848   1.088   2.444  0.1898 -1.2612 -1.3900
 3038SOL     OW20749   2.255   1.615   4.285  0.6877 -0.2668 -0.7510
 3038SOL    HW120750   2.218   1.675   4.349 -0.0526 -1.6421  0.0902
 3038SOL    HW220751   2.186   1.552   4.263  0.8409 -0.4461 -0.7186
 3039SOL     OW20752   3.937   1.101   5.921  0.2582  0.6370  0.2571
 3039SOL    HW120753   3.888   1.033   5.874  0.7092 -0.2079  1.0113
 3039SOL    HW220754   3.895   1.100   6.007 -0.3841  1.7684 -0.0393
 3040SOL     OW20755   4.241   0.888  14.688 -0.1245 -0.1940  0.2223
 3040SOL    HW120756   4.187   0.809  14.687 -0.6925  0.1858  0.8035
 3040SOL    HW220757   4.173   0.955  14.696  0.0147 -0.4043  3.0250
 3041SOL     OW20758   0.806   2.215   1.810 -0.0408 -0.2343  0.1046
 3041SOL    HW120759   0.774   2.126   1.827 -0.2184 -0.6121 -2.1667
 3041SOL    HW220760   0.800   2.215   1.715 -0.5779  0.0332  0.1378
 3042SOL     OW20761   2.338   4.407   2.330 -0.0375  0.2829 -0.2651
 3042SOL    HW120762   2.307   4.497   2.316 -1.1289 -0.2287 -1.1239
 3042SOL    HW220763   2.284   4.384   2.406  0.2950  1.7381  0.4091
 3043SOL     OW20764   1.186   3.327  13.330 -0.4625 -0.8565  0.1743
 3043SOL    HW120765   1.263   3.375  13.362 -0.7197 -0.9820  0.9780
 3043SOL    HW220766   1.119   3.395  13.324  1.0649  0.5373 -1.0708
 3044SOL     OW20767   2.840   0.291  16.387 -0.1310 -0.0854  0.3163
 3044SOL    HW120768   2.760   0.343  16.375 -0.1437 -0.5215 -1.3812
 3044SOL    HW220769   2.821   0.213  16.335  1.3860  0.9796 -1.8144
 3045SOL     OW20770   1.063   3.356  11.821 -0.4300  0.3527 -0.2358
 3045SOL    HW120771   1.072   3.261  11.823  2.2839  0.6275 -0.1221
 3045SOL    HW220772   0.975   3.361  11.784 -1.1861 -2.9309  1.0680
 3046SOL     OW20773   3.324   4.005   0.456 -0.0088  0.0431  0.1453
 3046SOL    HW120774   3.382   4.081   0.462 -1.2631  1.1480 -1.5396
 3046SOL    HW220775   3.367   3.942   0.513 -0.6865 -1.1244 -0.6364
 3047SOL     OW20776   1.111   0.788  14.530  0.2252 -0.1925 -0.1879
 3047SOL    HW120777   1.202   0.783  14.501  0.2565  0.1671 -0.1517
 3047SOL    HW220778   1.101   0.869  14.580 -1.6767 -0.8124  0.4328
 3048SOL     OW20779   0.418   1.746   9.053 -0.5922  0.1423  0.1728
 3048SOL    HW120780   0.433   1.840   9.041  1.5496 -0.4237 -1.6462
 3048SOL    HW220781   0.491   1.713   9.000  0.1916 -0.5956  1.6996
 3049SOL     OW20782   0.646   1.856   3.572  0.6557  0.0027 -0.7192
 3049SOL    HW120783   0.621   1.914   3.643  1.3736 -0.6845  0.0842
 3049SOL    HW220784   0.617   1.771   3.606  0.4321 -0.4372 -1.9977
 3050SOL     OW20785   1.256   2.926   5.585 -0.0623  0.4734  0.1463
 3050SOL    HW120786   1.260   3.017   5.556 -0.5471  0.5387  0.2730
 3050SOL    HW220787   1.185   2.938   5.648 -1.0018  0.2874 -0.8725
 3051SOL     OW20788   3.663   3.643   4.116  0.5702 -0.4350 -0.0163
 3051SOL    HW120789   3.635   3.729   4.147 -0.1878 -0.4790 -0.5976
 3051SOL    HW220790   3.716   3.666   4.040  0.6086 -1.7156 -0.3811
 3052SOL     OW20791   1.698   4.162   5.969  0.1512  0.2025 -0.0524
 3052SOL    HW120792   1.694   4.131   6.060 -0.0044 -1.0118 -0.4766
 3052SOL    HW220793   1.789   4.151   5.943  0.5958  1.0803  1.0981
 3053SOL     OW20794   0.720   2.283   1.557  0.2840 -0.1808 -0.2695
 3053SOL    HW120795   0.712   2.373   1.526  1.2452 -0.0836 -0.2429
 3053SOL    HW220796   0.735   2.229   1.480  0.7257 -0.0969 -0.2458
 3054SOL     OW20797   0.274   0.732  11.773  0.2900 -0.2497 -0.0106
 3054SOL    HW120798   0.214   0.807  11.766 -1.4538 -1.5342  1.0861
 3054SOL    HW220799   0.219   0.656  11.752 -1.3685  0.9567 -0.0703
 3055SOL     OW20800   3.193   3.534  11.871  0.5735  0.0347 -0.1275
 3055SOL    HW120801   3.204   3.447  11.908 -1.5892  0.0362  0.5531
 3055SOL    HW220802   3.281   3.569  11.885  0.2531 -0.7957  3.9887
 3056SOL     OW20803   3.943   2.823   5.532  0.4330  0.2218  0.5907
 3056SOL    HW120804   3.853   2.853   5.518  0.0240 -1.0403  0.5709
 3056SOL    HW220805   3.981   2.874   5.461 -1.5528  0.0401 -0.6196
 3057SOL     OW20806   1.463   2.436   3.280 -0.4308  0.1152 -0.2500
 3057SOL    HW120807   1.513   2.415   3.201  1.6101 -2.9465  1.8514
 3057SOL    HW220808   1.481   2.530   3.286  0.7077 -0.2160  1.3655
 3058SOL     OW20809   1.079   4.456   3.677  0.2065 -0.8581  0.6538
 3058SOL    HW120810   1.077   4.549   3.657 -0.2024 -1.2766 -1.3330
 3058SOL    HW220811   0.987   4.436   3.657  0.5346  1.1524 -2.8284
 3059SOL     OW20812   2.046   3.491   6.130  0.3397  0.0461  0.7284
 3059SOL    HW120813   1.988   3.429   6.084  1.6121  0.0085 -0.8233
 3059SOL    HW220814   1.986   3.565   6.128 -1.0624 -1.1041 -0.1320
 3060SOL     OW20815   4.013   0.348  13.680 -0.3691  0.9256 -0.2750
 3060SOL    HW120816   3.993   0.255  13.691  2.0271  0.2708 -1.5926
 3060SOL    HW220817   3.937   0.382  13.727 -0.9796 -2.5219  1.2848
 3061SOL     OW20818   3.198   0.697   8.707  0.1051 -0.4485  0.3959
 3061SOL    HW120819   3.179   0.784   8.673  2.4749 -0.3031 -0.5593
 3061SOL    HW220820   3.122   0.650   8.673  1.5518 -1.8106 -0.9674
 3062SOL     OW20821   0.875   3.281   6.994 -0.0356  0.2544 -0.0650
 3062SOL    HW120822   0.784   3.310   6.987 -0.1922 -0.4753 -0.9915
 3062SOL    HW220823   0.859   3.187   6.995  1.8045 -0.0738 -1.2916
 3063SOL     OW20824   3.973   3.443  11.583  0.1856  0.1273 -0.4868
 3063SOL    HW120825   4.068   3.452  11.590  0.1829  1.3325 -2.0125
 3063SOL    HW220826   3.968   3.474  11.493 -0.7657  0.2818 -0.3813
 3064SOL     OW20827   4.723   3.724   8.944  0.4675 -0.1286  0.3027
 3064SOL    HW120828   4.654   3.710   8.880  0.2034  2.4164  0.0612
 3064SOL    HW220829   4.685   3.666   9.010 -0.5791 -1.0509 -1.1378
 3065SOL     OW20830   2.043   3.089  14.158 -0.0783  0.0365  0.3291
 3065SOL    HW120831   2.095   3.115  14.234  0.7055 -0.1645 -0.1399
 3065SOL    HW220832   2.091   3.012  14.126  0.2565  0.8889 -1.2402
 3066SOL     OW20833   3.274   3.147   8.919  0.2724  0.2059  0.0645
 3066SOL    HW120834   3.232   3.215   8.971 -0.9518 -0.8437  0.4424
 3066SOL    HW220835   3.341   3.206   8.883  0.9196  0.2376  1.3442
 3067SOL     OW20836   4.643   0.132   5.232  0.3799  0.1096  0.0910
 3067SOL    HW120837   4.728   0.153   5.272  0.2035  0.9964 -0.0063
 3067SOL    HW220838   4.653   0.038   5.217 -1.5524 -0.2413  0.9761
 3068SOL     OW20839   4.094   2.015   8.776  0.1594 -1.0000 -0.0257
 3068SOL    HW120840   4.078   1.921   8.781 -0.4920 -0.7972  1.4434
 3068SOL    HW220841   4.155   2.030   8.848  0.2609  1.2073 -0.5653
 3069SOL     OW20842   3.598   4.151  14.481  0.8846 -0.0451 -0.5905
 3069SOL    HW120843   3.623   4.098  14.557  1.2624  1.2565  0.1885
 3069SOL    HW220844   3.532   4.092  14.446  0.7372 -0.5561  0.5435
 3070SOL     OW20845   3.251   1.116   4.715  0.6949  0.2691 -0.6325
 3070SOL    HW120846   3.319   1.070   4.665 -0.5773 -1.0252 -1.1617
 3070SOL    HW220847   3.170   1.078   4.681  0.9198  0.4293 -1.3618
 3071SOL     OW20848   2.919   4.670   8.518 -0.3808 -0.0215 -0.2109
 3071SOL    HW120849   2.893   0.006   8.574  1.3277 -1.0142  1.9013
 3071SOL    HW220850   2.988   4.714   8.470 -0.1997  0.3576  0.3970
 3072SOL     OW20851   0.464   0.749  15.581  0.2784  0.3601 -0.3293
 3072SOL    HW120852   0.532   0.684  15.561 -1.7031 -2.1985  1.2412
 3072SOL    HW220853   0.449   0.716  15.669 -1.6454 -0.4030 -0.9363
 3073SOL     OW20854   4.053   2.697   5.773  0.3212 -0.4119  0.1195
 3073SOL    HW120855   3.966   2.705   5.812  0.3689 -2.0764  0.5557
 3073SOL    HW220856   4.038   2.753   5.698  1.9335  1.6706  1.3516
 3074SOL     OW20857   2.428   4.170   2.289 -0.1283 -0.2924  0.1621
 3074SOL    HW120858   2.407   4.260   2.312 -1.8205 -0.0246 -2.4306
 3074SOL    HW220859   2.358   4.125   2.335 -0.8521 -0.1407 -0.7860
 3075SOL     OW20860   0.771   2.072   9.870 -0.5676  0.1327  0.5322
 3075SOL    HW120861   0.844   2.032   9.823  0.2696  1.5900  0.5895
 3075SOL    HW220862   0.719   2.088   9.791  0.1202  0.4643  0.1476
 3076SOL     OW20863   4.476   4.485   2.671  0.2584  0.0156 -0.7082
 3076SOL    HW120864   4.432   4.413   2.715  1.3785  0.2731  0.8253
 3076SOL    HW220865   4.520   4.520   2.748 -1.3866 -0.2437  0.3521
 3077SOL     OW20866   3.704   2.279   7.284 -0.1179  0.1169 -0.0976
 3077SOL    HW120867   3.682   2.295   7.376 -0.1635  1.0759 -0.2711
 3077SOL    HW220868   3.630   2.224   7.258 -0.8701  1.4945 -0.8475
 3078SOL     OW20869   1.001   2.012   4.549 -0.1049  0.1167  0.0617
 3078SOL    HW120870   0.985   2.017   4.643 -0.9793  1.7009 -0.1734
 3078SOL    HW220871   0.979   2.101   4.523 -2.2311  0.7190  4.0364
 3079SOL     OW20872   1.787   4.441   3.389 -0.3215  0.5871 -0.1072
 3079SOL    HW120873   1.735   4.407   3.461 -0.7509  1.3366 -0.0651
 3079SOL    HW220874   1.727   4.464   3.318 -0.1868  0.8779 -0.1257
 3080SOL     OW20875   3.083   2.335   1.302 -0.3314  0.3389 -0.9424
 3080SOL    HW120876   3.124   2.419   1.283 -2.2449  1.1904 -1.2907
 3080SOL    HW220877   3.131   2.271   1.250 -0.8356  1.2046 -2.4457
 3081SOL     OW20878   2.338   0.527   1.582  0.1370 -0.3616  0.6188
 3081SOL    HW120879   2.394   0.495   1.512  0.6435  0.7797  0.5027
 3081SOL    HW220880   2.357   0.620   1.577 -0.5759 -0.1820  1.2566
 3082SOL     OW20881   0.857   1.431   6.321 -0.0987 -0.4890 -0.3040
 3082SOL    HW120882   0.780   1.485   6.302  0.5185 -0.2437 -2.0762
 3082SOL    HW220883   0.842   1.406   6.413  0.4449  2.7365  0.6417
 3083SOL     OW20884   2.684   3.181   0.882 -0.5936  0.2142 -0.3230
 3083SOL    HW120885   2.603   3.133   0.900  0.1219 -1.9020 -2.7620
 3083SOL    HW220886   2.680   3.235   0.961  2.6292  1.7045 -1.1665
 3084SOL     OW20887   3.714   4.500   0.312 -0.3941  0.6588 -0.2614
 3084SOL    HW120888   3.767   4.534   0.240  0.5936 -1.5721 -0.5786
 3084SOL    HW220889   3.648   4.449   0.266 -0.4262  0.6448 -0.1994
 3085SOL     OW20890   1.505   0.462   8.431 -0.5780  0.7301 -0.4237
 3085SOL    HW120891   1.556   0.398   8.480 -1.0808 -1.6798 -3.0538
 3085SOL    HW220892   1.420   0.457   8.475 -0.9281 -0.8292 -1.2625
 3086SOL     OW20893   2.428   3.334   3.490  0.3537 -0.3002  0.8402
 3086SOL    HW120894   2.508   3.313   3.539  0.0930 -0.0166  1.3912
 3086SOL    HW220895   2.376   3.255   3.498  3.2479 -2.4905 -2.0577
 3087SOL     OW20896   1.149   2.408  11.568 -0.1010  0.0375 -0.5474
 3087SOL    HW120897   1.146   2.372  11.480 -2.5873  2.0960 -1.3208
 3087SOL    HW220898   1.188   2.328  11.602 -0.3042  0.7900  1.4608
 3088SOL     OW20899   4.127   3.232  15.756  0.6896  0.2985 -0.2848
 3088SOL    HW120900   4.124   3.138  15.769 -2.0333  0.2632 -1.1745
 3088SOL    HW220901   4.202   3.253  15.812  0.9562  0.4640 -0.6975
 3089SOL     OW20902   1.320   1.104  10.130 -0.8543  0.4791  0.4015
 3089SOL    HW120903   1.345   1.016  10.104 -0.6612 -0.4520  3.8161
 3089SOL    HW220904   1.317   1.092  10.224 -0.5761  0.0786  0.3601
 3090SOL     OW20905   0.922   3.855   2.407  0.5879  0.1972  0.2219
 3090SOL    HW120906   0.863   3.791   2.367 -1.7551  1.6971  1.2038
 3090SOL    HW220907   0.976   3.883   2.334  1.4198 -0.4968  0.5820
 3091SOL     OW20908   2.224   2.866   9.081 -0.5071 -0.4486  0.2660
 3091SOL    HW120909   2.244   2.792   9.023 -0.6082 -0.7725  0.6417
 3091SOL    HW220910   2.147   2.891   9.029  1.3550 -0.2474 -2.3871
 3092SOL     OW20911   1.364   2.744  17.327  0.0680  0.1516 -0.0096
 3092SOL    HW120912   1.334   2.818  17.379 -1.2068 -0.1210 -0.3502
 3092SOL    HW220913   1.285   2.696  17.301 -1.3142  1.3513  1.9727
 3093SOL     OW20914   2.681   0.998   7.424 -0.2690  0.6535  0.0205
 3093SOL    HW120915   2.628   1.048   7.485 -0.3685  1.0446 -0.3885
 3093SOL    HW220916   2.625   0.931   7.385 -0.1175  0.2973  0.4116
 3094SOL     OW20917   4.177   0.657   8.004  0.3590  0.1694 -0.3976
 3094SOL    HW120918   4.172   0.732   8.063  0.5400  0.3587 -0.6220
 3094SOL    HW220919   4.236   0.597   8.048 -2.0327 -1.9713 -0.1065
 3095SOL     OW20920   3.115   1.108  17.310  0.1068 -0.1850  0.4916
 3095SOL    HW120921   3.057   1.061  17.250  0.3899 -0.6726  0.6029
 3095SOL    HW220922   3.044   1.149  17.360 -1.6253 -1.5821 -0.8136
 3096SOL     OW20923   3.562   4.430   3.155 -0.3286 -0.1121  0.0894
 3096SOL    HW120924   3.489   4.370   3.171 -0.2741  0.0538  0.9690
 3096SOL    HW220925   3.631   4.372   3.122  1.0035  1.1652  0.6183
 3097SOL     OW20926   3.268   2.860  11.431 -0.0790 -0.3779 -0.2928
 3097SOL    HW120927   3.361   2.843  11.422  0.1661  1.3799 -1.2620
 3097SOL    HW220928   3.233   2.797  11.369 -0.7567 -0.1258 -0.1729
 3098SOL     OW20929   0.325   0.688   8.091 -0.0988  0.0292 -0.4365
 3098SOL    HW120930   0.350   0.766   8.041  0.1578 -0.0771 -0.4738
 3098SOL    HW220931   0.326   0.723   8.180  0.9723  0.1381 -0.4935
 3099SOL     OW20932   0.338   3.920   5.298 -0.4430  0.1394  0.6581
 3099SOL    HW120933   0.366   3.859   5.230 -1.3015  1.6357 -1.0272
 3099SOL    HW220934   0.258   3.949   5.255  0.1601 -0.7734 -1.0882
 3100SOL     OW20935   1.512   0.819   8.121  0.7451  0.2912 -0.1807
 3100SOL    HW120936   1.487   0.912   8.128  1.1718  0.4207 -0.3988
 3100SOL    HW220937   1.452   0.778   8.183 -0.6552  1.0053 -1.0493
 3101SOL     OW20938   0.581   4.577  11.121 -0.1203  0.9994  0.2196
 3101SOL    HW120939   0.653   4.629  11.158  1.8750 -0.2644 -1.8774
 3101SOL    HW220940   0.615   4.488  11.120  0.5122  1.2539 -0.9944
 3102SOL     OW20941   3.524   4.026   6.038 -0.2544  0.3290  0.1776
 3102SOL    HW120942   3.578   3.976   5.976 -0.6160  1.8706 -1.3721
 3102SOL    HW220943   3.447   3.970   6.052  0.5772 -0.7185  0.5335
 3103SOL     OW20944   4.293   2.727   2.523 -0.2523  0.4065  0.6721
 3103SOL    HW120945   4.250   2.811   2.536 -0.5245  0.0368  2.1530
 3103SOL    HW220946   4.213   2.675   2.519  1.0956 -1.6395  0.2859
 3104SOL     OW20947   3.152   2.011  11.046 -0.3120  0.4740  0.1110
 3104SOL    HW120948   3.246   2.029  11.046 -0.3351  0.6019 -0.2269
 3104SOL    HW220949   3.147   1.920  11.075 -1.0943  0.4180 -0.1797
 3105SOL     OW20950   1.583   3.399   9.985  0.3176 -0.2406  0.1552
 3105SOL    HW120951   1.597   3.362  10.073 -2.3976 -0.0330  0.6808
 3105SOL    HW220952   1.675   3.402   9.960 -0.0374  1.3282 -0.9274
 3106SOL     OW20953   0.296   1.742   0.026  0.1602  0.4207  0.0690
 3106SOL    HW120954   0.339   1.794  17.708 -1.6598  1.0374 -0.6353
 3106SOL    HW220955   0.347   1.662   0.034 -0.8461 -0.0362  2.0134
 3107SOL     OW20956   1.128   1.865  15.033 -0.0327  0.6447  0.3407
 3107SOL    HW120957   1.115   1.883  14.940  0.5496  0.5444  0.2436
 3107SOL    HW220958   1.147   1.946  15.079  1.7007 -0.1675  1.0273
 3108SOL     OW20959   2.101   2.416   3.069  0.0591 -0.8204 -0.3724
 3108SOL    HW120960   2.123   2.337   3.021 -1.7039 -1.1176 -0.7059
 3108SOL    HW220961   2.007   2.409   3.087  0.7985 -0.0659  3.6415
 3109SOL     OW20962   0.393   2.775  14.869  0.7049 -0.1253 -0.5122
 3109SOL    HW120963   0.480   2.804  14.842  1.1356 -0.0114  1.0134
 3109SOL    HW220964   0.340   2.845  14.831 -1.0653 -0.3743  1.4758
 3110SOL     OW20965   1.425   3.131  12.807 -0.2991 -0.0470  0.0194
 3110SOL    HW120966   1.500   3.089  12.765 -0.3550 -1.0263  0.9096
 3110SOL    HW220967   1.462   3.158  12.891  2.5328  1.1212 -1.6189
 3111SOL     OW20968   2.134   1.962   6.183  0.5833 -0.0091 -0.1735
 3111SOL    HW120969   2.173   1.955   6.095  0.6977 -2.7846  0.0976
 3111SOL    HW220970   2.069   1.893   6.195  1.7565 -1.2334 -0.8270
 3112SOL     OW20971   2.273   4.343  10.975  0.5387 -0.1382 -0.6320
 3112SOL    HW120972   2.296   4.435  10.967 -0.3343  0.0891 -0.4677
 3112SOL    HW220973   2.188   4.331  10.934  0.5524  0.0215 -0.7058
 3113SOL     OW20974   1.394   3.141  13.196 -0.2595 -0.2099  0.2968
 3113SOL    HW120975   1.329   3.211  13.205  1.0240  0.8366  1.4100
 3113SOL    HW220976   1.386   3.110  13.286 -1.3648  0.6502  0.4918
 3114SOL     OW20977   0.516   0.959  16.679 -0.3471 -0.3487 -0.0549
 3114SOL    HW120978   0.458   1.035  16.672  3.4104  2.4298 -0.8852
 3114SOL    HW220979   0.588   0.981  16.620 -0.8657  0.2870 -0.4529
 3115SOL     OW20980   1.402   4.721   6.966  0.1005  0.1500  0.1033
 3115SOL    HW120981   1.327   4.665   6.984 -1.0612  1.4732 -0.6668
 3115SOL    HW220982   1.372   0.063   7.010  0.5902  1.4990 -1.9994
 3116SOL     OW20983   1.365   2.134   9.125  0.4930  0.4030 -0.4296
 3116SOL    HW120984   1.275   2.137   9.158  0.5479 -0.9694 -0.1258
 3116SOL    HW220985   1.370   2.053   9.074  1.6971  0.7360 -0.8435
 3117SOL     OW20986   4.004   3.999   5.960 -0.3208 -0.3554 -0.3739
 3117SOL    HW120987   4.056   3.950   6.023 -0.0522 -1.6005 -1.5553
 3117SOL    HW220988   4.065   4.062   5.920  0.1177 -0.8133 -0.4227
 3118SOL     OW20989   0.916   2.253   9.344  0.5661 -0.3796 -0.5599
 3118SOL    HW120990   0.821   2.247   9.350  0.6120  0.0060  0.4485
 3118SOL    HW220991   0.933   2.161   9.363 -2.3660 -0.3300  2.3522
 3119SOL     OW20992   4.173   2.385   3.368 -0.5793 -0.0548 -0.2668
 3119SOL    HW120993   4.250   2.404   3.314  0.6650 -0.1899  1.4697
 3119SOL    HW220994   4.107   2.452   3.347  0.3916  1.0855  0.3010
 3120SOL     OW20995   2.187   1.094   4.436 -0.4645  0.3715  0.1757
 3120SOL    HW120996   2.242   1.151   4.490  0.3454 -0.0149 -0.2418
 3120SOL    HW220997   2.230   1.009   4.446  1.7064  1.7472  2.6771
 3121SOL     OW20998   2.658   2.258   0.437  0.2553 -0.4000  0.0823
 3121SOL    HW120999   2.675   2.200   0.511  2.1320  1.1298  0.8506
 3121SOL    HW221000   2.578   2.303   0.463  0.6501  0.4318 -0.1212
 3122SOL     OW21001   3.344   0.950   2.150  0.2026  0.3028  0.3586
 3122SOL    HW121002   3.374   1.007   2.220  1.2759 -2.0826  1.8367
 3122SOL    HW221003   3.394   0.982   2.075 -1.4674  0.5247 -0.6699
 3123SOL     OW21004   2.311   3.164   4.354  1.0835 -0.1375 -0.6074
 3123SOL    HW121005   2.309   3.149   4.448 -1.3119  2.8019 -0.2000
 3123SOL    HW221006   2.384   3.223   4.335 -0.6240  2.4065  0.6832
 3124SOL     OW21007   0.444   3.596   1.402  0.7131 -0.1231  0.4684
 3124SOL    HW121008   0.397   3.679   1.413  0.0277 -0.7139  2.0254
 3124SOL    HW221009   0.380   3.539   1.445  0.5533  0.1168  0.5469
 3125SOL     OW21010   1.460   0.550   7.236 -0.0550 -0.2293 -0.6850
 3125SOL    HW121011   1.506   0.554   7.152  0.0356  0.6786 -0.5906
 3125SOL    HW221012   1.504   0.484   7.289 -0.5292  1.6606  2.0830
 3126SOL     OW21013   4.655   1.338   3.997 -0.0919  0.3440 -0.0313
 3126SOL    HW121014   4.596   1.408   3.968  0.8111  0.9450 -0.3953
 3126SOL    HW221015   4.627   1.324   4.088 -1.7053  1.4887 -0.3516
 3127SOL     OW21016   2.516   2.702   8.390  0.0156 -0.3936 -0.1102
 3127SOL    HW121017   2.506   2.677   8.482  0.6522  1.1059  0.3472
 3127SOL    HW221018   2.432   2.748   8.381  0.3209  0.5446  1.7171
 3128SOL     OW21019   3.106   1.863   6.922 -0.1191 -0.1801  0.0678
 3128SOL    HW121020   3.096   1.919   6.999  0.0173 -0.2036  0.1034
 3128SOL    HW221021   3.037   1.900   6.867  2.4232  2.6547 -1.1895
 3129SOL     OW21022   2.085   0.969   2.819  0.0682  0.1119 -0.0977
 3129SOL    HW121023   2.144   0.895   2.834  1.6010  1.5206  0.8806
 3129SOL    HW221024   2.147   1.031   2.782 -0.0648 -0.3607 -1.0998
 3130SOL     OW21025   2.429   3.462   8.105 -0.2080 -0.2952  0.0964
 3130SOL    HW121026   2.511   3.418   8.084  0.9321  1.2880  1.2368
 3130SOL    HW221027   2.360   3.409   8.066 -1.0009  2.4451 -2.1600
 3131SOL     OW21028   2.627   2.306   7.245  0.2729  0.2886  0.0090
 3131SOL    HW121029   2.704   2.296   7.301  0.4267 -1.0516 -0.4603
 3131SOL    HW221030   2.553   2.307   7.306 -0.0367 -0.5097 -0.3646
 3132SOL     OW21031   2.268   0.021   3.344 -1.0722  0.3491  0.0872
 3132SOL    HW121032   2.204   0.035   3.274  0.5122  0.0628 -1.4304
 3132SOL    HW221033   2.329   4.706   3.292 -0.8413  2.1723 -1.4948
 3133SOL     OW21034   4.060   2.263   2.781  0.1760  0.0604 -0.7010
 3133SOL    HW121035   3.994   2.232   2.719  0.9066 -0.5947 -1.1635
 3133SOL    HW221036   4.014   2.309   2.851 -0.2843 -0.1981 -0.8324
 3134SOL     OW21037   3.959   0.606   6.526  0.0926 -0.1952  0.1685
 3134SOL    HW121038   4.001   0.687   6.495 -0.9289 -0.1384 -1.0923
 3134SOL    HW221039   3.921   0.574   6.443 -0.9074 -0.9450  0.9144
 3135SOL     OW21040   1.656   4.564   7.089 -0.0299 -0.6263 -0.0349
 3135SOL    HW121041   1.564   4.542   7.075 -0.3374  1.6942 -1.7345
 3135SOL    HW221042   1.644   4.655   7.119  0.1593  0.2327 -2.5654
 3136SOL     OW21043   4.455   1.643  11.350 -0.3485  0.0435  0.3356
 3136SOL    HW121044   4.433   1.722  11.399 -0.3789  1.1815 -1.4960
 3136SOL    HW221045   4.424   1.671  11.264 -0.3380  0.2285  0.3914
 3137SOL     OW21046   1.968   1.061  17.167  0.6568 -0.4636 -0.6863
 3137SOL    HW121047   1.918   0.998  17.116 -0.2049 -1.2773  1.1423
 3137SOL    HW221048   2.012   1.006  17.233  1.3365 -0.1460 -0.8746
 3138SOL     OW21049   3.883   4.519   8.468  0.4851  0.3743 -0.1329
 3138SOL    HW121050   3.885   4.519   8.372  1.5723 -0.0686 -0.1081
 3138SOL    HW221051   3.954   4.456   8.480  0.2223  0.3110  1.0580
 3139SOL     OW21052   2.740   3.978   1.060 -0.0401  0.1555  0.2161
 3139SOL    HW121053   2.810   3.955   1.121 -0.8123 -0.1273  0.9956
 3139SOL    HW221054   2.701   4.056   1.098  0.5570  0.4800  0.1656
 3140SOL     OW21055   1.556   2.324   5.560 -0.0963  0.3921  0.4796
 3140SOL    HW121056   1.529   2.287   5.644 -1.7538 -0.9125 -0.6242
 3140SOL    HW221057   1.591   2.410   5.584  0.3225  1.0204 -2.4669
 3141SOL     OW21058   2.134   3.069   2.230 -0.5646 -0.5909  0.4503
 3141SOL    HW121059   2.184   3.017   2.293  1.1854 -1.8002 -1.9482
 3141SOL    HW221060   2.079   3.118   2.291  2.0095  2.4827  0.3467
 3142SOL     OW21061   4.660   0.047  14.697  0.0963 -1.0572 -0.5604
 3142SOL    HW121062   4.724   4.723  14.661  2.9576  0.9438  1.1185
 3142SOL    HW221063   4.601   4.722  14.739 -0.4965 -0.1595 -0.0559
 3143SOL     OW21064   3.269   2.026  17.539  0.3462  0.5612 -0.1498
 3143SOL    HW121065   3.254   2.032  17.633 -0.5549 -0.3254 -0.2446
 3143SOL    HW221066   3.248   2.116  17.514 -0.8189  0.5248  0.7178
 3144SOL     OW21067   1.923   4.358   7.533  0.9197  0.0406 -0.0923
 3144SOL    HW121068   1.858   4.339   7.601 -0.3049  3.5219 -0.2943
 3144SOL    HW221069   1.991   4.296   7.561  1.4948  0.6562 -0.1208
 3145SOL     OW21070   3.345   3.156   7.509  0.0918  0.1059  0.2354
 3145SOL    HW121071   3.326   3.235   7.458  1.5691  0.9914  1.0627
 3145SOL    HW221072   3.411   3.119   7.450 -2.3774 -2.7103 -0.7707
 3146SOL     OW21073   2.799   3.214   2.402 -0.3793 -0.0149 -0.0992
 3146SOL    HW121074   2.811   3.160   2.480 -0.2886 -1.3404 -1.0258
 3146SOL    HW221075   2.885   3.255   2.390 -0.4257  0.2738  0.5818
 3147SOL     OW21076   2.817   1.129  15.784 -0.5416  0.5603 -0.0971
 3147SOL    HW121077   2.873   1.065  15.827 -0.8629  0.7353  0.5764
 3147SOL    HW221078   2.735   1.080  15.775 -0.3471  0.1835  0.2067
 3148SOL     OW21079   4.487   3.857   6.540  0.7190  0.6175 -0.2082
 3148SOL    HW121080   4.503   3.951   6.553  0.8695  1.0499 -3.6715
 3148SOL    HW221081   4.542   3.840   6.464  1.2884  2.7596 -0.2917
 3149SOL     OW21082   0.323   2.496  17.216 -0.0060 -0.2436  0.2640
 3149SOL    HW121083   0.378   2.488  17.138  0.9785  1.0457  0.8324
 3149SOL    HW221084   0.282   2.578  17.185 -1.4508 -0.0796  2.6619
 3150SOL     OW21085   3.374   0.114   8.430 -0.6344  0.4106  0.1397
 3150SOL    HW121086   3.317   0.058   8.482  1.4040 -1.6662  0.1159
 3150SOL    HW221087   3.448   0.108   8.490 -0.9856 -1.7814  0.3282
 3151SOL     OW21088   3.568   4.615   2.433  0.2350 -0.3719  0.5141
 3151SOL    HW121089   3.554   4.707   2.455 -1.6879 -1.2410  2.9236
 3151SOL    HW221090   3.533   4.573   2.511  2.9510  2.2129  3.1303
 3152SOL     OW21091   1.311   3.915  15.397 -0.1680 -0.8154  0.0229
 3152SOL    HW121092   1.289   3.943  15.486 -1.4785 -0.3010 -0.4562
 3152SOL    HW221093   1.237   3.855  15.389 -0.4114 -0.1910 -2.5854
 3153SOL     OW21094   0.291   2.773  17.584 -0.4484 -0.0451 -0.1675
 3153SOL    HW121095   0.287   2.689  17.629  1.3867 -2.3508 -4.3271
 3153SOL    HW221096   0.221   2.811  17.638 -0.9957  1.3701 -1.8535
 3154SOL     OW21097   4.652   0.460  17.700 -0.1385 -0.0358 -0.3318
 3154SOL    HW121098   4.625   0.505   0.031 -0.1601  1.3851 -1.1347
 3154SOL    HW221099   4.717   0.399  17.734  1.4655  0.4317 -2.5860
 3155SOL     OW21100   2.396   1.314   3.037 -0.2099  0.3535  0.2112
 3155SOL    HW121101   2.471   1.373   3.026 -1.5611  1.5578 -2.7112
 3155SOL    HW221102   2.433   1.237   2.995  0.8837  0.9636  0.0471
 3156SOL     OW21103   1.976   2.652   3.556  0.1951  0.3384  0.1956
 3156SOL    HW121104   2.067   2.625   3.543  0.7136  2.7316 -1.1818
 3156SOL    HW221105   1.968   2.658   3.651  0.0054 -1.3619  0.2859
 3157SOL     OW21106   1.940   3.364   8.725 -0.1791  0.7853 -0.3389
 3157SOL    HW121107   1.848   3.389   8.715 -0.1522  0.4817 -1.3479
 3157SOL    HW221108   1.942   3.315   8.807 -1.5369  2.2417  0.5770
 3158SOL     OW21109   2.291   1.680   2.610  0.1609  0.0853  0.4887
 3158SOL    HW121110   2.306   1.676   2.704  0.9540 -0.7339  0.3253
 3158SOL    HW221111   2.335   1.760   2.582 -1.6284  0.8258 -0.1953
 3159SOL     OW21112   0.735   0.123   2.992  0.2778 -0.3501 -0.4491
 3159SOL    HW121113   0.711   0.152   3.080 -1.5312 -0.9359 -0.7581
 3159SOL    HW221114   0.786   0.045   3.012  1.5899  1.7126  4.3039
 3160SOL     OW21115   1.272   1.302   7.272  0.5462 -1.0911  0.3810
 3160SOL    HW121116   1.302   1.327   7.185 -1.0535 -1.1165 -0.1769
 3160SOL    HW221117   1.303   1.211   7.269  0.4361 -1.0998 -0.3184
 3161SOL     OW21118   2.413   0.817   1.523 -0.1829 -0.0961  0.2255
 3161SOL    HW121119   2.359   0.830   1.445  2.5601  0.6399 -1.5413
 3161SOL    HW221120   2.502   0.788   1.503 -0.5098 -1.0811  0.1988
 3162SOL     OW21121   3.715   3.763   3.048  0.6908 -0.5670 -0.4319
 3162SOL    HW121122   3.779   3.775   3.118 -0.7267 -0.6442  0.8550
 3162SOL    HW221123   3.632   3.756   3.095 -0.0727  1.2434 -1.5029
 3163SOL     OW21124   2.215   2.952   8.016  0.0690  0.0006 -0.8244
 3163SOL    HW121125   2.292   2.895   8.011 -0.3233 -0.6997  1.1119
 3163SOL    HW221126   2.161   2.907   7.951 -1.3779 -0.6106  0.8136
 3164SOL     OW21127   2.152   1.406   3.580 -0.3182  0.1308  0.1675
 3164SOL    HW121128   2.240   1.400   3.543 -1.0642 -0.1842 -1.5818
 3164SOL    HW221129   2.144   1.501   3.572  0.8282  0.1336 -0.9173
 3165SOL     OW21130   0.169   3.710  14.870 -0.2208 -0.1041 -0.7669
 3165SOL    HW121131   0.132   3.625  14.895  0.5506  0.0528  0.9055
 3165SOL    HW221132   0.103   3.746  14.811  0.7914  0.6976 -1.4004
 3166SOL     OW21133   2.779   1.172   9.293 -0.1888  0.6756 -0.2300
 3166SOL    HW121134   2.791   1.106   9.225 -0.2987 -1.1150  1.4808
 3166SOL    HW221135   2.823   1.249   9.258 -0.0094  0.9836  0.6582
 3167SOL     OW21136   0.664   1.810   7.424 -0.1859  0.4582 -0.5078
 3167SOL    HW121137   0.677   1.851   7.510  0.6938 -0.5170 -0.1715
 3167SOL    HW221138   0.648   1.891   7.377 -3.2768  0.1193 -0.0657
 3168SOL     OW21139   0.914   2.257   6.765 -0.0631 -0.3853 -0.4721
 3168SOL    HW121140   0.870   2.241   6.682 -0.4561  1.4186 -0.6150
 3168SOL    HW221141   0.913   2.352   6.771  1.3829 -0.4423  0.6917
 3169SOL     OW21142   2.492   1.423   6.601 -0.2970 -0.4176 -0.0473
 3169SOL    HW121143   2.523   1.339   6.567 -1.0241 -1.3708  1.6335
 3169SOL    HW221144   2.434   1.455   6.533 -1.0685 -1.1519  0.2757
 3170SOL     OW21145   3.691   4.495   8.112  0.1662  0.1219 -0.2660
 3170SOL    HW121146   3.635   4.452   8.177 -0.0759 -0.6513 -0.9728
 3170SOL    HW221147   3.643   4.491   8.028  1.4135 -0.2191 -0.9592
 3171SOL     OW21148   3.952   2.547   7.440 -0.0686 -0.4571 -0.2442
 3171SOL    HW121149   4.000   2.474   7.480  2.7070  1.0845 -0.7014
 3171SOL    HW221150   3.914   2.588   7.517  2.9329 -1.4765  1.7859
 3172SOL     OW21151   2.712   3.690   1.231 -0.1833 -0.0848 -0.0605
 3172SOL    HW121152   2.725   3.595   1.241  1.9342  0.2044 -0.0664
 3172SOL    HW221153   2.763   3.716   1.154  1.4278 -1.8550  0.3877
 3173SOL     OW21154   1.205   0.757   9.535  0.1629 -0.3639 -0.2920
 3173SOL    HW121155   1.287   0.786   9.495 -0.8829  0.1349 -2.0840
 3173SOL    HW221156   1.223   0.737   9.627  0.5252  3.0151  0.3810
 3174SOL     OW21157   4.129   2.429   8.236  0.3203 -0.5908  0.8561
 3174SOL    HW121158   4.194   2.447   8.303  1.7778 -1.8163 -0.2126
 3174SOL    HW221159   4.141   2.334   8.231  1.0239 -0.4795  0.4182
 3175SOL     OW21160   1.310   0.642   2.627 -0.2243  0.0724  0.3109
 3175SOL    HW121161   1.256   0.643   2.548 -0.0044  0.1702  0.1633
 3175SOL    HW221162   1.393   0.671   2.589 -1.6638  2.5124 -0.9595
 3176SOL     OW21163   3.113   2.697  11.242  0.0675  0.5320  0.1958
 3176SOL    HW121164   3.083   2.635  11.309  0.1681  0.4432  0.1576
 3176SOL    HW221165   3.084   2.669  11.155 -2.3477  3.1822  0.1144
 3177SOL     OW21166   2.946   0.348   2.078  0.4298 -0.2343 -0.4185
 3177SOL    HW121167   2.983   0.269   2.040  0.8543  0.5327 -1.6009
 3177SOL    HW221168   2.863   0.367   2.035  1.1735  2.5554 -0.6392
 3178SOL     OW21169   1.260   2.182   3.982 -0.2745 -0.1332 -0.2038
 3178SOL    HW121170   1.288   2.140   3.901  0.2941  0.0216 -0.0910
 3178SOL    HW221171   1.326   2.166   4.050 -1.5277 -0.6389  0.8852
 3179SOL     OW21172   4.404   1.405  11.444 -0.0573  0.5220  0.4252
 3179SOL    HW121173   4.426   1.495  11.423 -2.3467  0.8867 -0.4703
 3179SOL    HW221174   4.439   1.399  11.533  0.0755  0.3697  0.3609
 3180SOL     OW21175   4.039   1.838   7.759 -0.2240  0.4723  0.2074
 3180SOL    HW121176   4.036   1.753   7.716 -0.1116  0.1814  0.7849
 3180SOL    HW221177   4.122   1.879   7.737  0.1110 -0.3120  0.0159
 3181SOL     OW21178   1.761   0.506  12.707 -0.0114 -0.5546  0.0210
 3181SOL    HW121179   1.684   0.452  12.689  0.2711 -0.6320 -0.9621
 3181SOL    HW221180   1.840   0.452  12.705  0.3644  0.0474 -1.2647
 3182SOL     OW21181   2.699   4.240  13.361  0.1585 -0.3724 -0.9266
 3182SOL    HW121182   2.702   4.332  13.389 -0.1082 -0.5247 -0.4012
 3182SOL    HW221183   2.637   4.200  13.423 -0.1607 -0.3726 -1.2447
 3183SOL     OW21184   1.779   4.715  17.552 -0.3051  0.0446  0.9628
 3183SOL    HW121185   1.839   4.660  17.604  1.5450  0.0453 -1.1597
 3183SOL    HW221186   1.830   4.708  17.471  0.9072 -1.5335  1.8509
 3184SOL     OW21187   2.259   2.767   3.247  0.1470  0.2215  0.3795
 3184SOL    HW121188   2.265   2.778   3.152 -1.4800  1.1320  0.3778
 3184SOL    HW221189   2.181   2.817   3.271 -0.1538 -1.1746  2.3116
 3185SOL     OW21190   3.267   0.207   3.867 -0.0304 -0.2729 -0.0461
 3185SOL    HW121191   3.281   0.148   3.941 -2.6366  1.6562  1.9993
 3185SOL    HW221192   3.304   0.289   3.901 -0.1740 -0.5572  0.7909
 3186SOL     OW21193   0.684   3.072   1.972  0.4751 -0.3326  0.5012
 3186SOL    HW121194   0.612   3.023   1.932  0.8532 -0.6603  0.2255
 3186SOL    HW221195   0.703   3.127   1.896 -0.5224 -1.2186 -0.3886
 3187SOL     OW21196   2.798   2.443   4.659  0.2802 -0.6557  0.2564
 3187SOL    HW121197   2.761   2.515   4.607 -1.1228 -1.5685 -0.0187
 3187SOL    HW221198   2.829   2.478   4.742  0.3262  0.5543 -0.2607
 3188SOL     OW21199   0.120   2.615   0.502 -0.1436 -0.0355 -0.0926
 3188SOL    HW121200   0.028   2.619   0.527  0.0749  1.9521  0.4254
 3188SOL    HW221201   0.154   2.543   0.555 -0.7306 -1.4697 -1.6682
 3189SOL     OW21202   3.638   1.533   2.641 -0.3554  0.2229 -0.4080
 3189SOL    HW121203   3.709   1.592   2.619 -0.0608  0.5782  1.4516
 3189SOL    HW221204   3.611   1.567   2.727  0.0115 -0.0897 -0.1682
 3190SOL     OW21205   2.400   4.372   8.214 -0.1038 -0.2267 -0.4948
 3190SOL    HW121206   2.485   4.355   8.173 -0.2973 -0.7904 -0.6616
 3190SOL    HW221207   2.415   4.453   8.262 -0.0475  0.4723 -1.6914
 3191SOL     OW21208   3.298   3.419   5.745 -1.2200 -0.0303 -1.0381
 3191SOL    HW121209   3.214   3.459   5.766 -0.2151  0.3251  2.2281
 3191SOL    HW221210   3.287   3.375   5.661  2.4649  0.1531 -1.6190
 3192SOL     OW21211   3.641   4.309   0.572  0.4527  0.0438  0.5219
 3192SOL    HW121212   3.722   4.265   0.599  0.8732  1.8249  2.1331
 3192SOL    HW221213   3.681   4.393   0.551 -0.0287 -0.1418 -1.1533
 3193SOL     OW21214   3.486   1.020  13.017 -0.5513  0.1212  0.5971
 3193SOL    HW121215   3.554   1.034  12.951  0.6498  1.0121  2.0352
 3193SOL    HW221216   3.495   1.099  13.069  0.1192  0.7001 -0.3943
 3194SOL     OW21217   4.381   4.193  17.169  0.4094  0.7705 -0.2703
 3194SOL    HW121218   4.452   4.160  17.114 -0.2836 -2.1132  0.5188
 3194SOL    HW221219   4.352   4.113  17.213  0.4310 -0.0821 -1.8133
 3195SOL     OW21220   2.382   3.229   6.684 -0.1475  0.0583 -0.1907
 3195SOL    HW121221   2.434   3.287   6.740  1.3007 -0.5552 -0.9054
 3195SOL    HW221222   2.324   3.292   6.640  0.2769  0.4751 -0.1477
 3196SOL     OW21223   2.511   4.568  12.794  0.1524  0.0139  0.5801
 3196SOL    HW121224   2.485   4.496  12.852 -0.8350 -0.4851 -0.4728
 3196SOL    HW221225   2.594   4.544  12.753  0.1866 -0.0598  0.6917
 3197SOL     OW21226   2.014   3.689   2.812  0.0523 -0.0800  0.0964
 3197SOL    HW121227   2.055   3.604   2.804 -0.7297 -0.5340  0.8185
 3197SOL    HW221228   2.037   3.714   2.902  0.7821  0.8721 -0.3526
 3198SOL     OW21229   1.937   4.171  10.590  0.0061 -0.6213 -0.0153
 3198SOL    HW121230   1.984   4.160  10.507  0.7185 -2.1420  0.5926
 3198SOL    HW221231   1.880   4.094  10.593  1.8269 -1.9326  0.8852
 3199SOL     OW21232   0.680   1.933  15.439  0.0060 -0.3018  0.1241
 3199SOL    HW121233   0.711   1.879  15.512 -2.3527 -0.2545  1.1548
 3199SOL    HW221234   0.765   1.961  15.405 -0.3702 -2.0429 -2.2780
 3200SOL     OW21235   0.799   2.579   2.707  0.5974 -0.2327  0.1497
 3200SOL    HW121236   0.777   2.659   2.659 -2.2382 -3.7822 -4.4141
 3200SOL    HW221237   0.737   2.593   2.779 -1.0859  0.0623 -1.3371
 3201SOL     OW21238   0.035   2.029   6.046 -0.1711  0.1028 -0.0346
 3201SOL    HW121239   0.011   2.099   6.106  2.4411 -0.3320  1.4807
 3201SOL    HW221240   0.028   2.080   5.965 -1.2777  1.4719  0.9415
 3202SOL     OW21241   0.154   2.560   6.815  0.3555 -0.1528 -0.0641
 3202SOL    HW121242   0.059   2.544   6.818 -0.0032  1.6633 -1.3166
 3202SOL    HW221243   0.152   2.653   6.837 -0.0921 -0.0203 -0.6602
 3203SOL     OW21244   4.553   4.715  15.247 -0.1990  0.2062  0.2947
 3203SOL    HW121245   4.642   4.707  15.281 -0.1154  1.9903  0.5090
 3203SOL    HW221246   4.560   0.063  15.205 -1.7823 -1.2208 -2.9239
 3204SOL     OW21247   0.215   0.692  11.233 -0.4028 -0.5906  0.7464
 3204SOL    HW121248   0.228   0.599  11.249 -0.5153 -0.8841 -0.9047
 3204SOL    HW221249   0.138   0.713  11.287  0.7457  0.8442  1.8538
 3205SOL     OW21250   1.610   4.477   7.918 -0.2706 -0.2253  0.1287
 3205SOL    HW121251   1.540   4.540   7.928  0.4011  0.7374 -1.2764
 3205SOL    HW221252   1.614   4.446   8.009 -1.1429 -1.5899 -0.2963
 3206SOL     OW21253   2.606   2.474   6.029  0.7520 -0.2502 -0.3783
 3206SOL    HW121254   2.581   2.545   6.089 -0.8255 -0.6002 -0.6061
 3206SOL    HW221255   2.701   2.477   6.040  0.7239 -3.6053  0.6975
 3207SOL     OW21256   1.723   3.514   0.596  0.1932  0.3890 -0.1425
 3207SOL    HW121257   1.700   3.421   0.590  1.7216  0.1086 -1.5830
 3207SOL    HW221258   1.758   3.513   0.685 -1.6731 -1.4158  0.5869
 3208SOL     OW21259   0.297   4.485  14.399 -0.5769 -0.1492 -0.0917
 3208SOL    HW121260   0.379   4.471  14.353 -1.2733 -1.1314 -1.0269
 3208SOL    HW221261   0.320   4.472  14.491 -1.2432  1.4631  0.3128
 3209SOL     OW21262   4.271   3.963   3.502 -0.3144  0.5157  0.3241
 3209SOL    HW121263   4.360   3.993   3.523 -0.4980  0.6304  0.9098
 3209SOL    HW221264   4.285   3.903   3.428 -3.4221  2.0588 -1.4914
 3210SOL     OW21265   4.149   0.731   7.727 -0.3311 -0.1761  0.2968
 3210SOL    HW121266   4.204   0.675   7.672  2.1443  0.5720  2.0414
 3210SOL    HW221267   4.191   0.722   7.812 -1.5360 -1.9246  0.6915
 3211SOL     OW21268   0.746   3.715   2.280  0.7682 -0.0879  0.3832
 3211SOL    HW121269   0.760   3.696   2.188 -2.3978  0.1064 -0.1334
 3211SOL    HW221270   0.657   3.680   2.288  1.8415 -2.3262  2.6835
 3212SOL     OW21271   0.054   0.483   3.604  0.2098 -0.2318 -0.0927
 3212SOL    HW121272   0.123   0.482   3.671  1.0721 -0.1305 -0.9868
 3212SOL    HW221273   0.072   0.397   3.567 -3.6705 -0.8793 -0.5046
 3213SOL     OW21274   4.158   4.069   8.742 -0.1377 -0.1203 -0.0415
 3213SOL    HW121275   4.165   3.999   8.677  0.0249  0.4816 -0.6720
 3213SOL    HW221276   4.230   4.128   8.718 -0.8011  0.1005 -1.5175
 3214SOL     OW21277   3.988   1.335   8.435  0.0135 -0.0345  0.6302
 3214SOL    HW121278   3.961   1.397   8.503 -1.4692  0.5798 -0.4985
 3214SOL    HW221279   4.076   1.304   8.453 -0.3459 -1.6828 -0.5043
 3215SOL     OW21280   2.997   3.716   9.193 -0.2235 -0.2396 -0.0511
 3215SOL    HW121281   3.079   3.765   9.198 -0.0926 -0.4110 -0.4864
 3215SOL    HW221282   3.018   3.652   9.261 -0.2102 -0.4574 -0.2620
 3216SOL     OW21283   3.002   4.572   1.807 -0.0593 -0.0256 -0.0639
 3216SOL    HW121284   3.048   4.532   1.880  1.5353  1.9633  0.0203
 3216SOL    HW221285   3.066   4.539   1.744  0.2437  0.6440 -0.1131
 3217SOL     OW21286   0.125   0.327  14.019 -0.3447 -0.3236  0.0836
 3217SOL    HW121287   0.085   0.402  13.975 -1.1059 -0.9357 -0.2804
 3217SOL    HW221288   0.208   0.361  14.052 -0.1965  1.4382 -2.1540
 3218SOL     OW21289   0.073   3.935   5.144  0.4276  0.7055 -0.3187
 3218SOL    HW121290   0.014   3.864   5.168  0.0296  1.3351  0.5282
 3218SOL    HW221291   0.039   4.004   5.200 -1.7475 -0.8527  0.2856
 3219SOL     OW21292   1.062   3.932  13.236  0.6758 -0.0815  0.6060
 3219SOL    HW121293   1.114   3.872  13.183  2.4645 -0.4129  2.7472
 3219SOL    HW221294   1.081   3.894  13.322  0.3539 -2.8125 -0.5106
 3220SOL     OW21295   4.659   4.226   6.833 -0.2404 -0.2415 -0.0875
 3220SOL    HW121296   4.632   4.145   6.876 -2.3392  0.3280 -0.3150
 3220SOL    HW221297   4.691   4.193   6.749 -1.7746 -1.2213 -0.2926
 3221SOL     OW21298   4.092   0.777   6.371 -0.2113 -0.0286 -0.3030
 3221SOL    HW121299   4.115   0.870   6.372 -2.1011  0.4339 -0.1924
 3221SOL    HW221300   4.087   0.755   6.278 -1.1724 -0.4163 -0.1568
 3222SOL     OW21301   3.748   1.201   6.160 -0.5376 -0.1553 -0.1699
 3222SOL    HW121302   3.690   1.226   6.088 -0.6082 -0.8469 -0.3533
 3222SOL    HW221303   3.697   1.239   6.232  0.4241  3.0068 -1.1594
 3223SOL     OW21304   4.108   2.957   8.521  0.3639  0.0705 -0.1352
 3223SOL    HW121305   4.173   2.978   8.454 -1.5446 -3.1671 -3.0168
 3223SOL    HW221306   4.119   3.035   8.575 -2.8185  0.4424 -0.0386
 3224SOL     OW21307   4.249   3.879   6.982 -0.7183 -0.2204 -0.1116
 3224SOL    HW121308   4.233   3.896   7.075  2.7792  1.5338  0.1730
 3224SOL    HW221309   4.158   3.863   6.959 -0.1076 -1.1025 -1.9370
 3225SOL     OW21310   0.517   2.251  15.786 -0.5547 -0.3302 -0.1471
 3225SOL    HW121311   0.533   2.166  15.827 -0.5998  0.3514  1.2676
 3225SOL    HW221312   0.424   2.262  15.807 -0.4788  1.3320 -0.7150
 3226SOL     OW21313   2.824   3.864   2.432  0.0852  0.2431  0.5414
 3226SOL    HW121314   2.736   3.828   2.417  0.4874  0.5503 -2.5429
 3226SOL    HW221315   2.849   3.895   2.345  0.8175 -4.7353 -0.9715
 3227SOL     OW21316   0.829   4.234   2.494 -0.1725  0.4482 -0.2516
 3227SOL    HW121317   0.831   4.315   2.444  1.7015  1.1072  0.8818
 3227SOL    HW221318   0.760   4.249   2.559 -1.3302  2.8541 -2.0358
 3228SOL     OW21319   1.060   2.357   7.926  0.1508  0.2508 -0.3236
 3228SOL    HW121320   1.078   2.384   7.836  1.2720 -0.1270 -0.1990
 3228SOL    HW221321   1.111   2.421   7.976 -0.5645 -0.2182  0.9984
 3229SOL     OW21322   4.478   1.613   3.278  0.0359  0.0337 -0.1802
 3229SOL    HW121323   4.547   1.633   3.341  0.0708  1.6796 -0.7331
 3229SOL    HW221324   4.537   1.581   3.210  0.3421 -0.8759  0.5161
 3230SOL     OW21325   3.730   1.216   3.651  0.2298 -0.0696 -0.0988
 3230SOL    HW121326   3.797   1.215   3.583  0.0101  0.0993 -0.3164
 3230SOL    HW221327   3.647   1.200   3.606 -0.7639  1.5601  1.1710
 3231SOL     OW21328   2.526   0.420  16.916  0.5337  0.3139  0.4393
 3231SOL    HW121329   2.577   0.349  16.955  0.0666 -0.6810 -0.7603
 3231SOL    HW221330   2.442   0.411  16.961  0.7722  0.1033  0.8503
 3232SOL     OW21331   4.433   4.286   9.316  0.1747 -0.2418 -0.1306
 3232SOL    HW121332   4.441   4.227   9.241  0.1520  0.9006 -1.0258
 3232SOL    HW221333   4.366   4.348   9.289  0.8657  0.5737  0.0394
 3233SOL     OW21334   1.284   1.319   4.839 -0.3413 -0.5739 -0.3733
 3233SOL    HW121335   1.226   1.377   4.791 -1.0116 -2.2880 -1.6294
 3233SOL    HW221336   1.275   1.235   4.793  0.5577 -0.3388 -0.9773
 3234SOL     OW21337   0.675   1.432   4.758 -0.1535  0.3627 -0.3158
 3234SOL    HW121338   0.754   1.378   4.752 -0.5279 -0.1603 -0.5787
 3234SOL    HW221339   0.705   1.523   4.752 -2.3944  1.0035 -1.7247
 3235SOL     OW21340   0.461   3.750  16.065 -0.0914 -0.5486 -0.4453
 3235SOL    HW121341   0.531   3.796  16.019 -1.6520  2.8632  0.5899
 3235SOL    HW221342   0.389   3.812  16.053  0.3577 -0.1317 -1.0164
 3236SOL     OW21343   3.432   3.566   2.037 -0.1255  0.6542 -0.8794
 3236SOL    HW121344   3.513   3.564   1.985 -0.5543 -2.8066 -1.3907
 3236SOL    HW221345   3.434   3.480   2.078  2.0747  1.3396  0.4655
 3237SOL     OW21346   4.155   3.275  17.674 -0.1758 -0.4712 -0.5426
 3237SOL    HW121347   4.219   3.280  17.602 -0.9242 -0.8088 -1.2265
 3237SOL    HW221348   4.160   3.180  17.677  0.4255 -0.3881  1.2736
 3238SOL     OW21349   0.377   1.422   8.887 -0.2647 -0.1722  0.7433
 3238SOL    HW121350   0.445   1.481   8.917 -1.8815  1.4291  1.2589
 3238SOL    HW221351   0.420   1.341   8.859  0.2875 -0.0830  1.3172
 3239SOL     OW21352   1.139   0.991  10.942  0.2678  0.0398 -0.5014
 3239SOL    HW121353   1.127   1.008  11.035 -0.9068  1.3771 -0.9013
 3239SOL    HW221354   1.224   0.946  10.943  0.8221  1.1022  0.4138
 3240SOL     OW21355   3.314   2.468   6.366 -0.2938  0.1644 -0.2865
 3240SOL    HW121356   3.362   2.508   6.438 -1.1565 -2.3337  1.6523
 3240SOL    HW221357   3.305   2.552   6.319 -0.1871  0.5374  0.3587
 3241SOL     OW21358   4.020   1.808  17.051 -0.2306 -0.0374  0.4913
 3241SOL    HW121359   4.002   1.897  17.079  1.3315  0.2031  0.7012
 3241SOL    HW221360   3.973   1.793  16.969 -0.1397 -3.4002  1.0584
 3242SOL     OW21361   3.228   1.431   3.550  0.0485  0.0637 -0.5586
 3242SOL    HW121362   3.207   1.340   3.568 -0.2739  0.4905  1.2336
 3242SOL    HW221363   3.323   1.429   3.551  0.1170  1.5210 -3.0367
 3243SOL     OW21364   0.759   4.728   8.677  0.4062 -0.7538 -0.4796
 3243SOL    HW121365   0.756   4.666   8.605 -0.1653 -0.4665 -0.7084
 3243SOL    HW221366   0.851   0.016   8.685  0.8363 -2.4106 -0.0873
 3244SOL     OW21367   1.545   1.798   8.522  0.5530  0.0443  0.4105
 3244SOL    HW121368   1.608   1.859   8.561  0.3713  0.2445  0.3930
 3244SOL    HW221369   1.471   1.847   8.485  0.5562  2.6517  3.8385
 3245SOL     OW21370   1.238   4.481   7.860  0.2745 -0.2058  0.1890
 3245SOL    HW121371   1.203   4.559   7.818 -0.6006 -0.4535  0.4710
 3245SOL    HW221372   1.320   4.516   7.895 -1.4539  3.2810  0.6577
 3246SOL     OW21373   3.205   3.502  15.511 -0.5773  0.4686 -0.2055
 3246SOL    HW121374   3.240   3.432  15.566 -1.1274  1.6911  1.6976
 3246SOL    HW221375   3.227   3.579  15.563 -1.5710 -0.3929  1.5317
 3247SOL     OW21376   2.619   1.953   5.099 -0.1361 -0.4119 -0.1798
 3247SOL    HW121377   2.531   1.929   5.070 -0.2459  0.1750 -0.3406
 3247SOL    HW221378   2.678   1.897   5.047  0.8194  0.7536 -0.3595
 3248SOL     OW21379   0.022   2.248   5.266  0.4113  0.0945 -0.0246
 3248SOL    HW121380   0.081   2.175   5.245 -0.0063  0.4616 -2.5324
 3248SOL    HW221381   4.738   2.233   5.358  0.2820 -1.7534 -0.3607
 3249SOL     OW21382   2.550   0.103  10.863  0.2233  0.5375 -0.1330
 3249SOL    HW121383   2.502   0.185  10.854  2.1059  1.3537 -2.7620
 3249SOL    HW221384   2.610   0.105  10.788 -0.5453  2.0869 -0.7034
 3250SOL     OW21385   2.658   0.098   0.955  0.3080 -0.1306  0.8153
 3250SOL    HW121386   2.590   0.031   0.957 -3.5828  3.7964  0.5706
 3250SOL    HW221387   2.618   0.165   0.900  1.4694 -1.7206 -1.9574
 3251SOL     OW21388   0.294   0.818   3.555 -0.1092 -0.0114 -0.3279
 3251SOL    HW121389   0.295   0.723   3.566 -0.4028 -0.2325 -2.0630
 3251SOL    HW221390   0.200   0.831   3.542 -0.1471  0.1194  0.1084
 3252SOL     OW21391   0.433   2.502   5.842  0.5629 -0.0509  1.1013
 3252SOL    HW121392   0.390   2.529   5.760  0.4421 -1.2261  0.7748
 3252SOL    HW221393   0.497   2.441   5.805 -0.7664 -0.4568 -0.5513
 3253SOL     OW21394   1.267   2.377   2.549  0.3679  0.1891 -0.2202
 3253SOL    HW121395   1.203   2.441   2.578 -1.9378 -2.1788 -0.0735
 3253SOL    HW221396   1.281   2.397   2.456 -0.6917 -0.6008 -0.5453
 3254SOL     OW21397   1.681   1.465   7.391  0.1557 -0.5858  0.0366
 3254SOL    HW121398   1.635   1.493   7.470  0.3873 -0.8547  0.2695
 3254SOL    HW221399   1.711   1.549   7.356  0.3501 -0.1005  1.3564
 3255SOL     OW21400   1.199   2.342   1.887 -0.3687 -0.0420 -1.1703
 3255SOL    HW121401   1.131   2.318   1.950 -2.4889  1.6584 -2.8239
 3255SOL    HW221402   1.152   2.345   1.804 -2.3053 -0.0174 -0.0725
 3256SOL     OW21403   2.777   1.699   0.007  0.0642 -0.1381  0.1273
 3256SOL    HW121404   2.854   1.751  17.732 -0.3131  1.1364  1.6436
 3256SOL    HW221405   2.731   1.752   0.073 -0.8439  0.8689 -1.3169
 3257SOL     OW21406   4.318   1.364  10.015  0.2923 -0.0968  0.4160
 3257SOL    HW121407   4.226   1.388  10.007  0.8983  2.6927  1.5915
 3257SOL    HW221408   4.324   1.351  10.110  0.7268 -1.5511  0.1784
 3258SOL     OW21409   1.573   3.336   8.467 -0.1959 -0.3421 -0.7511
 3258SOL    HW121410   1.506   3.276   8.500  0.8492 -0.6549  0.8372
 3258SOL    HW221411   1.524   3.393   8.407  1.2822  2.8559  1.0417
 3259SOL     OW21412   3.312   3.698   5.148 -0.2695  0.2653  0.0570
 3259SOL    HW121413   3.234   3.653   5.113  0.6430 -1.4900  0.2560
 3259SOL    HW221414   3.386   3.652   5.107 -0.2248 -1.6884  2.3361
 3260SOL     OW21415   1.572   2.432  16.864  0.2794  0.2998  0.8021
 3260SOL    HW121416   1.588   2.511  16.916  1.4422  0.6222 -0.0604
 3260SOL    HW221417   1.650   2.382  16.888 -0.0823  0.2786  1.9772
 3261SOL     OW21418   2.655   1.677  12.038  0.2900 -0.1568 -0.3316
 3261SOL    HW121419   2.710   1.679  12.116  1.0628  1.3554 -0.9143
 3261SOL    HW221420   2.569   1.682  12.079  0.6369  0.8757  0.2648
 3262SOL     OW21421   0.700   1.371  10.660 -0.2859 -0.1473  0.4027
 3262SOL    HW121422   0.744   1.454  10.645  1.8805 -1.7976 -2.3641
 3262SOL    HW221423   0.743   1.339  10.739  0.0304  0.0828  0.3214
 3263SOL     OW21424   0.906   0.440   8.650  0.2867  0.1553  1.5582
 3263SOL    HW121425   0.875   0.419   8.738  0.0949  2.5959  2.0723
 3263SOL    HW221426   0.825   0.454   8.601  1.0931 -1.5733 -0.2605
 3264SOL     OW21427   0.683   0.646   3.417 -0.2301 -0.6075  0.0814
 3264SOL    HW121428   0.700   0.622   3.326  1.0882  2.6534 -0.5516
 3264SOL    HW221429   0.750   0.713   3.434  1.7938 -2.1914 -1.6258
 3265SOL     OW21430   4.605   4.114   5.260 -0.0279  0.1538 -0.0181
 3265SOL    HW121431   4.680   4.164   5.226  0.6654 -0.8159  0.1064
 3265SOL    HW221432   4.529   4.161   5.225 -0.0125  0.7011  0.6857
 3266SOL     OW21433   1.291   4.302   8.224 -0.0033 -0.3039 -0.1844
 3266SOL    HW121434   1.314   4.221   8.177  1.1189  0.8732 -1.6682
 3266SOL    HW221435   1.197   4.306   8.209  0.1659  0.9409 -0.9049
 3267SOL     OW21436   4.491   3.355  14.309 -0.4539  0.0083 -0.2992
 3267SOL    HW121437   4.406   3.392  14.284 -0.5288  1.6020  2.3502
 3267SOL    HW221438   4.537   3.424  14.356  0.0263 -1.1642  0.9460
 3268SOL     OW21439   0.508   3.711   2.000  0.6002 -0.3695  0.2388
 3268SOL    HW121440   0.442   3.670   1.944  0.4181  1.1971 -0.7075
 3268SOL    HW221441   0.590   3.677   1.965 -0.0558 -0.4065 -1.2567
 3269SOL     OW21442   4.231   4.497   1.506  0.0705 -0.0313  0.3166
 3269SOL    HW121443   4.270   4.445   1.576  1.1587 -0.0508 -0.3095
 3269SOL    HW221444   4.312   4.513   1.456  0.7605 -2.2856  0.7160
 3270SOL     OW21445   1.167   1.445   7.841  0.0071 -0.2658  0.7972
 3270SOL    HW121446   1.191   1.375   7.781 -0.3687  1.7327 -1.7039
 3270SOL    HW221447   1.240   1.507   7.839 -0.4326  0.2676  1.0379
 3271SOL     OW21448   1.680   4.327   0.704 -0.1973 -0.0460 -0.8105
 3271SOL    HW121449   1.611   4.339   0.769 -0.2199  1.3123 -1.0710
 3271SOL    HW221450   1.745   4.275   0.751  0.6602  2.9590  1.3491
 3272SOL     OW21451   1.417   0.905  10.897  0.4830 -0.3214 -0.5460
 3272SOL    HW121452   1.454   0.973  10.953 -1.9098  1.6957 -1.4401
 3272SOL    HW221453   1.497   0.855  10.877  1.0788  0.3193  0.2407
 3273SOL     OW21454   4.644   0.441  16.847  0.0589 -0.4799 -0.8143
 3273SOL    HW121455   4.718   0.463  16.903 -0.4619  0.6224 -0.5633
 3273SOL    HW221456   4.567   0.444  16.903  0.9485  1.8249  0.2680
 3274SOL     OW21457   1.528   1.630  16.617 -0.1399 -0.2839  0.1304
 3274SOL    HW121458   1.444   1.592  16.642  1.4482 -1.9395  2.9537
 3274SOL    HW221459   1.550   1.582  16.537  0.6810  1.6958 -0.8558
 3275SOL     OW21460   3.190   3.628   2.307  0.2395 -0.3153 -0.1970
 3275SOL    HW121461   3.103   3.616   2.346 -0.8315  2.2785 -1.7816
 3275SOL    HW221462   3.176   3.622   2.213 -0.0789 -0.0026 -0.1682
 3276SOL     OW21463   2.003   2.570   8.812  0.1805 -0.5496  0.1253
 3276SOL    HW121464   1.937   2.573   8.882  1.0710 -0.2316  0.9401
 3276SOL    HW221465   2.081   2.582   8.867 -0.2787  2.6027  0.0509
 3277SOL     OW21466   2.784   1.125   4.727 -0.0614 -0.0376 -0.2027
 3277SOL    HW121467   2.726   1.048   4.726  1.7157 -1.3860  0.0974
 3277SOL    HW221468   2.723   1.197   4.745 -1.9926 -1.8371  0.5501
 3278SOL     OW21469   3.012   0.309  16.882 -0.2317 -0.1493 -0.3519
 3278SOL    HW121470   2.978   0.396  16.904  2.1004  0.3426  1.2424
 3278SOL    HW221471   3.012   0.262  16.965 -1.6085  1.4711  0.5680
 3279SOL     OW21472   1.052   0.052  12.399  0.0733  0.1246 -0.6007
 3279SOL    HW121473   1.089   4.701  12.397  2.4517  1.1205 -0.2933
 3279SOL    HW221474   0.960   0.030  12.413 -0.3951  2.1649 -0.5113
 3280SOL     OW21475   0.414   3.581  14.104 -0.2326 -0.2841  0.1538
 3280SOL    HW121476   0.465   3.656  14.071  0.0225 -1.8781 -3.1091
 3280SOL    HW221477   0.434   3.519  14.034  0.3771  1.0012 -0.8183
 3281SOL     OW21478   0.539   1.052   2.849 -0.4524  0.1066  0.0152
 3281SOL    HW121479   0.635   1.042   2.844 -0.4434 -0.0990  0.5609
 3281SOL    HW221480   0.524   1.142   2.821 -2.7894  0.2777  1.9121
 3282SOL     OW21481   1.085   3.954   2.157 -0.1514 -0.3207  0.3156
 3282SOL    HW121482   1.175   3.970   2.130 -0.0971 -0.4557  0.4165
 3282SOL    HW221483   1.053   4.036   2.196 -1.3721 -0.3120 -0.6847
 3283SOL     OW21484   1.187   0.333   4.798  0.1679 -0.4531  0.7246
 3283SOL    HW121485   1.191   0.238   4.807 -0.0064 -0.6462 -1.1009
 3283SOL    HW221486   1.265   0.354   4.850  0.3421  1.4813 -0.3293
 3284SOL     OW21487   3.594   0.989   8.872 -0.0389  0.3432 -0.3954
 3284SOL    HW121488   3.631   0.975   8.785  0.7740 -0.3860  0.0786
 3284SOL    HW221489   3.623   0.910   8.917 -2.8753 -1.8033 -2.3708
 3285SOL     OW21490   2.968   1.430  14.481 -0.5356  0.0447  1.1941
 3285SOL    HW121491   2.895   1.370  14.492 -0.8665  0.3160  0.4603
 3285SOL    HW221492   2.985   1.431  14.386  1.1102  1.5959  1.5089
 3286SOL     OW21493   1.827   3.589  12.652 -0.4784  0.3159  0.8186
 3286SOL    HW121494   1.778   3.566  12.574 -2.2414  1.4745  1.5990
 3286SOL    HW221495   1.902   3.529  12.650 -0.2787  0.5254  2.0111
 3287SOL     OW21496   1.102   1.838   3.400  0.3940  0.3866 -0.0391
 3287SOL    HW121497   1.036   1.867   3.463 -1.4242 -1.2708 -1.1815
 3287SOL    HW221498   1.073   1.885   3.322  1.7501  0.4607 -0.4877
 3288SOL     OW21499   2.272   3.514   8.342  0.0272 -0.3159 -0.6295
 3288SOL    HW121500   2.326   3.489   8.266  1.9656 -0.0814  0.6728
 3288SOL    HW221501   2.182   3.497   8.317  0.0023  0.8953 -1.3628
 3289SOL     OW21502   3.427   2.433   2.293 -0.0032  0.0870  0.4848
 3289SOL    HW121503   3.382   2.415   2.211  3.0571 -2.0941 -0.6906
 3289SOL    HW221504   3.490   2.499   2.265  1.5358 -1.9252 -0.7906
 3290SOL     OW21505   4.370   0.867   7.317 -0.0401  0.2881 -0.0631
 3290SOL    HW121506   4.415   0.783   7.314  0.2676  0.4258  0.6939
 3290SOL    HW221507   4.281   0.841   7.338 -0.0286  1.2032  1.1159
 3291SOL     OW21508   3.887   3.623   3.679  0.0242 -0.0391 -0.8355
 3291SOL    HW121509   3.839   3.634   3.597  1.4144  2.8675 -1.2622
 3291SOL    HW221510   3.823   3.566   3.722 -0.2077  0.5933 -0.3320
 3292SOL     OW21511   3.984   2.502   4.949  0.6897  0.0953 -0.0945
 3292SOL    HW121512   3.926   2.544   4.884  0.0828 -3.0688 -1.5747
 3292SOL    HW221513   3.928   2.437   4.992 -3.9859  3.9369 -0.2628
 3293SOL     OW21514   2.763   4.262   5.449 -0.5293  0.3231 -0.6515
 3293SOL    HW121515   2.803   4.336   5.495  0.5928 -1.3122  1.0064
 3293SOL    HW221516   2.749   4.310   5.368  0.9341 -0.7188 -1.5202
 3294SOL     OW21517   3.518   3.695   5.582  0.0907 -0.2409 -0.2809
 3294SOL    HW121518   3.533   3.653   5.666  0.9619 -0.7398 -0.6831
 3294SOL    HW221519   3.427   3.674   5.560  0.2011 -1.2464  0.1977
 3295SOL     OW21520   4.127   1.567   2.551 -0.5783 -0.2942  0.3707
 3295SOL    HW121521   4.104   1.491   2.606  0.2876 -2.2983 -2.0428
 3295SOL    HW221522   4.203   1.596   2.601  0.1436 -0.1158 -0.8444
 3296SOL     OW21523   2.285   0.881   3.563  0.2594  0.2180  0.3066
 3296SOL    HW121524   2.194   0.856   3.547  1.1882 -1.2466 -2.6420
 3296SOL    HW221525   2.331   0.823   3.503 -1.3451  0.1614 -0.8444
 3297SOL     OW21526   3.903   4.692  10.831  0.3261  0.0511 -0.2510
 3297SOL    HW121527   3.979   4.733  10.790  0.5482 -0.6546 -0.5351
 3297SOL    HW221528   3.915   4.718  10.923  2.2717 -1.2935 -0.1261
 3298SOL     OW21529   1.264   1.940   5.660 -0.3199 -0.1319  0.4568
 3298SOL    HW121530   1.256   1.845   5.667  0.3378 -0.1785  0.5518
 3298SOL    HW221531   1.332   1.953   5.726 -0.0481  2.1031 -0.2654
 3299SOL     OW21532   0.674   0.057  16.562 -0.3582 -0.0884  0.5000
 3299SOL    HW121533   0.688   4.700  16.560 -0.4332 -0.0911 -0.1371
 3299SOL    HW221534   0.639   0.058  16.651  2.0387  0.4947  1.4380
 3300SOL     OW21535   1.492   0.585   1.845  0.4142  0.1810 -0.3934
 3300SOL    HW121536   1.539   0.668   1.836  1.6481 -0.5570 -0.7167
 3300SOL    HW221537   1.506   0.542   1.761 -3.0826  0.4306 -1.1028
 3301SOL     OW21538   0.566   0.440   5.651 -0.2526  0.3086  0.1235
 3301SOL    HW121539   0.659   0.436   5.672 -0.2045  0.6565 -0.0185
 3301SOL    HW221540   0.573   0.484   5.566 -0.2560 -0.0997 -0.0901
 3302SOL     OW21541   1.603   2.748  12.486  0.4367  0.0728  0.1284
 3302SOL    HW121542   1.612   2.744  12.581  3.0247 -1.0825 -0.1695
 3302SOL    HW221543   1.570   2.663  12.456 -0.6926  0.4480  0.3114
 3303SOL     OW21544   1.271   3.779   4.595  0.4899  0.5506  0.1529
 3303SOL    HW121545   1.281   3.832   4.516  1.6946  1.2818  0.7852
 3303SOL    HW221546   1.358   3.742   4.607  0.2459 -1.0269 -2.9668
 3304SOL     OW21547   3.899   4.456   2.523  0.1638 -0.2662 -0.3759
 3304SOL    HW121548   3.827   4.447   2.586 -0.5355 -0.3257 -1.1916
 3304SOL    HW221549   3.894   4.551   2.523  1.5498 -0.1865  1.2776
 3305SOL     OW21550   4.218   3.974   3.869  0.6458 -0.0288 -0.2240
 3305SOL    HW121551   4.308   4.006   3.869  0.7120 -0.2138 -1.7371
 3305SOL    HW221552   4.218   3.918   3.947  2.3788 -0.4853 -0.5461
 3306SOL     OW21553   4.244   1.283   4.632 -0.1309  0.3915  0.0622
 3306SOL    HW121554   4.226   1.249   4.720  0.7876  1.8025  0.8023
 3306SOL    HW221555   4.259   1.375   4.652 -0.1693  0.5381 -0.6072
 3307SOL     OW21556   3.740   1.909   3.058  0.3834  0.2602  0.7199
 3307SOL    HW121557   3.647   1.916   3.037  0.2402 -2.2147  0.5277
 3307SOL    HW221558   3.781   1.890   2.974 -0.4590 -0.6590  0.5245
 3308SOL     OW21559   3.762   2.213   2.383  0.2614  0.0160 -0.5397
 3308SOL    HW121560   3.858   2.208   2.378  0.3774  1.8103 -0.2252
 3308SOL    HW221561   3.743   2.290   2.329  0.6359  1.2462  1.0800
 3309SOL     OW21562   1.579   4.660   6.777 -0.8015 -0.1594 -0.3736
 3309SOL    HW121563   1.509   4.676   6.840  0.1399  0.7161  0.4586
 3309SOL    HW221564   1.659   4.663   6.830 -1.4551  0.0849  0.6071
 3310SOL     OW21565   3.550   4.573   8.731 -0.0887 -0.2802  0.6589
 3310SOL    HW121566   3.589   4.562   8.817  1.2066  0.3431  0.1385
 3310SOL    HW221567   3.562   4.485   8.695  0.1655  0.3344 -0.7724
 3311SOL     OW21568   3.433   3.166   4.175  0.2495 -0.3122 -0.2849
 3311SOL    HW121569   3.449   3.258   4.195  0.1516 -0.2999 -0.2602
 3311SOL    HW221570   3.451   3.126   4.260 -1.0047  0.1879  0.2157
 3312SOL     OW21571   3.264   1.730  17.701  0.0858  0.1451  0.2077
 3312SOL    HW121572   3.322   1.671  17.654  0.5117  0.3262  0.5026
 3312SOL    HW221573   3.314   1.811  17.689  0.1976  0.4045  2.4450
 3313SOL     OW21574   4.449   1.053   8.909 -0.3776  0.1905  0.0264
 3313SOL    HW121575   4.472   1.136   8.951  4.4490 -0.7763 -0.6833
 3313SOL    HW221576   4.529   1.038   8.859 -0.0060 -1.5088  1.1169
 3314SOL     OW21577   3.980   0.897   3.805 -0.1821  0.1792  0.4098
 3314SOL    HW121578   3.950   0.944   3.884 -0.6743  0.7174 -0.0957
 3314SOL    HW221579   4.044   0.836   3.841 -0.2122  0.6371  1.2501
 3315SOL     OW21580   3.619   3.588  15.537 -0.0561 -0.5765  0.3292
 3315SOL    HW121581   3.662   3.524  15.593  2.5738  1.8986  1.1667
 3315SOL    HW221582   3.593   3.540  15.459 -3.6742 -0.2077  1.2846
 3316SOL     OW21583   0.360   1.855   5.803 -0.0465 -0.0906  0.0757
 3316SOL    HW121584   0.451   1.829   5.789  0.4732  1.6893  0.1477
 3316SOL    HW221585   0.344   1.893   5.717 -2.9849  0.6007  0.9013
 3317SOL     OW21586   2.703   2.803   2.071 -0.0211 -0.0319  0.4825
 3317SOL    HW121587   2.644   2.769   2.139  0.2424 -2.5799 -0.5788
 3317SOL    HW221588   2.782   2.770   2.115  0.9759 -0.0040 -1.2959
 3318SOL     OW21589   0.086   2.727   1.069 -0.2122  0.1662 -0.6962
 3318SOL    HW121590   0.008   2.672   1.075  1.2205 -1.8170 -0.4152
 3318SOL    HW221591   0.064   2.786   1.141  1.1734  1.2454 -1.1478
 3319SOL     OW21592   4.664   2.099   2.337  0.4189 -0.0003 -0.0776
 3319SOL    HW121593   4.695   2.009   2.327  1.5602  0.4796 -0.8894
 3319SOL    HW221594   4.630   2.122   2.250  1.7285 -2.4132 -1.2211
 3320SOL     OW21595   4.381   2.217  12.765 -0.0448 -0.3530  0.1105
 3320SOL    HW121596   4.459   2.164  12.779  1.5097  1.3034 -2.3305
 3320SOL    HW221597   4.349   2.162  12.694 -1.8157 -1.9457  2.1619
 3321SOL     OW21598   1.287   3.513   3.428 -0.0514  0.5266  0.0770
 3321SOL    HW121599   1.316   3.514   3.336 -1.1624  1.2632 -0.2670
 3321SOL    HW221600   1.265   3.604   3.447 -2.0211  0.1628 -0.5149
 3322SOL     OW21601   4.512   4.433   0.410 -0.1943 -0.4282 -0.3504
 3322SOL    HW121602   4.440   4.474   0.458  0.7698  0.7041  0.1353
 3322SOL    HW221603   4.588   4.487   0.432  1.3479 -2.3576 -0.9373
 3323SOL     OW21604   4.534   0.704  11.770 -0.4622 -0.1037 -0.1901
 3323SOL    HW121605   4.448   0.661  11.767  0.1510 -1.4075  0.8104
 3323SOL    HW221606   4.549   0.728  11.678 -0.2006  1.2185  0.2029
 3324SOL     OW21607   1.938   3.198   3.973  0.3224 -0.1328  0.3232
 3324SOL    HW121608   1.874   3.142   3.929 -0.2539 -1.2667  2.5932
 3324SOL    HW221609   2.009   3.166   3.917  0.1510  0.1667 -0.0642
 3325SOL     OW21610   1.460   2.352   1.840 -0.1259  0.1037 -0.4011
 3325SOL    HW121611   1.368   2.346   1.864  0.0045  1.3617  0.4147
 3325SOL    HW221612   1.500   2.316   1.920 -2.7701  0.2456  0.9939
 3326SOL     OW21613   2.850   1.304   6.728 -0.8791 -0.4063  0.1217
 3326SOL    HW121614   2.900   1.343   6.656 -1.4503  0.1429  0.0332
 3326SOL    HW221615   2.921   1.281   6.788 -0.8752  1.7931  0.9341
 3327SOL     OW21616   3.161   1.629  14.843 -0.1252  0.7690 -0.3143
 3327SOL    HW121617   3.120   1.634  14.929 -0.8328  1.2561 -0.6837
 3327SOL    HW221618   3.079   1.617  14.795 -0.6888 -0.3193  0.9086
 3328SOL     OW21619   1.593   1.345  11.242  0.1644 -0.0196  0.6360
 3328SOL    HW121620   1.582   1.381  11.154 -0.5989 -0.1312  0.6922
 3328SOL    HW221621   1.674   1.295  11.234 -0.2214 -0.2684 -1.8096
 3329SOL     OW21622   1.326   3.568   6.468 -0.1002 -0.3946 -0.1223
 3329SOL    HW121623   1.254   3.574   6.531 -1.3327 -0.2649 -1.5431
 3329SOL    HW221624   1.285   3.532   6.389  1.1722 -0.0215 -0.9529
 3330SOL     OW21625   0.692   0.482   9.312  0.1422  0.3392  0.4972
 3330SOL    HW121626   0.747   0.478   9.233 -1.0880 -0.5101 -0.3278
 3330SOL    HW221627   0.712   0.567   9.350 -0.1663 -0.2904  2.0881
 3331SOL     OW21628   2.743   1.015   1.644  0.0276 -0.5028 -0.1052
 3331SOL    HW121629   2.761   0.922   1.660  0.8552 -0.0831  1.3581
 3331SOL    HW221630   2.676   1.033   1.710  0.3398  1.8494 -0.4570
 3332SOL     OW21631   1.225   0.644   5.209  0.3752 -0.0257 -0.7294
 3332SOL    HW121632   1.290   0.579   5.232  0.3585  0.0090 -0.5874
 3332SOL    HW221633   1.258   0.720   5.257 -1.9645  1.1189 -0.9135
 3333SOL     OW21634   3.895   0.721  15.879  0.0580  0.1911 -0.2442
 3333SOL    HW121635   3.828   0.731  15.811 -0.1033  0.6591 -0.0176
 3333SOL    HW221636   3.853   0.674  15.951 -2.2289 -1.5600 -2.6804
 3334SOL     OW21637   3.524   0.388   6.421 -0.3523 -0.0572 -0.6726
 3334SOL    HW121638   3.494   0.373   6.511  0.5341 -0.6025 -0.4624
 3334SOL    HW221639   3.557   0.477   6.426  0.9145 -0.4050 -2.9350
 3335SOL     OW21640   3.742   2.782  12.419 -0.5921  0.4202  0.4037
 3335SOL    HW121641   3.698   2.747  12.342 -0.8106 -0.9016  1.1276
 3335SOL    HW221642   3.834   2.789  12.392 -0.1950  0.2248  1.6899
 3336SOL     OW21643   0.273   0.396   1.009 -0.5274  0.0241  0.5420
 3336SOL    HW121644   0.251   0.325   1.070  1.5126 -0.5863  0.5714
 3336SOL    HW221645   0.368   0.404   1.009 -0.4527 -0.8367  0.2756
 3337SOL     OW21646   0.781   2.628   6.011 -0.4225  0.0488  0.4589
 3337SOL    HW121647   0.859   2.574   6.019 -0.6578 -0.1467  1.3636
 3337SOL    HW221648   0.749   2.632   6.101  0.1116  1.7428  0.5670
 3338SOL     OW21649   1.605   0.794   3.241  0.3439 -0.2701  0.2612
 3338SOL    HW121650   1.511   0.784   3.255 -0.2283 -0.8379 -4.1466
 3338SOL    HW221651   1.618   0.882   3.278  0.8073 -1.4438  2.8885
 3339SOL     OW21652   0.525   3.225  14.075 -0.1351 -0.9319 -0.0168
 3339SOL    HW121653   0.561   3.246  14.161 -0.9587 -0.2453  0.1587
 3339SOL    HW221654   0.576   3.147  14.053  0.7279 -0.3263 -0.1678
 3340SOL     OW21655   1.471   1.041   7.554 -0.3100 -0.2406  0.0677
 3340SOL    HW121656   1.378   1.045   7.532 -0.6948 -1.8658  1.3969
 3340SOL    HW221657   1.502   1.099   7.484 -1.7729 -0.7717 -1.0417
 3341SOL     OW21658   1.164   3.579   8.592 -0.8323 -0.3625 -0.4254
 3341SOL    HW121659   1.077   3.569   8.553 -1.8590  1.7093  1.3273
 3341SOL    HW221660   1.189   3.491   8.620  1.1531  0.2674 -0.1939
 3342SOL     OW21661   3.345   3.018  12.867 -0.5955  0.2828 -0.3121
 3342SOL    HW121662   3.365   3.023  12.774 -2.4234  0.2072 -0.7048
 3342SOL    HW221663   3.313   3.107  12.884 -3.0995 -0.8632  0.9655
 3343SOL     OW21664   3.370   2.493   0.900  0.0270  0.8395 -0.2601
 3343SOL    HW121665   3.309   2.474   0.828 -0.2981 -0.5943  0.3957
 3343SOL    HW221666   3.432   2.422   0.884 -1.7524 -0.4655 -1.4093
 3344SOL     OW21667   0.124   2.452  10.629  0.4797  0.4704  0.3458
 3344SOL    HW121668   0.209   2.426  10.665  0.2543 -2.2483 -1.1112
 3344SOL    HW221669   0.116   2.544  10.653 -2.5631  0.3267 -0.1488
 3345SOL     OW21670   0.139   0.471   6.338 -0.4094 -0.2740 -0.1015
 3345SOL    HW121671   0.051   0.503   6.356  0.2474  0.4064  1.8912
 3345SOL    HW221672   0.127   0.456   6.244  1.2174  1.0285 -0.5193
 3346SOL     OW21673   4.157   1.788   6.040 -0.7261 -0.4997 -0.0116
 3346SOL    HW121674   4.242   1.772   6.081  0.0437  0.2246 -1.3377
 3346SOL    HW221675   4.098   1.729   6.086 -0.1252  0.9792  2.6122
 3347SOL     OW21676   0.661   2.561  12.990  0.0838  0.2158  0.3599
 3347SOL    HW121677   0.709   2.530  12.913 -0.0795 -3.2906  1.6413
 3347SOL    HW221678   0.707   2.638  13.022  0.7083 -0.8687  2.0336
 3348SOL     OW21679   3.488   1.881  17.613 -0.0715  0.3922 -0.2579
 3348SOL    HW121680   3.450   1.969  17.603  1.0173  1.0333  1.0897
 3348SOL    HW221681   3.465   1.843  17.529  3.3452  0.1253 -1.0857
 3349SOL     OW21682   3.959   2.987   5.323  0.1021  0.1335  0.1632
 3349SOL    HW121683   4.045   2.978   5.280 -0.0725 -0.1255 -0.1321
 3349SOL    HW221684   3.965   3.078   5.350 -0.7071 -0.5976  2.7302
 3350SOL     OW21685   3.854   1.605   8.766 -0.0350  0.3054  0.0572
 3350SOL    HW121686   3.886   1.541   8.702  0.6883  0.0593  0.6641
 3350SOL    HW221687   3.764   1.573   8.770 -0.1294  0.7107  1.1120
 3351SOL     OW21688   1.471   3.521   8.821 -0.0899 -0.2277 -0.2010
 3351SOL    HW121689   1.448   3.608   8.789 -1.6115  0.2000  2.0996
 3351SOL    HW221690   1.453   3.539   8.913 -2.0553 -0.7773 -0.4856
 3352SOL     OW21691   3.932   1.225   3.468  0.0010  0.0134  0.0697
 3352SOL    HW121692   3.867   1.272   3.416 -0.6219 -2.3210 -1.2521
 3352SOL    HW221693   3.971   1.156   3.415 -1.2283 -0.0693 -0.7046
 3353SOL     OW21694   3.102   1.348   1.459  0.2289  0.6062 -0.3042
 3353SOL    HW121695   3.069   1.288   1.525 -2.3553  3.8073  1.2929
 3353SOL    HW221696   3.126   1.286   1.389 -0.2666  0.8358 -0.6749
 3354SOL     OW21697   1.374   4.092   8.864  0.2146 -0.4945 -0.4653
 3354SOL    HW121698   1.303   4.029   8.874  0.6414 -0.8277  0.5409
 3354SOL    HW221699   1.424   4.060   8.939  0.9774 -1.3888 -1.3669
 3355SOL     OW21700   1.279   3.899   4.178  0.6378 -0.2793 -0.3469
 3355SOL    HW121701   1.240   3.823   4.222 -1.4123  1.4898  0.9100
 3355SOL    HW221702   1.305   3.941   4.261  0.8310  1.1435 -1.1371
 3356SOL     OW21703   4.023   2.843   2.152  0.3653 -0.5574 -0.7240
 3356SOL    HW121704   4.013   2.857   2.246  1.0960  0.3954 -0.7803
 3356SOL    HW221705   3.960   2.912   2.134  0.0804 -0.3040  1.2265
 3357SOL     OW21706   2.067   1.944   5.606 -0.3269  0.4339  0.1001
 3357SOL    HW121707   2.011   2.003   5.556  0.3414  0.7480 -0.2749
 3357SOL    HW221708   2.030   1.858   5.587  1.1260  0.0758 -1.0788
 3358SOL     OW21709   3.549   4.701   3.613 -0.3234  0.1526 -0.0256
 3358SOL    HW121710   3.463   4.663   3.632 -0.2619  1.1506  2.2023
 3358SOL    HW221711   3.607   4.627   3.596 -0.7021 -0.3576  0.9086
 3359SOL     OW21712   2.000   0.028   7.429  0.5660  0.5871 -0.2618
 3359SOL    HW121713   2.041   0.061   7.349  0.6955 -1.8405 -1.2153
 3359SOL    HW221714   2.043   4.680   7.429  0.7623  0.6854  0.4440
 3360SOL     OW21715   2.445   0.193   4.747  0.1027  0.4720 -0.1437
 3360SOL    HW121716   2.405   0.194   4.660  1.8148  2.5868 -0.8992
 3360SOL    HW221717   2.529   0.233   4.726  0.8755 -0.1618  1.7148
 3361SOL     OW21718   0.263   2.981   3.687 -0.6769 -0.4788 -0.2325
 3361SOL    HW121719   0.343   2.986   3.635 -0.5774  0.9759  0.0586
 3361SOL    HW221720   0.269   2.899   3.737  0.5574 -0.7745 -0.8634
 3362SOL     OW21721   3.166   1.802  12.223 -0.2509  0.3313 -0.5886
 3362SOL    HW121722   3.130   1.718  12.195  0.2609  0.2112 -0.8945
 3362SOL    HW221723   3.252   1.809  12.181 -0.0757  0.2210 -0.2473
 3363SOL     OW21724   2.109   2.710   5.625 -0.0988 -0.0266  0.9804
 3363SOL    HW121725   2.188   2.756   5.653  0.0043 -1.1643  2.4989
 3363SOL    HW221726   2.074   2.702   5.713  0.7838  1.4048  1.4654
 3364SOL     OW21727   4.084   0.316   3.828 -0.5296 -0.1149 -0.0953
 3364SOL    HW121728   4.037   0.234   3.813 -1.3642  0.0114  1.8917
 3364SOL    HW221729   4.152   0.315   3.760 -0.0623  2.2106  0.3334
 3365SOL     OW21730   1.884   4.625  17.319 -0.0967  0.3476 -1.0732
 3365SOL    HW121731   1.978   4.609  17.327 -0.3587 -0.0728  1.3043
 3365SOL    HW221732   1.864   4.626  17.225  0.9358 -0.4712 -1.2969
 3366SOL     OW21733   2.643   1.242  12.996 -0.5894 -0.5721 -0.5815
 3366SOL    HW121734   2.621   1.209  13.083 -1.1776 -0.9696 -0.8800
 3366SOL    HW221735   2.731   1.204  12.994  0.1673  1.2594 -1.7423
 3367SOL     OW21736   3.842   4.700   2.973  0.7131 -0.3886 -0.3847
 3367SOL    HW121737   3.822   4.623   2.920  0.3939 -0.3392 -0.3338
 3367SOL    HW221738   3.783   4.697   3.048 -0.7379 -0.0818 -1.5083
 3368SOL     OW21739   1.618   1.676  16.125  0.5383 -0.1653 -0.7466
 3368SOL    HW121740   1.712   1.677  16.139  0.6577 -0.8987 -1.5007
 3368SOL    HW221741   1.595   1.764  16.155  2.3572 -0.2062  0.7026
 3369SOL     OW21742   4.487   3.738   8.766 -0.3135 -0.6669  0.8792
 3369SOL    HW121743   4.545   3.778   8.702  0.5901 -2.4169  0.5912
 3369SOL    HW221744   4.477   3.648   8.735  0.3014 -0.2376 -0.5765
 3370SOL     OW21745   0.739   3.213   4.557  0.1859 -0.0462 -0.3460
 3370SOL    HW121746   0.695   3.298   4.548  0.2308 -0.1786 -1.7526
 3370SOL    HW221747   0.827   3.243   4.535  0.1164 -1.0662 -1.9939
 3371SOL     OW21748   2.763   4.706  14.762  0.2773  0.0905  0.1084
 3371SOL    HW121749   2.671   4.691  14.783  0.5118 -2.2375 -0.5128
 3371SOL    HW221750   2.813   4.692  14.843  2.0501  2.0194 -0.6502
 3372SOL     OW21751   0.034   0.267   0.753 -0.3678  0.1649  0.1203
 3372SOL    HW121752   0.115   0.310   0.725 -0.5095  0.5952  0.3635
 3372SOL    HW221753   0.075   0.199   0.806 -3.4082 -2.3834 -0.8367
 3373SOL     OW21754   4.491   3.318   0.629  0.5647 -0.2778 -0.4231
 3373SOL    HW121755   4.530   3.356   0.707 -0.0489 -2.1998  0.8039
 3373SOL    HW221756   4.560   3.271   0.583 -1.4812  0.3125 -4.2119
 3374SOL     OW21757   1.547   3.761   6.498  0.3239 -0.5729  0.0991
 3374SOL    HW121758   1.476   3.698   6.488  0.7043 -0.5882 -2.6765
 3374SOL    HW221759   1.551   3.787   6.406  2.6297  0.2061  0.4115
 3375SOL     OW21760   2.942   4.269   2.411 -0.2013 -0.4686  0.3091
 3375SOL    HW121761   2.920   4.197   2.352 -2.7484  0.9048 -0.3972
 3375SOL    HW221762   3.036   4.278   2.396 -0.3026  2.2657  1.4947
 3376SOL     OW21763   3.856   4.097   4.220  0.1177 -0.0193 -0.6404
 3376SOL    HW121764   3.802   4.177   4.228 -1.3571 -0.9687 -1.0534
 3376SOL    HW221765   3.915   4.114   4.147  0.7730 -0.1679 -0.1387
 3377SOL     OW21766   1.084   1.602   9.008 -0.2826 -0.3311 -0.1658
 3377SOL    HW121767   1.167   1.623   9.050 -0.5710 -0.6571  0.5687
 3377SOL    HW221768   1.118   1.561   8.928  0.7031 -1.2738  0.7315
 3378SOL     OW21769   0.752   2.466   5.245 -0.6316 -0.1531 -0.1316
 3378SOL    HW121770   0.811   2.393   5.227  2.7383  2.3388  0.7766
 3378SOL    HW221771   0.801   2.525   5.303 -0.3617 -0.7468  0.2421
 3379SOL     OW21772   3.955   3.560  15.651 -0.0479 -0.2112 -0.2252
 3379SOL    HW121773   4.009   3.481  15.651 -0.1121 -0.2402  1.6140
 3379SOL    HW221774   3.996   3.614  15.583 -1.6859  1.4605  0.1207
 3380SOL     OW21775   0.888   2.895   8.806  0.4769 -0.6256  0.2642
 3380SOL    HW121776   0.831   2.963   8.770  0.3440  1.8136  5.0825
 3380SOL    HW221777   0.828   2.834   8.850 -0.2000  0.2668  0.5653
 3381SOL     OW21778   3.523   3.159   9.559 -0.1002 -0.1383 -0.1250
 3381SOL    HW121779   3.440   3.156   9.606 -0.3023 -2.1652 -0.5887
 3381SOL    HW221780   3.516   3.087   9.495 -0.7641  0.5108 -0.7874
 3382SOL     OW21781   1.679   3.842   3.532 -0.0871  0.3938 -0.1345
 3382SOL    HW121782   1.629   3.914   3.570  1.5746  1.1694  0.5399
 3382SOL    HW221783   1.629   3.829   3.451  2.0366 -0.1948 -1.3530
 3383SOL     OW21784   0.990   1.444   5.914  0.0568  0.0641  0.3905
 3383SOL    HW121785   1.011   1.461   6.006  0.3622 -2.2360  0.7586
 3383SOL    HW221786   1.073   1.419   5.873  0.2976 -0.2298  1.0458
 3384SOL     OW21787   0.759   4.400  17.180 -0.2823  0.0243 -0.2974
 3384SOL    HW121788   0.716   4.481  17.206  1.1357  0.3921  0.8769
 3384SOL    HW221789   0.747   4.345  17.258  1.4853  1.2260  0.8235
 3385SOL     OW21790   2.736   2.554   2.675  0.3020  0.4933 -0.4069
 3385SOL    HW121791   2.752   2.616   2.746 -1.9205  1.6078 -0.8981
 3385SOL    HW221792   2.807   2.491   2.689 -1.1926 -1.4034 -1.3089
 3386SOL     OW21793   4.629   4.037   5.523 -0.1199 -0.3148 -0.0810
 3386SOL    HW121794   4.632   4.078   5.437  0.4977 -1.9581 -0.8522
 3386SOL    HW221795   4.674   3.954   5.506  0.5737 -0.5067  2.7038
 3387SOL     OW21796   0.365   2.237   3.117  0.0721  0.6335 -0.0791
 3387SOL    HW121797   0.274   2.259   3.097  0.3098  1.2486 -0.4554
 3387SOL    HW221798   0.372   2.295   3.193 -1.5549  1.1293 -0.2953
 3388SOL     OW21799   1.324   4.253   2.268  0.5563 -0.8684  0.7083
 3388SOL    HW121800   1.349   4.212   2.185  0.6189  2.2553 -0.8149
 3388SOL    HW221801   1.230   4.237   2.270  0.6783 -1.7408 -0.6088
 3389SOL     OW21802   0.451   2.545   8.497 -0.7917  0.0179  0.1221
 3389SOL    HW121803   0.383   2.612   8.500 -0.6018  0.2348 -0.4319
 3389SOL    HW221804   0.418   2.462   8.531  1.8164 -2.2948 -2.9746
 3390SOL     OW21805   1.789   1.493  16.408 -0.5310 -0.3645 -0.4440
 3390SOL    HW121806   1.867   1.504  16.352 -0.7040  1.9557 -0.2490
 3390SOL    HW221807   1.822   1.497  16.498  1.1958 -4.0521 -0.9178
 3391SOL     OW21808   0.885   0.616   4.488  0.4088  0.2039  0.1725
 3391SOL    HW121809   0.944   0.573   4.550  1.8778  0.3507 -1.1204
 3391SOL    HW221810   0.814   0.635   4.550  0.0042 -3.2659  0.7715
 3392SOL     OW21811   0.426   4.267  13.784  0.0436 -0.2745 -0.4014
 3392SOL    HW121812   0.440   4.357  13.813  0.2084 -0.2843 -0.4516
 3392SOL    HW221813   0.463   4.288  13.699 -1.2967  0.5961 -0.7669
 3393SOL     OW21814   2.662   2.749   1.791  0.4020 -0.2973  0.2637
 3393SOL    HW121815   2.710   2.673   1.759  0.4854  0.2898 -1.0342
 3393SOL    HW221816   2.684   2.750   1.884  0.1235  0.6236  0.3250
 3394SOL     OW21817   0.283   4.657   6.012  0.3484 -0.6447  0.7768
 3394SOL    HW121818   0.313   4.728   6.069  0.8716 -1.5311  1.6163
 3394SOL    HW221819   0.323   4.672   5.926  0.7696 -0.9753  0.9130
 3395SOL     OW21820   1.784   4.453  10.638 -0.2452 -0.0694  0.0656
 3395SOL    HW121821   1.822   4.541  10.644  1.1096 -0.6210 -0.5139
 3395SOL    HW221822   1.774   4.456  10.542 -0.7454 -0.6006  0.1060
 3396SOL     OW21823   4.309   2.240  14.585 -0.5255 -0.0623  0.0056
 3396SOL    HW121824   4.319   2.179  14.659  3.6534  0.6525  0.0398
 3396SOL    HW221825   4.251   2.199  14.521 -0.2037 -1.6105  0.6922
 3397SOL     OW21826   2.403   2.933   9.681  0.2539  0.4093 -0.3821
 3397SOL    HW121827   2.325   2.986   9.695  0.3918  0.1804  1.2370
 3397SOL    HW221828   2.404   2.913   9.587  1.9938  0.0397 -0.2945
 3398SOL     OW21829   2.595   3.798   3.431 -0.1205  0.4016 -0.0036
 3398SOL    HW121830   2.527   3.747   3.475 -0.6860  1.7407  0.6688
 3398SOL    HW221831   2.663   3.800   3.498 -0.2112 -0.3677  0.1182
 3399SOL     OW21832   2.846   2.093   8.010 -0.7093 -0.6065 -0.2184
 3399SOL    HW121833   2.790   2.023   8.044 -0.3047 -0.0553  1.5826
 3399SOL    HW221834   2.927   2.050   8.037  0.4310  1.3500 -0.5448
 3400SOL     OW21835   2.646   0.992   8.902 -0.2358 -0.0451  0.3354
 3400SOL    HW121836   2.704   1.038   8.963 -0.2236 -1.4974  1.4131
 3400SOL    HW221837   2.709   0.937   8.855  0.0027  0.6039 -0.1087
 3401SOL     OW21838   3.898   4.447  15.891  0.8190  0.0383 -0.4482
 3401SOL    HW121839   3.971   4.502  15.862  0.5136 -0.1135 -1.5141
 3401SOL    HW221840   3.855   4.426  15.808 -0.3748 -0.1153  0.2132
 3402SOL     OW21841   4.532   1.932   7.481  0.0768 -0.1768 -0.2107
 3402SOL    HW121842   4.487   1.991   7.421 -0.0782 -0.2417 -0.1568
 3402SOL    HW221843   4.487   1.929   7.565  0.1767 -0.8109 -0.1736
 3403SOL     OW21844   3.459   1.235   6.971 -0.1692 -0.2033 -0.2522
 3403SOL    HW121845   3.479   1.321   7.007  1.2740 -0.7349  0.2222
 3403SOL    HW221846   3.506   1.248   6.889  0.5779  1.6764  0.4791
 3404SOL     OW21847   1.810   3.346   1.923 -0.2932 -0.1866 -0.4237
 3404SOL    HW121848   1.889   3.297   1.948  0.6026  1.7180  0.4249
 3404SOL    HW221849   1.831   3.383   1.837 -2.5551 -0.8700 -1.2745
 3405SOL     OW21850   3.658   2.845   7.939 -0.6092 -0.6579 -0.2459
 3405SOL    HW121851   3.699   2.897   8.008 -2.7827  0.5590  0.1134
 3405SOL    HW221852   3.718   2.771   7.951  2.6857  2.2298  1.0609
 3406SOL     OW21853   2.589   4.516  10.242  0.1339  0.3427  0.6343
 3406SOL    HW121854   2.612   4.541  10.331  0.6404  2.1532 -0.0210
 3406SOL    HW221855   2.538   4.596  10.227 -2.7309 -0.7610  4.5026
 3407SOL     OW21856   0.028   1.452  17.272  0.1885  0.5980  0.4506
 3407SOL    HW121857   0.067   1.366  17.258 -0.2461  0.3837  0.5445
 3407SOL    HW221858   4.690   1.433  17.328  0.1837  0.2094  0.3115
 3408SOL     OW21859   3.765   4.064   3.629  0.0540  0.0197  0.0221
 3408SOL    HW121860   3.714   4.035   3.706 -0.2336 -0.1342 -0.2245
 3408SOL    HW221861   3.852   4.043   3.662  0.5615  0.8270 -0.8145
 3409SOL     OW21862   0.638   2.997   9.451  0.7657 -0.2254 -0.3352
 3409SOL    HW121863   0.575   2.925   9.451  0.4019  0.1026 -1.4149
 3409SOL    HW221864   0.579   3.072   9.455 -2.4302 -2.9133  3.5015
 3410SOL     OW21865   3.722   2.331   2.929  0.3571  0.4701  0.0453
 3410SOL    HW121866   3.785   2.383   2.979  0.9173  1.2769 -1.5009
 3410SOL    HW221867   3.667   2.404   2.901  1.7069  0.7324 -1.8813
 3411SOL     OW21868   2.613   4.229   1.199 -0.0254 -0.4456  0.0292
 3411SOL    HW121869   2.608   4.289   1.273  2.5104 -0.8986  0.5749
 3411SOL    HW221870   2.674   4.277   1.143  0.3277 -0.4914  0.3722
 3412SOL     OW21871   4.221   0.821   3.535 -0.2779  0.1713  0.1380
 3412SOL    HW121872   4.300   0.846   3.486  1.0417  0.6970  2.5324
 3412SOL    HW221873   4.192   0.912   3.540  0.3461  0.3698  0.1253
 3413SOL     OW21874   4.542   1.909   2.753  0.0182  0.2613 -0.2352
 3413SOL    HW121875   4.568   1.979   2.693  0.6643  1.0341  0.9270
 3413SOL    HW221876   4.577   1.954   2.830  0.4089 -1.3113  0.5101
 3414SOL     OW21877   2.549   4.143   4.598  0.3918 -0.2271  0.3077
 3414SOL    HW121878   2.638   4.108   4.603  0.8419  0.5785 -2.0732
 3414SOL    HW221879   2.544   4.189   4.681 -5.0306  1.1451 -0.7376
 3415SOL     OW21880   0.794   4.211  13.402 -0.2696 -0.5300 -0.5729
 3415SOL    HW121881   0.879   4.247  13.426 -0.7836  1.2472 -1.4067
 3415SOL    HW221882   0.796   4.205  13.306  3.0211  1.4925 -0.6317
 3416SOL     OW21883   3.818   0.198   5.321  0.2116 -0.0306  0.2395
 3416SOL    HW121884   3.754   0.199   5.249  0.5933  3.3297 -0.0461
 3416SOL    HW221885   3.812   0.292   5.341 -0.4399  0.0571 -0.3583
 3417SOL     OW21886   2.286   2.344   9.568 -0.0933 -0.1678  0.2442
 3417SOL    HW121887   2.238   2.393   9.635 -2.7302 -1.7832 -0.4651
 3417SOL    HW221888   2.311   2.422   9.519 -0.6252 -1.0066 -1.3394
 3418SOL     OW21889   2.947   2.697  13.337 -0.8725  0.3258  0.1633
 3418SOL    HW121890   2.938   2.777  13.285  2.2221  1.4151  1.3356
 3418SOL    HW221891   3.018   2.653  13.289 -0.6207 -0.3201  1.1288
 3419SOL     OW21892   0.849   1.473  11.649  0.1742  0.6482 -0.1776
 3419SOL    HW121893   0.863   1.431  11.565  3.4636  2.0406 -0.3121
 3419SOL    HW221894   0.782   1.411  11.679 -0.8581  1.4296 -0.8948
 3420SOL     OW21895   1.859   4.099  14.782 -0.3441  0.2384  0.2654
 3420SOL    HW121896   1.909   4.179  14.764  2.7507 -0.5991  5.2301
 3420SOL    HW221897   1.921   4.032  14.811 -2.4287 -2.1580 -0.7751
 3421SOL     OW21898   0.664   0.372  17.451 -0.2834 -0.5357 -0.1804
 3421SOL    HW121899   0.730   0.413  17.507  0.9753 -1.6208 -0.8755
 3421SOL    HW221900   0.731   0.331  17.397  0.3001  1.4782 -0.9756
 3422SOL     OW21901   2.188   1.571  12.529  0.0998  0.1360  0.5491
 3422SOL    HW121902   2.257   1.509  12.554 -0.3981 -1.2874 -1.6611
 3422SOL    HW221903   2.216   1.634  12.596 -1.3638 -0.7747  2.0338
 3423SOL     OW21904   1.005   2.222   8.387 -0.1424  0.0934  0.1009
 3423SOL    HW121905   0.980   2.252   8.299 -2.0085 -1.8770 -0.0698
 3423SOL    HW221906   0.943   2.270   8.441 -2.2910 -0.4023 -1.9020
 3424SOL     OW21907   2.505   2.461   2.617  0.4943 -0.3350  0.2205
 3424SOL    HW121908   2.582   2.507   2.651  0.8965 -2.5145  2.2430
 3424SOL    HW221909   2.503   2.385   2.675  2.3861  1.1241  2.1929
 3425SOL     OW21910   2.145   1.794   6.484  0.2448  0.2375 -0.3079
 3425SOL    HW121911   2.096   1.847   6.545 -1.2817 -1.9225  0.3486
 3425SOL    HW221912   2.135   1.706   6.520  0.3758  0.6231  0.6473
 3426SOL     OW21913   4.299   2.831  17.420 -0.1634 -0.2122  0.0245
 3426SOL    HW121914   4.300   2.754  17.364 -0.8352 -1.2492  1.4523
 3426SOL    HW221915   4.351   2.893  17.368  0.3627 -0.0718  0.7180
 3427SOL     OW21916   0.281   1.034   8.455  0.9927 -0.5743 -0.7240
 3427SOL    HW121917   0.319   1.117   8.426 -0.4700 -0.6650 -2.9403
 3427SOL    HW221918   0.236   1.060   8.535  0.0702 -0.2294 -1.3572
 3428SOL     OW21919   3.568   0.869   7.411 -0.3392 -0.7780 -0.1687
 3428SOL    HW121920   3.487   0.818   7.403 -0.3688 -0.7082 -0.3109
 3428SOL    HW221921   3.566   0.928   7.336  0.5222 -0.6125 -0.0614
 3429SOL     OW21922   2.534   0.340   1.133  0.0664  0.0812 -0.0928
 3429SOL    HW121923   2.548   0.326   1.039 -1.0305  0.1676 -0.2615
 3429SOL    HW221924   2.464   0.277   1.148 -0.2486  0.6039  0.6171
 3430SOL     OW21925   3.125   2.876   0.642 -0.2993  0.4458 -0.2213
 3430SOL    HW121926   3.184   2.887   0.568  0.2749  1.8150  0.4263
 3430SOL    HW221927   3.185   2.894   0.714 -0.2803 -0.7481  0.0640
 3431SOL     OW21928   0.593   3.341   7.565 -0.3070  0.5609 -0.1673
 3431SOL    HW121929   0.539   3.273   7.605 -1.7034  2.0975  0.5490
 3431SOL    HW221930   0.589   3.319   7.472  3.1070 -0.5298 -0.0525
 3432SOL     OW21931   0.646   3.798   4.006 -0.3068  0.0416 -0.1892
 3432SOL    HW121932   0.661   3.888   3.976 -0.7371  0.1515 -0.0872
 3432SOL    HW221933   0.737   3.772   4.014 -0.3373 -0.6609 -2.0725
 3433SOL     OW21934   4.451   3.928   7.777 -0.1338 -0.1318 -0.0490
 3433SOL    HW121935   4.539   3.891   7.780  0.1876  1.0158  5.1708
 3433SOL    HW221936   4.477   4.011   7.816  1.7029 -0.0653 -1.4349
 3434SOL     OW21937   2.712   3.559   8.226 -0.2927  0.0034 -0.3221
 3434SOL    HW121938   2.807   3.557   8.239 -0.1356 -0.0767 -1.5014
 3434SOL    HW221939   2.702   3.487   8.163  0.2972 -1.0621  0.7989
 3435SOL     OW21940   4.462   2.278   8.521  0.0622  0.4310  0.1341
 3435SOL    HW121941   4.451   2.299   8.429  3.0358  0.9123 -0.1172
 3435SOL    HW221942   4.406   2.345   8.560 -0.9160  0.4997 -1.3992
 3436SOL     OW21943   1.365   1.680   4.104 -0.1474  0.1276  0.1849
 3436SOL    HW121944   1.372   1.717   4.016  0.1105 -1.9213 -0.6493
 3436SOL    HW221945   1.328   1.594   4.087 -1.2550  0.8702 -1.1875
 3437SOL     OW21946   1.880   2.794   3.138  0.2540 -0.4406 -0.2833
 3437SOL    HW121947   1.936   2.802   3.215  1.7246 -1.8782 -1.2059
 3437SOL    HW221948   1.803   2.847   3.156  0.6818 -0.5111  1.7813
 3438SOL     OW21949   3.969   0.976   5.369  0.6408 -0.5381  0.0910
 3438SOL    HW121950   3.990   0.907   5.432 -0.5354 -0.2477  0.7920
 3438SOL    HW221951   3.954   1.055   5.421 -0.1435  1.2703 -2.9008
 3439SOL     OW21952   3.490   3.356  12.327 -0.3248 -0.3970  0.0589
 3439SOL    HW121953   3.549   3.318  12.393 -0.8725  1.1662  1.4359
 3439SOL    HW221954   3.555   3.388  12.264 -0.8298 -1.1257 -0.8354
 3440SOL     OW21955   3.500   0.621   5.852  0.3586 -0.1424 -0.8282
 3440SOL    HW121956   3.571   0.580   5.902  0.6687 -0.7059 -1.7455
 3440SOL    HW221957   3.428   0.636   5.914 -0.7497 -0.8845 -1.9565
 3441SOL     OW21958   1.169   1.377   4.313 -0.5489  0.5652 -0.2039
 3441SOL    HW121959   1.233   1.370   4.243 -0.4692  1.0308 -0.1808
 3441SOL    HW221960   1.119   1.296   4.314 -0.0342  0.2507  0.0611
 3442SOL     OW21961   4.316   3.086   3.502  0.0910 -0.4075 -0.4055
 3442SOL    HW121962   4.248   3.020   3.514  0.8663 -1.2162 -0.4349
 3442SOL    HW221963   4.335   3.068   3.410  1.0079 -1.5270 -0.0086
 3443SOL     OW21964   2.763   4.209   3.537 -0.0273 -0.2640 -0.1223
 3443SOL    HW121965   2.790   4.261   3.612  2.9874 -0.2039 -1.2708
 3443SOL    HW221966   2.752   4.125   3.582  1.3797  0.2044  1.1094
 3444SOL     OW21967   3.916   3.940   2.091  0.0876  0.6115 -0.6341
 3444SOL    HW121968   3.853   3.873   2.065  1.0481 -0.0086 -1.3624
 3444SOL    HW221969   3.964   3.900   2.164 -2.3884  0.5644  0.9909
 3445SOL     OW21970   4.114   4.416   3.744 -0.0245 -0.0713  0.6258
 3445SOL    HW121971   4.119   4.333   3.696  0.2391  0.7922 -0.8390
 3445SOL    HW221972   4.022   4.420   3.770 -0.1466 -1.5243  0.4194
 3446SOL     OW21973   3.026   1.716   3.197 -0.0110 -0.9320  0.3993
 3446SOL    HW121974   3.113   1.750   3.176 -1.5726  1.8586 -1.4832
 3446SOL    HW221975   3.014   1.657   3.123 -0.5356 -0.0433 -0.2232
 3447SOL     OW21976   2.566   0.291   7.321 -0.0544  0.5573  0.3439
 3447SOL    HW121977   2.593   0.353   7.388  1.4354  0.1517  0.1194
 3447SOL    HW221978   2.505   0.238   7.373  0.2604  1.1948  1.3510
 3448SOL     OW21979   4.602   4.022   1.754 -0.1405 -0.1166  0.2327
 3448SOL    HW121980   4.512   4.021   1.787 -0.8312 -0.9723 -1.7240
 3448SOL    HW221981   4.605   4.108   1.711 -0.0748  0.3379  1.1412
 3449SOL     OW21982   0.313   1.244   2.703  0.2256  0.0791  0.2368
 3449SOL    HW121983   0.263   1.326   2.702 -0.8438 -0.5582  1.6835
 3449SOL    HW221984   0.338   1.227   2.612 -0.8425 -0.6981  0.0887
 3450SOL     OW21985   3.732   1.948   0.521  0.6677  0.7115  0.3798
 3450SOL    HW121986   3.692   2.018   0.572 -2.0728 -0.4696 -0.1758
 3450SOL    HW221987   3.692   1.870   0.559 -0.7876  1.2515 -0.0466
 3451SOL     OW21988   3.257   3.884   3.147 -0.5271 -0.4942  0.3304
 3451SOL    HW121989   3.330   3.943   3.170 -0.9706  0.3099 -0.3053
 3451SOL    HW221990   3.189   3.951   3.142  0.6899  0.6244 -1.6279
 3452SOL     OW21991   1.755   3.646  15.830  0.4534  0.5534 -0.0847
 3452SOL    HW121992   1.751   3.577  15.764 -2.6435 -2.6827  3.4647
 3452SOL    HW221993   1.840   3.687  15.815  1.4444 -0.8909  1.5551
 3453SOL     OW21994   1.352   1.446   7.492 -0.1634 -0.1096 -0.4448
 3453SOL    HW121995   1.336   1.399   7.410 -0.3687 -0.5466 -0.1535
 3453SOL    HW221996   1.299   1.524   7.475 -0.5105 -0.0384  0.9778
 3454SOL     OW21997   0.329   2.192   4.532 -0.3074  0.3346 -0.5166
 3454SOL    HW121998   0.368   2.279   4.520 -0.2957  0.6063  1.4789
 3454SOL    HW221999   0.344   2.169   4.624 -2.1521  2.2622  0.2574
 3455SOL     OW22000   2.319   4.133   8.342  0.2106  0.2437  0.3276
 3455SOL    HW122001   2.275   4.071   8.283 -1.2941  2.2205 -0.6430
 3455SOL    HW222002   2.345   4.205   8.285 -0.0498  0.2433  0.2055
 3456SOL     OW22003   4.164   0.594   2.866 -0.1042  0.3745 -0.5790
 3456SOL    HW122004   4.111   0.633   2.936  0.1251  1.7454 -1.1737
 3456SOL    HW222005   4.251   0.601   2.906  0.2499  0.8504 -1.4319
 3457SOL     OW22006   2.781   4.570   6.866  0.7423  0.0090  0.1212
 3457SOL    HW122007   2.770   4.665   6.858 -1.7341 -0.2839  0.1984
 3457SOL    HW222008   2.729   4.552   6.944 -1.0011  0.4149 -0.9617
 3458SOL     OW22009   4.490   1.376   6.971  0.2550  0.4412  0.5384
 3458SOL    HW122010   4.398   1.370   6.945  0.5810  0.0970 -0.5009
 3458SOL    HW222011   4.511   1.283   6.977 -0.2485  0.2454 -0.7526
 3459SOL     OW22012   4.304   1.385  11.187 -0.2363  0.4641  0.7040
 3459SOL    HW122013   4.386   1.384  11.137 -0.6818  1.2903 -0.0445
 3459SOL    HW222014   4.332   1.427  11.268  1.7170  0.5235  0.0136
 3460SOL     OW22015   2.123   0.299   7.054  0.1229  0.3296 -0.6055
 3460SOL    HW122016   2.182   0.372   7.038  0.2650  0.7560  1.8218
 3460SOL    HW222017   2.111   0.266   6.965 -0.3385  0.2974 -0.5365
 3461SOL     OW22018   3.643   1.951   1.057 -0.1747 -0.1907 -0.9193
 3461SOL    HW122019   3.595   2.030   1.082  1.3156  0.5844 -0.4656
 3461SOL    HW222020   3.714   1.950   1.122 -0.5254 -1.3439 -0.5455
 3462SOL     OW22021   2.302   2.733   0.527  0.7043  0.6983  0.0098
 3462SOL    HW122022   2.376   2.729   0.466  2.2660 -2.4761  2.0752
 3462SOL    HW222023   2.280   2.824   0.546  0.1183  0.7927 -1.1271
 3463SOL     OW22024   3.029   1.797   5.059  0.1952  0.1674  0.1814
 3463SOL    HW122025   3.082   1.871   5.088  0.0329  0.4071 -0.1379
 3463SOL    HW222026   3.045   1.720   5.114 -3.2986 -0.8030 -0.1140
 3464SOL     OW22027   0.276   2.179   0.749 -0.1657 -0.0633  0.7738
 3464SOL    HW122028   0.342   2.113   0.773 -0.3142 -0.6039 -0.3158
 3464SOL    HW222029   0.195   2.157   0.794 -1.3636  2.2549 -0.2755
 3465SOL     OW22030   3.666   4.662   7.753 -0.2701 -0.3477 -0.1565
 3465SOL    HW122031   3.650   0.013   7.786  0.5749 -0.9033  1.7792
 3465SOL    HW222032   3.573   4.641   7.749 -0.2842 -0.2332 -0.4070
 3466SOL     OW22033   0.521   3.862   9.470 -0.7736 -0.2647 -0.7038
 3466SOL    HW122034   0.528   3.781   9.521 -2.7723  0.8921  1.3914
 3466SOL    HW222035   0.452   3.909   9.517 -0.4215 -0.8382  0.4002
 3467SOL     OW22036   2.312   3.319   4.070  0.0337  0.8413 -0.5004
 3467SOL    HW122037   2.236   3.323   4.127 -0.0269 -0.5116 -0.4852
 3467SOL    HW222038   2.324   3.225   4.051  1.2819  1.3112 -2.1272
 3468SOL     OW22039   2.455   3.047   2.523  0.1385 -0.2761 -0.1509
 3468SOL    HW122040   2.371   3.013   2.493 -0.5106  0.7280  0.5306
 3468SOL    HW222041   2.444   3.142   2.524 -2.3445 -0.5627 -0.3538
 3469SOL     OW22042   3.323   3.357   3.145 -0.2553 -0.3741  0.0306
 3469SOL    HW122043   3.310   3.270   3.183 -1.9288 -0.7605 -1.4642
 3469SOL    HW222044   3.415   3.383   3.157 -0.4595  1.0536 -1.5286
 3470SOL     OW22045   1.990   2.938   8.881 -0.2255  0.7160  0.3781
 3470SOL    HW122046   1.975   3.031   8.860  0.6147  0.9725  0.8826
 3470SOL    HW222047   1.900   2.914   8.862 -0.0440  0.4201 -0.1007
 3471SOL     OW22048   2.360   2.454   3.939 -0.0580  0.6343 -0.1773
 3471SOL    HW122049   2.273   2.452   3.978 -0.8378  0.8719 -1.8896
 3471SOL    HW222050   2.376   2.359   3.936 -0.7955  0.4880  0.9132
 3472SOL     OW22051   1.297   3.310   4.662 -0.6777  0.0343  0.1556
 3472SOL    HW122052   1.272   3.247   4.595 -0.9836  0.3746 -0.0516
 3472SOL    HW222053   1.389   3.293   4.681 -0.4786 -1.4920 -2.3480
 3473SOL     OW22054   0.975   2.619  11.981  0.2385  0.0058 -0.4325
 3473SOL    HW122055   0.935   2.560  12.045 -1.8032  1.3476 -0.4926
 3473SOL    HW222056   0.911   2.689  11.976  0.2310  0.1152  1.2063
 3474SOL     OW22057   3.364   1.391  10.159 -0.7607 -0.3584  0.1350
 3474SOL    HW122058   3.416   1.405  10.238  1.1898 -0.3471 -1.1505
 3474SOL    HW222059   3.280   1.359  10.192 -0.1287 -1.7817  0.3639
 3475SOL     OW22060   1.296   1.039   6.070 -0.2587  0.1560  0.1639
 3475SOL    HW122061   1.361   1.102   6.102 -0.7194 -0.5122  2.3949
 3475SOL    HW222062   1.215   1.086   6.090  0.2883  0.4286  1.7067
 3476SOL     OW22063   0.212   0.606   7.717 -0.0935  1.1323  0.3469
 3476SOL    HW122064   0.250   0.519   7.729 -1.1208  0.7422  0.8226
 3476SOL    HW222065   0.122   0.579   7.700  1.2419 -2.4887 -0.9068
 3477SOL     OW22066   0.696   1.982   7.671 -0.0592  0.4240 -0.3752
 3477SOL    HW122067   0.721   1.939   7.753 -1.6849  2.2640  1.0963
 3477SOL    HW222068   0.730   2.070   7.690  0.8305  0.0336 -0.1873
 3478SOL     OW22069   2.777   1.828   4.920  0.2225  0.2778 -0.1912
 3478SOL    HW122070   2.814   1.811   4.833 -0.1426  1.5027 -0.5763
 3478SOL    HW222071   2.857   1.815   4.972  0.1605  2.4674  0.4266
 3479SOL     OW22072   2.378   1.630   3.104  0.6427 -0.3002 -0.4883
 3479SOL    HW122073   2.451   1.692   3.101  2.2478 -2.1583  0.1001
 3479SOL    HW222074   2.367   1.595   3.015 -1.7581 -1.7687  0.3780
 3480SOL     OW22075   1.165   0.914   4.995  0.9601 -0.8195 -0.0010
 3480SOL    HW122076   1.122   0.866   5.065  1.3495 -0.6153  0.3799
 3480SOL    HW222077   1.151   1.000   5.035 -0.0098 -0.4084 -1.2327
 3481SOL     OW22078   2.805   3.822   3.986  0.5502  0.1773 -0.6397
 3481SOL    HW122079   2.716   3.790   3.975  0.2399  0.2635  1.6302
 3481SOL    HW222080   2.812   3.825   4.082 -0.0046  1.2714 -0.6282
 3482SOL     OW22081   4.642   0.122  16.785 -0.1370  0.0732  0.0646
 3482SOL    HW122082   4.639   0.214  16.813 -0.3671 -0.1653  0.8045
 3482SOL    HW222083   4.572   0.126  16.720  1.9055 -1.9708 -2.2624
 3483SOL     OW22084   0.704   2.389   4.431  0.1884  0.5649 -0.3059
 3483SOL    HW122085   0.756   2.311   4.413 -0.1295  0.0401  1.1209
 3483SOL    HW222086   0.685   2.409   4.339 -0.4466 -0.4581 -0.3965
 3484SOL     OW22087   2.493   2.028   8.338 -0.2646  0.0587 -0.3415
 3484SOL    HW122088   2.530   1.943   8.316 -1.1631 -0.4818  0.2638
 3484SOL    HW222089   2.511   2.076   8.257 -0.8339  1.3047  0.2745
 3485SOL     OW22090   1.345   0.859   3.966  0.0773  0.3871  0.1226
 3485SOL    HW122091   1.363   0.922   4.037 -1.2368 -0.9407  1.6187
 3485SOL    HW222092   1.284   0.912   3.915  0.1181  1.3497  1.0668
 3486SOL     OW22093   1.330   1.207   3.639 -0.6153  0.9510 -0.4241
 3486SOL    HW122094   1.350   1.115   3.623  0.7918  1.1710  0.0855
 3486SOL    HW222095   1.415   1.251   3.644 -1.2315  2.1827 -0.7783
 3487SOL     OW22096   4.049   0.655   8.790 -0.1483  0.2814  0.1679
 3487SOL    HW122097   3.974   0.663   8.731  0.9879  1.4396 -1.1319
 3487SOL    HW222098   4.003   0.615   8.863  0.5717 -2.1363 -0.7070
 3488SOL     OW22099   0.367   3.391   4.577 -0.0729 -0.5477 -0.1024
 3488SOL    HW122100   0.462   3.385   4.586 -0.0222  1.4918  0.7394
 3488SOL    HW222101   0.355   3.372   4.484  0.9655 -1.1124 -0.1256
 3489SOL     OW22102   4.384   3.122   5.753  0.2512  0.5127  0.4252
 3489SOL    HW122103   4.362   3.034   5.725 -0.9222  1.5563 -1.8794
 3489SOL    HW222104   4.310   3.152   5.806 -0.3975 -0.8376  0.2736
 3490SOL     OW22105   1.090   3.654   7.593  0.1351  0.0598 -0.4580
 3490SOL    HW122106   1.063   3.571   7.632  0.1746  0.4539  0.3996
 3490SOL    HW222107   1.128   3.695   7.670 -1.2515  1.6564 -0.6172
 3491SOL     OW22108   1.554   0.050   3.810 -0.0265 -0.0844 -0.4164
 3491SOL    HW122109   1.585   0.005   3.732  0.8493  1.5318 -1.0018
 3491SOL    HW222110   1.460   0.035   3.817 -0.0277 -0.1216 -0.5122
 3492SOL     OW22111   0.303   2.908   8.665  0.4368  0.4420 -0.4332
 3492SOL    HW122112   0.317   2.858   8.745  2.0339  0.2205 -0.8436
 3492SOL    HW222113   0.264   2.847   8.602  0.1651 -2.4913  2.5888
 3493SOL     OW22114   2.413   3.506   5.566  0.0112 -0.4396  0.1871
 3493SOL    HW122115   2.418   3.585   5.620 -0.4526 -0.1596 -0.1866
 3493SOL    HW222116   2.332   3.465   5.596  0.3798  0.2053  2.0994
 3494SOL     OW22117   2.032   0.331   9.037 -0.0331  0.4573 -0.7719
 3494SOL    HW122118   2.085   0.349   8.960 -0.1848  0.8664 -0.7839
 3494SOL    HW222119   1.977   0.409   9.045  0.5819  0.8376 -0.2459
 3495SOL     OW22120   3.798   2.000   1.275 -0.6205 -0.0771  0.0392
 3495SOL    HW122121   3.837   2.046   1.349 -0.2103 -0.1665 -0.1245
 3495SOL    HW222122   3.825   1.913   1.305  2.8676 -0.6925 -4.9173
 3496SOL     OW22123   3.261   4.004   2.747  0.1555  0.1678  0.3465
 3496SOL    HW122124   3.342   4.046   2.775  0.0816  0.2709  0.4065
 3496SOL    HW222125   3.272   3.910   2.764 -2.1943 -0.0362  0.7834
 3497SOL     OW22126   1.655   4.179   3.897 -0.6281  0.5292 -0.4399
 3497SOL    HW122127   1.664   4.265   3.937  1.2571  0.7171 -1.2634
 3497SOL    HW222128   1.734   4.144   3.855 -0.1285 -1.3825  2.0793
 3498SOL     OW22129   1.870   4.703  16.755 -0.0802 -0.6967  0.3910
 3498SOL    HW122130   1.936   4.634  16.751 -0.1022 -0.7704  1.2913
 3498SOL    HW222131   1.794   4.648  16.741 -1.7320  1.4289  0.9649
 3499SOL     OW22132   1.535   0.792   3.805 -0.3874  0.1304  0.0981
 3499SOL    HW122133   1.526   0.700   3.828  0.1739 -0.2491 -1.2370
 3499SOL    HW222134   1.478   0.826   3.875 -1.1288  1.0197 -0.9414
 3500SOL     OW22135   0.200   0.184  13.079 -0.3531 -0.2871  0.4371
 3500SOL    HW122136   0.227   0.136  13.158  2.1706  1.2485  0.4889
 3500SOL    HW222137   0.187   0.270  13.118  0.9818  1.1746 -2.3843
 3501SOL     OW22138   1.547   4.285   6.912  0.4347  0.1760 -0.5434
 3501SOL    HW122139   1.628   4.309   6.957 -0.7436  0.4370  1.3974
 3501SOL    HW222140   1.481   4.339   6.955 -0.2825 -1.8729  0.9068
 3502SOL     OW22141   2.139   3.136   2.842 -0.2328  0.6062 -0.4522
 3502SOL    HW122142   2.159   3.085   2.920  1.4558 -1.0225 -1.9681
 3502SOL    HW222143   2.134   3.227   2.873 -1.2834  0.3694  0.0485
 3503SOL     OW22144   2.733   2.899   6.950 -0.3525  0.0864  0.0800
 3503SOL    HW122145   2.668   2.895   7.021 -1.5504  1.5109 -0.9452
 3503SOL    HW222146   2.683   2.864   6.876 -1.2393 -1.7633  1.5326
 3504SOL     OW22147   3.919   2.628   5.211 -0.3071 -0.0787 -0.2036
 3504SOL    HW122148   3.898   2.566   5.141  0.1220 -0.1719 -0.2517
 3504SOL    HW222149   3.853   2.693   5.188 -1.8355 -1.7212 -0.4699
 3505SOL     OW22150   3.112   0.524  16.168 -0.2138 -0.0368  0.1637
 3505SOL    HW122151   3.036   0.468  16.155 -0.6667  0.6321 -0.0596
 3505SOL    HW222152   3.111   0.537  16.262  1.6688 -2.3220  0.4869
 3506SOL     OW22153   2.808   2.224   7.007  0.2880 -0.2410  0.5599
 3506SOL    HW122154   2.813   2.226   7.102  2.2935  0.7132  0.4439
 3506SOL    HW222155   2.869   2.291   6.975 -1.8940  0.5775 -1.8722
 3507SOL     OW22156   2.179   2.830   4.619 -0.0901 -0.1524  0.9869
 3507SOL    HW122157   2.245   2.803   4.555 -0.7623  0.4256  0.0505
 3507SOL    HW222158   2.127   2.881   4.556  1.6519  0.0840 -0.2739
 3508SOL     OW22159   2.239   3.695   4.615  0.1906  0.3690  0.3371
 3508SOL    HW122160   2.213   3.700   4.707 -2.1879  0.1967 -0.3283
 3508SOL    HW222161   2.324   3.737   4.624  0.0849  0.1123  2.4937
 3509SOL     OW22162   0.908   3.877   2.790 -0.2314 -0.4821  0.5572
 3509SOL    HW122163   0.926   3.813   2.859 -1.1190  0.4285  1.6204
 3509SOL    HW222164   0.957   3.830   2.722 -0.5888 -0.8961  0.5818
 3510SOL     OW22165   1.150   3.158  17.381 -0.5775  0.7143  0.0250
 3510SOL    HW122166   1.109   3.230  17.333  1.0573  1.4590 -0.2507
 3510SOL    HW222167   1.238   3.184  17.409 -0.4240 -0.3469  0.5388
 3511SOL     OW22168   4.212   4.585   0.259  0.3061 -0.0581  0.9036
 3511SOL    HW122169   4.141   4.523   0.241 -0.6019  1.4136 -0.5926
 3511SOL    HW222170   4.288   4.536   0.226 -0.1333  0.5554 -0.9696
 3512SOL     OW22171   0.140   3.233   8.222  0.5159  0.1826 -0.0458
 3512SOL    HW122172   0.093   3.314   8.245 -0.0897  0.1083 -1.0247
 3512SOL    HW222173   0.128   3.170   8.293 -0.2065 -1.0954 -1.3117
 3513SOL     OW22174   2.034   3.353   4.552  0.8168 -0.3963  0.7541
 3513SOL    HW122175   2.120   3.315   4.571  1.2247  1.1451  2.0412
 3513SOL    HW222176   1.984   3.322   4.627 -0.2340  2.8623  1.3928
 3514SOL     OW22177   4.282   3.729   6.377  0.3934 -0.2608  0.1212
 3514SOL    HW122178   4.364   3.775   6.395  1.3892 -1.6985 -0.7299
 3514SOL    HW222179   4.304   3.647   6.421 -1.7573  0.7921  3.1721
 3515SOL     OW22180   4.164   1.188   4.888 -0.5188 -0.4326  0.2178
 3515SOL    HW122181   4.079   1.202   4.847 -0.0517  0.5097 -0.4422
 3515SOL    HW222182   4.140   1.138   4.965 -1.8381  1.1048  0.7932
 3516SOL     OW22183   1.494   4.019   0.663  0.2155 -0.5369  0.9421
 3516SOL    HW122184   1.440   3.941   0.659 -0.8454  0.2615 -0.5986
 3516SOL    HW222185   1.453   4.068   0.591  0.4231 -0.7953  0.6453
 3517SOL     OW22186   1.791   0.851   3.654  0.3502 -0.3163  0.3765
 3517SOL    HW122187   1.714   0.830   3.706  0.8515 -0.2710  1.1423
 3517SOL    HW222188   1.832   0.914   3.713  0.4235 -0.0260  0.0141
 3518SOL     OW22189   1.919   0.278   4.678 -0.4898 -0.2329  0.3618
 3518SOL    HW122190   1.967   0.197   4.691  1.3923  0.8169 -0.0675
 3518SOL    HW222191   1.967   0.330   4.743  1.0550 -2.0093  0.6440
 3519SOL     OW22192   0.858   2.276   4.772  0.2679  0.2349 -0.1639
 3519SOL    HW122193   0.912   2.286   4.694  0.1268  1.0862 -0.1544
 3519SOL    HW222194   0.891   2.191   4.802  2.2663  0.8871 -0.4856
 3520SOL     OW22195   3.154   3.186   6.395 -0.1531  0.4434 -0.2052
 3520SOL    HW122196   3.199   3.264   6.363  0.3930  0.1678 -0.0964
 3520SOL    HW222197   3.061   3.207   6.388 -0.7713 -2.0363  0.6729
 3521SOL     OW22198   3.100   2.559  13.161 -0.1901  0.5799 -0.3922
 3521SOL    HW122199   3.140   2.497  13.222  1.2785 -0.6614 -2.6463
 3521SOL    HW222200   3.181   2.571  13.112 -0.5748  0.4536 -1.0549
 3522SOL     OW22201   3.676   1.134  16.467  0.0064  0.3984 -0.0526
 3522SOL    HW122202   3.738   1.204  16.446  0.1246 -0.1426 -1.4365
 3522SOL    HW222203   3.617   1.181  16.527 -2.0633  0.4690 -2.1902
 3523SOL     OW22204   2.655   1.252   6.487  0.0989  0.3151  0.1671
 3523SOL    HW122205   2.674   1.325   6.428 -2.6851  0.3478 -0.6689
 3523SOL    HW222206   2.734   1.199   6.473  0.6949 -0.0421  4.6816
 3524SOL     OW22207   2.937   4.577   1.485  0.0247 -0.0086  0.9864
 3524SOL    HW122208   2.907   4.492   1.451 -0.8778  1.1938 -1.2795
 3524SOL    HW222209   2.994   4.549   1.556 -1.6333 -2.1958  1.4592
 3525SOL     OW22210   3.359   2.439  10.834 -0.3504  0.0636 -0.2133
 3525SOL    HW122211   3.270   2.405  10.822  0.0643 -1.2752  0.5750
 3525SOL    HW222212   3.331   2.530  10.826 -2.3143 -0.4787  0.4412
 3526SOL     OW22213   3.220   1.885  13.752 -0.5054  0.0753  0.8630
 3526SOL    HW122214   3.208   1.949  13.823 -0.0369  0.0030  1.0045
 3526SOL    HW222215   3.310   1.861  13.773 -0.5330 -0.7091  0.0427
 3527SOL     OW22216   1.715   3.330   5.220  0.4972 -0.2620 -0.1225
 3527SOL    HW122217   1.756   3.250   5.253 -0.4833 -0.4300  0.6981
 3527SOL    HW222218   1.640   3.325   5.279  1.0553 -0.4874  0.5697
 3528SOL     OW22219   0.851   3.318   1.768 -0.9219  0.4791 -0.2988
 3528SOL    HW122220   0.930   3.331   1.716  1.1785 -0.5849  2.5853
 3528SOL    HW222221   0.878   3.301   1.858  0.9395  0.1974 -0.9142
 3529SOL     OW22222   1.448   2.408  12.758 -0.0180  0.3674  0.4473
 3529SOL    HW122223   1.387   2.440  12.824  0.1575 -1.2241  1.3913
 3529SOL    HW222224   1.420   2.316  12.752 -1.6597  0.8432  0.8684
 3530SOL     OW22225   3.110   2.113   8.809  0.0935 -0.7926 -0.1147
 3530SOL    HW122226   3.153   2.027   8.814  0.4271 -0.6823 -1.0087
 3530SOL    HW222227   3.044   2.105   8.878  0.7874  1.7252  0.7928
 3531SOL     OW22228   1.590   3.547   6.135 -0.0013  0.0267 -0.0142
 3531SOL    HW122229   1.560   3.555   6.045 -1.2601 -0.6463  0.3508
 3531SOL    HW222230   1.524   3.602   6.178 -1.5380 -2.6837  1.1476
 3532SOL     OW22231   1.937   1.890   7.249  0.0233 -0.4950  0.2275
 3532SOL    HW122232   1.938   1.984   7.269 -0.8449 -0.3978 -0.1720
 3532SOL    HW222233   1.938   1.886   7.154 -0.9352 -1.7711  0.2693
 3533SOL     OW22234   4.617   0.159   4.406 -0.2590 -0.4072  0.0257
 3533SOL    HW122235   4.601   0.099   4.479  1.7622 -0.1899  0.6590
 3533SOL    HW222236   4.531   0.201   4.406 -0.5787 -1.0580  1.0936
 3534SOL     OW22237   4.517   3.322   8.423 -0.6357  0.0020 -0.6369
 3534SOL    HW122238   4.536   3.268   8.346  1.9363 -0.8597  0.6139
 3534SOL    HW222239   4.497   3.407   8.383 -0.9744 -0.2737 -1.0648
 3535SOL     OW22240   4.316   0.379   5.752  0.2948 -0.0870  0.1241
 3535SOL    HW122241   4.394   0.358   5.700 -0.1848 -1.3316 -0.0902
 3535SOL    HW222242   4.238   0.335   5.717  0.1318  2.7277 -3.0497
 3536SOL     OW22243   3.882   3.459   8.963 -0.3214 -0.2038  0.0570
 3536SOL    HW122244   3.816   3.391   8.968 -1.8222  1.3452  1.1539
 3536SOL    HW222245   3.961   3.408   8.981 -0.1361  0.2897  0.6375
 3537SOL     OW22246   0.410   3.675  12.599  0.2694 -0.1474  0.1252
 3537SOL    HW122247   0.406   3.759  12.553  4.3303 -0.9848 -1.7419
 3537SOL    HW222248   0.354   3.709  12.670  1.6297 -0.0705  1.1625
 3538SOL     OW22249   1.662   1.024  11.886 -0.2277  0.9910 -0.2388
 3538SOL    HW122250   1.605   1.008  11.811  1.1627 -1.4230 -0.7624
 3538SOL    HW222251   1.678   1.119  11.884 -1.4710  1.2260  0.4630
 3539SOL     OW22252   3.444   0.562  17.262 -0.1450 -0.8596 -0.4017
 3539SOL    HW122253   3.431   0.565  17.168  0.3524 -0.1881 -0.4510
 3539SOL    HW222254   3.402   0.476  17.274 -1.5351 -0.0859  0.3425
 3540SOL     OW22255   3.392   1.454  17.573 -0.1506  0.0728 -0.6108
 3540SOL    HW122256   3.473   1.498  17.546 -0.0454  1.4606  1.8701
 3540SOL    HW222257   3.407   1.451  17.668 -0.8312  2.1117 -0.4458
 3541SOL     OW22258   2.247   1.313   8.570 -0.0048  0.2956  0.2827
 3541SOL    HW122259   2.323   1.255   8.575 -0.2939 -0.0130  1.1013
 3541SOL    HW222260   2.280   1.381   8.630  1.3326 -1.6583  1.7582
 3542SOL     OW22261   4.016   1.853   6.790  0.4238 -0.2479 -0.0814
 3542SOL    HW122262   4.078   1.844   6.718 -0.1232  0.4188 -0.6414
 3542SOL    HW222263   3.933   1.880   6.750 -0.1242 -0.7136  0.7420
 3543SOL     OW22264   4.613   3.094   1.820  0.0513 -0.5399  0.1546
 3543SOL    HW122265   4.693   3.052   1.850  0.1369  1.1540  2.2986
 3543SOL    HW222266   4.607   3.084   1.725  2.5871  1.6693 -0.2259
 3544SOL     OW22267   4.322   1.810   9.361  0.3980 -0.2035  0.2950
 3544SOL    HW122268   4.382   1.882   9.341 -1.2738  1.0394 -0.2371
 3544SOL    HW222269   4.369   1.754   9.423  0.2808 -2.2356 -1.4583
 3545SOL     OW22270   4.252   1.747   7.370  0.5826 -0.0598  0.0054
 3545SOL    HW122271   4.347   1.748   7.361  0.5769  0.1019 -0.0317
 3545SOL    HW222272   4.224   1.707   7.287 -0.9033  0.3875  0.2876
 3546SOL     OW22273   2.404   2.309   2.919 -0.4019  0.4861  0.2775
 3546SOL    HW122274   2.456   2.251   2.974 -2.6095 -0.4553  1.3655
 3546SOL    HW222275   2.437   2.396   2.942  2.3711 -0.1960 -1.0764
 3547SOL     OW22276   1.509   3.216   7.281  0.1560 -0.1312  0.0176
 3547SOL    HW122277   1.494   3.177   7.195 -0.6757 -1.7593  0.8989
 3547SOL    HW222278   1.547   3.300   7.254  0.0756  1.3547  4.5199
 3548SOL     OW22279   4.587   2.874   7.665 -0.2530 -0.3711  0.0340
 3548SOL    HW122280   4.509   2.819   7.660 -1.3064  1.1675 -0.6246
 3548SOL    HW222281   4.647   2.802   7.682 -2.5406 -1.7650  2.1546
 3549SOL     OW22282   0.922   1.730   9.225 -0.0591  0.0567  0.4217
 3549SOL    HW122283   0.963   1.662   9.171 -1.4143  1.4231 -2.3102
 3549SOL    HW222284   0.939   1.811   9.176 -2.7514 -1.8283 -3.5989
 3550SOL     OW22285   2.259   1.641   7.838 -0.2159  0.3968  0.0078
 3550SOL    HW122286   2.243   1.558   7.884 -0.3703  0.6831  0.4679
 3550SOL    HW222287   2.247   1.608   7.749  1.8704  3.1628 -1.2884
 3551SOL     OW22288   3.278   1.800   3.114  0.1912  0.1954 -0.6064
 3551SOL    HW122289   3.323   1.780   3.196 -0.8542 -0.9021 -0.2941
 3551SOL    HW222290   3.350   1.832   3.059 -1.5400  2.0144 -1.8067
 3552SOL     OW22291   2.562   3.258   9.114  0.2084 -0.6435 -0.0659
 3552SOL    HW122292   2.609   3.320   9.171  1.4924 -0.2914 -1.5178
 3552SOL    HW222293   2.490   3.232   9.172 -0.0092  0.1813  0.0355
 3553SOL     OW22294   1.360   0.718   8.357  0.3996  0.2471  0.5495
 3553SOL    HW122295   1.412   0.674   8.424 -0.3292 -0.2914  0.7557
 3553SOL    HW222296   1.311   0.643   8.324  0.1627  1.2991 -1.4592
 3554SOL     OW22297   3.335   4.081   2.491  0.3613 -0.8481  0.3840
 3554SOL    HW122298   3.307   4.012   2.432  1.8685 -2.1378  1.1728
 3554SOL    HW222299   3.302   4.048   2.575 -0.8079  0.7470  0.5436
 3555SOL     OW22300   3.915   2.922   2.388 -0.3009  0.0299 -0.3558
 3555SOL    HW122301   3.876   2.925   2.476  0.2203 -0.5320 -0.1043
 3555SOL    HW222302   3.958   3.006   2.400 -0.5419  0.1315 -0.2048
 3556SOL     OW22303   2.960   2.668   4.556  0.1571  0.2694  0.1580
 3556SOL    HW122304   2.901   2.624   4.494 -1.3311  1.7615  0.5021
 3556SOL    HW222305   3.022   2.596   4.564 -0.2150  0.2414  2.6006
 3557SOL     OW22306   2.953   2.365   2.819 -0.1726  0.3696 -0.1608
 3557SOL    HW122307   3.045   2.364   2.844 -0.7443 -0.5401  1.9021
 3557SOL    HW222308   2.905   2.411   2.888 -3.5617  1.0726 -2.9869
 3558SOL     OW22309   2.277   3.522   1.993 -0.1337  0.2970  0.4970
 3558SOL    HW122310   2.247   3.458   2.058  0.1755  0.2559  0.5996
 3558SOL    HW222311   2.336   3.577   2.045 -0.3784 -0.8955  2.0406
 3559SOL     OW22312   0.494   3.945   5.817 -0.6218 -0.4213  0.8819
 3559SOL    HW122313   0.438   3.940   5.740 -0.7619  1.4536  0.8487
 3559SOL    HW222314   0.546   3.865   5.806 -0.1833 -0.2327  1.5134
 3560SOL     OW22315   2.853   4.240  11.463  1.2413 -0.3478  0.4599
 3560SOL    HW122316   2.821   4.226  11.374 -2.4745  1.9273  1.4227
 3560SOL    HW222317   2.946   4.233  11.443  1.5190  0.6637  1.4000
 3561SOL     OW22318   4.032   2.081   9.596  0.6108 -0.5260 -0.8005
 3561SOL    HW122319   4.042   2.022   9.671  0.0164  1.4753  0.8657
 3561SOL    HW222320   3.944   2.116   9.609  0.0181 -3.1087  2.1260
 3562SOL     OW22321   0.621   0.997  14.691  0.1178 -0.2075 -0.3236
 3562SOL    HW122322   0.608   0.973  14.783  2.3027 -0.9628 -0.2264
 3562SOL    HW222323   0.632   1.091  14.704 -0.4156 -0.1265 -0.4442
 3563SOL     OW22324   0.364   2.909   8.347  0.1647  0.1490 -0.2304
 3563SOL    HW122325   0.457   2.899   8.368  0.2560 -2.2167 -1.7145
 3563SOL    HW222326   0.375   2.934   8.256  2.9151  1.0713  0.3678
 3564SOL     OW22327   3.657   2.856   0.604 -0.5184 -0.3836  0.7514
 3564SOL    HW122328   3.600   2.932   0.591 -2.2554 -1.5977  1.3093
 3564SOL    HW222329   3.600   2.787   0.636 -0.3451 -1.1428 -0.5640
 3565SOL     OW22330   3.850   3.028   0.511  0.1562 -0.2254  0.0149
 3565SOL    HW122331   3.841   3.095   0.578  1.5860 -1.4998  1.4878
 3565SOL    HW222332   3.791   2.957   0.537 -2.3248  1.3036 -1.4809
 3566SOL     OW22333   0.011   3.138   8.624  0.2397 -0.2576  0.2390
 3566SOL    HW122334   4.735   3.069   8.690  1.9208 -0.6749  0.1411
 3566SOL    HW222335   0.047   3.076   8.560  0.7249 -1.3307  1.5452
 3567SOL     OW22336   0.016   0.310   7.504 -0.1382  0.0792  0.1643
 3567SOL    HW122337   0.018   0.381   7.567  0.1673  0.1702  0.0527
 3567SOL    HW222338   0.043   0.238   7.561 -0.0608 -2.2285 -2.7452
 3568SOL     OW22339   2.416   1.470   3.836  0.3871  0.6182 -0.5125
 3568SOL    HW122340   2.352   1.400   3.847  1.0999  0.2741  1.3330
 3568SOL    HW222341   2.498   1.422   3.848 -0.1233 -0.5557 -1.7003
 3569SOL     OW22342   3.482   1.385   5.016  0.1587 -0.0752  0.2553
 3569SOL    HW122343   3.493   1.293   5.037  0.2944 -0.0821  0.1536
 3569SOL    HW222344   3.390   1.384   4.989  0.5734 -0.7357 -1.0996
 3570SOL     OW22345   3.125   3.031   2.209  0.0058  0.2987  0.2376
 3570SOL    HW122346   3.156   2.941   2.198  0.0851  0.3305  0.2000
 3570SOL    HW222347   3.079   3.048   2.127 -0.6666  0.1401  0.5805
 3571SOL     OW22348   3.682   0.891   5.168  0.2876 -0.2758  0.3216
 3571SOL    HW122349   3.652   0.818   5.223 -1.4875 -0.5533 -1.0197
 3571SOL    HW222350   3.688   0.962   5.232 -1.7503  0.4536 -0.2992
 3572SOL     OW22351   3.947   1.140   7.439 -0.0473 -0.1555 -0.3739
 3572SOL    HW122352   4.030   1.182   7.460  0.3727 -0.6943 -0.9438
 3572SOL    HW222353   3.951   1.063   7.496  1.5853  0.8938  0.9466
 3573SOL     OW22354   4.545   4.233   1.593  0.1600 -0.5432 -0.0863
 3573SOL    HW122355   4.537   4.329   1.598 -0.2068 -0.6736  1.8212
 3573SOL    HW222356   4.490   4.207   1.519 -0.6626  2.3836 -0.5346
 3574SOL     OW22357   4.147   2.959   5.125 -0.0575  0.3764 -0.8311
 3574SOL    HW122358   4.232   2.916   5.117  0.3990  1.3152 -1.0488
 3574SOL    HW222359   4.114   2.955   5.036  2.2237  2.4374 -1.7890
 3575SOL     OW22360   2.489   3.761   1.387  0.3864 -0.2808  0.6646
 3575SOL    HW122361   2.554   3.740   1.320 -1.1606 -0.3548 -0.8115
 3575SOL    HW222362   2.495   3.856   1.388 -0.0918 -0.2508  0.0981
 3576SOL     OW22363   0.478   0.389   6.138  0.3057 -0.4340  0.9351
 3576SOL    HW122364   0.490   0.460   6.202 -1.1670  2.1153 -1.6010
 3576SOL    HW222365   0.387   0.409   6.116  0.3567  1.0899  2.0541
 3577SOL     OW22366   0.267   0.065   2.694 -0.3491 -0.2798 -0.3572
 3577SOL    HW122367   0.360   0.052   2.709 -0.2453  0.9997  0.0950
 3577SOL    HW222368   0.267   0.137   2.630  1.1036  0.1417  0.1173
 3578SOL     OW22369   3.373   4.504  11.375 -0.3741  0.3528 -0.5433
 3578SOL    HW122370   3.401   4.580  11.427  1.2989 -1.4920  1.2706
 3578SOL    HW222371   3.410   4.525  11.289 -3.2068  1.9916 -1.3467
 3579SOL     OW22372   2.233   0.919   4.112 -0.2001  0.5769  0.5773
 3579SOL    HW122373   2.191   0.957   4.035 -2.5341  0.7950  1.9818
 3579SOL    HW222374   2.162   0.870   4.153 -0.0022  0.6950  1.0584
 3580SOL     OW22375   1.439   4.382  12.504  0.7501 -0.2257 -0.3397
 3580SOL    HW122376   1.466   4.366  12.413 -0.1133 -0.9921 -0.4549
 3580SOL    HW222377   1.445   4.478  12.510 -0.2019 -0.2056  0.2085
 3581SOL     OW22378   4.056   1.328   9.190  0.0224  0.4513  0.5862
 3581SOL    HW122379   3.972   1.340   9.146  0.4317 -0.6269 -0.5243
 3581SOL    HW222380   4.030   1.269   9.261  0.6867 -0.7657 -0.1606
 3582SOL     OW22381   3.051   3.506   9.356  1.1881 -0.3544 -0.7132
 3582SOL    HW122382   2.969   3.480   9.400  1.2092  1.1072  0.1845
 3582SOL    HW222383   3.116   3.500   9.426  1.1470  3.7607 -0.3257
 3583SOL     OW22384   1.826   2.158   5.605  0.0716  0.5403  0.3441
 3583SOL    HW122385   1.748   2.133   5.556  0.3636 -1.1458  0.7221
 3583SOL    HW222386   1.812   2.111   5.687  0.3252 -1.8551 -0.9745
 3584SOL     OW22387   2.086   3.224   3.338 -0.2768  0.2980  0.2820
 3584SOL    HW122388   2.142   3.147   3.344 -1.8616 -0.8387  0.4774
 3584SOL    HW222389   2.003   3.177   3.347 -0.9044  0.9342 -2.1481
 3585SOL     OW22390   4.512   4.202   2.355 -0.1305  0.3737  0.5540
 3585SOL    HW122391   4.495   4.201   2.261  0.6697 -0.1914  0.4148
 3585SOL    HW222392   4.517   4.295   2.378  0.5220 -0.2807  3.1077
 3586SOL     OW22393   1.396   4.090   8.046  0.3482 -0.3788 -0.0857
 3586SOL    HW122394   1.335   4.024   8.013  1.0286 -0.7097 -0.6827
 3586SOL    HW222395   1.476   4.039   8.037  0.0908 -0.8068  0.0810
 3587SOL     OW22396   3.521   4.349   7.907  1.2277 -0.0453  0.0249
 3587SOL    HW122397   3.446   4.299   7.874 -0.7631  1.3052  2.5390
 3587SOL    HW222398   3.589   4.281   7.916  0.1157 -1.0765  0.6272
 3588SOL     OW22399   4.479   2.715  16.976 -0.3764 -0.3445  0.5774
 3588SOL    HW122400   4.520   2.800  16.987 -1.5441  0.5218 -1.8642
 3588SOL    HW222401   4.553   2.671  17.018  1.3381 -2.0302 -4.2585
 3589SOL     OW22402   1.521   2.711   3.300 -0.2065  0.5867 -0.0854
 3589SOL    HW122403   1.525   2.723   3.205  1.1345 -3.0106 -0.4827
 3589SOL    HW222404   1.461   2.780   3.329 -0.4744 -0.8651  2.8620
 3590SOL     OW22405   0.182   3.639   6.142 -0.7439 -0.2917  0.0248
 3590SOL    HW122406   0.150   3.569   6.199  1.6197 -1.2024  0.2348
 3590SOL    HW222407   0.106   3.679   6.099  0.4533 -0.6926 -2.4765
 3591SOL     OW22408   4.370   1.835  16.053 -0.3795 -0.3366 -0.2869
 3591SOL    HW122409   4.433   1.894  16.095 -0.6114 -0.3325  0.0518
 3591SOL    HW222410   4.431   1.773  16.013  1.0023  1.4004 -0.8651
 3592SOL     OW22411   1.322   3.564   7.145 -0.4903  0.0951  0.8479
 3592SOL    HW122412   1.229   3.541   7.151 -0.7121  0.7879 -0.0793
 3592SOL    HW222413   1.315   3.657   7.163 -2.6323  0.1929 -0.5445
 3593SOL     OW22414   3.108   2.624   5.603  0.0657  0.4293 -0.1220
 3593SOL    HW122415   3.155   2.707   5.608  1.2285 -0.3015  1.1464
 3593SOL    HW222416   3.182   2.564   5.615 -0.7520 -0.7801 -1.1543
 3594SOL     OW22417   1.091   1.197   1.691 -0.0918  0.0080 -0.2055
 3594SOL    HW122418   1.126   1.286   1.683  1.2937 -0.5908 -0.8199
 3594SOL    HW222419   1.002   1.213   1.661  0.2230 -1.0440 -1.6804
 3595SOL     OW22420   3.610   2.709   5.035 -0.4551  0.2268  0.6672
 3595SOL    HW122421   3.612   2.804   5.046 -0.8263 -0.0084  2.8333
 3595SOL    HW222422   3.530   2.680   5.080 -0.2187  0.6964  1.3997
 3596SOL     OW22423   4.211   2.289  15.690  0.3144 -0.4657  0.4565
 3596SOL    HW122424   4.205   2.196  15.713  4.2291 -0.8540 -0.0437
 3596SOL    HW222425   4.306   2.295  15.678  0.2495  0.3383  0.3618
 3597SOL     OW22426   4.459   1.986   6.126  0.0071  0.1836 -0.6196
 3597SOL    HW122427   4.493   1.962   6.040  0.0494 -3.6309  0.4521
 3597SOL    HW222428   4.499   2.073   6.128  2.6103 -1.0192 -1.2449
 3598SOL     OW22429   3.046   3.418   6.679 -0.4021 -0.1048 -0.9820
 3598SOL    HW122430   2.988   3.491   6.656 -0.9557 -0.5534 -0.9978
 3598SOL    HW222431   3.002   3.337   6.655  2.7190 -1.8174 -0.8174
 3599SOL     OW22432   4.525   1.218   0.239  0.1301 -0.3145  0.0507
 3599SOL    HW122433   4.620   1.214   0.251  0.3398 -1.7350 -2.2163
 3599SOL    HW222434   4.503   1.278   0.168 -0.1629 -0.9526 -0.3928
 3600SOL     OW22435   2.282   2.607   2.240  0.5511 -0.0039 -0.6078
 3600SOL    HW122436   2.241   2.550   2.305  2.6240 -0.1050  0.6022
 3600SOL    HW222437   2.201   2.655   2.221 -0.9739 -1.6936  1.5870
 3601SOL     OW22438   1.776   1.290   4.933  0.1240  0.4628  0.3236
 3601SOL    HW122439   1.781   1.280   5.028 -0.6599  0.2372  0.3463
 3601SOL    HW222440   1.871   1.287   4.928  0.0143 -1.3541 -0.7404
 3602SOL     OW22441   3.457   2.558   7.169 -0.3939 -0.2757 -0.3600
 3602SOL    HW122442   3.419   2.643   7.148  3.7724  1.8296  0.6590
 3602SOL    HW222443   3.512   2.583   7.243  0.8074 -1.2127 -0.9398
 3603SOL     OW22444   2.450   2.575   3.266 -0.1146  0.1223  0.0639
 3603SOL    HW122445   2.367   2.621   3.276 -0.5692 -0.2672 -1.9959
 3603SOL    HW222446   2.483   2.596   3.179 -0.6950  1.0289  0.0653
 3604SOL     OW22447   1.291   0.605  17.036  0.1171 -0.2601 -0.4333
 3604SOL    HW122448   1.311   0.671  17.102  0.5522 -1.8405  1.0215
 3604SOL    HW222449   1.302   0.530  17.094 -2.5143  0.0271  0.4140
 3605SOL     OW22450   2.744   2.133   4.497 -0.3155  0.2684 -0.3187
 3605SOL    HW122451   2.709   2.053   4.459  0.0431 -1.0851  2.2101
 3605SOL    HW222452   2.713   2.199   4.434 -2.0316 -0.7565 -0.5336
 3606SOL     OW22453   1.800   3.173   4.442 -0.4156 -0.1262  0.6185
 3606SOL    HW122454   1.844   3.236   4.499 -0.2467 -0.2760  0.6545
 3606SOL    HW222455   1.730   3.134   4.494 -0.2572 -1.2110  0.0346
 3607SOL     OW22456   0.252   0.209   5.888 -0.0279 -0.2291  0.1474
 3607SOL    HW122457   0.246   0.113   5.890 -0.1243 -0.2345 -0.4486
 3607SOL    HW222458   0.273   0.218   5.981  1.4641  0.6761 -0.2882
 3608SOL     OW22459   2.660   4.456   5.101 -0.1899 -0.4332  0.1692
 3608SOL    HW122460   2.631   4.546   5.114  0.1118 -0.0397 -1.8518
 3608SOL    HW222461   2.578   4.410   5.084  0.7066 -1.0794 -2.5381
 3609SOL     OW22462   0.057   3.421   4.625 -0.3591  1.5595  0.7903
 3609SOL    HW122463   0.138   3.379   4.653 -0.2154 -0.0348 -2.0029
 3609SOL    HW222464   4.737   3.398   4.698  2.3678 -4.0786  1.1961
 3610SOL     OW22465   3.814   0.722   7.057  0.0731 -0.2653 -0.3683
 3610SOL    HW122466   3.728   0.683   7.076 -0.2686  0.2219 -0.9003
 3610SOL    HW222467   3.794   0.813   7.078  0.4489  0.0719 -1.4982
 3611SOL     OW22468   4.208   2.067   6.593  0.1187 -0.0220  0.4817
 3611SOL    HW122469   4.273   2.103   6.533  0.5852 -0.8931  0.4720
 3611SOL    HW222470   4.139   2.046   6.531  2.5890  0.1560 -2.2930
 3612SOL     OW22471   1.533   4.724   7.735  0.0936  0.5640 -0.6481
 3612SOL    HW122472   1.616   0.019   7.769  0.0048  0.3711 -0.2467
 3612SOL    HW222473   1.473   0.054   7.767  1.2378  1.1629  0.2017
 3613SOL     OW22474   2.242   2.308  14.036  0.1385  0.1174 -0.0341
 3613SOL    HW122475   2.151   2.331  14.053 -0.5970 -0.8155 -2.5919
 3613SOL    HW222476   2.275   2.392  14.004  1.3067  0.4052  1.9521
 3614SOL     OW22477   0.422   2.817   7.041  0.0915  0.2744  0.5259
 3614SOL    HW122478   0.396   2.726   7.055 -0.8236  0.4023 -0.3557
 3614SOL    HW222479   0.400   2.852   7.127 -0.3692  0.7524  0.2088
 3615SOL     OW22480   1.343   0.809   3.298 -0.1257 -0.3612  0.0434
 3615SOL    HW122481   1.271   0.855   3.256 -2.3915 -3.4723  0.5529
 3615SOL    HW222482   1.297   0.760   3.366 -0.9721 -0.7441 -0.8051
 3616SOL     OW22483   3.379   3.167  14.442 -1.0693 -0.0228 -0.0114
 3616SOL    HW122484   3.393   3.074  14.455  2.6567  0.6157  0.3300
 3616SOL    HW222485   3.333   3.172  14.358 -2.9465 -0.6403  0.9822
 3617SOL     OW22486   4.176   4.659   3.264  0.5088  0.5967 -0.0981
 3617SOL    HW122487   4.228   4.632   3.188  0.5456  0.7139 -0.1154
 3617SOL    HW222488   4.228   4.737   3.286 -0.9565  0.8136  2.5999
 3618SOL     OW22489   4.505   3.422  16.611  0.8291 -0.1209 -0.1919
 3618SOL    HW122490   4.466   3.505  16.639  0.1814 -0.1817 -0.9194
 3618SOL    HW222491   4.579   3.444  16.554  1.0012 -2.4007 -0.8725
 3619SOL     OW22492   4.656   3.727  12.945  0.1693  0.2357  0.3468
 3619SOL    HW122493   4.720   3.676  12.896  1.7028  0.9025  1.6707
 3619SOL    HW222494   4.705   3.809  12.945  0.5017  0.0336  1.0128
 3620SOL     OW22495   1.033   1.376   7.021  0.1269 -0.1481  0.0295
 3620SOL    HW122496   0.945   1.367   6.985  0.3218  0.3738 -0.5776
 3620SOL    HW222497   1.018   1.393   7.114  0.8059 -0.6004  0.2165
 3621SOL     OW22498   4.241   0.471   7.214  0.4512 -0.4475 -0.1440
 3621SOL    HW122499   4.170   0.509   7.162  3.6650  2.7853 -2.1316
 3621SOL    HW222500   4.192   0.401   7.257  0.3105 -0.3092 -0.0800
 3622SOL     OW22501   3.609   3.841   6.720 -0.5361 -0.4783  0.1861
 3622SOL    HW122502   3.518   3.842   6.691 -0.3034  2.5430 -0.5052
 3622SOL    HW222503   3.643   3.767   6.670  0.7236 -0.5907  1.2203
 3623SOL     OW22504   0.974   3.706   4.512 -0.1099 -0.4850 -0.2362
 3623SOL    HW122505   0.944   3.624   4.552 -1.3189  0.3037  0.4617
 3623SOL    HW222506   0.980   3.768   4.584  1.1208 -0.3474 -0.4563
 3624SOL     OW22507   0.886   4.695   1.930 -0.1689 -0.3997  0.7827
 3624SOL    HW122508   0.813   0.007   1.893  0.0750 -0.5719  0.0617
 3624SOL    HW222509   0.940   4.705   1.851 -1.6704  1.4646 -0.0137
 3625SOL     OW22510   1.363   0.333  16.169 -0.1432 -0.1531  0.0184
 3625SOL    HW122511   1.271   0.356  16.177  0.0027  1.2371 -2.2742
 3625SOL    HW222512   1.371   0.272  16.242  2.4407 -0.5515 -0.5869
 3626SOL     OW22513   2.907   3.915  17.321 -0.1450  0.0415  0.3096
 3626SOL    HW122514   2.875   3.934  17.233  1.7283  2.2431  0.0978
 3626SOL    HW222515   2.950   3.997  17.348 -1.2982  0.8673 -0.3650
 3627SOL     OW22516   2.323   0.002   1.695  0.1550  0.3083  0.4001
 3627SOL    HW122517   2.400   0.058   1.710  0.8632 -0.6156  0.1927
 3627SOL    HW222518   2.305   4.710   1.784 -2.3078 -1.7497 -0.8043
 3628SOL     OW22519   4.300   2.107   1.566  0.9273 -0.3225 -0.1961
 3628SOL    HW122520   4.242   2.051   1.618 -0.3686 -0.8991 -2.2621
 3628SOL    HW222521   4.360   2.044   1.527  1.2589  1.4035 -2.4555
 3629SOL     OW22522   4.695   2.707  12.205  0.1800  0.3782  0.2729
 3629SOL    HW122523   4.646   2.710  12.122  2.9934 -2.5349 -1.5065
 3629SOL    HW222524   4.630   2.707  12.275  0.9859 -1.3926  1.0272
 3630SOL     OW22525   1.255   1.283  16.636  0.6787 -1.0124 -0.3162
 3630SOL    HW122526   1.249   1.366  16.682 -1.1386 -3.0478  3.1817
 3630SOL    HW222527   1.234   1.313  16.548  1.0223  2.7247  0.9017
 3631SOL     OW22528   3.515   4.153   7.614 -0.0271 -0.4717 -0.2144
 3631SOL    HW122529   3.568   4.079   7.645  0.0214 -1.6200 -3.0033
 3631SOL    HW222530   3.574   4.228   7.621 -0.0131 -0.4506 -0.5523
 3632SOL     OW22531   0.746   0.115  15.136  0.1446  0.1339  0.4201
 3632SOL    HW122532   0.836   0.122  15.104 -0.1603  1.7396 -0.1023
 3632SOL    HW222533   0.753   0.071  15.220 -2.1834  0.8845  0.9952
 3633SOL     OW22534   1.937   2.260   7.411  0.1214 -0.1550  0.6896
 3633SOL    HW122535   1.964   2.223   7.496 -0.7027 -2.2231  0.0541
 3633SOL    HW222536   1.999   2.330   7.392 -1.7437  0.9548 -1.2866
 3634SOL     OW22537   4.368   3.221  17.522 -0.0858  0.0240 -0.0072
 3634SOL    HW122538   4.335   3.198  17.436  2.2937  0.1547 -0.9470
 3634SOL    HW222539   4.402   3.135  17.547 -0.5828 -0.7015 -1.8155
 3635SOL     OW22540   4.192   2.364   4.768 -0.1642  0.3740  0.2773
 3635SOL    HW122541   4.133   2.384   4.840 -0.1128  0.2862  0.3440
 3635SOL    HW222542   4.131   2.301   4.730 -0.0538  0.5972 -0.2691
 3636SOL     OW22543   0.077   1.863   2.284 -0.3803 -0.6245  0.0418
 3636SOL    HW122544   0.136   1.807   2.234  0.4300  0.4934 -0.2498
 3636SOL    HW222545   0.151   1.907   2.328  0.4569 -3.0132  1.0150
 3637SOL     OW22546   3.109   2.236   5.309 -0.2914  0.4030  0.0858
 3637SOL    HW122547   3.016   2.222   5.289  0.5292 -0.8461 -2.8414
 3637SOL    HW222548   3.114   2.222   5.404  0.3019  1.3757  0.1964
 3638SOL     OW22549   0.389   0.335  13.430  0.0888 -0.0061  0.1437
 3638SOL    HW122550   0.336   0.349  13.509 -1.9056 -1.2988 -0.9861
 3638SOL    HW222551   0.480   0.332  13.459 -0.0017 -0.0290  0.4284
 3639SOL     OW22552   2.330   1.872   5.689 -0.1334 -0.0236 -0.6959
 3639SOL    HW122553   2.286   1.788   5.705  1.2383 -0.6166 -0.0959
 3639SOL    HW222554   2.247   1.918   5.677 -0.3362  0.0166  0.8953
 3640SOL     OW22555   1.316   0.567   8.602 -0.7517 -0.7720  0.0052
 3640SOL    HW122556   1.227   0.602   8.593 -0.3226 -0.3232 -2.2936
 3640SOL    HW222557   1.308   0.505   8.675 -2.2149 -0.8302 -0.1870
 3641SOL     OW22558   0.819   2.232  10.989  0.1783 -0.5361  0.2110
 3641SOL    HW122559   0.800   2.139  10.985  0.9500 -0.5021 -3.9039
 3641SOL    HW222560   0.831   2.266  10.900 -0.7469  0.3598  0.4262
 3642SOL     OW22561   4.684   1.319   2.593 -0.3865  0.0505 -0.0828
 3642SOL    HW122562   4.646   1.405   2.575  0.6457  0.5296  0.0004
 3642SOL    HW222563   0.024   1.356   2.637 -0.4827 -0.4485  0.5000
 3643SOL     OW22564   3.275   1.543  13.367  0.1619  0.3999  0.1175
 3643SOL    HW122565   3.277   1.638  13.372  0.8335  0.4427 -1.1266
 3643SOL    HW222566   3.370   1.535  13.378  0.0088  1.3258  2.1315
 3644SOL     OW22567   0.944   0.968   4.021  0.1975 -0.3594 -0.3298
 3644SOL    HW122568   0.861   0.928   4.046  0.0576 -1.7147 -3.0130
 3644SOL    HW222569   0.903   1.035   3.965  2.2901 -1.3437 -3.0238
 3645SOL     OW22570   4.081   1.287  14.994 -0.1205  0.3356 -0.1679
 3645SOL    HW122571   3.990   1.290  15.024  0.0821 -0.4093  0.5277
 3645SOL    HW222572   4.114   1.239  15.070 -0.7552  0.1245 -0.0239
 3646SOL     OW22573   3.995   2.559   3.279  0.1375  1.0254 -0.2432
 3646SOL    HW122574   3.904   2.581   3.297 -0.0949  0.9002 -1.2736
 3646SOL    HW222575   4.018   2.604   3.198 -0.9376  3.3957  0.7606
 3647SOL     OW22576   4.030   1.075   6.465  0.9894 -0.2021 -0.6646
 3647SOL    HW122577   3.948   1.035   6.496 -0.0253  1.2936 -1.3954
 3647SOL    HW222578   3.997   1.095   6.377  1.4439 -0.5678 -0.9207
 3648SOL     OW22579   3.274   4.195   4.253 -0.5813  0.1059 -0.3483
 3648SOL    HW122580   3.256   4.289   4.251  0.7610  0.3477 -1.3964
 3648SOL    HW222581   3.241   4.169   4.339 -0.8752  3.3277  0.5100
 3649SOL     OW22582   3.142   3.251   6.887 -0.3697 -1.0282  0.5147
 3649SOL    HW122583   3.073   3.187   6.903  0.4011 -1.3492  2.5498
 3649SOL    HW222584   3.115   3.289   6.803 -1.2367 -1.6098  0.5231
 3650SOL     OW22585   2.477   2.168   3.737 -0.3736  0.1777 -0.2299
 3650SOL    HW122586   2.434   2.094   3.781 -1.7012  0.5223 -0.9520
 3650SOL    HW222587   2.564   2.170   3.777  0.3405 -5.5997 -1.5064
 3651SOL     OW22588   2.036   3.787   4.453 -0.2036 -0.5086  0.1101
 3651SOL    HW122589   2.107   3.749   4.505  0.6639 -0.3599 -0.9681
 3651SOL    HW222590   1.986   3.711   4.423  0.2053 -0.9286  0.4926
 3652SOL     OW22591   3.473   4.617   7.029 -0.0654  0.2910 -0.5091
 3652SOL    HW122592   3.414   4.552   6.990  0.8840  0.1893 -1.7492
 3652SOL    HW222593   3.424   4.653   7.103  0.2746  2.3641 -1.2746
 3653SOL     OW22594   3.384   1.438   7.758  0.5118  0.0719 -0.6910
 3653SOL    HW122595   3.381   1.365   7.696  0.2258  0.3971 -1.0607
 3653SOL    HW222596   3.338   1.504   7.705  1.0475  1.6924  0.8528
 3654SOL     OW22597   3.516   3.145   3.446  0.4649  0.3914  0.2421
 3654SOL    HW122598   3.520   3.051   3.468 -0.6010  1.0142  3.0436
 3654SOL    HW222599   3.611   3.157   3.442  0.5288 -0.5926 -1.3477
 3655SOL     OW22600   1.012   4.208  13.202 -0.2153  0.2372 -0.0086
 3655SOL    HW122601   1.039   4.119  13.223 -1.9576  0.3127  2.5872
 3655SOL    HW222602   1.029   4.256  13.283 -0.4426 -2.0801  1.4079
 3656SOL     OW22603   3.677   2.947   5.175 -0.0421  0.0681 -0.4264
 3656SOL    HW122604   3.707   2.996   5.099 -2.0210  0.0178 -1.2349
 3656SOL    HW222605   3.753   2.972   5.228 -0.1109  1.1704 -0.8558
 3657SOL     OW22606   1.634   0.351   3.723  0.4146 -0.5360  0.3122
 3657SOL    HW122607   1.559   0.367   3.666  1.5645 -1.8708 -1.5655
 3657SOL    HW222608   1.618   0.262   3.754  0.8981 -0.6035  0.3685
 3658SOL     OW22609   3.335   2.068   4.349  0.1278 -0.0757  0.0940
 3658SOL    HW122610   3.374   1.996   4.299 -0.8368  1.6805 -3.1935
 3658SOL    HW222611   3.242   2.052   4.333  0.2584 -1.2064  0.4220
 3659SOL     OW22612   4.678   3.393   0.247  0.0163  0.1827  0.3890
 3659SOL    HW122613   4.637   3.384   0.161 -0.1567 -1.6983  0.6660
 3659SOL    HW222614   4.633   3.468   0.287  2.3620  2.9775 -2.2527
 3660SOL     OW22615   2.197   3.374   3.090  0.9557 -0.6566 -0.6236
 3660SOL    HW122616   2.290   3.365   3.112  0.9031  0.3312  0.0125
 3660SOL    HW222617   2.162   3.343   3.173  0.3366 -0.8448 -0.9548
 3661SOL     OW22618   0.061   3.380   9.023 -0.1558 -0.0997  0.0736
 3661SOL    HW122619   4.724   3.347   8.974 -1.2402  1.5595  0.5939
 3661SOL    HW222620   0.118   3.304   9.035  0.9896  0.7057 -0.3630
 3662SOL     OW22621   0.990   2.312   5.813  0.0264 -0.1626 -0.3110
 3662SOL    HW122622   1.042   2.295   5.891  2.0861  2.4574 -1.1184
 3662SOL    HW222623   0.913   2.256   5.818 -1.5306  2.1463  1.4110
 3663SOL     OW22624   0.618   3.055   0.784  0.4036 -0.0271 -0.2221
 3663SOL    HW122625   0.540   3.006   0.760  1.0204 -0.2116 -1.8025
 3663SOL    HW222626   0.666   2.975   0.807 -1.3627 -0.8255  0.7064
 3664SOL     OW22627   1.258   3.141   3.852 -0.2276 -0.1169  0.1959
 3664SOL    HW122628   1.214   3.070   3.899 -0.3452 -0.2928 -0.1882
 3664SOL    HW222629   1.191   3.199   3.816 -0.3124 -0.9314 -0.9454
 3665SOL     OW22630   4.546   3.164  17.112 -0.3206  0.0702  0.0754
 3665SOL    HW122631   4.573   3.213  17.034 -2.9834  1.7311  0.2007
 3665SOL    HW222632   4.458   3.144  17.081  0.2122 -0.4942 -1.0544
 3666SOL     OW22633   0.129   2.674  17.083 -0.0288 -0.2761 -0.1752
 3666SOL    HW122634   0.054   2.663  17.142 -0.9664 -2.2164 -1.7365
 3666SOL    HW222635   0.186   2.730  17.135  0.0313  1.7815 -2.4547
 3667SOL     OW22636   2.073   4.648   4.369 -0.0711  0.1227 -0.1693
 3667SOL    HW122637   2.112   4.719   4.318  1.1577  0.0729  0.7053
 3667SOL    HW222638   2.146   4.585   4.371 -0.6831 -0.5626  0.6394
 3668SOL     OW22639   2.305   4.593   5.735 -0.0624  0.2875 -0.0957
 3668SOL    HW122640   2.248   4.536   5.685  0.8817 -0.9210  0.1984
 3668SOL    HW222641   2.246   4.669   5.740  0.1174  0.4313 -0.1427
 3669SOL     OW22642   0.589   2.576  13.254 -0.1391  0.6002  0.5440
 3669SOL    HW122643   0.585   2.546  13.164 -1.2142  0.7055  0.5548
 3669SOL    HW222644   0.623   2.665  13.242  0.4471  0.3003 -0.0446
 3670SOL     OW22645   0.079   2.536   3.652 -0.3066  0.4945  0.0013
 3670SOL    HW122646   0.078   2.483   3.572  0.2474  3.3728 -1.8821
 3670SOL    HW222647   0.095   2.468   3.718 -0.8048 -0.6895 -1.1010
 3671SOL     OW22648   4.684   3.372   4.374 -0.3852 -0.2441 -0.2041
 3671SOL    HW122649   4.700   3.390   4.467 -0.4365 -1.6288  0.0760
 3671SOL    HW222650   4.707   3.279   4.373 -0.3028 -0.1806 -2.6189
 3672SOL     OW22651   3.287   4.387   2.883  0.7639  0.1488  0.1870
 3672SOL    HW122652   3.204   4.414   2.843  0.9307 -0.4612 -0.5708
 3672SOL    HW222653   3.272   4.303   2.926 -2.5345  0.3739 -0.5240
 3673SOL     OW22654   2.568   1.609   4.737 -0.5022  0.7505 -0.2485
 3673SOL    HW122655   2.496   1.554   4.706  1.4815 -2.3871  0.6632
 3673SOL    HW222656   2.552   1.696   4.701  0.5151  1.5025  1.1176
 3674SOL     OW22657   2.341   0.155   6.173  0.2347 -0.5707 -0.7656
 3674SOL    HW122658   2.421   0.174   6.124  1.1292  1.4885  1.4546
 3674SOL    HW222659   2.383   0.174   6.257  0.9987 -2.6893 -0.6643
 3675SOL     OW22660   2.958   4.132   1.326 -0.1802 -0.8427 -0.0656
 3675SOL    HW122661   2.953   4.223   1.296  0.6762 -0.2118  1.6926
 3675SOL    HW222662   2.981   4.147   1.418  1.4687 -1.4181 -0.3885
 3676SOL     OW22663   0.138   4.049   2.696  0.1098 -0.3906  0.4402
 3676SOL    HW122664   0.178   4.108   2.632 -3.8854 -2.1446 -3.6724
 3676SOL    HW222665   0.220   4.018   2.734  0.7764 -0.5803 -1.1764
 3677SOL     OW22666   4.627   2.232   4.002 -0.3610  0.0027  0.2205
 3677SOL    HW122667   4.537   2.202   4.005 -0.9080  1.7576  1.7436
 3677SOL    HW222668   4.673   2.148   3.997  0.7181  0.6471 -0.9177
 3678SOL     OW22669   1.907   1.737  16.147 -0.5887  0.2333  0.0734
 3678SOL    HW122670   1.954   1.672  16.199  0.4200 -0.1451 -1.3057
 3678SOL    HW222671   1.953   1.723  16.064 -0.4329  1.0906  0.0070
 3679SOL     OW22672   0.523   3.323  11.781  0.1861  0.4489 -0.0704
 3679SOL    HW122673   0.487   3.281  11.859  0.5918 -1.7057 -1.0499
 3679SOL    HW222674   0.515   3.253  11.716 -2.1441  1.6902 -1.1254
 3680SOL     OW22675   4.069   0.735   2.411  0.2155 -0.0228 -0.1159
 3680SOL    HW122676   4.155   0.770   2.388  0.1152 -0.1461 -0.6794
 3680SOL    HW222677   4.083   0.653   2.458 -0.7507  1.6536  3.0992
 3681SOL     OW22678   1.888   4.024  13.858  0.0528  0.0954  0.3155
 3681SOL    HW122679   1.812   4.081  13.873 -1.8437 -1.8363 -1.8916
 3681SOL    HW222680   1.850   3.957  13.801  0.8371 -0.3437  0.3194
 3682SOL     OW22681   4.434   2.059   8.057  0.3944  0.1281 -0.2012
 3682SOL    HW122682   4.351   2.102   8.034 -0.3639 -0.4193  1.5413
 3682SOL    HW222683   4.415   1.969   8.032  0.2091  0.3457 -0.8573
 3683SOL     OW22684   3.219   1.709  11.052 -0.6072  0.1914 -0.4519
 3683SOL    HW122685   3.163   1.656  10.995 -2.6214  0.8743  0.9076
 3683SOL    HW222686   3.286   1.723  10.985  1.6461 -4.9247  0.6948
 3684SOL     OW22687   2.704   2.069  10.455  0.2327 -0.1485 -0.1277
 3684SOL    HW122688   2.754   2.038  10.380  0.4535  0.4334 -0.2197
 3684SOL    HW222689   2.650   2.140  10.420  2.2050  0.4318 -1.9410
 3685SOL     OW22690   3.414   0.739   1.737 -1.0421  0.1430 -0.7947
 3685SOL    HW122691   3.465   0.765   1.813 -0.7218 -1.2493 -0.5433
 3685SOL    HW222692   3.430   0.645   1.745  2.3991  1.1829  4.0582
 3686SOL     OW22693   3.657   1.442  16.799  0.4074 -0.3810  0.0473
 3686SOL    HW122694   3.619   1.357  16.822  0.1918 -0.2355  0.2273
 3686SOL    HW222695   3.635   1.435  16.706  0.3833 -1.5533  0.1315
 3687SOL     OW22696   3.056   2.067   5.534 -0.1709 -0.9069  0.1142
 3687SOL    HW122697   2.997   2.109   5.597  0.4495 -0.0331  0.1138
 3687SOL    HW222698   3.001   1.997   5.499 -0.6971 -0.9918  1.0817
 3688SOL     OW22699   1.577   0.851   5.200 -0.4970  0.4183  0.2535
 3688SOL    HW122700   1.512   0.874   5.134 -1.0896  0.2251  0.7728
 3688SOL    HW222701   1.576   0.928   5.257  2.2031 -0.6465  1.7308
 3689SOL     OW22702   0.842   3.639   3.326  0.4039  0.1048  0.1744
 3689SOL    HW122703   0.803   3.555   3.304  0.3781  0.4934 -1.2729
 3689SOL    HW222704   0.924   3.644   3.276 -0.2954 -1.4706 -1.1039
 3690SOL     OW22705   0.681   1.758   4.755 -0.5594 -0.2459 -0.0638
 3690SOL    HW122706   0.735   1.800   4.822 -2.6743  0.7000  1.0654
 3690SOL    HW222707   0.591   1.785   4.776 -0.2281  0.1789  0.8184
 3691SOL     OW22708   4.088   0.193   8.476  0.0372 -0.6105 -0.4597
 3691SOL    HW122709   4.123   0.224   8.392  0.9072 -1.3305 -0.3604
 3691SOL    HW222710   4.103   0.099   8.468  1.3098 -0.4911  0.6643
 3692SOL     OW22711   1.950   0.064  13.906 -0.1438  0.0356 -0.2432
 3692SOL    HW122712   1.948   0.004  13.980 -1.5845  0.8254  0.3548
 3692SOL    HW222713   1.912   0.011  13.836  2.2508  0.6788 -2.0326
 3693SOL     OW22714   3.991   0.545   7.133 -0.2456 -0.0701 -0.4346
 3693SOL    HW122715   3.918   0.605   7.119  0.2612  0.3947 -1.1058
 3693SOL    HW222716   3.952   0.462   7.158 -0.9895  0.6665  0.8230
 3694SOL     OW22717   4.203   1.085  15.610  0.5086  0.1178  0.4370
 3694SOL    HW122718   4.134   1.035  15.653 -0.5549  0.0711 -1.3389
 3694SOL    HW222719   4.242   1.019  15.551  0.3329  0.7568 -0.3903
 3695SOL     OW22720   3.260   4.454   6.879 -0.0554  0.8995  0.5559
 3695SOL    HW122721   3.341   4.432   6.833  0.6911  2.5799  1.0778
 3695SOL    HW222722   3.211   4.373   6.865  1.2546  0.1386  0.4125
 3696SOL     OW22723   0.534   3.376  17.160  0.1252  0.3783  0.3052
 3696SOL    HW122724   0.458   3.323  17.136 -1.2448  2.2668  0.5303
 3696SOL    HW222725   0.497   3.462  17.142 -2.1254 -0.4176  1.1066
 3697SOL     OW22726   0.308   1.010  12.910  0.2575  0.6213  0.2294
 3697SOL    HW122727   0.400   0.985  12.904  0.7792  1.9884  2.4881
 3697SOL    HW222728   0.271   0.962  12.836  1.8725 -0.6360  0.2716
 3698SOL     OW22729   2.800   0.293   6.143  0.2084  0.2900 -0.5493
 3698SOL    HW122730   2.839   0.374   6.177 -0.5915  1.0513 -1.4411
 3698SOL    HW222731   2.876   0.237   6.162 -0.4153 -0.3759 -0.0547
 3699SOL     OW22732   3.127   1.025   5.860 -0.6766 -0.2822 -0.4265
 3699SOL    HW122733   3.182   0.948   5.876  2.2185  1.9714  0.3568
 3699SOL    HW222734   3.181   1.094   5.897 -1.9746  1.1413 -1.2175
 3700SOL     OW22735   0.684   2.064   2.514 -0.0239 -0.1225 -0.5506
 3700SOL    HW122736   0.706   1.973   2.495 -0.2803 -0.3366  0.1837
 3700SOL    HW222737   0.663   2.101   2.428 -0.1569 -1.5974 -1.1474
 3701SOL     OW22738   3.865   1.749  15.047 -0.1889  0.0487 -0.0985
 3701SOL    HW122739   3.945   1.751  14.994 -0.2089  0.3937 -0.1148
 3701SOL    HW222740   3.901   1.792  15.125  1.1263  0.2443 -0.8016
 3702SOL     OW22741   3.206   1.837   1.312 -0.0787 -0.3753 -0.0315
 3702SOL    HW122742   3.138   1.775   1.284 -2.1422  1.5679  0.6275
 3702SOL    HW222743   3.239   1.856   1.224  0.1977  0.5422  0.2723
 3703SOL     OW22744   2.988   4.046  15.263  0.5912 -0.3068 -0.0158
 3703SOL    HW122745   3.058   4.033  15.327  0.4276  0.8797  0.3946
 3703SOL    HW222746   3.035   4.041  15.180  1.3042 -0.6452  0.4137
 3704SOL     OW22747   2.127   2.179  16.086  0.1422  0.2473 -0.2914
 3704SOL    HW122748   2.155   2.128  16.010 -0.4811 -0.1526 -0.2491
 3704SOL    HW222749   2.060   2.119  16.118 -0.5010  0.7850 -0.6157
 3705SOL     OW22750   0.612   1.589   3.591 -0.2185 -0.3663 -0.0472
 3705SOL    HW122751   0.690   1.533   3.593 -0.7655 -1.2648 -3.0487
 3705SOL    HW222752   0.555   1.544   3.528 -0.7315  0.8800 -0.4718
 3706SOL     OW22753   3.678   4.325   8.524  0.2976 -0.7485  0.2099
 3706SOL    HW122754   3.734   4.398   8.497  2.0361 -1.6707  1.3194
 3706SOL    HW222755   3.746   4.259   8.537  1.7692  0.5916 -0.6536
 3707SOL     OW22756   1.892   0.740   7.991  0.0354 -0.6741  0.6093
 3707SOL    HW122757   1.869   0.832   8.006 -0.6364 -0.5286 -1.2760
 3707SOL    HW222758   1.902   0.736   7.896  0.3740  0.6577  0.5832
 3708SOL     OW22759   0.738   2.692   7.770 -0.2346 -0.1254  0.0253
 3708SOL    HW122760   0.702   2.715   7.856 -0.2133  1.5747 -0.4031
 3708SOL    HW222761   0.745   2.783   7.740 -1.6863 -1.3540 -4.0497
 3709SOL     OW22762   2.722   3.457   8.854 -0.0124 -0.2315  0.3083
 3709SOL    HW122763   2.740   3.439   8.947  3.5238  0.8376 -0.1928
 3709SOL    HW222764   2.802   3.437   8.806  2.0320  2.6273  2.5161
 3710SOL     OW22765   4.199   4.698   4.887  1.2281  0.9163 -0.1418
 3710SOL    HW122766   4.253   4.702   4.966 -0.5337 -1.7062  1.2038
 3710SOL    HW222767   4.154   0.045   4.893  2.2457  1.4061  0.6000
 3711SOL     OW22768   1.603   0.035   5.804 -0.5104 -0.2584 -0.1217
 3711SOL    HW122769   1.563   4.697   5.762  1.1111 -1.5320  0.6111
 3711SOL    HW222770   1.525   0.078   5.839  1.2325  1.3793  1.7573
 3712SOL     OW22771   0.879   2.248   4.022  0.1918 -0.1695  1.2776
 3712SOL    HW122772   0.906   2.160   3.995  2.5619  0.8447  0.3100
 3712SOL    HW222773   0.831   2.227   4.102  0.0138  0.8647  1.4402
 3713SOL     OW22774   2.417   3.447   7.384  0.1530  0.1187 -0.2344
 3713SOL    HW122775   2.333   3.485   7.356 -0.6282 -0.1921  1.6944
 3713SOL    HW222776   2.468   3.490   7.315  1.9178 -1.6838 -0.0213
 3714SOL     OW22777   1.114   0.374   2.561 -0.4027 -0.2557  0.3580
 3714SOL    HW122778   1.083   0.298   2.511  3.0126 -2.0987  1.0425
 3714SOL    HW222779   1.071   0.438   2.505 -1.2496  0.3215  1.6892
 3715SOL     OW22780   0.448   3.110   3.514 -0.1853  0.5945 -0.8920
 3715SOL    HW122781   0.432   3.059   3.435 -0.6117 -3.7196  1.9659
 3715SOL    HW222782   0.528   3.078   3.555 -0.2510  0.3272 -0.9783
 3716SOL     OW22783   4.710   2.359   0.440 -0.2677 -0.1389  0.0958
 3716SOL    HW122784   4.686   2.267   0.434 -0.7749  0.1492 -2.3138
 3716SOL    HW222785   0.062   2.351   0.470  0.0409 -1.6876 -1.2882
 3717SOL     OW22786   0.604   2.662  15.424  0.1731 -0.1809 -0.2554
 3717SOL    HW122787   0.513   2.691  15.417  0.3811  0.2641 -1.2097
 3717SOL    HW222788   0.600   2.589  15.485  2.9147  0.6441  0.9115
 3718SOL     OW22789   3.206   1.536   0.249 -0.1288  0.1826  0.6019
 3718SOL    HW122790   3.118   1.522   0.216  0.3272 -0.0910 -0.4943
 3718SOL    HW222791   3.210   1.499   0.337  0.5411  2.0195  1.3580
 3719SOL     OW22792   3.986   0.029  13.639  0.6740 -0.6127 -0.3212
 3719SOL    HW122793   3.940   4.685  13.659 -0.1139  0.1928  1.1831
 3719SOL    HW222794   3.935   0.057  13.563 -0.6309  1.5523  1.3498
 3720SOL     OW22795   2.427   0.603  14.835  0.2216 -0.1470 -0.2100
 3720SOL    HW122796   2.516   0.582  14.806  0.7698  0.8181  0.8073
 3720SOL    HW222797   2.412   0.697  14.831 -0.0117 -0.2818 -2.9132
 3721SOL     OW22798   2.582   0.299   8.361 -0.0239  0.4395  0.0850
 3721SOL    HW122799   2.668   0.321   8.395 -0.2978  1.9362 -0.1964
 3721SOL    HW222800   2.580   0.210   8.396  0.8200  0.2703 -0.2958
 3722SOL     OW22801   0.140   0.815   4.965  0.3497 -0.0498 -0.2129
 3722SOL    HW122802   0.209   0.771   5.014 -0.0910 -1.0311 -0.4672
 3722SOL    HW222803   0.184   0.900   4.959  0.9189 -0.4242 -1.3208
 3723SOL     OW22804   3.213   3.237  14.653  0.4405 -0.3045  0.1771
 3723SOL    HW122805   3.283   3.246  14.588  1.2862  0.0527  1.1359
 3723SOL    HW222806   3.170   3.159  14.619 -2.4736 -0.2561  3.7503
 3724SOL     OW22807   3.035   3.657   4.077  0.6995  0.5327  0.6487
 3724SOL    HW122808   2.974   3.707   4.023  1.3805  0.3796 -0.2571
 3724SOL    HW222809   2.980   3.634   4.152 -0.1024 -1.3930 -0.5261
 3725SOL     OW22810   2.664   1.713  13.112 -0.2244  0.4178  0.0748
 3725SOL    HW122811   2.583   1.712  13.062  0.2766 -0.4155 -0.7299
 3725SOL    HW222812   2.662   1.802  13.147 -2.6845 -0.5236  2.2971
 3726SOL     OW22813   2.127   2.367   6.578 -0.1961  0.7399 -0.3003
 3726SOL    HW122814   2.093   2.422   6.507 -1.5674 -0.6505 -0.7127
 3726SOL    HW222815   2.169   2.304   6.520  0.6164  1.6545 -0.7194
 3727SOL     OW22816   3.103   2.584  13.574 -0.4166  0.0907 -0.3601
 3727SOL    HW122817   3.129   2.660  13.626 -0.8310  0.2808 -0.4291
 3727SOL    HW222818   3.053   2.625  13.503 -0.9895  1.9311  1.1055
 3728SOL     OW22819   2.496   1.957   5.896  0.1783  0.6641 -0.2555
 3728SOL    HW122820   2.443   1.917   5.828 -0.6846  2.1324 -0.4510
 3728SOL    HW222821   2.461   2.046   5.888  0.1309  0.6047 -0.6617
 3729SOL     OW22822   1.760   3.731   6.901  0.4304 -0.1331  0.3564
 3729SOL    HW122823   1.804   3.691   6.977  1.5656 -0.9034 -0.7033
 3729SOL    HW222824   1.676   3.687   6.889 -0.3155  1.4469 -0.0971
 3730SOL     OW22825   3.275   2.021   0.069 -0.2806  0.4302  0.3603
 3730SOL    HW122826   3.292   2.093   0.130 -1.8353 -0.9738  2.4479
 3730SOL    HW222827   3.275   1.955   0.138  0.0259 -1.0865 -1.1092
 3731SOL     OW22828   4.260   4.060   1.571 -0.5860 -0.3768 -0.6568
 3731SOL    HW122829   4.315   3.996   1.616 -1.3472 -2.1536 -2.2509
 3731SOL    HW222830   4.181   4.068   1.624  0.1173  0.7302  0.2101
 3732SOL     OW22831   2.019   1.427   2.781 -0.3196 -0.1719  0.0312
 3732SOL    HW122832   1.931   1.445   2.814 -0.8826 -0.4853 -1.3152
 3732SOL    HW222833   2.032   1.514   2.745 -2.7189  0.5947  1.0640
 3733SOL     OW22834   3.114   0.440  13.649  0.5798 -0.2177  0.2942
 3733SOL    HW122835   3.053   0.510  13.669  1.4803  0.7069 -0.2199
 3733SOL    HW222836   3.104   0.392  13.732  1.4552  2.5642  1.9948
 3734SOL     OW22837   1.015   0.528  11.447 -0.3517 -0.0100  0.1589
 3734SOL    HW122838   0.984   0.548  11.359  1.8448  0.4787 -0.4884
 3734SOL    HW222839   1.087   0.590  11.445 -1.0859  0.7897 -1.1972
 3735SOL     OW22840   3.857   4.396   3.840 -0.3042  0.0816  0.4409
 3735SOL    HW122841   3.770   4.394   3.801  0.5375 -3.2989 -1.2701
 3735SOL    HW222842   3.842   4.465   3.904  0.1724  0.4792  0.1183
 3736SOL     OW22843   3.263   1.046   9.883  0.2324 -0.1966 -0.2439
 3736SOL    HW122844   3.287   1.120   9.828 -1.5123 -1.1972 -2.3681
 3736SOL    HW222845   3.320   1.055   9.959  2.0378  2.0404 -1.8722
 3737SOL     OW22846   4.222   2.453  13.291  1.0215  0.0687 -0.1029
 3737SOL    HW122847   4.304   2.468  13.338  0.1143 -0.5135  1.6532
 3737SOL    HW222848   4.262   2.441  13.204  0.9766  0.6834 -0.2067
 3738SOL     OW22849   1.903   2.124   6.129 -0.2367  0.0206  0.3690
 3738SOL    HW122850   1.961   2.057   6.095  0.5007  0.3964  0.8730
 3738SOL    HW222851   1.922   2.202   6.077 -2.1211 -0.0896 -0.4755
 3739SOL     OW22852   3.420   1.306   7.475 -0.3055  0.1054 -0.0545
 3739SOL    HW122853   3.358   1.233   7.474  1.4114 -1.3878  1.9407
 3739SOL    HW222854   3.362   1.381   7.488 -3.9448 -3.1490  2.1946
 3740SOL     OW22855   2.548   4.687   5.125  0.3167  0.3564 -0.6664
 3740SOL    HW122856   2.477   4.681   5.061 -0.0793  0.9038 -0.2769
 3740SOL    HW222857   2.508   0.003   5.193 -1.0040 -0.6430 -0.6425
 3741SOL     OW22858   3.853   1.617   2.522  0.0949  0.3016 -0.2701
 3741SOL    HW122859   3.852   1.581   2.433 -0.5988  0.2506 -0.2394
 3741SOL    HW222860   3.946   1.614   2.545  0.1344 -0.5902 -0.5651
 3742SOL     OW22861   4.506   3.174  10.128 -0.0220  0.3420  0.0350
 3742SOL    HW122862   4.537   3.084  10.123 -0.7736 -0.0531  2.5775
 3742SOL    HW222863   4.506   3.193  10.034  1.2242  0.1676  0.0075
 3743SOL     OW22864   0.870   1.582  10.634 -0.1052  0.7089  0.0209
 3743SOL    HW122865   0.954   1.576  10.680  0.4861 -1.3157 -1.3274
 3743SOL    HW222866   0.885   1.671  10.604 -1.1089 -0.0075 -2.6009
 3744SOL     OW22867   0.353   3.686   6.531  0.3182 -0.4743 -0.2043
 3744SOL    HW122868   0.369   3.697   6.437 -0.9252  0.6187 -0.2927
 3744SOL    HW222869   0.350   3.591   6.541 -2.8050 -0.0950  2.5725
 3745SOL     OW22870   3.109   2.906   6.402 -0.1463  0.5193  0.4270
 3745SOL    HW122871   3.112   3.002   6.396  0.0602  0.6060  1.7603
 3745SOL    HW222872   3.163   2.893   6.480  3.5202 -2.3726 -2.6214
 3746SOL     OW22873   3.420   4.637  16.586  0.6906 -0.3614 -0.3425
 3746SOL    HW122874   3.451   4.695  16.516 -1.9328  1.4177 -0.0101
 3746SOL    HW222875   3.401   4.556  16.539  0.0503  1.3298 -2.9875
 3747SOL     OW22876   2.827   0.911   6.704  0.8750  0.5917 -0.4562
 3747SOL    HW122877   2.791   0.996   6.726 -3.7033 -1.2600 -0.6681
 3747SOL    HW222878   2.749   0.855   6.700  0.4576  1.1972 -0.7773
 3748SOL     OW22879   1.429   0.151   4.530  0.0503  0.2640 -0.0555
 3748SOL    HW122880   1.397   0.201   4.454 -3.0924 -3.1099 -0.9354
 3748SOL    HW222881   1.522   0.174   4.523  0.2116 -0.6378 -0.9801
 3749SOL     OW22882   1.833   1.773  12.536 -0.2338  0.3327 -0.3419
 3749SOL    HW122883   1.918   1.805  12.506 -0.6376  1.1681 -0.5756
 3749SOL    HW222884   1.835   1.698  12.477 -0.2798  0.0405  0.0241
 3750SOL     OW22885   2.881   3.106   5.548  0.0695  0.3782 -0.2553
 3750SOL    HW122886   2.810   3.117   5.611 -0.8758 -1.7916 -0.9568
 3750SOL    HW222887   2.869   3.017   5.516 -2.0259  0.5958 -0.0148
 3751SOL     OW22888   0.261   0.401   3.762  0.1863  0.1476 -0.2727
 3751SOL    HW122889   0.260   0.309   3.788  0.6499  0.5008  0.9907
 3751SOL    HW222890   0.281   0.437   3.848  0.0937  0.5336 -0.4124
 3752SOL     OW22891   2.498   1.023   6.301  0.0318 -0.4096  0.1290
 3752SOL    HW122892   2.525   1.103   6.345 -0.0943  0.2729 -1.0285
 3752SOL    HW222893   2.567   1.012   6.236  2.4340  3.1749  2.1029
 3753SOL     OW22894   0.533   0.694   2.790  0.3042 -0.1155  0.0463
 3753SOL    HW122895   0.525   0.783   2.756  0.5268  0.6444  1.9890
 3753SOL    HW222896   0.447   0.665   2.759  0.1925  1.1738 -0.8799
 3754SOL     OW22897   2.059   2.584   6.786 -0.0066 -0.5329  0.4818
 3754SOL    HW122898   1.996   2.627   6.728  2.0835  0.9407 -0.7112
 3754SOL    HW222899   2.085   2.508   6.733 -2.8943  1.1311 -3.3152
 3755SOL     OW22900   2.478   1.918   6.940  0.1436  0.2556 -0.2239
 3755SOL    HW122901   2.482   1.944   6.848 -0.8969  1.6714  0.1328
 3755SOL    HW222902   2.385   1.901   6.954 -0.1876  1.6883 -0.6807
 3756SOL     OW22903   3.605   0.935   2.330  0.1199  0.4588 -0.2218
 3756SOL    HW122904   3.656   0.866   2.287 -2.4427 -2.1351  0.9580
 3756SOL    HW222905   3.672   0.993   2.367  0.6149 -0.1552 -0.1553
 3757SOL     OW22906   1.815   1.461   5.414  0.2075 -0.3340  0.0083
 3757SOL    HW122907   1.866   1.382   5.431 -0.5824 -0.9404 -0.4058
 3757SOL    HW222908   1.733   1.412   5.399 -0.8040  1.1614  0.7052
 3758SOL     OW22909   2.847   0.772   1.757 -0.2196 -0.1176 -0.5283
 3758SOL    HW122910   2.813   0.684   1.773 -1.4512  0.0897 -1.9921
 3758SOL    HW222911   2.871   0.787   1.848 -2.1919  0.5128 -0.1081
 3759SOL     OW22912   1.022   2.369   4.235 -0.9448  0.0808 -0.0550
 3759SOL    HW122913   0.966   2.358   4.159  0.6724 -0.2211 -1.2001
 3759SOL    HW222914   1.027   2.463   4.254 -0.4818  0.4916 -2.2335
 3760SOL     OW22915   0.640   3.463   4.591  0.1178 -0.2227  0.6088
 3760SOL    HW122916   0.710   3.515   4.631  0.2608 -0.4465  0.6510
 3760SOL    HW222917   0.622   3.513   4.511 -0.9257 -0.2130  0.8541
 3761SOL     OW22918   1.452   4.677  12.473  0.6029 -0.4271  0.4338
 3761SOL    HW122919   1.405   0.019  12.500 -0.1659 -0.6662 -0.2222
 3761SOL    HW222920   1.542   4.687  12.442  1.1685  1.9746  2.7633
 3762SOL     OW22921   3.692   2.489  10.389 -0.4086  0.3610  0.0371
 3762SOL    HW122922   3.691   2.482  10.484 -0.5505 -0.9379 -0.0702
 3762SOL    HW222923   3.778   2.452  10.366 -0.0469  0.7991  0.7029
 3763SOL     OW22924   1.638   0.436   2.505  0.6574 -0.9461 -0.5853
 3763SOL    HW122925   1.604   0.507   2.560  1.1850 -0.7918 -0.4574
 3763SOL    HW222926   1.564   0.377   2.493 -0.1901 -0.0489  0.2090
 3764SOL     OW22927   2.754   3.249   7.571 -0.2143  0.0258 -0.3381
 3764SOL    HW122928   2.790   3.265   7.484 -0.9338  2.1498 -0.2471
 3764SOL    HW222929   2.707   3.328   7.595 -0.2193 -0.2402  0.5383
 3765SOL     OW22930   2.880   2.890   2.484 -0.0286  0.4674 -0.2413
 3765SOL    HW122931   2.933   2.810   2.495 -0.3342  0.0595 -1.7383
 3765SOL    HW222932   2.950   2.953   2.472  0.0259  1.1614  3.9382
 3766SOL     OW22933   2.825   2.648   7.831  0.3577 -0.6484  0.8337
 3766SOL    HW122934   2.894   2.713   7.833 -0.6562  0.4342  0.4949
 3766SOL    HW222935   2.870   2.583   7.885  1.2484 -1.9175 -1.4291
 3767SOL     OW22936   0.532   4.108   6.157 -0.1561  0.0136  0.1175
 3767SOL    HW122937   0.589   4.042   6.197 -4.6102 -2.4619  2.4003
 3767SOL    HW222938   0.563   4.131   6.070  0.6884  0.4274  0.5241
 3768SOL     OW22939   0.521   0.254   4.746 -0.2822  0.1350  0.3498
 3768SOL    HW122940   0.450   0.196   4.720 -1.0067  1.4804 -0.6966
 3768SOL    HW222941   0.548   0.284   4.659  0.7769  0.6400  0.8508
 3769SOL     OW22942   2.508   1.634  12.436 -0.7061  0.0521 -0.1224
 3769SOL    HW122943   2.479   1.555  12.481  0.0177 -0.9550 -1.4482
 3769SOL    HW222944   2.589   1.604  12.395 -0.1916  0.0984  0.8515
 3770SOL     OW22945   2.726   3.173   1.344  0.4051 -0.3594  0.3874
 3770SOL    HW122946   2.726   3.226   1.423 -1.9193  4.6865 -2.9731
 3770SOL    HW222947   2.733   3.085   1.381  1.4209 -0.7438 -0.6947
 3771SOL     OW22948   3.240   2.383   7.627 -0.4910 -0.2113  0.0664
 3771SOL    HW122949   3.308   2.346   7.684  1.0685 -1.2660 -2.5003
 3771SOL    HW222950   3.166   2.327   7.650 -0.6955  0.7966  1.8993
 3772SOL     OW22951   0.409   2.982   7.296  0.8151  0.5599 -0.0148
 3772SOL    HW122952   0.370   3.064   7.266 -0.7753  0.0872  0.7915
 3772SOL    HW222953   0.335   2.939   7.339  0.5046 -0.3617 -1.4834
 3773SOL     OW22954   1.003   2.298   4.518 -0.4990  0.0634  0.2705
 3773SOL    HW122955   1.011   2.297   4.422  1.6543  0.7113  0.4475
 3773SOL    HW222956   1.061   2.372   4.533  0.4692 -0.7653  0.5846
 3774SOL     OW22957   2.985   2.122   1.654  0.2619  0.1147 -0.0657
 3774SOL    HW122958   3.006   2.047   1.599 -2.7776 -2.1896  1.9096
 3774SOL    HW222959   2.899   2.152   1.624  0.5522  0.7958 -0.2238
 3775SOL     OW22960   2.666   1.953   1.892  0.2993 -0.1155 -0.2533
 3775SOL    HW122961   2.729   1.965   1.821  0.6809  0.6207  0.2173
 3775SOL    HW222962   2.719   1.947   1.971  1.2342 -1.0671 -0.9651
 3776SOL     OW22963   0.870   1.308   6.596  0.0828 -0.8874  0.5171
 3776SOL    HW122964   0.793   1.255   6.578  0.5935 -1.7899  0.9359
 3776SOL    HW222965   0.843   1.351   6.677  1.5949 -1.1064  1.1507
 3777SOL     OW22966   0.562   0.752  13.089  0.4884 -0.3474 -0.0154
 3777SOL    HW122967   0.655   0.739  13.105  0.7698  1.0510 -0.5421
 3777SOL    HW222968   0.513   0.677  13.124 -1.2715  0.3303 -1.0320
 3778SOL     OW22969   2.737   3.470   2.994  0.3207 -0.1111  0.3496
 3778SOL    HW122970   2.715   3.467   3.087 -2.4794 -0.2926 -0.3332
 3778SOL    HW222971   2.793   3.547   2.996 -1.9996  1.5875 -0.4782
 3779SOL     OW22972   0.300   0.420  15.877  0.5922  0.0266 -0.0049
 3779SOL    HW122973   0.331   0.332  15.854  1.9917  0.5720 -0.1897
 3779SOL    HW222974   0.264   0.406  15.965 -1.9800  0.6687 -0.9685
 3780SOL     OW22975   0.333   3.091   4.144  0.3208  0.0082  0.0287
 3780SOL    HW122976   0.266   3.022   4.140  1.8034 -1.4767  0.7160
 3780SOL    HW222977   0.271   3.162   4.125 -2.2535 -1.9097  1.1550
 3781SOL     OW22978   0.267   1.842   6.053 -0.3087  0.0011  0.3475
 3781SOL    HW122979   0.182   1.885   6.053 -0.2400  0.1389 -0.5524
 3781SOL    HW222980   0.293   1.848   5.961 -0.5319 -0.0784  0.2791
 3782SOL     OW22981   2.368   2.360  12.591 -0.5791  0.1501  0.1271
 3782SOL    HW122982   2.439   2.423  12.580  1.2445 -1.9453 -0.0757
 3782SOL    HW222983   2.370   2.314  12.507 -4.1802  1.4033 -0.6391
 3783SOL     OW22984   2.179   0.083   3.684 -0.0212  0.2491  0.1148
 3783SOL    HW122985   2.166   4.725   3.682  0.0368  0.2128  1.5615
 3783SOL    HW222986   2.220   0.096   3.599  0.2658  2.8719  0.6730
 3784SOL     OW22987   1.251   4.201   7.432  0.3016 -0.1310  0.4863
 3784SOL    HW122988   1.219   4.161   7.351 -0.2812 -1.0364  1.1708
 3784SOL    HW222989   1.307   4.128   7.457  1.1728 -0.5954 -2.7970
 3785SOL     OW22990   1.188   0.076   3.311 -0.1454 -0.4623  0.0224
 3785SOL    HW122991   1.221   0.138   3.246 -0.2429  0.3208  0.7228
 3785SOL    HW222992   1.172   0.007   3.246  0.9004 -0.3931 -0.3038
 3786SOL     OW22993   1.763   2.848   4.155  0.0679 -0.2197 -0.3633
 3786SOL    HW122994   1.768   2.753   4.142  1.8614 -0.4570  2.0573
 3786SOL    HW222995   1.800   2.876   4.071 -1.4360  0.3086 -0.8578
 3787SOL     OW22996   0.366   4.335   6.196  0.5100  0.0485  0.1943
 3787SOL    HW122997   0.412   4.251   6.196 -1.3555 -0.9678 -1.0721
 3787SOL    HW222998   0.445   4.388   6.198  0.5537  0.0261 -1.1638
 3788SOL     OW22999   0.641   0.141   4.296  0.3436 -0.0701  0.6867
 3788SOL    HW123000   0.571   0.178   4.243  1.3613 -0.2546 -0.7853
 3788SOL    HW223001   0.723   0.143   4.246 -1.1417  1.3566 -1.6793
 3789SOL     OW23002   1.451   3.589   2.006 -0.1103  0.6997  0.2215
 3789SOL    HW123003   1.375   3.631   1.966 -2.2125 -1.4250  1.9308
 3789SOL    HW223004   1.395   3.542   2.068 -1.0159  2.0960  0.4602
 3790SOL     OW23005   4.510   2.499  17.426 -0.0754  0.2436 -0.6541
 3790SOL    HW123006   4.481   2.408  17.437 -1.2512  0.6707 -0.1829
 3790SOL    HW223007   4.547   2.517  17.512  0.3058 -2.8741 -0.1831
 3791SOL     OW23008   4.536   2.455   5.550 -0.2276  0.0984 -0.0016
 3791SOL    HW123009   4.556   2.537   5.504 -2.8039  1.0621  0.5979
 3791SOL    HW223010   4.621   2.411   5.539  0.2486  0.4149  2.4594
 3792SOL     OW23011   4.719   1.761   7.140  0.7194  0.2180 -0.2700
 3792SOL    HW123012   0.041   1.786   7.069  0.7865  1.6479  0.2871
 3792SOL    HW223013   4.711   1.667   7.126 -1.0449  0.5506 -1.5627
 3793SOL     OW23014   4.309   2.130  16.891  0.4690  0.1855 -0.3684
 3793SOL    HW123015   4.333   2.204  16.835 -0.7102  1.4702  0.8293
 3793SOL    HW223016   4.215   2.115  16.889  0.4645 -0.0780  1.7518
 3794SOL     OW23017   3.134   3.031   7.183 -0.2979 -0.2048  0.3096
 3794SOL    HW123018   3.092   2.993   7.107 -0.0989  1.7352 -0.7886
 3794SOL    HW223019   3.061   3.054   7.240 -0.8419  0.2157 -0.5565
 3795SOL     OW23020   2.060   2.603  13.783 -0.4087 -0.1051 -0.2609
 3795SOL    HW123021   2.050   2.629  13.875  1.7323  0.2297 -0.1188
 3795SOL    HW223022   2.152   2.622  13.764 -0.8739  2.3592  0.0140
 3796SOL     OW23023   2.810   1.720  16.071  0.0866 -0.6452 -0.6254
 3796SOL    HW123024   2.837   1.745  15.982 -0.1030 -0.5143 -0.6489
 3796SOL    HW223025   2.720   1.688  16.062 -0.7762  1.7593 -0.5430
 3797SOL     OW23026   1.322   1.476   5.094  0.0887 -0.3373  0.0119
 3797SOL    HW123027   1.380   1.401   5.100  2.0030  1.1083 -0.3292
 3797SOL    HW223028   1.257   1.449   5.029 -1.4049 -1.3162  1.9055
 3798SOL     OW23029   2.455   4.406  16.303  0.1385  0.0751 -0.0769
 3798SOL    HW123030   2.523   4.354  16.260  0.0156  0.9500 -1.3209
 3798SOL    HW223031   2.394   4.416  16.230 -0.7230 -3.3297  0.1656
 3799SOL     OW23032   0.881   4.091   8.113  0.2266 -0.5856 -0.1512
 3799SOL    HW123033   0.789   4.104   8.137  0.4188 -0.4383  0.4830
 3799SOL    HW223034   0.916   4.179   8.106  0.0800 -0.4538  0.7762
 3800SOL     OW23035   4.359   1.238   2.985  0.6244 -0.4219  0.3596
 3800SOL    HW123036   4.326   1.273   3.068  0.8088  0.0914  0.2188
 3800SOL    HW223037   4.319   1.152   2.971  0.3055 -0.1741 -0.2566
 3801SOL     OW23038   1.147   0.555   6.091  0.1565  0.0280  0.3369
 3801SOL    HW123039   1.053   0.545   6.105 -0.4518  1.8417 -2.4382
 3801SOL    HW223040   1.168   0.632   6.145  2.0804 -1.9553  2.4046
 3802SOL     OW23041   2.293   0.788   5.184 -0.1855  0.3877  0.0789
 3802SOL    HW123042   2.272   0.716   5.124 -3.6098  1.8948 -0.5230
 3802SOL    HW223043   2.259   0.751   5.266 -1.1893  0.5759 -0.2587
 3803SOL     OW23044   3.155   2.476   4.594  0.2328  0.0719 -0.0567
 3803SOL    HW123045   3.115   2.390   4.599 -0.1850  0.3555  1.4618
 3803SOL    HW223046   3.237   2.448   4.554 -0.1920  0.6873 -1.3917
 3804SOL     OW23047   2.907   2.303  11.013 -0.0974  0.1805  0.1628
 3804SOL    HW123048   2.954   2.257  11.083  0.2660 -0.6364 -0.6217
 3804SOL    HW223049   2.824   2.318  11.058 -0.2984 -1.3240  0.2920
 3805SOL     OW23050   2.885   2.744   4.045  0.4346  0.1104 -0.1098
 3805SOL    HW123051   2.899   2.652   4.070 -0.2101 -0.5679 -2.2948
 3805SOL    HW223052   2.967   2.787   4.067 -0.7140  1.1312  2.1709
 3806SOL     OW23053   0.042   4.505   4.762  0.8814  0.4479  0.1956
 3806SOL    HW123054   0.089   4.460   4.832 -0.9431  0.4782  1.4422
 3806SOL    HW223055   4.726   4.433   4.731 -0.5766  0.7650  1.9534
 3807SOL     OW23056   4.596   3.480  10.172 -0.5859 -0.0710  0.2543
 3807SOL    HW123057   4.508   3.518  10.171  0.2127  1.7997  2.0898
 3807SOL    HW223058   4.579   3.407  10.112 -2.6297  0.3837  0.2580
 3808SOL     OW23059   3.361   2.843  11.112  0.2267 -0.0874 -0.0072
 3808SOL    HW123060   3.266   2.842  11.119  0.1595 -2.6212 -1.4229
 3808SOL    HW223061   3.369   2.806  11.024 -0.3836  1.1271 -0.5717
 3809SOL     OW23062   3.859   1.969   7.439  0.3885 -0.0329  0.8242
 3809SOL    HW123063   3.877   2.025   7.364 -0.4302 -0.6176  0.2036
 3809SOL    HW223064   3.895   2.024   7.509 -0.1359  1.4560 -0.0846
 3810SOL     OW23065   3.588   3.574   7.599 -0.3270  0.0041 -0.2782
 3810SOL    HW123066   3.527   3.580   7.672 -1.8971  0.8885 -1.6812
 3810SOL    HW223067   3.661   3.629   7.628 -2.3083  2.6094 -0.2928
 3811SOL     OW23068   3.563   0.841   3.697 -0.4355 -0.4284  0.2722
 3811SOL    HW123069   3.608   0.756   3.689  0.9847  0.4984 -1.5836
 3811SOL    HW223070   3.530   0.830   3.786  1.4636  2.9506  1.3637
 3812SOL     OW23071   0.023   1.916   1.099  0.3491  0.3462  0.3970
 3812SOL    HW123072   0.101   1.925   1.155 -0.7323  1.1050  1.7976
 3812SOL    HW223073   0.011   1.821   1.095 -2.1771  0.6459  1.1825
 3813SOL     OW23074   4.685   0.958  15.321  0.3427  0.1628  0.3961
 3813SOL    HW123075   4.717   0.869  15.308  1.8368  0.7684 -0.0376
 3813SOL    HW223076   4.676   0.992  15.232 -0.3717 -1.0409  0.0091
 3814SOL     OW23077   1.737   1.511   2.369  0.1197 -0.3802 -0.7414
 3814SOL    HW123078   1.786   1.431   2.353 -1.2755 -1.4589  0.3638
 3814SOL    HW223079   1.780   1.575   2.312  1.2951 -0.8946 -0.4369
 3815SOL     OW23080   1.555   1.555  15.862  0.2550 -0.0366 -0.5069
 3815SOL    HW123081   1.600   1.578  15.944  2.0801  0.1362 -1.5428
 3815SOL    HW223082   1.624   1.547  15.796  0.9027  0.3361  0.1138
 3816SOL     OW23083   0.673   2.625  14.796 -0.1646 -0.0075 -0.0999
 3816SOL    HW123084   0.586   2.605  14.761  0.3277 -1.0899 -0.7019
 3816SOL    HW223085   0.728   2.572  14.738  0.1247  0.2800 -0.0890
 3817SOL     OW23086   3.542   2.277   6.068 -0.5743 -0.6187 -0.0552
 3817SOL    HW123087   3.465   2.280   6.125  1.3964  1.3274  2.4768
 3817SOL    HW223088   3.585   2.199   6.103  0.0458 -0.9209 -1.5162
 3818SOL     OW23089   3.748   3.669  10.934  0.3397  0.2465  0.0626
 3818SOL    HW123090   3.816   3.618  10.889 -1.0320 -1.3425 -0.2042
 3818SOL    HW223091   3.769   3.644  11.024 -0.4390 -1.2969 -0.1919
 3819SOL     OW23092   2.315   2.836   4.355  0.3342 -0.1075 -0.1838
 3819SOL    HW123093   2.405   2.840   4.323  0.5937 -2.3848  0.1994
 3819SOL    HW223094   2.305   2.929   4.374  2.3354  0.2084 -0.7055
 3820SOL     OW23095   3.990   1.647  14.607 -0.0872  0.4499 -0.2811
 3820SOL    HW123096   4.053   1.608  14.547 -0.9558  0.9994 -1.5477
 3820SOL    HW223097   3.909   1.603  14.582  0.3764 -0.7994  0.4306
 3821SOL     OW23098   3.726   3.428  15.741  0.2502 -0.1103  0.1851
 3821SOL    HW123099   3.744   3.413  15.834  1.2294  1.3408  0.2258
 3821SOL    HW223100   3.812   3.452  15.707 -0.0623  0.6328 -0.0811
 3822SOL     OW23101   0.630   2.273  12.292  0.7193  0.1983 -0.2459
 3822SOL    HW123102   0.588   2.187  12.299 -0.3170  0.6337 -1.1277
 3822SOL    HW223103   0.654   2.298  12.381 -0.6075 -0.4536  0.3063
 3823SOL     OW23104   2.937   2.667  17.553 -0.0743 -0.1485 -0.0188
 3823SOL    HW123105   3.011   2.647  17.611  0.7842 -0.9918 -1.3949
 3823SOL    HW223106   2.919   2.581  17.515  0.3694  0.3012 -1.2214
 3824SOL     OW23107   1.299   4.504  12.232  0.6159  0.3432  0.2328
 3824SOL    HW123108   1.267   4.426  12.187 -1.0627  1.5745 -0.6813
 3824SOL    HW223109   1.391   4.498  12.206 -0.2121  2.7097 -3.2767
 3825SOL     OW23110   0.672   1.669  15.132 -0.0393  0.2254  0.1791
 3825SOL    HW123111   0.748   1.716  15.166  0.6993 -0.9185  0.1107
 3825SOL    HW223112   0.616   1.668  15.209  1.0221 -0.1644  0.9480
 3826SOL     OW23113   4.048   2.486   4.209  0.0231  0.3851 -0.0073
 3826SOL    HW123114   4.104   2.475   4.286 -0.7904 -1.1430  0.3718
 3826SOL    HW223115   4.096   2.416   4.165 -1.0671 -0.4718  0.1715
 3827SOL     OW23116   2.273   4.504   4.290 -0.1158  0.3503  0.3670
 3827SOL    HW123117   2.255   4.569   4.222  0.1621 -0.6607 -0.6647
 3827SOL    HW223118   2.328   4.437   4.249 -0.2916  0.9815 -0.9251
 3828SOL     OW23119   3.589   3.449  13.334 -0.1325  0.2965  0.2170
 3828SOL    HW123120   3.564   3.501  13.258 -0.9856 -0.2970  0.0961
 3828SOL    HW223121   3.532   3.487  13.401  0.5180  3.2316 -0.9144
 3829SOL     OW23122   3.451   4.116   7.340  0.3320  0.4962  0.2753
 3829SOL    HW123123   3.470   4.203   7.305  2.9415  0.9567  2.7668
 3829SOL    HW223124   3.456   4.136   7.434 -2.8002  0.2278  0.4948
 3830SOL     OW23125   4.103   3.108   1.443 -0.1276 -0.1124  0.1330
 3830SOL    HW123126   4.095   3.200   1.421 -0.8146 -0.2619 -0.2391
 3830SOL    HW223127   4.010   3.087   1.454 -0.0051 -1.0708 -0.6593
 3831SOL     OW23128   1.226   0.517   8.230 -0.0577  0.3609  0.1401
 3831SOL    HW123129   1.261   0.467   8.156  0.3222 -0.2956  0.7658
 3831SOL    HW223130   1.152   0.561   8.187  0.1899  0.4152 -0.2332
 3832SOL     OW23131   4.419   4.707   5.531 -0.2328  0.0544 -0.5041
 3832SOL    HW123132   4.379   4.623   5.554  0.4637  0.1223  0.9651
 3832SOL    HW223133   4.505   4.673   5.506  0.9136  2.2738  0.3863
 3833SOL     OW23134   2.941   2.022   2.690 -0.3132  0.4493  0.0468
 3833SOL    HW123135   2.989   1.951   2.732 -1.8978  0.2394  1.5048
 3833SOL    HW223136   2.992   2.096   2.723 -0.7228 -0.1960  2.1508
 3834SOL     OW23137   0.837   3.665   4.970  0.5746 -0.3256  0.6864
 3834SOL    HW123138   0.857   3.734   5.033 -1.3202  0.0861  0.8535
 3834SOL    HW223139   0.781   3.602   5.015 -1.4964 -0.5061 -2.0825
 3835SOL     OW23140   1.387   0.314   2.485 -0.1083  0.1163 -0.2466
 3835SOL    HW123141   1.308   0.336   2.534  0.9741 -0.4611  1.7645
 3835SOL    HW223142   1.366   0.293   2.394  3.2313  0.7460 -1.1742
 3836SOL     OW23143   4.255   0.156   0.480  0.0907 -0.5951  0.2425
 3836SOL    HW123144   4.318   0.213   0.524 -0.5235 -0.3648  0.8216
 3836SOL    HW223145   4.211   0.117   0.555 -2.6988  1.9483 -0.0896
 3837SOL     OW23146   3.790   2.012   8.116  0.2051  0.2647 -0.2075
 3837SOL    HW123147   3.824   2.102   8.115 -2.2474  1.2124  0.3087
 3837SOL    HW223148   3.859   1.949   8.097 -0.3247 -0.1544 -0.7859
 3838SOL     OW23149   1.346   2.106  10.133  0.0258  0.1357 -0.1166
 3838SOL    HW123150   1.405   2.117  10.207  0.3107 -0.0460 -0.3143
 3838SOL    HW223151   1.390   2.157  10.065  1.8893  1.5227  2.1493
 3839SOL     OW23152   3.090   3.691   1.551  0.4264  0.0261 -0.3817
 3839SOL    HW123153   2.996   3.670   1.553  0.7488 -1.2912  1.3445
 3839SOL    HW223154   3.130   3.614   1.592 -0.3147 -0.5391 -0.7301
 3840SOL     OW23155   0.252   1.556   6.358  0.1633  0.1281  0.5653
 3840SOL    HW123156   0.313   1.555   6.432  1.7417 -0.1058 -0.7381
 3840SOL    HW223157   0.184   1.618   6.383  0.0001 -0.9836  2.9545
 3841SOL     OW23158   0.208   3.069   0.154  0.3650  0.0298  0.0382
 3841SOL    HW123159   0.203   3.148   0.208  0.4169 -0.8577  1.3346
 3841SOL    HW223160   0.129   3.018   0.171 -1.1464  1.7700 -1.7972
 3842SOL     OW23161   0.791   0.370   6.331 -0.3079  0.1926  0.1657
 3842SOL    HW123162   0.751   0.285   6.316 -0.4697  0.1472  0.8570
 3842SOL    HW223163   0.871   0.349   6.379 -1.0932 -0.1650  1.3380
 3843SOL     OW23164   3.761   4.499   2.813  0.1078  0.4493  0.2131
 3843SOL    HW123165   3.669   4.503   2.837 -0.3803 -0.4088 -1.4982
 3843SOL    HW223166   3.779   4.407   2.828 -0.5701  0.5613  1.6868
 3844SOL     OW23167   1.215   4.411  12.926 -0.3285  0.2832  0.1881
 3844SOL    HW123168   1.263   4.489  12.898  0.1467  1.4842  4.3453
 3844SOL    HW223169   1.260   4.386  13.006 -1.9909  1.2981  1.4412
 3845SOL     OW23170   4.410   0.333   3.088 -0.1604  0.2394  0.0110
 3845SOL    HW123171   4.431   0.255   3.139 -0.5391 -0.6365 -1.1368
 3845SOL    HW223172   4.452   0.307   3.006  2.1583  2.7327  0.4400
 3846SOL     OW23173   1.924   1.538   8.370  0.2386 -0.1223  0.4497
 3846SOL    HW123174   1.930   1.629   8.397 -1.3056 -1.0443  3.8045
 3846SOL    HW223175   1.861   1.546   8.298  0.5542  1.0090  0.2925
 3847SOL     OW23176   3.245   0.417   8.630 -0.2015 -0.5633 -0.0656
 3847SOL    HW123177   3.184   0.489   8.644 -0.1287  0.1110 -3.2108
 3847SOL    HW223178   3.324   0.463   8.601 -1.4085  2.4273  1.3647
 3848SOL     OW23179   2.842   2.084   3.271  0.3532  0.3820 -0.3793
 3848SOL    HW123180   2.881   2.003   3.239  0.0927 -0.2984  1.0097
 3848SOL    HW223181   2.854   2.080   3.366  0.4914 -0.6636 -0.4425
 3849SOL     OW23182   1.027   4.396   6.284 -0.1185  0.1883 -0.1834
 3849SOL    HW123183   1.042   4.390   6.189  0.8906  2.9122 -0.1922
 3849SOL    HW223184   1.105   4.433   6.323 -0.8302  0.6743  0.7741
 3850SOL     OW23185   4.229   3.934   2.454 -0.4357  0.3008  0.2026
 3850SOL    HW123186   4.206   4.007   2.512 -1.2696 -0.1298  0.4282
 3850SOL    HW223187   4.144   3.889   2.450 -0.8027  0.9476  0.6371
 3851SOL     OW23188   3.419   2.632   3.683 -0.2344  0.0334  0.8024
 3851SOL    HW123189   3.457   2.613   3.598  2.6322  0.4413  1.9940
 3851SOL    HW223190   3.341   2.577   3.683  0.5958 -1.1410 -0.9421
 3852SOL     OW23191   2.889   0.143   3.662  0.2395  1.1274 -0.0209
 3852SOL    HW123192   2.796   0.136   3.685  0.1118  2.8746 -0.0581
 3852SOL    HW223193   2.887   0.197   3.583 -1.7717 -1.5387 -1.8094
 3853SOL     OW23194   0.917   2.411  13.818  0.1888  0.4827 -0.7182
 3853SOL    HW123195   0.999   2.415  13.769 -0.3730 -1.1764 -1.8134
 3853SOL    HW223196   0.908   2.495  13.862 -3.3733 -0.3667  0.2386
 3854SOL     OW23197   0.410   1.980  15.492  0.1345 -0.3234 -0.2410
 3854SOL    HW123198   0.389   1.890  15.517 -2.4042  0.6430  1.1476
 3854SOL    HW223199   0.497   1.962  15.457  0.3802 -1.1386  0.7732
 3855SOL     OW23200   0.905   3.741   3.951 -0.1665  0.1678 -0.1709
 3855SOL    HW123201   0.947   3.815   3.994 -0.6971 -0.0246  0.6684
 3855SOL    HW223202   0.969   3.671   3.967 -1.1268  0.1616  3.4530
 3856SOL     OW23203   1.451   3.932   6.698 -0.5408 -0.2080  0.4010
 3856SOL    HW123204   1.480   3.871   6.631  0.1424  0.4845  0.0736
 3856SOL    HW223205   1.395   3.881   6.757  0.1607  0.8174  1.9784
 3857SOL     OW23206   3.773   3.853   4.308  0.0313  0.4683  0.3380
 3857SOL    HW123207   3.841   3.809   4.257 -0.4443  0.2624 -0.1242
 3857SOL    HW223208   3.792   3.946   4.297  1.1344  0.1631 -0.4575
 3858SOL     OW23209   0.262   3.588  10.606  0.0807 -0.1586  0.3938
 3858SOL    HW123210   0.206   3.511  10.596  1.5610 -1.2610  0.6924
 3858SOL    HW223211   0.237   3.611  10.695 -1.6046 -1.6771  0.3208
 3859SOL     OW23212   3.657   3.340   8.174 -0.0079 -0.3255 -0.4353
 3859SOL    HW123213   3.651   3.260   8.227 -0.1138 -1.0975 -1.6041
 3859SOL    HW223214   3.567   3.344   8.142 -0.8266  1.0947  2.0786
 3860SOL     OW23215   3.478   3.839   8.265  0.3026 -0.1481  0.2948
 3860SOL    HW123216   3.417   3.874   8.200  2.9765 -0.8463 -2.6199
 3860SOL    HW223217   3.514   3.923   8.291  0.7726 -0.9272  2.1276
 3861SOL     OW23218   4.558   2.482   2.307  0.5667  0.2236  0.0841
 3861SOL    HW123219   4.643   2.452   2.340  0.2603  0.5447  1.1560
 3861SOL    HW223220   4.582   2.574   2.303 -2.4550  0.9213 -2.3160
 3862SOL     OW23221   4.025   0.571  12.611  0.3027 -0.6285  0.0708
 3862SOL    HW123222   4.051   0.530  12.528 -1.7815 -1.8958  0.0508
 3862SOL    HW223223   3.948   0.617  12.580  0.2679 -1.9150 -1.7214
 3863SOL     OW23224   3.619   3.289  11.172  0.0381 -0.3665  0.7440
 3863SOL    HW123225   3.581   3.206  11.200 -0.9799 -1.0571 -2.7159
 3863SOL    HW223226   3.696   3.245  11.137 -0.1088 -0.1548  0.1368
 3864SOL     OW23227   1.684   0.400   9.193 -0.4932  0.2251  0.3544
 3864SOL    HW123228   1.612   0.386   9.131  0.2259 -0.8939 -0.2153
 3864SOL    HW223229   1.716   0.314   9.218  0.5829  0.5170  0.0115
 3865SOL     OW23230   1.555   2.064   7.356 -0.1536  0.3505  0.3979
 3865SOL    HW123231   1.629   2.073   7.296  0.0637 -0.8850  0.4869
 3865SOL    HW223232   1.580   1.995   7.417  0.3392  0.3711  0.2207
 3866SOL     OW23233   3.532   4.672   0.831  0.0666  0.1518  0.3148
 3866SOL    HW123234   3.582   4.695   0.753  0.9655 -1.5522  0.3889
 3866SOL    HW223235   3.522   4.578   0.821  1.3222 -0.1023  1.4063
 3867SOL     OW23236   2.260   1.404  17.105 -0.7768 -0.0297 -0.0358
 3867SOL    HW123237   2.227   1.330  17.156 -1.3884 -0.0289 -0.4267
 3867SOL    HW223238   2.184   1.463  17.113  0.2200  1.0906  1.0784
 3868SOL     OW23239   4.317   2.168   3.115 -0.1993  0.4966 -0.5900
 3868SOL    HW123240   4.304   2.142   3.024  0.3722 -1.9090  0.0314
 3868SOL    HW223241   4.307   2.263   3.108  0.4890  0.6749  0.8504
 3869SOL     OW23242   4.642   3.663   2.905  0.0611 -0.3238  0.1467
 3869SOL    HW123243   4.732   3.689   2.889 -0.4203  2.0700  1.2450
 3869SOL    HW223244   4.647   3.655   3.001  1.5482 -2.0128 -0.0795
 3870SOL     OW23245   2.602   3.105   2.818  0.2549  0.1842 -0.1335
 3870SOL    HW123246   2.627   3.021   2.780  0.1400  0.6683 -1.2696
 3870SOL    HW223247   2.681   3.148   2.852  0.1127  1.5021 -1.4886
 3871SOL     OW23248   0.712   0.465   1.711 -0.1791 -0.3162 -0.7287
 3871SOL    HW123249   0.688   0.492   1.623  0.0895  1.5108 -0.2499
 3871SOL    HW223250   0.707   0.370   1.699 -0.7061  0.0087 -3.0266
 3872SOL     OW23251   3.321   4.530   3.684 -0.0325 -0.5564 -0.2196
 3872SOL    HW123252   3.227   4.544   3.669  0.1504 -0.6945 -1.4616
 3872SOL    HW223253   3.326   4.513   3.778 -1.1014  0.7893  0.0957
 3873SOL     OW23254   3.682   1.958   6.392 -0.5258  0.2311 -0.3322
 3873SOL    HW123255   3.652   2.027   6.450 -1.9626 -1.1800  0.6025
 3873SOL    HW223256   3.747   1.913   6.447 -1.3628  1.4185  1.6410
 3874SOL     OW23257   0.642   3.908  15.897 -0.2983  0.5512  0.7168
 3874SOL    HW123258   0.665   3.887  15.806  0.6745 -1.7795  1.4900
 3874SOL    HW223259   0.564   3.962  15.880 -2.2287 -2.0677  1.1953
 3875SOL     OW23260   4.642   1.179  16.061 -0.0507 -0.4428 -0.5116
 3875SOL    HW123261   4.608   1.110  16.118  0.2870 -0.1750  0.0117
 3875SOL    HW223262   4.579   1.172  15.989  2.2169  0.1015 -2.5712
 3876SOL     OW23263   2.611   0.814   0.295 -0.1025 -0.1632  0.4351
 3876SOL    HW123264   2.689   0.783   0.250 -0.9368 -2.4439  0.5452
 3876SOL    HW223265   2.641   0.898   0.331 -0.2729  0.1033 -0.0366
 3877SOL     OW23266   0.463   2.762   4.900 -0.1683  0.1093 -0.5079
 3877SOL    HW123267   0.496   2.789   4.814 -0.5934  2.5852  0.1169
 3877SOL    HW223268   0.367   2.768   4.900 -0.0966  1.1507 -0.7355
 3878SOL     OW23269   3.398   3.536   9.827  0.3587  0.6613  0.3768
 3878SOL    HW123270   3.472   3.479   9.848  1.6793  1.5095 -1.9710
 3878SOL    HW223271   3.424   3.619   9.867  3.1314 -0.5341  1.0609
 3879SOL     OW23272   0.288   0.176   8.742  0.1673  0.8060 -0.0254
 3879SOL    HW123273   0.292   0.199   8.835 -2.9836 -1.4024  0.6398
 3879SOL    HW223274   0.380   0.151   8.737 -0.1223  0.0843 -1.6017
 3880SOL     OW23275   3.656   1.252   7.795 -0.7267 -0.4512  0.1159
 3880SOL    HW123276   3.607   1.205   7.728 -0.0904 -1.6539  0.4895
 3880SOL    HW223277   3.590   1.231   7.860 -0.7930 -0.4482  0.0493
 3881SOL     OW23278   0.602   0.336   2.019 -0.1784 -0.1448  0.6026
 3881SOL    HW123279   0.527   0.339   2.077 -2.2615 -0.0042 -2.0805
 3881SOL    HW223280   0.608   0.430   1.999 -0.5238 -0.6235 -1.7601
 3882SOL     OW23281   0.651   0.325   3.422  0.4871 -0.3597  0.5332
 3882SOL    HW123282   0.731   0.370   3.449  0.4393  0.4599 -0.7007
 3882SOL    HW223283   0.592   0.347   3.494 -0.4234  0.2370 -0.3940
 3883SOL     OW23284   2.584   2.852   8.926 -0.5327 -0.0657  0.5643
 3883SOL    HW123285   2.553   2.762   8.932  0.5608 -0.3132  2.5348
 3883SOL    HW223286   2.516   2.881   8.865 -0.2107 -1.2127 -0.3290
 3884SOL     OW23287   2.784   4.697   2.678  0.7021 -0.3454 -0.1620
 3884SOL    HW123288   2.765   4.675   2.769  0.1176  1.0998  0.0630
 3884SOL    HW223289   2.852   0.026   2.677 -0.5348  0.8960 -1.2488
 3885SOL     OW23290   3.428   0.287   2.286  0.1180  0.1043 -0.0731
 3885SOL    HW123291   3.367   0.213   2.287 -0.0033  0.2093  0.4832
 3885SOL    HW223292   3.499   0.257   2.230  0.3127  0.5970 -0.0880
 3886SOL     OW23293   0.621   1.093  14.384 -0.1534  0.2643  0.0258
 3886SOL    HW123294   0.703   1.065  14.425 -0.3620 -0.8088 -0.3084
 3886SOL    HW223295   0.557   1.085  14.455  0.0336 -0.1553  0.1442
 3887SOL     OW23296   4.074   4.375   9.612  0.0873 -0.2266  0.0775
 3887SOL    HW123297   4.112   4.313   9.675  1.8486  0.8414  0.0529
 3887SOL    HW223298   4.153   4.428   9.614 -0.5578  0.7160  0.2979
 3888SOL     OW23299   2.663   0.207  15.020 -0.4174  0.2598  0.2266
 3888SOL    HW123300   2.665   0.284  15.076  0.4683 -0.0208  0.5782
 3888SOL    HW223301   2.569   0.195  15.029 -0.4889  0.2244 -0.5550
 3889SOL     OW23302   2.297   3.129   6.098 -0.4232 -0.4526  0.3180
 3889SOL    HW123303   2.297   3.125   6.002  0.8567 -0.2789  0.3232
 3889SOL    HW223304   2.208   3.098   6.117  0.1755 -0.2281  3.5117
 3890SOL     OW23305   3.399   1.996   1.524  0.6831  0.0604 -0.1303
 3890SOL    HW123306   3.377   1.962   1.437 -1.2405 -1.2229  0.8492
 3890SOL    HW223307   3.351   1.940   1.585 -0.6821  0.4713 -0.8118
 3891SOL     OW23308   3.155   0.286  10.426  0.6003 -0.1502  0.2484
 3891SOL    HW123309   3.061   0.297  10.414  0.3624 -1.2264  1.1821
 3891SOL    HW223310   3.159   0.283  10.521  0.5853  2.1919  0.3208
 3892SOL     OW23311   2.795   2.377  17.502 -0.1474 -0.5988  0.3480
 3892SOL    HW123312   2.813   2.305  17.563  0.3973 -0.5087  0.2931
 3892SOL    HW223313   2.759   2.328  17.428  1.7990  1.1673 -1.7745
 3893SOL     OW23314   3.024   3.379   1.141  0.8711 -0.0490  0.4915
 3893SOL    HW123315   3.077   3.308   1.105  1.4653  0.6041  0.0787
 3893SOL    HW223316   2.975   3.320   1.199 -0.1220  0.2285 -0.0604
 3894SOL     OW23317   1.825   2.031  10.539  0.0117  0.0183 -0.3388
 3894SOL    HW123318   1.862   2.056  10.454  1.5406 -0.6572  0.1430
 3894SOL    HW223319   1.905   2.017  10.588 -0.4300  1.2352  0.7123
 3895SOL     OW23320   2.561   2.729   5.059  0.1231  0.4710 -0.3305
 3895SOL    HW123321   2.591   2.662   5.121  2.1845 -1.5767 -3.5201
 3895SOL    HW223322   2.623   2.714   4.988 -2.0239  0.2928 -2.1460
 3896SOL     OW23323   3.210   1.732   3.700 -0.7496 -0.2921  0.0809
 3896SOL    HW123324   3.128   1.776   3.678 -0.2552  0.4310 -0.2986
 3896SOL    HW223325   3.198   1.649   3.653  0.8426 -0.9135  0.7591
 3897SOL     OW23326   1.247   0.935   1.587  0.4089 -0.3685 -0.0776
 3897SOL    HW123327   1.233   0.918   1.680 -1.9297 -1.6268 -0.6709
 3897SOL    HW223328   1.214   1.024   1.580  2.3393  0.0427 -3.6559
 3898SOL     OW23329   0.516   3.394   4.335  0.0617 -0.5952  0.1534
 3898SOL    HW123330   0.434   3.357   4.300  1.0365 -1.2683 -1.4046
 3898SOL    HW223331   0.515   3.465   4.272 -1.8052 -1.2347 -0.5478
 3899SOL     OW23332   3.163   1.366  17.484  0.1868 -0.3008 -0.5847
 3899SOL    HW123333   3.140   1.455  17.459 -1.0701 -0.2564  0.7415
 3899SOL    HW223334   3.252   1.381  17.515 -0.4569  0.8777  0.6481
 3900SOL     OW23335   4.565   1.880   5.875  0.1573 -0.2683  0.1531
 3900SOL    HW123336   4.585   1.969   5.845  2.5051 -1.0792 -0.6265
 3900SOL    HW223337   4.651   1.841   5.890 -0.5151 -1.4597  0.8580
 3901SOL     OW23338   2.950   3.118   9.143  0.6465  0.1339  0.5856
 3901SOL    HW123339   2.872   3.064   9.148 -0.6282  1.8996 -0.3560
 3901SOL    HW223340   2.962   3.126   9.048 -1.2094 -2.5286  0.1355
 3902SOL     OW23341   3.211   3.843   1.348 -0.6297  0.3231  0.3140
 3902SOL    HW123342   3.291   3.796   1.374  0.6498  1.3773 -1.7840
 3902SOL    HW223343   3.155   3.805   1.416 -0.3772 -1.5112 -0.5029
 3903SOL     OW23344   0.194   2.681   8.516 -0.1099  0.3447 -1.2261
 3903SOL    HW123345   0.108   2.650   8.546  0.5603  0.2868  0.6820
 3903SOL    HW223346   0.193   2.652   8.425  1.4266 -1.5558 -0.6452
 3904SOL     OW23347   4.727   1.487   5.711 -0.4049  0.4401  0.2622
 3904SOL    HW123348   4.668   1.413   5.723  0.2003  0.0496  0.8163
 3904SOL    HW223349   0.044   1.468   5.635  2.0466 -0.2626  2.2194
 3905SOL     OW23350   0.021   0.892   2.976 -0.0619  0.2321  0.4054
 3905SOL    HW123351   0.071   0.816   3.005 -2.1509 -1.3432 -0.0914
 3905SOL    HW223352   0.077   0.941   2.917  0.2806 -0.8639 -0.1721
 3906SOL     OW23353   3.526   0.417   2.845 -0.8361  0.0411  0.1398
 3906SOL    HW123354   3.579   0.338   2.849  0.6023  0.9944 -0.1052
 3906SOL    HW223355   3.585   0.472   2.794 -0.2553 -0.8113 -0.1144
 3907SOL     OW23356   0.212   1.587   7.458 -0.2880  0.3410 -0.2053
 3907SOL    HW123357   0.195   1.673   7.420 -4.1445 -0.0084  0.7968
 3907SOL    HW223358   0.308   1.585   7.450 -0.1793 -1.3222  1.5336
 3908SOL     OW23359   2.052   3.180   5.470  0.1681 -0.5124  0.7647
 3908SOL    HW123360   2.095   3.097   5.452 -1.1120 -1.5677  2.6647
 3908SOL    HW223361   2.019   3.199   5.382  0.8594  0.1113  0.6379
 3909SOL     OW23362   1.596   2.026   5.265  0.4134  0.2156 -0.0821
 3909SOL    HW123363   1.618   1.946   5.217  1.4595  1.4641 -1.6789
 3909SOL    HW223364   1.502   2.014   5.278  0.5896  1.3792  2.2882
 3910SOL     OW23365   1.984   3.432  17.605  0.0479  0.0226 -0.8635
 3910SOL    HW123366   1.937   3.351  17.625 -0.1545  1.1035  2.9710
 3910SOL    HW223367   2.060   3.390  17.566 -0.0828 -1.4912  0.5100
 3911SOL     OW23368   2.964   3.315   8.145  0.1279 -0.1167 -0.1425
 3911SOL    HW123369   3.005   3.324   8.231 -0.2150 -0.1670  0.0256
 3911SOL    HW223370   3.008   3.235   8.116 -1.0374 -1.1251  0.8506
 3912SOL     OW23371   2.222   0.063   5.370 -0.5483  0.0832  0.1131
 3912SOL    HW123372   2.207   4.716   5.327  0.7665 -1.2320  2.2382
 3912SOL    HW223373   2.302   0.090   5.325 -2.2984  1.6550 -2.0755
 3913SOL     OW23374   3.916   2.979  15.381  0.2823  0.2085  0.1869
 3913SOL    HW123375   3.937   2.902  15.329 -0.1256  0.2683 -0.0607
 3913SOL    HW223376   4.002   3.006  15.414  0.1431  1.5253 -0.5354
 3914SOL     OW23377   3.613   3.348   7.462  0.3005 -0.2350  0.7278
 3914SOL    HW123378   3.533   3.373   7.416  0.4567 -1.9088 -0.4508
 3914SOL    HW223379   3.607   3.410   7.534 -1.1567  2.1975 -1.4983
 3915SOL     OW23380   2.225   0.706   2.230 -0.4603 -0.0065  0.5210
 3915SOL    HW123381   2.210   0.763   2.305  1.5831 -1.8759  2.3625
 3915SOL    HW223382   2.314   0.733   2.208 -0.4512 -0.6949 -0.2655
 3916SOL     OW23383   3.915   2.567   1.607  0.2556  0.0368  0.3553
 3916SOL    HW123384   3.881   2.638   1.661 -3.2716 -1.7364  0.4238
 3916SOL    HW223385   3.830   2.532   1.581 -0.0606  0.3338  0.9986
 3917SOL     OW23386   3.919   1.293  14.479  0.6362 -0.4658 -0.2544
 3917SOL    HW123387   3.964   1.208  14.474  1.5098  0.0015 -0.4265
 3917SOL    HW223388   3.888   1.298  14.569 -1.3810  0.6757 -1.0018
 3918SOL     OW23389   0.402   2.184   8.046  0.2578 -0.5081 -0.3076
 3918SOL    HW123390   0.349   2.217   7.974 -0.1620 -0.7673 -0.1220
 3918SOL    HW223391   0.422   2.270   8.084 -1.0300 -0.5599  0.5030
 3919SOL     OW23392   0.718   1.979   6.719  0.2151  0.5509 -0.7527
 3919SOL    HW123393   0.810   1.960   6.699 -0.0310 -0.2484 -1.1416
 3919SOL    HW223394   0.680   1.969   6.631 -0.8682 -1.5091 -0.0552
 3920SOL     OW23395   4.225   0.841   3.951  0.3731 -0.4796  0.3894
 3920SOL    HW123396   4.301   0.798   3.912  0.6678  0.2698  0.1493
 3920SOL    HW223397   4.260   0.914   4.002 -0.1884 -0.6361  1.0009
 3921SOL     OW23398   4.151   0.455   2.490  0.1124  1.1107  0.7171
 3921SOL    HW123399   4.127   0.428   2.401  0.5383 -0.1031  0.9588
 3921SOL    HW223400   4.242   0.477   2.468  0.9960 -0.9317  2.2919
 3922SOL     OW23401   1.585   4.468   8.996 -0.3124 -0.4107 -0.2644
 3922SOL    HW123402   1.565   4.383   9.036  0.3182 -0.8739 -0.9045
 3922SOL    HW223403   1.568   4.460   8.902  0.1280 -2.1645 -0.2054
 3923SOL     OW23404   1.126   2.096   7.896  0.3112 -0.4010  0.3228
 3923SOL    HW123405   1.125   2.189   7.916  1.3619 -0.3394  0.0949
 3923SOL    HW223406   1.210   2.078   7.939  0.1548 -1.0741  0.3518
 3924SOL     OW23407   3.687   1.999   3.788 -0.0430 -0.2881 -0.5568
 3924SOL    HW123408   3.742   1.935   3.834  0.9075  0.9847  0.0846
 3924SOL    HW223409   3.755   2.020   3.723  0.7254 -0.6646  0.1171
 3925SOL     OW23410   4.387   4.178   1.382  0.3094 -0.0968  0.5265
 3925SOL    HW123411   4.301   4.204   1.351 -0.0269 -1.6616  0.1335
 3925SOL    HW223412   4.360   4.117   1.452 -2.0181  1.8375  1.2931
 3926SOL     OW23413   3.074   1.924   8.561 -0.6568 -0.4848 -0.1557
 3926SOL    HW123414   3.130   1.890   8.631  0.0030 -0.8319 -0.8552
 3926SOL    HW223415   3.021   1.989   8.607  1.4746  0.9355  0.3089
 3927SOL     OW23416   2.965   1.391   9.789 -0.0379  0.0307  0.2357
 3927SOL    HW123417   2.877   1.380   9.824  0.4821 -3.3620  0.4372
 3927SOL    HW223418   2.974   1.483   9.813 -0.7362 -0.3615  1.9999
 3928SOL     OW23419   0.209   3.721   7.941  0.1684  0.2635  0.1597
 3928SOL    HW123420   0.276   3.781   7.908 -0.9628  2.0672  1.1052
 3928SOL    HW223421   0.167   3.779   8.005 -0.9848  0.4090 -0.7114
 3929SOL     OW23422   2.094   1.718   4.517  0.1090  0.6758  0.5303
 3929SOL    HW123423   2.068   1.806   4.489 -2.1931 -0.1076  0.1859
 3929SOL    HW223424   2.021   1.697   4.575  0.0227 -2.6459 -0.7917
 3930SOL     OW23425   2.106   0.377   6.270  0.2508 -1.4564  0.4803
 3930SOL    HW123426   2.129   0.296   6.225  3.7592  0.2484 -0.7898
 3930SOL    HW223427   2.043   0.347   6.336  0.4852 -1.2632  0.7970
 3931SOL     OW23428   1.603   3.733  12.064  0.1137  0.2421 -0.0954
 3931SOL    HW123429   1.548   3.732  11.986  1.6623 -0.9404 -1.1838
 3931SOL    HW223430   1.680   3.689  12.028  1.4633  3.0920 -0.6524
 3932SOL     OW23431   2.865   0.359   8.431  0.3065  0.4589  0.5854
 3932SOL    HW123432   2.874   0.284   8.490  0.7543 -0.5114 -0.7216
 3932SOL    HW223433   2.916   0.431   8.468  0.7877  0.1133  0.5919
 3933SOL     OW23434   1.520   3.073  12.007 -0.0873  0.6212  0.4144
 3933SOL    HW123435   1.426   3.065  11.989  0.1892 -1.0289 -0.3668
 3933SOL    HW223436   1.518   3.168  12.007  0.5241  0.6308 -0.1728
 3934SOL     OW23437   4.292   0.538   5.963 -0.4537  0.3716  0.0510
 3934SOL    HW123438   4.309   0.497   5.879 -0.6380  1.4109 -0.4868
 3934SOL    HW223439   4.357   0.493   6.018  0.4482 -0.5438 -1.7575
 3935SOL     OW23440   0.830   3.936   6.124 -0.1739 -0.2072 -0.6620
 3935SOL    HW123441   0.877   3.934   6.208 -0.9001 -2.6612 -0.2913
 3935SOL    HW223442   0.894   3.987   6.075 -0.5100 -0.5239 -1.4241
 3936SOL     OW23443   4.108   1.579   4.411 -0.4914 -0.3155  0.3736
 3936SOL    HW123444   4.050   1.551   4.481 -1.9639  0.2104 -0.6297
 3936SOL    HW223445   4.180   1.620   4.458 -1.9595  4.4822 -1.5127
 3937SOL     OW23446   2.735   2.711  14.464 -0.5786  0.2802  0.4798
 3937SOL    HW123447   2.699   2.775  14.525 -0.1167  1.4354 -0.4649
 3937SOL    HW223448   2.757   2.644  14.529  1.3504 -0.1539 -0.6058
 3938SOL     OW23449   4.180   1.405   6.048  0.0376 -0.2025  0.0770
 3938SOL    HW123450   4.238   1.468   6.091 -1.3034 -0.7181  2.6442
 3938SOL    HW223451   4.222   1.326   6.083  1.8775 -0.1027 -1.9168
 3939SOL     OW23452   2.795   2.889   4.354 -0.0886  0.2310  0.1813
 3939SOL    HW123453   2.741   2.844   4.289 -1.3463 -1.6578  2.5488
 3939SOL    HW223454   2.771   2.979   4.333 -2.1348  0.0540  1.8089
 3940SOL     OW23455   0.692   0.305   7.587 -0.1964 -0.6506  0.2825
 3940SOL    HW123456   0.745   0.379   7.559 -0.6085 -0.3330  0.3402
 3940SOL    HW223457   0.618   0.311   7.527 -1.2198 -2.1259  1.3961
 3941SOL     OW23458   0.477   2.970  12.276  0.1519 -0.5880  0.5449
 3941SOL    HW123459   0.528   2.901  12.319  1.1327 -0.5977 -0.6201
 3941SOL    HW223460   0.451   2.926  12.195 -0.0511  0.0961  0.2407
 3942SOL     OW23461   0.540   1.510   2.164  0.0554  0.4303 -0.4392
 3942SOL    HW123462   0.522   1.427   2.208  1.5090 -0.3652 -1.3300
 3942SOL    HW223463   0.624   1.533   2.203 -0.9889 -1.3620  2.8297
 3943SOL     OW23464   2.303   0.616  14.321  0.1066 -0.0289  0.6411
 3943SOL    HW123465   2.219   0.657  14.342  0.1537  1.1460 -1.4033
 3943SOL    HW223466   2.365   0.637  14.390  0.8212  2.2271 -0.6703
 3944SOL     OW23467   0.828   2.968   0.566 -0.2937  0.2938 -0.3797
 3944SOL    HW123468   0.770   2.933   0.633 -0.5658 -0.2557 -0.8951
 3944SOL    HW223469   0.911   2.966   0.613 -0.6223  3.0855  0.2710
 3945SOL     OW23470   0.775   3.264   0.861 -0.8045 -0.0073  0.0704
 3945SOL    HW123471   0.731   3.180   0.870 -1.1448  0.2643  0.9291
 3945SOL    HW223472   0.763   3.279   0.767 -0.3911 -1.2164 -0.1743
 3946SOL     OW23473   2.574   1.132  13.229 -0.1165  0.4813 -0.4007
 3946SOL    HW123474   2.561   1.041  13.254  1.1901  0.3828 -0.0511
 3946SOL    HW223475   2.609   1.174  13.308  1.4904  0.9817 -1.3869
 3947SOL     OW23476   3.007   1.663   6.665  0.1585 -0.3746 -0.2906
 3947SOL    HW123477   2.971   1.676   6.753  0.6822  0.3926 -0.1825
 3947SOL    HW223478   3.051   1.748   6.659  2.4739 -1.5791  0.0518
 3948SOL     OW23479   1.205   4.721  10.310  0.2771 -0.2354  0.4180
 3948SOL    HW123480   1.260   0.004  10.386  0.9163  1.3651 -0.4782
 3948SOL    HW223481   1.187   4.630  10.334 -1.3469  0.0456  0.2513
 3949SOL     OW23482   0.435   2.370  17.723  0.2102 -0.2134 -0.1150
 3949SOL    HW123483   0.440   2.346   0.067 -0.5211  1.1083  0.2644
 3949SOL    HW223484   0.357   2.426  17.722  0.8417  0.6281 -1.0409
 3950SOL     OW23485   1.370   3.192   0.238  0.4178  0.4000  0.2221
 3950SOL    HW123486   1.312   3.233   0.302  0.0713  1.4010 -0.7361
 3950SOL    HW223487   1.431   3.143   0.292  1.7137 -1.1590 -2.6248
 3951SOL     OW23488   2.265   2.058  13.955  0.2875 -0.1767  0.4633
 3951SOL    HW123489   2.210   2.076  13.878 -0.1068  2.6230  1.4181
 3951SOL    HW223490   2.288   2.150  13.966  2.7414 -0.4227 -2.6035
 3952SOL     OW23491   3.818   4.250   2.896 -0.1108  0.8254  0.3101
 3952SOL    HW123492   3.791   4.201   2.818 -0.8996  0.4495  0.8240
 3952SOL    HW223493   3.908   4.279   2.881  0.5526 -1.3564  0.1223
 3953SOL     OW23494   3.882   2.532   2.696  0.5230  0.1441 -0.0057
 3953SOL    HW123495   3.935   2.563   2.623 -0.4599 -1.8775 -1.5689
 3953SOL    HW223496   3.819   2.479   2.647  1.4315 -1.3923  0.4628
 3954SOL     OW23497   3.449   2.393  16.489 -0.0517  0.3749 -0.3613
 3954SOL    HW123498   3.354   2.404  16.490 -0.2641 -1.3261 -2.6670
 3954SOL    HW223499   3.465   2.448  16.412 -1.3384  3.9638  1.9012
 3955SOL     OW23500   1.012   3.186   8.838 -0.2658 -0.7795 -0.4425
 3955SOL    HW123501   1.039   3.163   8.927  1.5227 -1.8511 -1.2569
 3955SOL    HW223502   1.093   3.215   8.797  0.5907 -0.5265  1.4336
 3956SOL     OW23503   3.461   3.759   9.981  0.7856  0.5658  0.0274
 3956SOL    HW123504   3.453   3.810  10.062  0.4159 -0.3904  0.5974
 3956SOL    HW223505   3.537   3.806   9.948  0.1787  2.1650  0.8987
 3957SOL     OW23506   4.261   3.855   1.356  0.3639 -0.0849  0.7672
 3957SOL    HW123507   4.307   3.863   1.440 -1.4904 -2.1466  1.9940
 3957SOL    HW223508   4.168   3.855   1.380 -0.2049  1.3918 -1.4411
 3958SOL     OW23509   4.247   2.100  13.767  0.1893  0.0053  0.3190
 3958SOL    HW123510   4.201   2.025  13.729 -0.1481  0.1312  0.4716
 3958SOL    HW223511   4.338   2.092  13.740  0.2656  0.5431  0.4168
 3959SOL     OW23512   1.081   0.501   2.197 -0.5335  0.5768 -0.4527
 3959SOL    HW123513   1.122   0.423   2.160  1.0644  1.7470 -1.1695
 3959SOL    HW223514   0.991   0.487   2.169 -0.1671  1.9894 -2.3706
 3960SOL     OW23515   4.606   1.135   3.120 -0.5712  0.0909  0.4967
 3960SOL    HW123516   4.579   1.151   3.030 -0.6548  1.7875  0.8170
 3960SOL    HW223517   4.700   1.153   3.122 -0.8792  2.0733 -3.2565
 3961SOL     OW23518   3.863   4.029   9.097 -0.1554 -0.2927  0.6418
 3961SOL    HW123519   3.777   4.015   9.135 -0.6085  0.1431 -0.2315
 3961SOL    HW223520   3.902   3.941   9.097  0.1550 -0.1505 -1.9311
 3962SOL     OW23521   2.555   0.621   9.053  0.2348 -0.0680  0.7761
 3962SOL    HW123522   2.634   0.659   9.092  0.3124 -1.0155  1.5486
 3962SOL    HW223523   2.488   0.680   9.087 -0.7571 -1.4753  1.2481
 3963SOL     OW23524   1.848   0.128   3.511 -0.5068  0.3019 -0.2940
 3963SOL    HW123525   1.790   0.099   3.582  0.6005 -2.1954 -0.3876
 3963SOL    HW223526   1.804   0.102   3.429 -0.7136 -2.2951  0.6514
 3964SOL     OW23527   3.542   4.373   0.160  0.2451 -0.0259 -0.2533
 3964SOL    HW123528   3.476   4.305   0.159 -0.3144  0.5118 -0.2183
 3964SOL    HW223529   3.588   4.345   0.081  1.1759  1.6790 -0.3267
 3965SOL     OW23530   3.660   0.650   4.997  0.4248  0.0848 -0.6711
 3965SOL    HW123531   3.585   0.602   5.032 -0.1126 -1.1701 -3.4728
 3965SOL    HW223532   3.688   0.699   5.074 -0.1332  0.2515 -0.5765
 3966SOL     OW23533   2.207   0.115  17.537  0.2250 -0.1152 -0.0047
 3966SOL    HW123534   2.219   0.020  17.528 -0.9152 -0.1952 -0.6373
 3966SOL    HW223535   2.300   0.136  17.541  0.0743  0.2604  1.5209
 3967SOL     OW23536   0.805   0.246   2.152 -0.0039  0.0486 -0.0837
 3967SOL    HW123537   0.746   0.172   2.138 -0.5430  0.8289 -1.9210
 3967SOL    HW223538   0.777   0.317   2.094  2.1546  0.0500 -1.1225
 3968SOL     OW23539   4.416   1.015   2.005 -0.4460 -0.2314 -0.7978
 3968SOL    HW123540   4.462   0.966   1.937  1.9834 -2.5240  2.5701
 3968SOL    HW223541   4.352   0.951   2.036  0.5730 -1.0774 -0.4458
 3969SOL     OW23542   4.189   4.172   5.356 -0.0148  0.5910 -0.5078
 3969SOL    HW123543   4.134   4.174   5.435  1.7473 -0.2997  0.7587
 3969SOL    HW223544   4.139   4.109   5.304  1.3899 -0.9822  0.0568
 3970SOL     OW23545   3.738   3.587   2.809  0.4279  0.5736  0.6970
 3970SOL    HW123546   3.725   3.511   2.865  0.4019 -0.2392 -0.4144
 3970SOL    HW223547   3.736   3.646   2.884 -1.9444  0.8238  0.4366
 3971SOL     OW23548   4.118   1.665   9.486  0.3897 -0.1600 -0.1203
 3971SOL    HW123549   4.158   1.744   9.450  0.0554  0.3588  0.6124
 3971SOL    HW223550   4.124   1.614   9.405  0.8775 -1.4883  0.7490
 3972SOL     OW23551   2.724   0.135  15.449 -0.2967 -0.2315 -0.1048
 3972SOL    HW123552   2.768   0.174  15.524 -1.3393  0.9062 -0.0883
 3972SOL    HW223553   2.762   0.169  15.368  0.2891  0.8026  0.6200
 3973SOL     OW23554   3.753   4.309  13.240 -0.5588 -0.4038  0.3830
 3973SOL    HW123555   3.833   4.361  13.235 -0.9080  0.0041 -0.8551
 3973SOL    HW223556   3.792   4.223  13.259 -0.1019 -0.4084 -0.5405
 3974SOL     OW23557   3.444   0.076   1.921  0.5297 -0.3734 -0.3523
 3974SOL    HW123558   3.392   0.052   1.844 -1.7418  2.3510  0.3523
 3974SOL    HW223559   3.458   4.724   1.953 -0.2366 -1.0589 -1.9015
 3975SOL     OW23560   0.829   4.427   3.626  0.4354 -0.0796  0.1896
 3975SOL    HW123561   0.813   4.332   3.619  0.5222 -0.2541  2.2917
 3975SOL    HW223562   0.736   4.449   3.638  0.6615  0.6182  0.5994
 3976SOL     OW23563   2.399   3.376  12.070 -0.0757 -0.2393 -0.3095
 3976SOL    HW123564   2.375   3.307  12.008  0.8821  0.5843 -1.6059
 3976SOL    HW223565   2.341   3.352  12.141 -0.0787  1.4622  0.2646
 3977SOL     OW23566   0.349   0.023   0.742 -0.2741 -0.0973 -0.1275
 3977SOL    HW123567   0.388   0.063   0.665 -0.5797  0.3486 -0.0547
 3977SOL    HW223568   0.415   4.696   0.768  0.5183 -0.1118 -2.2432
 3978SOL     OW23569   0.692   3.036   0.311 -0.5188  0.2323 -0.3327
 3978SOL    HW123570   0.600   3.018   0.331 -0.3912 -2.2393 -1.9777
 3978SOL    HW223571   0.733   3.005   0.392 -2.4636  0.9117  0.8914
 3979SOL     OW23572   1.230   4.065  13.620  0.0688 -0.3857 -0.1130
 3979SOL    HW123573   1.138   4.072  13.593 -0.0973  0.2341  0.6213
 3979SOL    HW223574   1.252   3.973  13.607  1.0333 -0.0256 -1.0057
 3980SOL     OW23575   4.619   4.732   2.781 -0.1279  1.0214 -0.7269
 3980SOL    HW123576   4.645   0.060   2.845 -0.3800 -0.4986  0.9552
 3980SOL    HW223577   4.603   0.048   2.704 -1.2776 -0.0180 -1.2179
 3981SOL     OW23578   2.404   4.118   5.718 -0.1963  0.5550 -0.1988
 3981SOL    HW123579   2.475   4.129   5.781 -0.3401  1.2220 -0.1537
 3981SOL    HW223580   2.322   4.153   5.754 -0.4908 -0.0650 -0.2689
 3982SOL     OW23581   2.945   1.294  15.636 -0.5508  0.6931  0.4152
 3982SOL    HW123582   2.967   1.234  15.565 -0.4517  1.5276 -0.2590
 3982SOL    HW223583   2.879   1.242  15.682  0.4681 -0.4960  0.5459
 3983SOL     OW23584   3.526   4.642   5.657  0.5678  0.5654 -0.1050
 3983SOL    HW123585   3.545   4.732   5.632 -0.0541  1.3114  2.0996
 3983SOL    HW223586   3.558   4.658   5.746 -1.2964 -1.2689  0.8883
 3984SOL     OW23587   0.409   2.116   4.817 -0.0330  0.0354 -0.4722
 3984SOL    HW123588   0.487   2.143   4.867 -1.2492  1.9296  0.4281
 3984SOL    HW223589   0.336   2.155   4.865  0.0649  2.0818 -1.9829
 3985SOL     OW23590   4.194   2.774   3.291 -0.3772  0.4709 -0.2410
 3985SOL    HW123591   4.136   2.805   3.360  0.0953  0.3245  0.2205
 3985SOL    HW223592   4.262   2.737   3.348 -1.4478 -1.4451 -0.2133
 3986SOL     OW23593   2.865   1.666   6.930 -0.1343 -0.4058  0.2685
 3986SOL    HW123594   2.847   1.755   6.960  1.8573  0.2955 -0.6347
 3986SOL    HW223595   2.785   1.648   6.879  0.3721  0.0219 -0.6794
 3987SOL     OW23596   4.207   1.227   7.433  0.4645  0.2302  0.2575
 3987SOL    HW123597   4.286   1.173   7.422 -0.6133 -0.9242 -2.0579
 3987SOL    HW223598   4.194   1.226   7.527  1.1676 -0.6194  0.3545
 3988SOL     OW23599   3.004   0.099   1.967  0.2870 -0.2393 -0.7682
 3988SOL    HW123600   3.076   0.090   2.030 -0.7829 -2.0615  0.2220
 3988SOL    HW223601   3.043   0.067   1.886 -0.5488 -1.9791 -0.4849
 3989SOL     OW23602   4.270   3.094   7.446  0.7163 -0.6578  0.4943
 3989SOL    HW123603   4.339   3.089   7.512  0.5494 -1.2051  0.6253
 3989SOL    HW223604   4.269   3.002   7.420 -1.6141 -0.6352  0.5298
 3990SOL     OW23605   3.622   2.697   6.922 -0.3489  0.1438  0.1867
 3990SOL    HW123606   3.599   2.790   6.920 -0.0651  0.2288  0.7345
 3990SOL    HW223607   3.715   2.697   6.947 -0.5042  1.5543  0.7650
 3991SOL     OW23608   3.660   0.462   4.290  0.1188 -0.4358 -0.6736
 3991SOL    HW123609   3.749   0.473   4.255  0.9838 -0.4143  1.5181
 3991SOL    HW223610   3.672   0.451   4.385 -0.1577  1.4160 -0.4367
 3992SOL     OW23611   0.763   2.593   3.484  0.3490  0.0769  0.0587
 3992SOL    HW123612   0.738   2.501   3.489 -1.0755  0.5976  2.4852
 3992SOL    HW223613   0.853   2.577   3.512  0.6983  0.9952 -0.5468
 3993SOL     OW23614   0.095   4.733  10.014 -0.4830 -0.2694 -0.3137
 3993SOL    HW123615   0.049   4.658   9.978  1.1357 -0.8947 -1.0930
 3993SOL    HW223616   0.140   4.688  10.086 -0.5395  2.0538  1.1643
 3994SOL     OW23617   0.311   1.163  12.278 -0.2374 -0.2098 -0.1035
 3994SOL    HW123618   0.246   1.108  12.322 -3.3060  2.8505 -0.7920
 3994SOL    HW223619   0.258   1.241  12.262 -0.5881 -0.2918  0.6508
 3995SOL     OW23620   2.081   3.511   3.335  0.1850 -0.2094 -0.2149
 3995SOL    HW123621   2.071   3.417   3.349 -1.2420 -0.1400 -0.6839
 3995SOL    HW223622   2.021   3.534   3.406  0.4740 -2.5942  0.7683
 3996SOL     OW23623   0.489   3.153  12.602  0.4527 -0.2117  0.3639
 3996SOL    HW123624   0.494   3.247  12.587  1.0684 -0.2274  0.4635
 3996SOL    HW223625   0.397   3.132  12.586  0.6419 -1.2172  0.5960
 3997SOL     OW23626   0.839   1.647   5.820 -0.5079 -0.1537 -0.1346
 3997SOL    HW123627   0.902   1.578   5.844 -0.1688 -0.0120 -0.6157
 3997SOL    HW223628   0.836   1.691   5.905  0.1805 -1.8618  0.7784
 3998SOL     OW23629   4.387   4.485   8.387 -0.9920  0.2507  0.5351
 3998SOL    HW123630   4.445   4.413   8.364  0.3960  2.0489 -1.5811
 3998SOL    HW223631   4.442   4.534   8.449 -1.0391  0.0528  0.7327
 3999SOL     OW23632   2.143   1.754   4.985  0.0039 -0.0751 -0.4165
 3999SOL    HW123633   2.061   1.801   5.000 -1.8447 -3.7558  1.1786
 3999SOL    HW223634   2.122   1.695   5.058 -1.1511  0.2656 -0.4656
 4000SOL     OW23635   0.111   1.852   7.373  0.1548  0.5821  0.0868
 4000SOL    HW123636   0.174   1.916   7.338 -1.2988  0.4999 -2.7366
 4000SOL    HW223637   0.081   1.813   7.291  0.7596 -1.8600  1.0501
 4001SOL     OW23638   3.544   0.154   2.509  0.0918 -0.0060  0.0508
 4001SOL    HW123639   3.560   0.216   2.580 -1.1675 -1.0410  1.2258
 4001SOL    HW223640   3.488   0.200   2.446  2.9635  1.4698 -1.4155
 4002SOL     OW23641   3.629   2.766  12.668 -0.0743  0.0475 -0.1163
 4002SOL    HW123642   3.684   2.810  12.733  0.6213 -0.2231 -0.5212
 4002SOL    HW223643   3.673   2.779  12.583 -0.8091 -2.4384 -0.8668
 4003SOL     OW23644   3.584   2.414   3.449  0.0006  0.2040 -0.0467
 4003SOL    HW123645   3.542   2.367   3.521 -1.6074 -0.4930 -1.4231
 4003SOL    HW223646   3.546   2.373   3.371  3.0397 -2.0176 -0.3704
 4004SOL     OW23647   3.560   2.759   7.614 -0.0817 -0.0059  0.2460
 4004SOL    HW123648   3.497   2.717   7.672  3.0619 -1.9486  2.2484
 4004SOL    HW223649   3.556   2.850   7.645 -1.3033 -0.1739  0.5646
 4005SOL     OW23650   1.544   2.306   4.313 -0.0025  0.5164  0.3921
 4005SOL    HW123651   1.598   2.265   4.245 -0.2526 -0.0629  0.5440
 4005SOL    HW223652   1.518   2.231   4.367  0.2066 -0.2711 -0.5837
 4006SOL     OW23653   1.333   1.714   6.172 -0.0663  0.1459 -0.2562
 4006SOL    HW123654   1.317   1.636   6.118 -1.2275  2.2604 -2.9766
 4006SOL    HW223655   1.344   1.670   6.256 -1.7262 -0.5565 -0.4044
 4007SOL     OW23656   1.653   0.177   0.687  0.4677  0.0409  0.4633
 4007SOL    HW123657   1.733   0.147   0.643 -0.3311 -1.0328 -0.2770
 4007SOL    HW223658   1.590   0.135   0.628 -0.2435 -1.6245  2.4034
 4008SOL     OW23659   0.826   3.301   1.466  0.3455 -0.0482  0.1741
 4008SOL    HW123660   0.824   3.357   1.389  0.3629 -1.1035 -0.5787
 4008SOL    HW223661   0.915   3.316   1.501  0.6049 -1.9801  0.3266
 4009SOL     OW23662   4.305   4.017   2.224  0.2894 -0.0363  0.0747
 4009SOL    HW123663   4.276   4.108   2.223  0.5477  0.0115 -2.4688
 4009SOL    HW223664   4.292   3.985   2.314  1.4785  0.5814  0.4757
 4010SOL     OW23665   1.634   2.588  11.288 -0.2486  0.5065 -0.0001
 4010SOL    HW123666   1.610   2.675  11.253 -1.9518  0.0894  0.1044
 4010SOL    HW223667   1.548   2.546  11.290  0.7594 -1.3625  2.9366
 4011SOL     OW23668   3.350   2.530   8.595 -0.5941 -0.3446 -0.3477
 4011SOL    HW123669   3.406   2.526   8.517 -0.8432 -1.3170 -0.4804
 4011SOL    HW223670   3.408   2.572   8.658 -1.4822  0.1682  0.1247
 4012SOL     OW23671   1.825   0.467  17.720  0.2015  0.4490 -0.1385
 4012SOL    HW123672   1.861   0.387  17.682 -0.1141 -0.6682  1.9088
 4012SOL    HW223673   1.894   0.486   0.034  0.2982  0.8174 -0.3540
 4013SOL     OW23674   1.164   4.580   6.905  0.3887  0.1655  0.0291
 4013SOL    HW123675   1.225   4.520   6.862  1.0926  1.2535 -0.4930
 4013SOL    HW223676   1.107   4.576   6.828 -1.7110 -2.0275  1.6867
 4014SOL     OW23677   1.764   0.927   5.709 -0.5077 -0.7961 -0.5824
 4014SOL    HW123678   1.689   0.979   5.679  0.8533  1.0617 -0.7662
 4014SOL    HW223679   1.743   0.906   5.799  0.6899  1.1609  0.1522
 4015SOL     OW23680   2.501   0.910   3.087  0.6608  0.6735  0.1748
 4015SOL    HW123681   2.414   0.877   3.110 -1.2163  4.1436 -2.0048
 4015SOL    HW223682   2.553   0.833   3.110 -0.5557 -0.5209 -1.0876
 4016SOL     OW23683   2.490   1.556   7.972 -0.6062  0.3795  0.2258
 4016SOL    HW123684   2.413   1.598   7.936 -0.3627 -1.6701 -2.6808
 4016SOL    HW223685   2.450   1.504   8.042 -0.7277 -0.1572 -0.2463
 4017SOL     OW23686   3.376   2.788   7.998  0.0328 -0.2799 -0.4292
 4017SOL    HW123687   3.336   2.784   7.910 -2.7321  0.2087  0.7958
 4017SOL    HW223688   3.469   2.777   7.978 -0.0847 -2.3725  0.2093
 4018SOL     OW23689   4.445   3.618  17.662 -0.1773  0.1328 -0.0359
 4018SOL    HW123690   4.529   3.578  17.682  0.0362  1.3596  1.5096
 4018SOL    HW223691   4.460   3.632  17.568 -0.9806 -0.0329 -0.1893
 4019SOL     OW23692   0.438   1.846   4.821  0.3454 -0.3176  0.1715
 4019SOL    HW123693   0.444   1.941   4.828  2.4729 -0.4388 -0.1093
 4019SOL    HW223694   0.344   1.834   4.805  0.4709  0.4724 -1.0917
 4020SOL     OW23695   0.903   2.800   6.322 -0.3954 -0.3479 -0.3737
 4020SOL    HW123696   0.902   2.893   6.341  1.0471 -0.5015  0.4765
 4020SOL    HW223697   0.827   2.788   6.266  1.1181  1.3799 -2.8207
 4021SOL     OW23698   4.361   0.318   7.673  0.2158 -0.5450  0.7148
 4021SOL    HW123699   4.395   0.299   7.585 -0.8907  0.5186  0.0598
 4021SOL    HW223700   4.334   0.408   7.654 -0.9990 -1.0567  0.0318
 4022SOL     OW23701   3.546   0.799  13.221  0.0696  0.7594  0.2110
 4022SOL    HW123702   3.563   0.869  13.158  1.9944  2.5800  2.7674
 4022SOL    HW223703   3.514   0.735  13.158 -0.9771  0.6326  0.8757
 4023SOL     OW23704   3.736   0.127   8.333 -0.3000  0.0821 -0.2435
 4023SOL    HW123705   3.768   0.203   8.383  0.8251 -0.3837 -0.2823
 4023SOL    HW223706   3.729   0.063   8.404 -0.5394 -1.8619 -2.0208
 4024SOL     OW23707   0.323   0.918  16.962  0.5545  0.2925  0.3743
 4024SOL    HW123708   0.336   0.823  16.970  0.5681  0.3247  0.7357
 4024SOL    HW223709   0.406   0.950  16.999 -0.3486  0.5700  2.1830
 4025SOL     OW23710   3.349   0.847   9.370  0.3509 -0.1315 -0.4306
 4025SOL    HW123711   3.390   0.870   9.287 -0.5874  0.1308 -0.8216
 4025SOL    HW223712   3.313   0.934   9.386  0.0557  0.0416 -2.0332
 4026SOL     OW23713   1.433   3.870  10.519  0.1689  0.3734  0.0042
 4026SOL    HW123714   1.489   3.823  10.581 -0.0736  0.2940  0.1622
 4026SOL    HW223715   1.428   3.808  10.447 -0.9166 -1.1468  1.3902
 4027SOL     OW23716   3.287   4.007   7.675 -0.3537 -0.3493 -0.4873
 4027SOL    HW123717   3.244   3.995   7.590 -0.4731 -1.6563 -0.2474
 4027SOL    HW223718   3.369   4.052   7.652  0.0415 -0.0719  1.5044
 4028SOL     OW23719   2.863   3.521   6.858 -0.1854 -0.1693  0.1971
 4028SOL    HW123720   2.881   3.430   6.837 -1.0465  0.3908 -3.0460
 4028SOL    HW223721   2.875   3.517   6.953  0.3565  4.5533  0.3212
 4029SOL     OW23722   0.762   1.624   4.170  0.3296  0.4165 -0.1062
 4029SOL    HW123723   0.817   1.600   4.244  0.3472 -2.3572 -1.0134
 4029SOL    HW223724   0.723   1.538   4.154  0.7116 -0.1972  2.3012
 4030SOL     OW23725   2.040   0.544   2.833 -0.0952 -0.5277  0.2712
 4030SOL    HW123726   2.079   0.628   2.854  0.6380  0.3374 -4.5367
 4030SOL    HW223727   2.122   0.495   2.839  0.0200 -0.1393  1.9536
 4031SOL     OW23728   4.704   3.981  15.603 -0.1890 -0.4194  0.1441
 4031SOL    HW123729   4.723   4.075  15.610 -1.1047 -0.1731 -0.7547
 4031SOL    HW223730   4.721   3.952  15.693 -0.6520  1.0345  0.7080
 4032SOL     OW23731   0.074   3.636   2.151 -0.5102  0.0309  0.7193
 4032SOL    HW123732   0.071   3.633   2.247  1.5167 -0.2435  0.7734
 4032SOL    HW223733   0.124   3.715   2.133  1.1969 -1.1624  0.1954
 4033SOL     OW23734   4.640   2.914  17.368  0.4950 -0.0977 -0.1527
 4033SOL    HW123735   4.714   2.970  17.345  1.8218 -1.5517  0.5699
 4033SOL    HW223736   4.680   2.827  17.357 -1.1629 -0.7650 -0.9145
 4034SOL     OW23737   2.975   0.073   3.971  0.0378 -0.0744  0.1076
 4034SOL    HW123738   2.885   0.042   3.977  0.0527 -0.4120 -1.3058
 4034SOL    HW223739   2.987   0.065   3.876 -1.3488  2.0190 -0.2577
 4035SOL     OW23740   1.403   2.869   6.556 -0.0487  0.0221 -0.0171
 4035SOL    HW123741   1.419   2.934   6.487 -0.1102 -0.2712 -0.3071
 4035SOL    HW223742   1.462   2.799   6.529 -1.6140 -1.1481 -0.4404
 4036SOL     OW23743   2.731   4.678   3.905  0.2123 -0.2751  0.0064
 4036SOL    HW123744   2.645   4.714   3.885  1.3047  2.1523 -0.3617
 4036SOL    HW223745   2.707   4.642   3.990 -2.2062 -2.7973 -1.7411
 4037SOL     OW23746   2.233   1.679  15.949  0.1751  1.1457 -0.3652
 4037SOL    HW123747   2.307   1.716  15.900 -2.0467  1.5360 -3.4747
 4037SOL    HW223748   2.165   1.743  15.929 -1.9369 -1.4363 -1.4961
 4038SOL     OW23749   4.039   0.347  14.137 -0.3455 -0.5094  0.0537
 4038SOL    HW123750   4.025   0.308  14.224  0.1480 -1.5577 -0.3381
 4038SOL    HW223751   3.990   0.429  14.143 -0.0735 -0.3032 -0.6173
 4039SOL     OW23752   1.169   2.151   5.237  0.3015 -0.3010 -0.2464
 4039SOL    HW123753   1.210   2.231   5.271 -2.0043  0.6671  0.2458
 4039SOL    HW223754   1.177   2.088   5.309  1.2359 -1.1983 -1.1414
 4040SOL     OW23755   1.440   3.252  13.509  1.0879  0.5752  0.6635
 4040SOL    HW123756   1.449   3.251  13.604 -1.9628  1.1867  0.9541
 4040SOL    HW223757   1.406   3.163  13.495 -0.3929  1.3792 -0.8134
 4041SOL     OW23758   1.786   4.159   8.808  0.6198  0.5708  0.1174
 4041SOL    HW123759   1.769   4.066   8.802 -1.6700  1.0111 -0.0229
 4041SOL    HW223760   1.881   4.156   8.795  0.3345 -1.0774 -1.5880
 4042SOL     OW23761   3.892   2.790   3.930 -0.6178 -0.2819  0.4788
 4042SOL    HW123762   3.956   2.769   3.862  0.5803 -0.1528  1.5656
 4042SOL    HW223763   3.953   2.783   4.004  0.7318  1.8483 -0.4083
 4043SOL     OW23764   3.236   3.022  10.200  0.1435  0.1890 -0.0394
 4043SOL    HW123765   3.267   2.933  10.181 -2.6353 -0.7578 -0.1772
 4043SOL    HW223766   3.239   3.059  10.111  0.6108 -0.1404 -0.1589
 4044SOL     OW23767   4.611   3.932   2.668  0.2223 -0.2315  0.0476
 4044SOL    HW123768   4.707   3.937   2.665  0.1029  1.0356 -1.3613
 4044SOL    HW223769   4.586   4.022   2.688 -0.3070 -0.7561  1.7399
 4045SOL     OW23770   3.059   4.621   3.634  0.2417  0.1072  0.1945
 4045SOL    HW123771   3.040   4.703   3.588 -1.7196  0.1080  0.9663
 4045SOL    HW223772   2.966   4.596   3.631  0.3223 -0.1478 -0.0567
 4046SOL     OW23773   1.665   0.859  13.236 -0.0937 -0.7064 -0.1130
 4046SOL    HW123774   1.600   0.795  13.208  1.5781 -2.1063 -0.7905
 4046SOL    HW223775   1.612   0.936  13.216  1.3217  0.6917  1.4499
 4047SOL     OW23776   4.252   4.031   6.188 -0.5508 -0.3534 -0.0571
 4047SOL    HW123777   4.321   4.054   6.126 -0.3203  1.3018  0.8240
 4047SOL    HW223778   4.223   4.119   6.214 -0.2614 -0.1213 -0.5255
 4048SOL     OW23779   3.260   3.922   5.284  0.6404 -0.2828  0.1551
 4048SOL    HW123780   3.294   3.849   5.232  0.0215 -1.4782  1.4255
 4048SOL    HW223781   3.338   3.931   5.338  2.0037  1.0191 -2.0128
 4049SOL     OW23782   1.302   3.844   9.196  0.2971  0.6874 -0.2961
 4049SOL    HW123783   1.216   3.886   9.194 -0.0033  0.1373  1.3825
 4049SOL    HW223784   1.357   3.900   9.142 -0.3902  1.6660  0.0120
 4050SOL     OW23785   3.654   3.027   7.733 -0.2926  0.3618  0.0829
 4050SOL    HW123786   3.669   2.962   7.802  1.5285 -0.4763 -1.1186
 4050SOL    HW223787   3.725   3.010   7.671 -0.9890 -1.1316 -0.2994
 4051SOL     OW23788   2.770   1.153  12.087  0.1294  0.0033  0.0974
 4051SOL    HW123789   2.744   1.124  11.999  0.7314 -1.3830  0.3866
 4051SOL    HW223790   2.728   1.082  12.136 -1.0911  0.5228 -0.1795
 4052SOL     OW23791   2.922   0.025   3.268 -0.9445  0.2749  0.1201
 4052SOL    HW123792   2.960   0.101   3.312 -1.3185  0.6931 -0.2741
 4052SOL    HW223793   2.919   0.063   3.180  0.8642 -2.3974 -1.1222
 4053SOL     OW23794   2.485   1.852   6.137 -0.5643  0.4142  0.0156
 4053SOL    HW123795   2.480   1.899   6.055  0.8221 -0.2781 -0.4702
 4053SOL    HW223796   2.510   1.917   6.203 -1.8656  0.4225  0.5035
 4054SOL     OW23797   3.738   4.191   2.632 -0.0193  0.0263 -0.1356
 4054SOL    HW123798   3.805   4.143   2.582  0.3425  1.7533 -1.2968
 4054SOL    HW223799   3.676   4.205   2.560 -0.5422 -0.9050  0.1310
 4055SOL     OW23800   0.568   1.962   6.465  0.2076  0.2761 -0.8055
 4055SOL    HW123801   0.484   1.922   6.487  0.6289 -0.4481 -0.5114
 4055SOL    HW223802   0.544   2.043   6.420 -2.7639  0.6824  1.5276
 4056SOL     OW23803   3.743   1.909   6.698  0.1109 -0.0837  0.4054
 4056SOL    HW123804   3.715   1.987   6.648 -1.0459 -1.0920 -0.5148
 4056SOL    HW223805   3.674   1.891   6.762  1.0639  1.2535  1.7948
 4057SOL     OW23806   0.049   1.614   0.109 -0.2789  0.2679 -0.3337
 4057SOL    HW123807   0.107   1.653   0.044  1.1812 -2.1632 -0.4938
 4057SOL    HW223808   0.008   1.559   0.042 -0.3146 -2.2494  1.7095
 4058SOL     OW23809   2.671   3.399  10.212  0.2892  0.0518 -0.0995
 4058SOL    HW123810   2.739   3.441  10.265  1.7735 -1.2197 -0.9807
 4058SOL    HW223811   2.707   3.427  10.128  0.7650  0.5856  0.2839
 4059SOL     OW23812   2.808   1.058   3.940 -0.4567 -0.6553  0.2136
 4059SOL    HW123813   2.889   1.083   3.984 -0.8543 -2.0217  1.7060
 4059SOL    HW223814   2.831   0.968   3.917 -0.8898 -0.8018  0.3595
 4060SOL     OW23815   2.682   2.830   6.701 -0.4024  0.3624  0.1808
 4060SOL    HW123816   2.629   2.897   6.658  0.9531 -0.2879 -2.4948
 4060SOL    HW223817   2.636   2.749   6.680 -2.1914  1.2693  0.5617
 4061SOL     OW23818   3.406   3.022  17.235  0.4832  0.4455 -0.2613
 4061SOL    HW123819   3.439   2.996  17.149  1.0341 -1.2269  0.4687
 4061SOL    HW223820   3.316   2.988  17.231  0.5190  0.4312 -0.9930
 4062SOL     OW23821   1.923   1.711   5.490 -0.2967  0.0920  0.6722
 4062SOL    HW123822   1.888   1.622   5.484  0.6759 -0.1448 -1.6185
 4062SOL    HW223823   1.939   1.730   5.397  0.5215  1.6647  1.1421
 4063SOL     OW23824   2.297   0.878  14.571 -0.2570 -0.3476 -1.0518
 4063SOL    HW123825   2.374   0.828  14.544  1.5359  1.1742  1.2390
 4063SOL    HW223826   2.263   0.918  14.492  2.3732 -0.0445 -2.0267
 4064SOL     OW23827   3.539   0.457   3.469 -0.2303 -0.3527 -0.5672
 4064SOL    HW123828   3.586   0.441   3.387  1.1806  0.7727  0.0293
 4064SOL    HW223829   3.518   0.368   3.498  0.8753 -0.3678  0.1944
 4065SOL     OW23830   1.583   1.060   6.317  0.4795  0.0475  0.1604
 4065SOL    HW123831   1.630   0.977   6.308  2.3711  1.1354 -0.0743
 4065SOL    HW223832   1.510   1.031   6.372  3.5362 -1.3466  3.4908
 4066SOL     OW23833   3.390   4.211  17.409 -0.3664  0.1652 -0.3643
 4066SOL    HW123834   3.460   4.238  17.350  1.1037 -1.0318  0.8449
 4066SOL    HW223835   3.344   4.295  17.419 -1.3150 -0.2762 -0.9814
 4067SOL     OW23836   2.987   1.980   7.334 -0.0462  0.1346 -0.3473
 4067SOL    HW123837   3.068   1.930   7.325 -0.7885 -0.9192 -1.1475
 4067SOL    HW223838   2.989   2.013   7.244 -0.4925  0.4744 -0.2320
 4068SOL     OW23839   2.113   2.959   0.029  0.1759 -0.8290 -0.8720
 4068SOL    HW123840   2.147   2.874   0.056  0.2874 -1.3726 -2.7258
 4068SOL    HW223841   2.146   3.016   0.098  0.2686 -0.5534 -1.1403
 4069SOL     OW23842   3.501   4.539   2.895 -0.4813 -0.4444 -0.1067
 4069SOL    HW123843   3.426   4.482   2.908 -0.0700 -1.0185 -0.2768
 4069SOL    HW223844   3.476   4.606   2.959  2.4789  0.5695  0.0355
 4070SOL     OW23845   3.831   3.035   6.844 -0.5815 -0.0121 -0.3707
 4070SOL    HW123846   3.829   3.119   6.799 -0.1956  0.4639  0.4822
 4070SOL    HW223847   3.797   2.981   6.773 -0.5212 -1.7780  0.9248
 4071SOL     OW23848   1.380   2.581   1.729  0.0232  0.0010  0.1521
 4071SOL    HW123849   1.352   2.530   1.653 -0.1118 -0.6563  0.6415
 4071SOL    HW223850   1.422   2.507   1.774 -2.0503 -0.8774  0.6083
 4072SOL     OW23851   1.628   3.700  10.712  0.2874  0.8517  0.7939
 4072SOL    HW123852   1.599   3.782  10.754 -1.3291  1.2641 -1.1609
 4072SOL    HW223853   1.695   3.670  10.774  1.0693  1.6833  0.3637
 4073SOL     OW23854   4.020   3.169  17.247 -0.3250 -0.0309  0.3642
 4073SOL    HW123855   3.998   3.262  17.237  0.4368  0.1655  0.4737
 4073SOL    HW223856   3.952   3.132  17.192 -2.6086  0.0069  3.1453
 4074SOL     OW23857   0.445   2.991   1.556 -0.3291  0.6271 -0.4279
 4074SOL    HW123858   0.475   3.073   1.517  0.4706 -0.2364 -1.6044
 4074SOL    HW223859   0.408   2.952   1.477 -1.2890 -1.0429  0.8237
 4075SOL     OW23860   2.351   3.005  15.059  0.1498 -0.1357  0.6515
 4075SOL    HW123861   2.270   3.030  15.104  0.0250 -0.1407  0.4272
 4075SOL    HW223862   2.323   2.926  15.012 -0.8635 -0.6982  2.1902
 4076SOL     OW23863   3.012   4.299   3.466 -0.1581 -0.0407  0.1190
 4076SOL    HW123864   3.045   4.310   3.555 -1.0492  3.5234 -0.0063
 4076SOL    HW223865   2.922   4.276   3.488 -0.6735 -0.0881 -2.0608
 4077SOL     OW23866   0.526   3.155   8.490 -0.0962 -0.3982  0.5181
 4077SOL    HW123867   0.536   3.232   8.546  1.4060 -0.4610  0.3564
 4077SOL    HW223868   0.471   3.186   8.418  1.3264 -1.0948 -0.9013
 4078SOL     OW23869   3.223   2.176  13.381 -0.0512  0.6304 -0.6198
 4078SOL    HW123870   3.303   2.170  13.432  1.6241  0.2472 -3.3239
 4078SOL    HW223871   3.254   2.232  13.310  1.8234 -0.7319 -0.8638
 4079SOL     OW23872   3.795   2.375   4.216  0.1092 -0.2776  0.1471
 4079SOL    HW123873   3.785   2.380   4.121  0.5340 -0.0996  0.1087
 4079SOL    HW223874   3.880   2.419   4.219  0.0764 -0.1631 -0.5177
 4080SOL     OW23875   2.058   1.608   3.245 -0.0476 -0.2221 -0.7413
 4080SOL    HW123876   2.097   1.567   3.322 -0.6824 -0.6755 -0.6565
 4080SOL    HW223877   2.075   1.549   3.172  0.0963 -0.7363 -0.2899
 4081SOL     OW23878   1.913   2.847   2.840 -0.1692  0.5820 -0.7425
 4081SOL    HW123879   1.977   2.782   2.871 -0.8338  1.1952  1.9250
 4081SOL    HW223880   1.905   2.915   2.907 -2.2890 -0.5835  0.1969
 4082SOL     OW23881   0.549   4.240  13.553 -0.0995  0.1116  0.0829
 4082SOL    HW123882   0.638   4.207  13.545 -1.7584 -3.7213 -2.4538
 4082SOL    HW223883   0.552   4.304  13.482  1.3784  0.3027  0.3168
 4083SOL     OW23884   2.998   4.601   1.126  0.0098 -0.7890  0.1511
 4083SOL    HW123885   3.029   4.685   1.094  2.1064 -1.0976  1.3375
 4083SOL    HW223886   3.076   4.558   1.161  0.6781  1.3060  1.2038
 4084SOL     OW23887   0.611   3.859   7.065 -0.9114 -0.7563 -0.0346
 4084SOL    HW123888   0.698   3.820   7.061  0.2812  1.7067  1.7294
 4084SOL    HW223889   0.564   3.794   7.118 -1.0595 -1.0234 -0.4911
 4085SOL     OW23890   3.453   0.211   3.526 -0.6012 -0.3470 -0.3227
 4085SOL    HW123891   3.375   0.190   3.578  0.0202  2.2911  1.6847
 4085SOL    HW223892   3.515   0.141   3.546 -0.4524 -0.2757 -0.5280
 4086SOL     OW23893   0.581   2.004  14.691 -0.1316  0.1346  0.2903
 4086SOL    HW123894   0.586   2.090  14.735  0.0314  0.7416 -0.9095
 4086SOL    HW223895   0.589   1.953  14.772  2.4929 -1.5521 -1.0492
 4087SOL     OW23896   1.360   3.734   3.947  0.1086 -0.2164 -0.2175
 4087SOL    HW123897   1.340   3.809   4.003 -0.1614  0.0478 -0.6685
 4087SOL    HW223898   1.273   3.695   3.950 -0.3959  1.0203  1.3323
 4088SOL     OW23899   0.020   2.362  13.541  0.3664 -0.0487 -0.5404
 4088SOL    HW123900   4.736   2.340  13.632  1.5096 -2.3123 -0.8141
 4088SOL    HW223901   0.111   2.335  13.539  0.0230 -1.1205 -1.5257
 4089SOL     OW23902   2.735   0.631   8.072 -0.4174  0.2707  1.1644
 4089SOL    HW123903   2.672   0.565   8.100 -0.8108  0.3929  0.5624
 4089SOL    HW223904   2.681   0.693   8.023  1.3547 -0.0592 -1.2345
 4090SOL     OW23905   2.257   0.620   3.924 -0.2811 -0.1946  0.8174
 4090SOL    HW123906   2.328   0.639   3.862  0.7256 -0.8566  1.7879
 4090SOL    HW223907   2.196   0.670   3.869  1.4641  0.9336 -0.0817
 4091SOL     OW23908   1.981   4.150   0.612 -0.4050 -0.1382  0.1567
 4091SOL    HW123909   1.887   4.144   0.591 -0.3995  0.9806 -0.1593
 4091SOL    HW223910   2.011   4.082   0.552 -0.3832 -0.1813  0.2164
 4092SOL     OW23911   2.886   3.467   9.563  0.0647  0.4779  0.1198
 4092SOL    HW123912   2.928   3.407   9.624 -0.8148  0.0177  0.2728
 4092SOL    HW223913   2.848   3.537   9.616  0.2582 -0.7294  1.8354
 4093SOL     OW23914   0.883   1.735   8.867 -0.4217  0.4966 -0.2871
 4093SOL    HW123915   0.948   1.804   8.878 -1.3446  1.4008 -0.5470
 4093SOL    HW223916   0.931   1.660   8.902  0.8208  0.6292 -1.6849
 4094SOL     OW23917   0.061   3.730   5.751 -0.3958 -0.5173  0.5838
 4094SOL    HW123918   0.103   3.816   5.758 -0.0080 -0.5899 -1.0151
 4094SOL    HW223919   0.088   3.714   5.661 -1.6157 -4.3860  0.9242
 4095SOL     OW23920   1.571   3.153   4.973 -0.3053 -0.4243  0.5791
 4095SOL    HW123921   1.590   3.069   5.016  0.7386  0.0133  0.9616
 4095SOL    HW223922   1.487   3.175   5.014 -0.3612  0.6744 -0.1268
 4096SOL     OW23923   1.991   3.632   8.752 -0.1105 -0.5864  0.5483
 4096SOL    HW123924   2.081   3.633   8.720 -0.3833  0.9989 -0.1421
 4096SOL    HW223925   1.960   3.542   8.739 -1.3792 -0.2407  1.0884
 4097SOL     OW23926   2.700   2.749  10.266 -0.4849  0.6717 -0.2604
 4097SOL    HW123927   2.783   2.718  10.300  0.0910  2.1649 -0.2871
 4097SOL    HW223928   2.691   2.838  10.302 -0.6535  0.5114  0.0871
 4098SOL     OW23929   4.482   3.098   2.492 -0.3289  0.0825  0.1519
 4098SOL    HW123930   4.448   3.180   2.527  1.9218  1.8117 -1.7327
 4098SOL    HW223931   4.572   3.107   2.462 -0.5782  0.7263 -0.4014
 4099SOL     OW23932   2.883   4.637   6.181  0.6213 -0.1498 -0.2897
 4099SOL    HW123933   2.817   4.625   6.113 -0.0055  0.2823  0.2517
 4099SOL    HW223934   2.951   4.687   6.135 -0.1103  1.0759 -0.0249
 4100SOL     OW23935   3.429   4.257   6.501  0.4929  0.0256  0.2817
 4100SOL    HW123936   3.491   4.253   6.429 -0.4681 -1.0567 -0.4912
 4100SOL    HW223937   3.342   4.250   6.462  0.9188 -0.0076 -0.6557
 4101SOL     OW23938   2.715   0.986  14.034 -0.5659 -0.1890  0.4817
 4101SOL    HW123939   2.714   1.020  14.124  0.9003  0.2425  0.3457
 4101SOL    HW223940   2.624   0.959  14.023 -1.1840  1.6098  1.1186
 4102SOL     OW23941   0.335   2.017   7.313  0.3777 -0.0992  0.3743
 4102SOL    HW123942   0.425   2.035   7.286  0.5962 -1.7120 -0.0188
 4102SOL    HW223943   0.330   2.075   7.389 -0.0548  0.2146  0.1027
 4103SOL     OW23944   3.819   2.642   2.406 -0.4095 -0.0878  0.3069
 4103SOL    HW123945   3.766   2.717   2.434  1.6343  1.4679 -0.0163
 4103SOL    HW223946   3.836   2.657   2.314 -0.9569  0.9727  0.3830
 4104SOL     OW23947   2.437   2.579   6.483  0.0170  0.1832 -0.0509
 4104SOL    HW123948   2.394   2.659   6.453  0.9565  1.3092  1.6119
 4104SOL    HW223949   2.423   2.514   6.414 -0.4161 -0.2364  0.4379
 4105SOL     OW23950   3.477   3.487   2.602  0.1779  0.1541  0.0307
 4105SOL    HW123951   3.421   3.467   2.678 -0.1925 -1.0929 -0.5841
 4105SOL    HW223952   3.511   3.568   2.640  1.7284  0.4878 -2.1335
 4106SOL     OW23953   3.284   3.049   5.999  0.4947 -0.4749  0.9931
 4106SOL    HW123954   3.313   3.017   6.084  1.7433 -0.2240  0.6667
 4106SOL    HW223955   3.349   3.020   5.934 -1.0485 -1.7234  0.0137
 4107SOL     OW23956   0.802   3.846   8.256 -0.4258 -0.8485  0.1528
 4107SOL    HW123957   0.828   3.920   8.202 -1.6036 -0.0724  0.6572
 4107SOL    HW223958   0.893   3.814   8.255 -0.3468 -0.6225  0.2208
 4108SOL     OW23959   0.309   1.799   9.466 -0.0905  0.3735 -0.8332
 4108SOL    HW123960   0.214   1.787   9.467 -0.0433  0.0075 -0.8318
 4108SOL    HW223961   0.341   1.727   9.412 -0.0688 -0.1132 -0.1697
 4109SOL     OW23962   2.384   2.578   9.461  0.2972 -0.3986 -0.1554
 4109SOL    HW123963   2.467   2.600   9.503  2.1167 -0.0604 -4.0092
 4109SOL    HW223964   2.352   2.666   9.440 -0.7367 -1.2415 -2.0403
 4110SOL     OW23965   2.881   1.081   6.406 -0.6558 -0.7827  0.0902
 4110SOL    HW123966   2.935   1.005   6.427 -1.5416 -1.1259  1.1351
 4110SOL    HW223967   2.894   1.078   6.311 -1.8669  1.2431 -0.1383
 4111SOL     OW23968   3.767   4.317  13.774  0.4640 -0.1347  0.1024
 4111SOL    HW123969   3.733   4.351  13.856  2.4121  0.5943  0.6227
 4111SOL    HW223970   3.690   4.277  13.734  1.3124 -0.9507 -0.7476
 4112SOL     OW23971   0.633   2.214   9.359  0.1522 -0.6164 -0.5816
 4112SOL    HW123972   0.548   2.237   9.395  0.5560 -1.3036  0.7949
 4112SOL    HW223973   0.624   2.262   9.276  0.0681  1.3570  0.5680
 4113SOL     OW23974   2.762   2.781   2.938 -0.9304  0.2374 -0.2064
 4113SOL    HW123975   2.762   2.855   2.878 -1.6552  1.2096  0.9809
 4113SOL    HW223976   2.813   2.831   3.003  1.7349 -1.7549 -0.7847
 4114SOL     OW23977   3.157   1.288   1.197 -0.2755 -0.0936 -0.5436
 4114SOL    HW123978   3.209   1.245   1.129 -0.6129 -0.0896 -0.8046
 4114SOL    HW223979   3.083   1.306   1.139  1.4422  2.2192 -2.0147
 4115SOL     OW23980   0.279   1.540   8.550  0.2418 -0.5230  0.3811
 4115SOL    HW123981   0.235   1.543   8.635  1.8450  0.5052  1.1986
 4115SOL    HW223982   0.342   1.610   8.570  0.8991 -1.1755  0.5768
 4116SOL     OW23983   4.109   2.275   5.221  0.2850 -0.2434  0.5598
 4116SOL    HW123984   4.075   2.186   5.218 -0.1105 -0.0127 -2.3621
 4116SOL    HW223985   4.140   2.269   5.311 -1.2859  0.9455  1.1809
 4117SOL     OW23986   2.684   0.018  16.466  0.2356 -0.3869  0.3989
 4117SOL    HW123987   2.593   0.022  16.438 -0.0125 -0.9049  1.1592
 4117SOL    HW223988   2.724   4.684  16.416 -1.2004 -1.0649  0.2393
 4118SOL     OW23989   0.075   4.310   1.944 -0.1549 -0.5314  0.1117
 4118SOL    HW123990   0.078   4.243   2.012 -1.1526  0.4338  1.1160
 4118SOL    HW223991   0.168   4.329   1.933 -0.6049  1.0992 -0.8379
 4119SOL     OW23992   3.732   4.002   1.433 -0.4419 -0.1561  0.6392
 4119SOL    HW123993   3.684   3.978   1.512  0.3437  0.4703  1.3088
 4119SOL    HW223994   3.759   4.092   1.455  0.5275 -0.2666 -0.1367
 4120SOL     OW23995   2.656   0.005   1.845 -0.3315 -0.2629 -1.0180
 4120SOL    HW123996   2.730   0.065   1.851  0.9487 -1.7767 -1.4932
 4120SOL    HW223997   2.592   0.048   1.902  0.4014 -0.6597  0.1045
 4121SOL     OW23998   3.531   1.425   0.463  0.1326 -0.5087 -0.0141
 4121SOL    HW123999   3.594   1.432   0.391  0.2315  2.7620  0.4204
 4121SOL    HW224000   3.448   1.393   0.427  1.2585 -1.9185 -1.4081
 4122SOL     OW24001   2.553   0.959   8.427 -0.6455 -0.2720  0.0958
 4122SOL    HW124002   2.641   0.960   8.389 -1.4440  0.3117 -1.7153
 4122SOL    HW224003   2.545   0.865   8.416 -2.1056 -0.3122  1.4579
 4123SOL     OW24004   4.394   0.438   3.565  0.3747  0.2913 -0.2055
 4123SOL    HW124005   4.446   0.375   3.614  0.6058  1.5082  1.1295
 4123SOL    HW224006   4.317   0.381   3.565  0.3671  0.3364  3.8017
 4124SOL     OW24007   1.673   1.304   8.452  0.2907 -0.0643 -0.0446
 4124SOL    HW124008   1.755   1.259   8.429  0.2594 -0.5720  0.8141
 4124SOL    HW224009   1.703   1.391   8.477  0.8243 -0.1956 -0.2339
 4125SOL     OW24010   2.315   3.675  14.932 -0.0962  0.9297  0.3179
 4125SOL    HW124011   2.277   3.641  15.014  0.9257 -0.2829  0.2792
 4125SOL    HW224012   2.238   3.657  14.878  0.2994  1.3173 -0.3769
 4126SOL     OW24013   0.972   4.412  10.530 -0.4845 -0.0261  1.0542
 4126SOL    HW124014   0.955   4.504  10.552  1.4749  0.3514  0.9516
 4126SOL    HW224015   0.963   4.421  10.435 -2.3017  0.2186  1.2355
 4127SOL     OW24016   4.154   4.064   7.850 -0.3678  0.8606 -0.3929
 4127SOL    HW124017   4.145   4.159   7.856  1.1423  0.9329  0.7567
 4127SOL    HW224018   4.137   4.060   7.755  2.4758 -2.7615 -0.7503
 4128SOL     OW24019   4.439   1.603   8.104  0.2780  0.7353 -0.2143
 4128SOL    HW124020   4.498   1.531   8.085 -1.4955 -1.3830  2.3264
 4128SOL    HW224021   4.479   1.648   8.177  0.3960 -1.2232  0.9125
 4129SOL     OW24022   2.021   2.359   4.511 -0.0460  0.6205 -0.3122
 4129SOL    HW124023   1.994   2.282   4.560  1.3207 -0.4779 -1.2875
 4129SOL    HW224024   2.056   2.421   4.575  1.8582  1.1002 -1.8057
 4130SOL     OW24025   1.834   0.772   6.914 -0.2170 -0.4363 -0.1818
 4130SOL    HW124026   1.929   0.787   6.914 -0.5212  1.5138 -1.8089
 4130SOL    HW224027   1.817   0.808   6.827  1.9602  2.4270  0.5826
 4131SOL     OW24028   3.725   1.492   0.290 -0.5603  0.1963  0.6356
 4131SOL    HW124029   3.724   1.514   0.197 -1.2156 -2.7521 -0.0599
 4131SOL    HW224030   3.775   1.566   0.324  0.4041  0.1523 -0.6573
 4132SOL     OW24031   4.307   3.601   6.833 -0.7268 -0.2848 -0.2231
 4132SOL    HW124032   4.279   3.554   6.911 -0.5430  1.4271  0.8679
 4132SOL    HW224033   4.231   3.659   6.832  0.2912  1.0333 -0.8764
 4133SOL     OW24034   3.141   3.580   9.961 -0.2730 -0.2136 -0.1457
 4133SOL    HW124035   3.233   3.588   9.937  0.1669 -0.5435  1.4334
 4133SOL    HW224036   3.097   3.594   9.877 -2.1276 -2.6354  0.4368
 4134SOL     OW24037   0.373   2.267   9.477 -0.1520  0.2793  0.5115
 4134SOL    HW124038   0.350   2.176   9.491  1.2765 -0.2026 -0.2503
 4134SOL    HW224039   0.292   2.302   9.441  0.5637  2.4693  1.0247
 4135SOL     OW24040   1.621   3.911   7.978 -0.2647 -0.7040 -0.1992
 4135SOL    HW124041   1.611   3.977   7.909 -0.8150  0.5704  1.0955
 4135SOL    HW224042   1.716   3.898   7.969 -0.0633 -0.3479  1.3378
 4136SOL     OW24043   3.534   0.718   3.126 -0.4489 -0.2123  0.6939
 4136SOL    HW124044   3.494   0.742   3.210  1.1631  2.7903  0.6107
 4136SOL    HW224045   3.499   0.629   3.120 -0.8990  0.1243 -1.3689
 4137SOL     OW24046   1.751   1.996   5.806 -0.1654 -0.1784  0.5804
 4137SOL    HW124047   1.780   1.915   5.847 -3.0215 -1.9679 -0.9652
 4137SOL    HW224048   1.709   2.040   5.880 -3.6158  1.6168 -2.4380
 4138SOL     OW24049   1.768   3.828   5.907  0.2524 -0.4142  0.3562
 4138SOL    HW124050   1.818   3.910   5.900 -0.5165 -0.1386 -1.9828
 4138SOL    HW224051   1.678   3.860   5.902  0.4967  0.5067  1.8147
 4139SOL     OW24052   2.440   3.522   2.942 -0.3173  0.6579 -0.4491
 4139SOL    HW124053   2.431   3.609   2.903  0.3544  1.1884  0.5774
 4139SOL    HW224054   2.466   3.526   3.034  0.2152 -1.3376 -0.5264
 4140SOL     OW24055   0.434   3.292   0.220  1.0432 -0.2099 -0.1789
 4140SOL    HW124056   0.367   3.272   0.286  0.8610 -0.7551 -0.5366
 4140SOL    HW224057   0.471   3.204   0.216  0.2526 -0.4388 -2.1482
 4141SOL     OW24058   0.660   0.107   1.872  0.2054 -0.4813  0.0197
 4141SOL    HW124059   0.597   0.036   1.885 -0.7172  0.1509 -0.9873
 4141SOL    HW224060   0.625   0.176   1.928 -0.5278  0.0138 -1.0308
 4142SOL     OW24061   1.017   1.101   9.166  0.2222 -0.4562 -0.2778
 4142SOL    HW124062   1.072   1.166   9.123 -2.3064  0.6609 -1.8110
 4142SOL    HW224063   1.061   1.071   9.246 -1.5057  0.6168  1.0643
 4143SOL     OW24064   3.129   0.546   4.369  0.0421  1.3192  0.5223
 4143SOL    HW124065   3.129   0.521   4.276  1.1421 -0.0462  0.8921
 4143SOL    HW224066   3.115   0.640   4.361  2.1081  1.5539 -0.2474
 4144SOL     OW24067   0.205   2.809   4.460  0.0581  0.0556 -0.2249
 4144SOL    HW124068   0.282   2.864   4.455  0.4405 -0.3025  1.6934
 4144SOL    HW224069   0.216   2.778   4.550 -2.2423  0.1323  0.1025
 4145SOL     OW24070   0.273   2.703   2.020 -0.1389  0.2135  0.2845
 4145SOL    HW124071   0.340   2.675   2.083  1.4712  0.0185 -1.5186
 4145SOL    HW224072   0.197   2.661   2.061  1.8466 -1.8095  1.9226
 4146SOL     OW24073   4.250   3.713   8.901 -0.5784  0.4635 -0.0686
 4146SOL    HW124074   4.241   3.634   8.847  1.6402  0.0765  0.1313
 4146SOL    HW224075   4.339   3.742   8.886 -0.3330  0.1369  0.7865
 4147SOL     OW24076   3.178   4.295   9.990  0.0803  0.4548 -0.0890
 4147SOL    HW124077   3.226   4.319   9.911 -1.0647  1.4232 -0.4867
 4147SOL    HW224078   3.240   4.234  10.031  0.7955  0.5737 -1.0065
 4148SOL     OW24079   3.755   4.150   6.134 -0.0957 -0.1700  0.4093
 4148SOL    HW124080   3.813   4.075   6.131  0.2848  0.3126 -3.7021
 4148SOL    HW224081   3.671   4.109   6.111 -0.7286  2.8365 -2.6564
 4149SOL     OW24082   3.929   2.388   0.359  0.4270 -0.8319 -0.6672
 4149SOL    HW124083   3.839   2.413   0.380  0.9134 -0.3276  0.8638
 4149SOL    HW224084   3.928   2.430   0.273  1.6525 -0.1116 -0.3262
 4150SOL     OW24085   2.171   1.420   0.947 -0.5358 -0.3924  0.7499
 4150SOL    HW124086   2.105   1.360   0.981  0.2862 -0.9367  1.4023
 4150SOL    HW224087   2.126   1.484   0.892  0.1042 -1.0917 -0.5867
 4151SOL     OW24088   0.569   0.404   7.169  0.2136  0.3396 -0.2277
 4151SOL    HW124089   0.645   0.376   7.221 -1.0559 -0.0879  1.3906
 4151SOL    HW224090   0.616   0.404   7.085 -2.1823 -1.5321 -1.5469
 4152SOL     OW24091   2.020   2.611   5.878  0.6723  0.0481  0.0096
 4152SOL    HW124092   2.089   2.550   5.903  2.3333  1.8921  0.0045
 4152SOL    HW224093   1.972   2.557   5.815  1.1912  1.5024 -1.6418
 4153SOL     OW24094   2.979   3.279  10.284 -0.1865 -0.3945  0.4987
 4153SOL    HW124095   2.956   3.364  10.323  0.9503 -0.0707  0.4709
 4153SOL    HW224096   3.008   3.297  10.195 -0.7855 -0.1558  0.3535
 4154SOL     OW24097   1.614   0.195  12.298 -0.1644 -0.7226  0.2014
 4154SOL    HW124098   1.647   0.205  12.388  0.5436 -1.6078  0.0350
 4154SOL    HW224099   1.609   0.100  12.291 -2.1987 -0.8138  2.7494
 4155SOL     OW24100   0.109   0.044   8.192  0.4243  0.1948 -0.2102
 4155SOL    HW124101   0.080   0.079   8.276 -2.8211 -1.0341 -0.8112
 4155SOL    HW224102   0.196   0.010   8.214  0.7925  0.4178 -1.3513
 4156SOL     OW24103   3.292   2.766   7.194  0.3869  0.2733  0.2598
 4156SOL    HW124104   3.226   2.828   7.161  0.2927 -0.0078 -0.0827
 4156SOL    HW224105   3.240   2.714   7.256  0.0921  0.8193  0.4656
 4157SOL     OW24106   2.806   3.974  11.521 -0.3830 -0.2032  0.5300
 4157SOL    HW124107   2.731   4.006  11.571 -0.4008 -1.6485  1.4173
 4157SOL    HW224108   2.857   4.055  11.518  0.8021 -0.9660 -0.2337
 4158SOL     OW24109   3.135   4.341   5.016  0.0745  0.4426  0.5709
 4158SOL    HW124110   3.222   4.378   5.027  0.2781 -0.8401  3.0803
 4158SOL    HW224111   3.068   4.409   5.009  1.3617  1.4757 -1.6228
 4159SOL     OW24112   1.320   4.210  12.709 -0.7426 -0.7768 -0.5160
 4159SOL    HW124113   1.392   4.244  12.657  0.0317 -0.9655  0.4389
 4159SOL    HW224114   1.250   4.269  12.679  0.2117  0.6685  0.1081
 4160SOL     OW24115   3.524   3.584   8.671 -0.0439  0.5953 -0.5364
 4160SOL    HW124116   3.556   3.569   8.582 -1.2718  1.9565 -1.2144
 4160SOL    HW224117   3.610   3.592   8.713 -0.5882 -0.4993  0.7405
 4161SOL     OW24118   4.561   4.722   0.572 -0.1074  0.0616  0.2404
 4161SOL    HW124119   4.540   0.077   0.562 -0.1491 -0.1204 -1.3295
 4161SOL    HW224120   4.476   4.685   0.553 -0.0105  0.7605 -1.5608
 4162SOL     OW24121   4.165   0.617  10.279  0.2440  0.4031 -0.3305
 4162SOL    HW124122   4.228   0.652  10.343  1.7622 -2.1484 -0.4511
 4162SOL    HW224123   4.164   0.683  10.210  0.6465  1.0087  0.2413
 4163SOL     OW24124   1.338   1.328  13.890 -0.3036 -0.4688 -0.0279
 4163SOL    HW124125   1.396   1.398  13.919 -1.8246  0.7370  0.1216
 4163SOL    HW224126   1.314   1.275  13.967  2.0545 -0.2266  0.8724
 4164SOL     OW24127   0.024   1.368   6.262 -0.5496  0.5055  0.2256
 4164SOL    HW124128   0.060   1.449   6.226 -0.4266 -0.5639 -2.0690
 4164SOL    HW224129   4.722   1.406   6.340  2.9876  0.2205  2.1674
 4165SOL     OW24130   2.535   0.569   7.067  0.4089  0.2677 -0.1134
 4165SOL    HW124131   2.480   0.630   7.018 -2.5204 -1.7240  0.6974
 4165SOL    HW224132   2.476   0.547   7.139 -0.4379 -2.7047 -1.7288
 4166SOL     OW24133   1.230   3.343   8.733  0.1111  0.3949  0.2534
 4166SOL    HW124134   1.270   3.257   8.719  0.6808  0.5887  0.7044
 4166SOL    HW224135   1.301   3.386   8.781 -0.0289 -0.9248  1.6499
 4167SOL     OW24136   3.825   1.863  17.405 -0.1249  0.1712 -0.1575
 4167SOL    HW124137   3.747   1.891  17.357 -0.7988  0.9597  1.3979
 4167SOL    HW224138   3.822   1.768  17.406 -0.7067  0.1709 -1.2714
 4168SOL     OW24139   2.251   2.604   3.527 -0.0643  0.6773 -0.4112
 4168SOL    HW124140   2.268   2.572   3.438  1.6182  0.6525 -0.0836
 4168SOL    HW224141   2.297   2.536   3.576  0.6508  1.6110  0.2026
 4169SOL     OW24142   3.001   2.466   7.206  0.0340  0.1710  0.1229
 4169SOL    HW124143   2.944   2.504   7.139  0.7264  2.3981  0.8155
 4169SOL    HW224144   2.938   2.401   7.238 -1.4612  2.2617  1.3866
 4170SOL     OW24145   3.862   1.715   5.180 -0.3298  0.4955 -0.7054
 4170SOL    HW124146   3.833   1.725   5.271 -1.5790 -3.6307 -0.6349
 4170SOL    HW224147   3.789   1.761   5.138 -0.5049 -1.2463 -2.3159
 4171SOL     OW24148   0.221   0.873   5.555 -0.1938  0.7437 -0.2671
 4171SOL    HW124149   0.292   0.810   5.542 -1.2179 -0.4491 -0.0715
 4171SOL    HW224150   0.211   0.901   5.464  3.3013  0.7855 -0.6399
 4172SOL     OW24151   2.265   2.075   0.207  0.3798  0.4588  0.5242
 4172SOL    HW124152   2.239   2.124   0.129 -2.4161 -0.2282  1.0411
 4172SOL    HW224153   2.359   2.063   0.193  0.3827 -0.7997  1.6319
 4173SOL     OW24154   1.764   1.315   6.831 -0.3022  0.2182  0.3768
 4173SOL    HW124155   1.703   1.283   6.898 -0.5805 -0.9170 -0.4098
 4173SOL    HW224156   1.838   1.337   6.887 -0.0447 -0.2038  0.1995
 4174SOL     OW24157   1.110   0.833   4.448  0.3678  0.1388 -0.1940
 4174SOL    HW124158   1.141   0.857   4.536  2.5935 -1.4619 -0.5319
 4174SOL    HW224159   1.020   0.801   4.459 -0.1603  1.4142 -0.8332
 4175SOL     OW24160   3.952   0.573   5.290  0.1204 -0.0965  0.0172
 4175SOL    HW124161   3.954   0.653   5.237 -0.6386 -1.5931 -2.2759
 4175SOL    HW224162   4.043   0.559   5.315 -0.7124  0.8322  3.6092
 4176SOL     OW24163   1.376   0.198  12.882  0.0507 -0.0110 -0.3836
 4176SOL    HW124164   1.348   0.158  12.964  1.9928  1.0744  0.8179
 4176SOL    HW224165   1.298   0.180  12.829 -0.3225 -0.5819  0.3749
 4177SOL     OW24166   1.098   2.728  12.953  0.4621 -0.0493 -0.4195
 4177SOL    HW124167   1.078   2.792  12.884 -0.0978  0.3733  0.1344
 4177SOL    HW224168   1.093   2.782  13.032  0.9374 -0.4993 -0.0818
 4178SOL     OW24169   4.584   3.180   7.171  0.0370 -0.5218  0.0002
 4178SOL    HW124170   4.500   3.214   7.141 -0.5175 -0.7267  1.3589
 4178SOL    HW224171   4.631   3.169   7.088 -0.6621 -0.4361 -0.4089
 4179SOL     OW24172   1.547   0.878   2.005 -0.1548  0.5271  0.0535
 4179SOL    HW124173   1.506   0.827   2.076 -0.3978  0.8123  0.1175
 4179SOL    HW224174   1.638   0.854   2.021 -0.4092 -1.1282 -0.9276
 4180SOL     OW24175   4.449   4.505   5.268 -0.0735  0.2983 -0.1957
 4180SOL    HW124176   4.440   4.508   5.363 -1.4096 -2.1833 -0.2381
 4180SOL    HW224177   4.428   4.415   5.242 -0.7056  0.0782  1.1028
 4181SOL     OW24178   2.975   0.228  11.339  0.7131  0.1825  0.0225
 4181SOL    HW124179   2.933   0.203  11.421  3.2201 -0.5951  1.0673
 4181SOL    HW224180   3.002   0.317  11.361 -2.2319  1.9767 -3.7047
 4182SOL     OW24181   0.177   3.922   6.393  0.1404 -0.0523 -0.1192
 4182SOL    HW124182   0.200   3.876   6.473  1.2638  2.2141  0.8542
 4182SOL    HW224183   0.154   3.854   6.328 -1.1193  0.6397 -0.3915
 4183SOL     OW24184   0.833   0.728   7.818  0.0871  0.5792  0.0607
 4183SOL    HW124185   0.914   0.778   7.813  0.8079 -0.5181  0.7951
 4183SOL    HW224186   0.868   0.639   7.827  0.3921  0.7211  0.2721
 4184SOL     OW24187   2.633   3.638  14.790 -0.0005  0.4443  0.1610
 4184SOL    HW124188   2.715   3.672  14.753 -0.0199 -0.2754 -0.5652
 4184SOL    HW224189   2.600   3.712  14.840  0.6918 -1.2183  3.0691
 4185SOL     OW24190   2.724   0.505   9.372  0.7822  0.4810  0.8951
 4185SOL    HW124191   2.749   0.538   9.286 -2.3445  0.1282 -0.1536
 4185SOL    HW224192   2.729   0.581   9.429  0.0713  0.4865  0.9527
 4186SOL     OW24193   1.043   0.354   3.054  0.5144  0.1003  0.4501
 4186SOL    HW124194   0.988   0.425   3.021 -0.3119 -1.0610 -0.6459
 4186SOL    HW224195   1.003   0.273   3.022  2.3288 -0.4112 -0.4740
 4187SOL     OW24196   2.416   0.446   3.561 -0.7551 -0.2571  0.3279
 4187SOL    HW124197   2.380   0.377   3.505  1.5626 -2.3633  1.4416
 4187SOL    HW224198   2.443   0.398   3.639 -1.8844 -1.4469 -0.0067
 4188SOL     OW24199   2.334   1.384   5.571  0.3654  0.3201  0.5939
 4188SOL    HW124200   2.385   1.350   5.644  1.6554  0.1229 -0.3864
 4188SOL    HW224201   2.345   1.308   5.514  0.4547  1.6646 -1.1738
 4189SOL     OW24202   2.754   4.457  12.658 -0.0244 -0.5431  0.1685
 4189SOL    HW124203   2.791   4.484  12.574 -0.4941 -1.3453 -0.2995
 4189SOL    HW224204   2.798   4.372  12.659  0.9425 -0.0366  0.8832
 4190SOL     OW24205   4.014   0.993   8.448 -0.1946 -0.2842 -0.2970
 4190SOL    HW124206   4.086   0.995   8.511 -0.0193  1.9242 -0.5374
 4190SOL    HW224207   4.052   1.046   8.377 -0.0690 -0.9604 -0.7386
 4191SOL     OW24208   0.440   0.984   0.583  0.5368 -0.4867  0.1113
 4191SOL    HW124209   0.441   1.032   0.500 -2.4846 -0.6588 -0.0214
 4191SOL    HW224210   0.358   1.009   0.624 -1.1785 -1.8971 -2.4887
 4192SOL     OW24211   0.493   2.086   5.526  0.0109 -0.7407 -0.0305
 4192SOL    HW124212   0.562   2.021   5.516  1.6993  1.0060  0.1118
 4192SOL    HW224213   0.505   2.140   5.448 -2.4168  0.2160  0.2516
 4193SOL     OW24214   3.204   1.113   7.440 -0.9728  0.0728  0.6699
 4193SOL    HW124215   3.262   1.061   7.496 -0.4174  1.4455  1.3858
 4193SOL    HW224216   3.142   1.128   7.511  1.2900  1.7116  2.3156
 4194SOL     OW24217   2.335   2.663   2.535  0.5116  0.3055  0.5050
 4194SOL    HW124218   2.398   2.590   2.534  0.7107  0.4881 -1.1672
 4194SOL    HW224219   2.256   2.622   2.571  1.9757 -3.1801 -0.2018
 4195SOL     OW24220   0.520   2.403  13.521 -0.4748 -0.0651  0.1778
 4195SOL    HW124221   0.515   2.465  13.448 -1.3166  0.2910  0.5352
 4195SOL    HW224222   0.611   2.385  13.545 -0.3879 -1.0642 -0.8690
 4196SOL     OW24223   4.016   0.717  17.355  0.0376 -0.4546  0.2488
 4196SOL    HW124224   3.938   0.721  17.411 -0.3703 -0.5327 -0.3136
 4196SOL    HW224225   4.015   0.802  17.311  1.2116  0.7102  2.4256
 4197SOL     OW24226   0.271   4.680   5.505 -0.0084  0.4524 -0.2067
 4197SOL    HW124227   0.237   4.599   5.468  0.6735  0.6305 -1.2206
 4197SOL    HW224228   0.246   4.737   5.432 -1.0788 -1.2220 -1.1324
 4198SOL     OW24229   0.090   2.919   6.584  0.4098 -0.1379  0.2586
 4198SOL    HW124230   4.733   2.909   6.572  0.3120  4.1640 -2.7655
 4198SOL    HW224231   0.105   2.882   6.671  2.2217 -0.4761 -0.1914
 4199SOL     OW24232   3.394   1.020   7.611  0.2232  0.1761  0.4409
 4199SOL    HW124233   3.488   1.014   7.593  0.1451 -0.8826  0.4125
 4199SOL    HW224234   3.384   1.025   7.706  0.7467  0.6841  0.4733
 4200SOL     OW24235   2.451   1.152  11.849 -0.8566 -0.7916  0.0081
 4200SOL    HW124236   2.356   1.150  11.855 -0.8406  0.4107  0.6427
 4200SOL    HW224237   2.467   1.242  11.823  1.6639 -1.2233  0.0059
 4201SOL     OW24238   3.458   0.137  10.017 -0.6091 -0.1478 -0.2085
 4201SOL    HW124239   3.410   0.091  10.086 -2.0992 -2.8425 -3.0396
 4201SOL    HW224240   3.481   0.212  10.072  0.3728 -0.9944  0.5260
 4202SOL     OW24241   4.022   3.814   7.928  0.3392  0.2407 -0.1107
 4202SOL    HW124242   4.072   3.887   7.892  1.2674 -1.0891 -1.4924
 4202SOL    HW224243   4.048   3.741   7.873 -1.4459 -2.3181  2.4446
 4203SOL     OW24244   0.129   0.288   0.003  0.0247 -0.4069 -0.3492
 4203SOL    HW124245   0.121   0.194   0.020 -0.6407  0.0223  1.6673
 4203SOL    HW224246   0.156   0.282  17.660  1.4619 -1.0129  0.1012
 4204SOL     OW24247   4.316   2.671  17.663 -0.4477 -0.0892 -0.4727
 4204SOL    HW124248   4.353   2.720  17.737 -1.6134 -1.3755  0.9469
 4204SOL    HW224249   4.351   2.722  17.590  2.8736 -1.3248  0.2564
 4205SOL     OW24250   0.875   1.453   5.106  0.1186 -0.2932  0.0218
 4205SOL    HW124251   0.818   1.376   5.095 -0.0852 -0.2688  0.9385
 4205SOL    HW224252   0.928   1.423   5.180  0.7271 -1.4514 -0.8655
 4206SOL     OW24253   1.664   2.808   5.822  0.6356  0.4269 -0.5707
 4206SOL    HW124254   1.740   2.811   5.880 -0.2636  1.1841  0.5783
 4206SOL    HW224255   1.603   2.870   5.862  0.8843  0.2674  0.0526
 4207SOL     OW24256   4.019   4.542   1.664 -0.3120 -0.2130  0.1584
 4207SOL    HW124257   4.065   4.592   1.731  1.7919 -1.8730 -0.0538
 4207SOL    HW224258   4.094   4.496   1.625 -1.5282 -0.7216 -1.5725
 4208SOL     OW24259   2.129   0.591   0.329 -0.0934  0.2022 -0.4618
 4208SOL    HW124260   2.179   0.511   0.344 -1.6150 -0.9254 -1.3836
 4208SOL    HW224261   2.129   0.590   0.233  0.2312 -1.4171 -0.4383
 4209SOL     OW24262   1.229   2.865  17.589 -0.0752 -0.4664 -0.3188
 4209SOL    HW124263   1.242   2.791  17.648  1.0904 -0.1450 -0.1754
 4209SOL    HW224264   1.233   2.940  17.648 -0.0968 -0.8059  0.1079
 4210SOL     OW24265   3.910   3.048   5.856  0.3642 -0.2101 -0.2787
 4210SOL    HW124266   3.873   3.032   5.770 -0.8989  0.7251  0.0839
 4210SOL    HW224267   3.828   3.061   5.905  2.2794 -3.0392  3.6805
 4211SOL     OW24268   3.030   1.543  16.035  0.5911 -0.1064  0.1916
 4211SOL    HW124269   3.009   1.580  15.949 -0.1846 -2.1123 -0.4870
 4211SOL    HW224270   2.969   1.593  16.089 -1.3421  0.0563 -2.1327
 4212SOL     OW24271   1.971   2.309   7.858  0.0024 -0.3402 -0.2945
 4212SOL    HW124272   1.886   2.282   7.893 -0.7217  1.5403 -0.5879
 4212SOL    HW224273   1.939   2.371   7.792 -1.2723 -1.4069 -0.6978
 4213SOL     OW24274   1.991   3.910  13.577 -0.1646  0.3781 -0.7450
 4213SOL    HW124275   2.077   3.931  13.541 -1.8039  2.2766 -3.6241
 4213SOL    HW224276   1.995   3.818  13.603 -1.2112  0.4784 -0.2262
 4214SOL     OW24277   2.728   4.261  10.162 -0.8075  0.5057  0.4211
 4214SOL    HW124278   2.702   4.348  10.192 -1.7233  0.4250 -0.1530
 4214SOL    HW224279   2.641   4.222  10.162 -1.4364  1.8939  2.6353
 4215SOL     OW24280   1.956   0.000   5.867 -0.1279  0.2832 -0.0844
 4215SOL    HW124281   2.020   4.706   5.930  0.4177  0.4091 -0.5744
 4215SOL    HW224282   1.894   4.665   5.869  0.9626 -0.5312  3.3830
 4216SOL     OW24283   0.650   1.662   7.168  0.1681  0.0016 -0.0961
 4216SOL    HW124284   0.654   1.682   7.261 -0.4358 -0.3909  0.0172
 4216SOL    HW224285   0.695   1.739   7.135  1.8303 -0.7825  0.3663
 4217SOL     OW24286   2.818   0.250  10.359 -0.3142 -0.2113 -0.5575
 4217SOL    HW124287   2.724   0.242  10.373  0.1864 -0.8867  2.3167
 4217SOL    HW224288   2.841   0.161  10.388  1.4000  0.1450 -0.8238
 4218SOL     OW24289   0.720   3.641  14.411 -0.3517  0.2996  0.0179
 4218SOL    HW124290   0.634   3.601  14.396  0.5173 -1.5035 -0.1625
 4218SOL    HW224291   0.712   3.709  14.345  0.3764  1.7821  1.4696
 4219SOL     OW24292   2.926   3.505   7.152 -0.5342 -0.1966 -0.2064
 4219SOL    HW124293   2.904   3.596   7.173 -1.0259 -0.5324  0.7185
 4219SOL    HW224294   2.977   3.477   7.228 -0.3756 -3.0014 -1.3424
 4220SOL     OW24295   3.839   3.140   1.465 -0.0438 -0.0487  0.4263
 4220SOL    HW124296   3.813   3.220   1.419 -1.3816 -1.6017 -1.5180
 4220SOL    HW224297   3.750   3.104   1.459 -1.4223  2.9582  3.2771
 4221SOL     OW24298   2.582   2.363   2.325  0.0558  0.0305  0.1229
 4221SOL    HW124299   2.647   2.433   2.334 -0.2570  0.5041 -1.2917
 4221SOL    HW224300   2.602   2.309   2.249  0.3412  1.9852 -1.1971
 4222SOL     OW24301   0.759   3.623   8.592  0.3058  0.0901  0.9999
 4222SOL    HW124302   0.829   3.586   8.537 -1.7770  2.7917 -3.4098
 4222SOL    HW224303   0.794   3.700   8.637 -0.8157  0.0038  1.9998
 4223SOL     OW24304   2.231   2.841   9.370 -0.4162  0.7047 -0.0195
 4223SOL    HW124305   2.164   2.778   9.395 -0.9611  0.9517 -0.8815
 4223SOL    HW224306   2.195   2.873   9.288 -3.4410 -1.1981  0.5840
 4224SOL     OW24307   2.877   3.703  14.711 -0.3869  0.2753  0.0464
 4224SOL    HW124308   2.890   3.783  14.659  1.5272  0.7813  1.3114
 4224SOL    HW224309   2.964   3.706  14.750 -0.9081  0.9436  1.1605
 4225SOL     OW24310   1.009   4.374   8.267  0.1161 -0.4072 -0.2096
 4225SOL    HW124311   1.063   4.452   8.269 -0.1837 -0.2170  0.9137
 4225SOL    HW224312   0.971   4.390   8.181  0.0929  0.3607 -0.0558
 4226SOL     OW24313   2.821   1.184   7.305  0.0990 -0.1342 -0.2463
 4226SOL    HW124314   2.766   1.257   7.333 -0.3262 -0.3147 -0.6072
 4226SOL    HW224315   2.784   1.113   7.357 -0.1990  0.8927  0.9259
 4227SOL     OW24316   4.061   3.695   6.781  0.3166 -0.0618  0.0605
 4227SOL    HW124317   4.084   3.739   6.699  0.4919 -0.4427 -0.0959
 4227SOL    HW224318   4.030   3.767   6.836 -0.4350  1.9870 -3.0502
 4228SOL     OW24319   4.077   2.002   4.934  0.5022 -0.2703  0.0092
 4228SOL    HW124320   4.172   2.000   4.945  0.7865 -0.1063 -2.5061
 4228SOL    HW224321   4.063   1.977   4.843  0.3894  0.3202 -0.1398
 4229SOL     OW24322   1.195   3.149   1.141 -0.4534 -0.1080  0.2786
 4229SOL    HW124323   1.116   3.173   1.093 -0.9394 -0.6855  0.7858
 4229SOL    HW224324   1.187   3.196   1.224  2.0988  0.6543  0.0955
 4230SOL     OW24325   3.161   2.227   0.439  0.2641  0.0099 -0.0135
 4230SOL    HW124326   3.107   2.149   0.441 -0.2435  0.3627  0.0771
 4230SOL    HW224327   3.099   2.299   0.427  0.0331 -0.1825  0.0551
 4231SOL     OW24328   1.631   0.067  10.534  0.0932  0.5572 -0.3368
 4231SOL    HW124329   1.605   4.728  10.483 -0.5174  1.6200 -1.6228
 4231SOL    HW224330   1.708   0.037  10.582 -0.4862  0.1123  0.3075
 4232SOL     OW24331   0.580   2.808  15.160  0.2433 -0.0054  0.6807
 4232SOL    HW124332   0.653   2.868  15.144  0.2521  0.1226  1.1959
 4232SOL    HW224333   0.593   2.791  15.253 -0.3721 -0.5484  0.6692
 4233SOL     OW24334   4.225   3.496   1.706 -0.2175 -0.3147  0.1462
 4233SOL    HW124335   4.292   3.555   1.741 -0.9125  0.4110  0.2488
 4233SOL    HW224336   4.249   3.494   1.613  1.5886  1.5195  0.5707
 4234SOL     OW24337   3.517   1.572   3.221  0.1115  0.0231  0.0218
 4234SOL    HW124338   3.441   1.537   3.174 -0.3456 -1.2066  1.6654
 4234SOL    HW224339   3.544   1.498   3.275  0.4743 -0.1569 -0.4169
 4235SOL     OW24340   0.927   4.070   9.338  0.0456  0.0043  0.0734
 4235SOL    HW124341   0.983   4.136   9.297  0.2399  1.5495  2.7995
 4235SOL    HW224342   0.842   4.082   9.296  0.5553 -0.2054 -1.0319
 4236SOL     OW24343   4.330   3.292   5.486 -0.7456  0.2747  0.7222
 4236SOL    HW124344   4.377   3.340   5.417  1.1155 -2.0649  0.3612
 4236SOL    HW224345   4.402   3.240   5.523 -1.3676 -1.0385  0.0679
 4237SOL     OW24346   1.593   0.896  11.345  0.0192  0.1578 -0.7564
 4237SOL    HW124347   1.638   0.919  11.264  2.3131 -1.6489  0.0046
 4237SOL    HW224348   1.660   0.842  11.387 -0.1931  0.2123 -0.3409
 4238SOL     OW24349   2.035   1.201  15.273 -0.1164  0.2605 -0.6277
 4238SOL    HW124350   2.041   1.230  15.182 -1.3155 -0.0949 -0.8214
 4238SOL    HW224351   1.953   1.154  15.282  0.1759 -0.2262 -0.4897
 4239SOL     OW24352   3.139   3.430   2.965 -0.3653  0.2884  0.1419
 4239SOL    HW124353   3.204   3.407   3.031  0.0843 -1.2758 -0.8647
 4239SOL    HW224354   3.095   3.501   3.012  0.5325  0.5434  0.6001
 4240SOL     OW24355   1.377   1.957   4.413  0.2238 -0.0602  0.2216
 4240SOL    HW124356   1.393   1.976   4.321 -1.4833  2.6370  0.5022
 4240SOL    HW224357   1.286   1.926   4.413  1.1323 -2.7747  1.0008
 4241SOL     OW24358   1.826   2.058  17.702  0.0198  0.2589  0.3780
 4241SOL    HW124359   1.870   2.134  17.663 -0.1836  0.4058  0.4385
 4241SOL    HW224360   1.741   2.095  17.726 -0.1350 -0.4575  0.9675
 4242SOL     OW24361   2.171   2.484   2.696 -0.1033  0.5954  0.0688
 4242SOL    HW124362   2.105   2.430   2.653 -0.1722  0.5758  0.2006
 4242SOL    HW224363   2.253   2.440   2.675  0.0520  0.0701  1.7777
 4243SOL     OW24364   1.858   0.053   4.065 -1.2625 -0.2576  0.5577
 4243SOL    HW124365   1.799   4.715   4.068 -0.5454 -0.8739 -0.9925
 4243SOL    HW224366   1.878   0.063   3.972  0.2057 -1.3445  0.7463
 4244SOL     OW24367   3.100   3.096   2.466 -0.7089  0.6125 -0.2451
 4244SOL    HW124368   3.094   3.078   2.372  1.8301 -1.2505 -0.0426
 4244SOL    HW224369   3.074   3.188   2.466 -0.0823  0.8110  3.1489
 4245SOL     OW24370   1.268   1.556   5.377  0.1044  0.2304 -0.0968
 4245SOL    HW124371   1.245   1.580   5.288 -1.1896  2.6625  0.8969
 4245SOL    HW224372   1.320   1.631   5.407  2.0484 -0.8788 -0.6664
 4246SOL     OW24373   4.359   3.258  16.750  0.1733 -0.3079  0.4687
 4246SOL    HW124374   4.396   3.184  16.702  1.6090  0.8650 -0.2038
 4246SOL    HW224375   4.414   3.322  16.706  1.2046 -1.7076 -0.2932
 4247SOL     OW24376   2.275   2.174   2.729 -0.4368  0.0578 -0.2992
 4247SOL    HW124377   2.320   2.223   2.798  2.1466 -0.9610 -1.2769
 4247SOL    HW224378   2.185   2.203   2.742 -0.7527 -0.3660 -1.6034
 4248SOL     OW24379   2.744   0.528   1.089  0.4491  0.1165 -0.1713
 4248SOL    HW124380   2.677   0.460   1.093 -0.4760  1.1001  0.8460
 4248SOL    HW224381   2.741   0.554   0.997  0.4480  0.6347 -0.0214
 4249SOL     OW24382   0.081   0.584   6.873  0.1430  0.1285  0.2132
 4249SOL    HW124383   0.118   0.554   6.789 -0.6379  0.7101 -0.3347
 4249SOL    HW224384   0.098   0.502   6.919  0.9168  0.6266  0.8148
 4250SOL     OW24385   3.800   3.082  11.657 -0.0673 -0.1998  0.5302
 4250SOL    HW124386   3.761   3.159  11.616 -2.1958 -1.0191  1.0134
 4250SOL    HW224387   3.809   3.022  11.583  0.0777  1.7244 -1.0008
 4251SOL     OW24388   4.237   4.172   2.610  0.4235 -0.8691 -0.2360
 4251SOL    HW124389   4.228   4.265   2.629  0.8502 -0.8488 -0.1244
 4251SOL    HW224390   4.326   4.162   2.645  0.0966  1.0128  1.1630
 4252SOL     OW24391   3.475   2.760  17.629  0.0102 -0.1544  0.5060
 4252SOL    HW124392   3.471   2.856  17.632 -0.6037 -0.0569 -3.1523
 4252SOL    HW224393   3.505   2.751  17.539 -0.3308  0.0345  0.3730
 4253SOL     OW24394   1.713   3.085   3.856 -0.6801  0.0375 -0.1260
 4253SOL    HW124395   1.637   3.142   3.864 -0.6298 -0.0699  1.0890
 4253SOL    HW224396   1.759   3.110   3.776  0.2888  1.1781  0.7701
 4254SOL     OW24397   1.224   0.676   1.930 -0.6844 -0.3258 -0.0728
 4254SOL    HW124398   1.278   0.637   1.862 -3.7944 -2.0535 -1.5885
 4254SOL    HW224399   1.282   0.648   2.001  0.5069  0.4115 -0.7681
 4255SOL     OW24400   0.928   1.544   2.496  0.1659  0.6340 -0.1738
 4255SOL    HW124401   0.891   1.578   2.577 -1.2546 -0.8644 -0.2135
 4255SOL    HW224402   1.004   1.509   2.542  0.1740  0.7408 -0.1047
 4256SOL     OW24403   1.783   3.316   4.948 -0.0536 -0.5866 -0.1671
 4256SOL    HW124404   1.696   3.278   4.935 -1.2922  1.7457  1.2590
 4256SOL    HW224405   1.788   3.311   5.043 -1.5649 -1.4958 -0.1424
 4257SOL     OW24406   4.446   2.683   3.100  0.5250  0.1608 -0.3756
 4257SOL    HW124407   4.482   2.748   3.039  0.5977 -1.4715 -2.0619
 4257SOL    HW224408   4.491   2.712   3.180 -0.0057 -0.3784  0.1202
 4258SOL     OW24409   1.800   1.145   1.418 -0.3694 -0.0117  0.1681
 4258SOL    HW124410   1.834   1.057   1.436  1.3738  0.3887 -1.1930
 4258SOL    HW224411   1.862   1.200   1.466  2.6163 -1.8970 -1.4942
 4259SOL     OW24412   0.846   2.078   6.976  0.6156 -0.3629 -0.3178
 4259SOL    HW124413   0.760   2.049   6.944  0.2361 -0.6584  0.9830
 4259SOL    HW224414   0.841   2.148   6.910  1.8377 -0.0823 -0.0998
 4260SOL     OW24415   0.460   1.500   6.547 -0.0979 -0.0623  0.4732
 4260SOL    HW124416   0.541   1.549   6.559  0.8292 -1.0649 -1.5341
 4260SOL    HW224417   0.412   1.534   6.622 -3.4818  0.5860 -1.9323
 4261SOL     OW24418   0.478   2.197   8.675 -0.0701 -0.1385  0.4257
 4261SOL    HW124419   0.426   2.125   8.641  1.2602 -0.4457 -0.9791
 4261SOL    HW224420   0.409   2.261   8.694  0.1936  0.6479 -1.2524
 4262SOL     OW24421   3.713   2.359   5.375 -0.0546  0.2415 -0.0359
 4262SOL    HW124422   3.734   2.441   5.419 -0.1265  0.3994 -0.2980
 4262SOL    HW224423   3.622   2.355   5.404  0.0675  3.1687  0.7066
 4263SOL     OW24424   0.277   4.015   3.803  0.3288 -0.8805  0.0125
 4263SOL    HW124425   0.294   3.982   3.891  0.5108 -0.1120  0.2635
 4263SOL    HW224426   0.216   3.948   3.770 -1.6677 -0.1847  2.2322
 4264SOL     OW24427   4.044   3.135   2.785 -0.1273 -0.4840 -0.1264
 4264SOL    HW124428   4.029   3.223   2.820  1.0538  0.6910 -2.6116
 4264SOL    HW224429   4.132   3.121   2.819 -0.8167 -0.8907  1.5061
 4265SOL     OW24430   0.303   4.373   6.497 -0.1854  0.6623 -0.0092
 4265SOL    HW124431   0.397   4.353   6.492 -0.8270 -3.3136  3.3059
 4265SOL    HW224432   0.280   4.351   6.407 -0.7680  0.4249  0.1976
 4266SOL     OW24433   1.198   1.500   8.750  0.1516 -0.0520 -0.5106
 4266SOL    HW124434   1.249   1.420   8.760 -0.2817 -0.1574  0.9995
 4266SOL    HW224435   1.145   1.480   8.673 -2.4761 -0.7005  1.4360
 4267SOL     OW24436   3.337   2.268   4.523  0.1605  0.6477  0.2906
 4267SOL    HW124437   3.405   2.217   4.478 -1.5226  0.1112 -1.6347
 4267SOL    HW224438   3.278   2.193   4.533  0.0462  0.7052  0.0504
 4268SOL     OW24439   3.978   3.908   6.954  0.4426  0.0880  0.2895
 4268SOL    HW124440   3.956   3.910   7.047 -1.4511 -2.8108 -0.1155
 4268SOL    HW224441   3.908   3.962   6.919 -0.3406  0.0512  1.7966
 4269SOL     OW24442   2.137   3.598  12.280  0.2753 -0.1998 -0.1005
 4269SOL    HW124443   2.057   3.553  12.309  0.3392  0.1930  0.6642
 4269SOL    HW224444   2.104   3.687  12.270 -0.1130 -0.1947  1.2423
 4270SOL     OW24445   2.900   3.521  10.400 -0.1889  0.0374 -0.0384
 4270SOL    HW124446   2.960   3.594  10.384 -4.1581  3.3513 -0.0691
 4270SOL    HW224447   2.929   3.512  10.490  0.1353  0.8572 -0.0555
 4271SOL     OW24448   3.390   4.699   7.271  0.0392  0.0633  0.7241
 4271SOL    HW124449   3.468   0.011   7.296  1.5047 -1.3116 -1.2172
 4271SOL    HW224450   3.332   0.029   7.308  0.7322 -0.8204  3.4217
 4272SOL     OW24451   4.161   4.719  14.991 -0.2117  0.3662  0.2337
 4272SOL    HW124452   4.208   4.675  15.062 -1.9245  2.3286  2.5911
 4272SOL    HW224453   4.077   4.737  15.033 -0.5196  0.6582 -0.5073
 4273SOL     OW24454   0.347   3.219  12.262  0.1100 -0.0176  0.2648
 4273SOL    HW124455   0.401   3.143  12.283  0.9458 -0.3320 -3.1037
 4273SOL    HW224456   0.265   3.196  12.306  1.0219 -2.0386  0.8915
 4274SOL     OW24457   2.554   0.492   2.645 -0.4196  0.2106  0.0854
 4274SOL    HW124458   2.623   0.545   2.686 -0.3980 -0.7351  1.2889
 4274SOL    HW224459   2.587   0.404   2.664 -0.6111  0.1281  0.0329
 4275SOL     OW24460   1.561   1.514   7.657 -0.3668 -0.1729  0.9891
 4275SOL    HW124461   1.516   1.564   7.725 -0.3972  1.8686 -0.5710
 4275SOL    HW224462   1.487   1.472   7.613 -1.1225  2.8445 -0.5980
 4276SOL     OW24463   2.246   1.405   7.978  0.0056  0.5492  0.2242
 4276SOL    HW124464   2.203   1.427   8.061  0.9527  1.0556  0.5882
 4276SOL    HW224465   2.308   1.342   8.015 -0.4502  0.4807  0.8800
 4277SOL     OW24466   3.002   0.659   3.752  0.3211 -0.0663  0.7060
 4277SOL    HW124467   3.083   0.701   3.782  0.7330  0.3219 -0.9900
 4277SOL    HW224468   2.936   0.713   3.795  0.0068 -1.0126  1.3991
 4278SOL     OW24469   4.604   1.519  15.521 -0.0834  0.0495 -0.4580
 4278SOL    HW124470   4.515   1.538  15.552 -1.3782 -4.8364 -1.0787
 4278SOL    HW224471   4.596   1.532  15.427  0.8433  0.0933 -0.5275
 4279SOL     OW24472   2.869   2.249   7.366  0.3450 -0.1320  0.3350
 4279SOL    HW124473   2.867   2.283   7.455  1.5470  1.0757 -0.0950
 4279SOL    HW224474   2.897   2.158   7.377  4.1852  0.3715 -5.2696
 4280SOL     OW24475   3.091   0.795   7.009 -0.5218 -0.4719  0.8346
 4280SOL    HW124476   3.060   0.813   7.098  1.3957  0.9433  1.2178
 4280SOL    HW224477   3.017   0.826   6.955  1.7389  2.0377 -0.8781
 4281SOL     OW24478   1.086   2.438  15.234 -0.2889 -0.3219  0.4420
 4281SOL    HW124479   1.179   2.460  15.236 -0.5170  0.7318 -1.0795
 4281SOL    HW224480   1.065   2.393  15.152  0.7602  0.4160 -0.2264
 4282SOL     OW24481   0.417   3.785   6.200 -0.6810 -0.2459  0.1741
 4282SOL    HW124482   0.345   3.725   6.181  0.1767 -0.5764 -2.0696
 4282SOL    HW224483   0.376   3.865   6.166  1.4470  2.0473  2.9148
 4283SOL     OW24484   1.507   3.588   5.875 -0.0829 -0.4218  0.2350
 4283SOL    HW124485   1.452   3.662   5.850  2.5632  1.3570 -0.3606
 4283SOL    HW224486   1.533   3.559   5.787  2.6686  2.5374  0.0612
 4284SOL     OW24487   1.166   1.887   8.622  0.3395  0.0830 -0.2790
 4284SOL    HW124488   1.183   1.795   8.602  2.3731  0.2968  0.5236
 4284SOL    HW224489   1.234   1.923   8.565  0.1864  0.6540 -0.1022
 4285SOL     OW24490   0.344   0.022   6.724 -0.2385  0.4474 -0.2899
 4285SOL    HW124491   0.336   0.086   6.795 -0.8556 -0.3054  0.3243
 4285SOL    HW224492   0.405   0.070   6.668  0.8483  0.3948  0.8534
 4286SOL     OW24493   2.314   0.125   8.110 -0.1839 -0.0869  0.2119
 4286SOL    HW124494   2.369   0.046   8.103  1.7180  1.1712  0.9289
 4286SOL    HW224495   2.258   0.089   8.178 -0.7866  1.8347  0.7275
 4287SOL     OW24496   1.498   0.419   8.144  1.0119 -0.3719  0.3683
 4287SOL    HW124497   1.489   0.428   8.239 -0.5771  2.0217 -0.0050
 4287SOL    HW224498   1.592   0.405   8.136  1.1878  1.7491 -1.3234
 4288SOL     OW24499   3.958   3.353  15.949 -0.0662 -0.1065  0.1105
 4288SOL    HW124500   4.016   3.427  15.969 -0.4771  0.2674 -0.0907
 4288SOL    HW224501   4.018   3.294  15.902  1.2470  1.5883 -0.3457
 4289SOL     OW24502   2.910   1.778   3.734  0.3844  0.4500  0.2802
 4289SOL    HW124503   2.867   1.698   3.705  0.4268  0.3973  0.3629
 4289SOL    HW224504   2.920   1.772   3.828 -0.6851 -1.5931  0.2492
 4290SOL     OW24505   3.578   1.292   5.464 -0.3884  0.0798  0.8860
 4290SOL    HW124506   3.491   1.292   5.503 -1.0099 -1.5445 -0.4962
 4290SOL    HW224507   3.582   1.370   5.409 -2.1086  0.3822  1.2070
 4291SOL     OW24508   4.632   3.643  13.352 -0.0161 -0.0999 -0.2324
 4291SOL    HW124509   4.677   3.608  13.276  0.4336 -3.5243  1.6282
 4291SOL    HW224510   4.613   3.567  13.407 -0.7241 -2.3960 -3.6990
 4292SOL     OW24511   0.060   1.275   0.106  0.6727 -0.0485  0.2823
 4292SOL    HW124512   0.011   1.326   0.042  0.9302 -1.4669 -1.0431
 4292SOL    HW224513   0.068   1.191   0.061 -1.9898  0.3166 -0.8517
 4293SOL     OW24514   3.357   0.135  10.317  0.3087  0.2808 -0.1284
 4293SOL    HW124515   3.288   0.079  10.282  1.1335 -1.0021  0.2990
 4293SOL    HW224516   3.299   0.203  10.352 -2.0445 -1.9910  0.3924
 4294SOL     OW24517   0.508   2.164   0.543  0.0358 -0.0838 -0.3240
 4294SOL    HW124518   0.443   2.231   0.565  1.5658  0.9078  1.2212
 4294SOL    HW224519   0.545   2.204   0.465  1.5373 -0.3437  0.2491
 4295SOL     OW24520   4.247   2.804   2.002  0.1516 -0.0981 -0.4222
 4295SOL    HW124521   4.167   2.822   2.051  0.0622 -0.0841 -0.5735
 4295SOL    HW224522   4.276   2.732   2.058 -1.3597 -0.6657 -0.3830
 4296SOL     OW24523   2.404   4.556   2.998 -0.6757 -0.2664 -0.1091
 4296SOL    HW124524   2.431   4.469   2.969 -0.0939 -0.5669  1.3380
 4296SOL    HW224525   2.444   4.578   3.082 -0.5998 -1.5265  0.1808
 4297SOL     OW24526   1.425   4.573   5.734 -0.0258  0.0775  0.0046
 4297SOL    HW124527   1.388   4.506   5.793  1.0839 -1.4816 -1.0605
 4297SOL    HW224528   1.361   4.564   5.663  1.7446  1.6914 -1.7815
 4298SOL     OW24529   0.951   1.883  17.371 -0.3630 -0.4332 -0.6814
 4298SOL    HW124530   1.031   1.908  17.324 -0.8183 -1.2836 -1.9039
 4298SOL    HW224531   0.915   1.968  17.398  0.4312 -0.0278 -0.8679
 4299SOL     OW24532   1.031   3.331   4.805  0.5328 -0.3359  1.0304
 4299SOL    HW124533   1.125   3.317   4.802  0.6794  1.3178 -1.7030
 4299SOL    HW224534   1.006   3.241   4.784 -1.1551  0.1138  1.0715
 4300SOL     OW24535   0.601   2.522   1.513 -0.7094 -0.6088 -0.2076
 4300SOL    HW124536   0.635   2.579   1.582 -0.9272  2.6725 -2.7729
 4300SOL    HW224537   0.515   2.560   1.496 -0.8345  0.6104  3.2870
 4301SOL     OW24538   0.905   0.564   2.906  0.5120 -0.0572  0.2259
 4301SOL    HW124539   0.941   0.636   2.855 -1.1741  1.4314  1.1279
 4301SOL    HW224540   0.880   0.501   2.838  0.5866  1.6364 -1.3458
 4302SOL     OW24541   3.925   2.140   4.408  0.3836  0.0905 -0.0937
 4302SOL    HW124542   3.998   2.187   4.448 -0.0251 -0.1961  0.9736
 4302SOL    HW224543   3.969   2.082   4.346  2.0788  1.3998 -0.1193
 4303SOL     OW24544   4.324   3.616  10.067  0.3922  0.1465  0.2100
 4303SOL    HW124545   4.311   3.535  10.018  1.4482 -0.3299  0.7335
 4303SOL    HW224546   4.265   3.671  10.014  0.4594 -0.7900 -0.8281
 4304SOL     OW24547   1.050   4.522   6.664  0.2517  0.1904  0.2709
 4304SOL    HW124548   0.970   4.556   6.624 -0.0378 -1.2292 -0.3510
 4304SOL    HW224549   1.101   4.501   6.586  0.9205 -1.2628  1.0950
 4305SOL     OW24550   3.687   3.014  14.522 -0.4330 -0.2135 -0.3050
 4305SOL    HW124551   3.594   2.995  14.513 -0.8060  0.8550  1.4066
 4305SOL    HW224552   3.726   2.987  14.439  0.7718 -1.5239  0.6957
 4306SOL     OW24553   3.052   1.744   0.107 -0.0998  0.1146 -0.1519
 4306SOL    HW124554   3.027   1.662   0.065  0.7608 -0.9627  1.4543
 4306SOL    HW224555   3.141   1.749   0.072  0.4986  1.3286  1.5261
 4307SOL     OW24556   2.781   0.500  14.204  0.5583  0.5575  0.0989
 4307SOL    HW124557   2.714   0.483  14.271 -0.2452  0.7621 -0.6454
 4307SOL    HW224558   2.717   0.510  14.133  2.4584 -1.5845 -1.9087
 4308SOL     OW24559   4.684   0.431  14.260 -0.3971  0.1516  0.6840
 4308SOL    HW124560   4.668   0.401  14.171 -2.4102 -1.6867  1.6820
 4308SOL    HW224561   4.595   0.447  14.290 -1.4180 -1.4669 -1.5489
 4309SOL     OW24562   3.376   2.367  11.424 -0.3739 -0.4155 -0.0279
 4309SOL    HW124563   3.312   2.394  11.358  0.0664  1.5274  0.3304
 4309SOL    HW224564   3.459   2.355  11.377  1.7912  0.5893  3.5407
 4310SOL     OW24565   0.302   3.541   8.982  0.0348 -0.4917  0.3284
 4310SOL    HW124566   0.220   3.491   8.982  0.4468 -1.1741  0.5711
 4310SOL    HW224567   0.311   3.584   8.898  0.3919 -0.1789  0.5271
 4311SOL     OW24568   0.855   4.227   3.353  0.3225  0.2440  0.4562
 4311SOL    HW124569   0.834   4.145   3.397 -0.6019 -1.2506 -2.8037
 4311SOL    HW224570   0.950   4.224   3.349  0.2176 -1.3456 -0.6246
 4312SOL     OW24571   4.544   3.650  12.434  0.1757 -0.5156  0.3671
 4312SOL    HW124572   4.456   3.688  12.429  0.8548  1.0789  0.5298
 4312SOL    HW224573   4.545   3.603  12.517  1.3586 -1.9041 -0.4477
 4313SOL     OW24574   4.268   4.510   6.006 -0.1005 -0.0765 -0.1035
 4313SOL    HW124575   4.362   4.519   6.026  0.0018  2.9033 -2.0489
 4313SOL    HW224576   4.273   4.576   5.938  3.4220  1.1160  1.2785
 4314SOL     OW24577   0.890   0.642   4.881 -0.2152 -0.0913  0.8493
 4314SOL    HW124578   0.947   0.606   4.814  1.3287 -0.7788  2.5253
 4314SOL    HW224579   0.814   0.676   4.835  1.4406 -2.0447 -3.2793
 4315SOL     OW24580   0.692   0.006   9.883  0.2082 -0.2994  0.2090
 4315SOL    HW124581   0.622   0.043   9.935 -0.4686 -1.8608  0.3968
 4315SOL    HW224582   0.696   0.059   9.803 -0.8531 -0.3493  0.1224
 4316SOL     OW24583   3.213   1.000   3.837 -0.2008 -0.6550 -0.9456
 4316SOL    HW124584   3.202   1.082   3.788 -1.0610 -0.4251 -0.3636
 4316SOL    HW224585   3.132   0.986   3.886  0.9293 -2.2772  0.4488
 4317SOL     OW24586   1.108   2.729   1.346  0.3217  0.4159 -0.6103
 4317SOL    HW124587   1.043   2.776   1.398 -0.2912  0.2212 -1.2042
 4317SOL    HW224588   1.163   2.688   1.413  0.3699 -1.5208 -1.8354
 4318SOL     OW24589   2.857   1.075   6.118 -0.1202 -0.4032  0.1710
 4318SOL    HW124590   2.889   1.044   6.033 -0.4783  1.2086 -0.5608
 4318SOL    HW224591   2.776   1.125   6.106 -0.5347 -0.6982  1.7789
 4319SOL     OW24592   2.110   4.575   6.320  0.3989  0.5444 -0.0258
 4319SOL    HW124593   2.135   4.614   6.236 -1.9082 -1.4805 -1.6667
 4319SOL    HW224594   2.029   4.621   6.341  0.7134  0.8449  0.5308
 4320SOL     OW24595   1.560   4.288   8.798 -0.0298  0.1553 -0.1870
 4320SOL    HW124596   1.639   4.233   8.790 -1.8828 -2.2276 -2.3175
 4320SOL    HW224597   1.494   4.223   8.822  0.6235 -0.6237 -0.4776
 4321SOL     OW24598   0.227   1.708  15.517  0.1394  0.2017  0.5985
 4321SOL    HW124599   0.172   1.777  15.481  2.9582  2.5926  0.8476
 4321SOL    HW224600   0.165   1.654  15.566 -2.0740  3.0834  0.9395
 4322SOL     OW24601   1.485   2.794   3.581  0.4494 -0.3800 -0.2756
 4322SOL    HW124602   1.506   2.809   3.673 -1.0159  3.5122 -0.5843
 4322SOL    HW224603   1.391   2.777   3.580  0.3610  0.1759 -2.2593
 4323SOL     OW24604   2.334   2.053   9.022  0.0710 -0.0877  0.7201
 4323SOL    HW124605   2.302   2.003   9.097  1.2744 -0.3263  1.0772
 4323SOL    HW224606   2.256   2.091   8.981 -0.1897 -0.5336  0.7947
 4324SOL     OW24607   1.445   1.504   8.604  0.5611  0.6410  0.0073
 4324SOL    HW124608   1.541   1.501   8.613  0.4350  1.5347  1.6848
 4324SOL    HW224609   1.425   1.555   8.526  2.1001  0.6099 -0.4184
 4325SOL     OW24610   4.156   3.676   2.692  0.3573 -0.1723  0.6872
 4325SOL    HW124611   4.157   3.670   2.787  1.6127  2.6953  0.8772
 4325SOL    HW224612   4.248   3.683   2.666 -0.4316  1.1299 -1.8074
 4326SOL     OW24613   3.744   2.752   2.812 -0.0427  0.1627  0.0618
 4326SOL    HW124614   3.760   2.818   2.745  0.7714  1.7482  1.8061
 4326SOL    HW224615   3.778   2.670   2.776 -1.3142 -0.0370 -0.6700
 4327SOL     OW24616   3.807   2.808  17.339  0.1168 -0.3280  0.2526
 4327SOL    HW124617   3.899   2.831  17.332  0.3863 -1.3491  0.4722
 4327SOL    HW224618   3.806   2.720  17.376  0.7425 -0.4716 -0.0807
 4328SOL     OW24619   0.324   1.868   4.113  0.1307 -0.6856 -0.0019
 4328SOL    HW124620   0.281   1.786   4.141  1.1444 -1.3063 -0.2836
 4328SOL    HW224621   0.328   1.912   4.198 -0.0431  3.3206 -2.0741
 4329SOL     OW24622   3.564   1.550   9.391 -0.5675 -0.3905  0.2202
 4329SOL    HW124623   3.567   1.510   9.305  0.5363 -0.7163  0.4103
 4329SOL    HW224624   3.623   1.625   9.378  0.7299 -1.3353  0.6455
 4330SOL     OW24625   0.089   4.217  14.685  0.5285  0.5998 -0.2801
 4330SOL    HW124626   0.067   4.136  14.731 -2.1967  0.5122 -1.7475
 4330SOL    HW224627   0.166   4.248  14.735  2.0552 -1.2838 -1.4703
 4331SOL     OW24628   3.345   0.569  14.601  0.0058 -0.3768  0.2079
 4331SOL    HW124629   3.346   0.497  14.537 -0.9752 -0.3663  0.1881
 4331SOL    HW224630   3.261   0.605  14.573 -0.6521 -2.7841 -0.9025
 4332SOL     OW24631   3.513   3.715   3.277 -0.4473 -0.0461 -0.5216
 4332SOL    HW124632   3.470   3.799   3.256 -2.4444 -0.2655  2.7266
 4332SOL    HW224633   3.441   3.667   3.317 -0.4586  0.3141 -0.1065
 4333SOL     OW24634   3.405   3.330  11.005 -0.5781  0.1274  0.3719
 4333SOL    HW124635   3.470   3.292  11.064 -0.6321  1.0406  1.0264
 4333SOL    HW224636   3.444   3.407  10.963 -2.6499  0.9090 -0.1561
 4334SOL     OW24637   2.043   1.305   1.240  0.5385  0.4046 -0.1548
 4334SOL    HW124638   2.032   1.216   1.274 -2.4010  0.9865  0.3805
 4334SOL    HW224639   1.971   1.349   1.285  1.1680 -0.8583  2.1184
 4335SOL     OW24640   4.666   4.572   6.503 -0.1206  1.3507 -0.2146
 4335SOL    HW124641   4.714   4.624   6.568  0.8458 -1.3660  1.2276
 4335SOL    HW224642   4.576   4.604   6.500 -0.7573 -0.6387 -2.0683
 4336SOL     OW24643   2.630   4.104   4.013 -0.6153  0.0225  0.4137
 4336SOL    HW124644   2.584   4.060   3.942  2.3526 -1.9597 -0.2783
 4336SOL    HW224645   2.616   4.064   4.099 -2.8355  0.8849  0.4590
 4337SOL     OW24646   0.576   4.160   8.695 -0.2314  0.1508  0.2556
 4337SOL    HW124647   0.525   4.232   8.733 -1.1969 -0.3591 -0.0734
 4337SOL    HW224648   0.596   4.102   8.768 -1.5617 -1.5004 -0.7022
 4338SOL     OW24649   3.154   0.887  13.295  0.7324 -0.3403 -0.3262
 4338SOL    HW124650   3.161   0.906  13.202 -0.1912  0.2372 -0.2711
 4338SOL    HW224651   3.234   0.838  13.311  1.3819  0.8546  0.0680
 4339SOL     OW24652   0.077   1.233  14.780  0.1592 -0.5603  0.3268
 4339SOL    HW124653   0.004   1.196  14.731  0.2959 -0.1752 -0.1653
 4339SOL    HW224654   0.129   1.270  14.709 -3.2628  2.8318 -0.3975
 4340SOL     OW24655   2.476   2.429   5.820  0.2858  0.0940 -0.4965
 4340SOL    HW124656   2.525   2.445   5.901  0.3157  0.3072 -0.5590
 4340SOL    HW224657   2.547   2.425   5.756  1.3615 -1.0113  0.7416
 4341SOL     OW24658   4.669   2.578  17.631  0.1284  0.4064 -0.2396
 4341SOL    HW124659   4.688   2.652  17.688  0.2547 -0.3765  0.7281
 4341SOL    HW224660   4.625   2.514  17.687  0.7586  1.8980  1.9716
 4342SOL     OW24661   0.823   3.823  10.644  0.7418 -0.4641 -0.6201
 4342SOL    HW124662   0.918   3.813  10.633  0.9350  0.9329 -0.3206
 4342SOL    HW224663   0.809   3.810  10.737 -1.4082  1.3129 -0.7049
 4343SOL     OW24664   2.064   2.935  11.973  0.6726  0.0274 -0.2900
 4343SOL    HW124665   2.024   3.014  12.010  0.3213 -1.4088  2.3518
 4343SOL    HW224666   1.984   2.889  11.950 -0.4651  2.2284 -0.7606
 4344SOL     OW24667   0.096   3.713  12.409  0.0677 -0.4062 -0.4272
 4344SOL    HW124668   0.003   3.696  12.421 -0.2676  1.0663 -0.9227
 4344SOL    HW224669   0.125   3.779  12.472 -1.7490  0.5262 -0.5864
 4345SOL     OW24670   0.067   0.089   7.696 -0.2109 -0.2806  0.3580
 4345SOL    HW124671   0.039   0.117   7.783  0.7565 -0.9737  0.8889
 4345SOL    HW224672   0.128   0.018   7.716  0.4323 -0.2805 -1.5807
 4346SOL     OW24673   2.653   3.386  13.582  0.2880  0.8085  0.7366
 4346SOL    HW124674   2.732   3.438  13.571  1.2077 -0.7891 -0.3344
 4346SOL    HW224675   2.636   3.404  13.674 -0.0803 -1.2429  1.0717
 4347SOL     OW24676   0.854   2.725   3.250  0.3390  0.1086 -0.3454
 4347SOL    HW124677   0.874   2.670   3.174 -1.3424  1.6276 -1.8882
 4347SOL    HW224678   0.813   2.661   3.309 -0.8796  0.5754 -0.6977
 4348SOL     OW24679   4.643   2.238   2.075  0.3475  0.6904 -0.7385
 4348SOL    HW124680   4.699   2.288   2.016  1.7096 -1.6291 -1.4267
 4348SOL    HW224681   4.573   2.300   2.095  0.4899  0.6493 -0.1249
 4349SOL     OW24682   2.068   4.136   5.435 -0.3790 -0.6838 -0.5746
 4349SOL    HW124683   2.144   4.079   5.435  1.3996  1.7033 -0.6330
 4349SOL    HW224684   2.058   4.143   5.340 -0.0766  0.6615 -0.5049
 4350SOL     OW24685   4.452   1.224   3.329 -0.3261  0.6026  0.1065
 4350SOL    HW124686   4.488   1.188   3.248 -0.2465  2.1164 -0.5319
 4350SOL    HW224687   4.373   1.265   3.294 -0.7230 -0.6247 -0.4230
 4351SOL     OW24688   2.435   2.973   0.021 -0.3309 -0.6174  0.7084
 4351SOL    HW124689   2.405   2.886   0.047 -3.3952  1.2757  3.4797
 4351SOL    HW224690   2.357   3.000  17.721  0.0713 -0.0189  0.3966
 4352SOL     OW24691   1.189   3.756  11.225 -0.9130  0.0814 -0.1319
 4352SOL    HW124692   1.103   3.714  11.221 -0.8985 -0.0879  1.2038
 4352SOL    HW224693   1.212   3.742  11.317  0.4570 -0.5822 -0.5714
 4353SOL     OW24694   2.053   3.004   6.134 -0.2333 -0.2267 -0.2626
 4353SOL    HW124695   1.990   3.015   6.063 -0.6150  0.0262  0.1129
 4353SOL    HW224696   1.994   3.041   6.199  1.7278  1.1551  0.7637
 4354SOL     OW24697   0.093   0.018   0.868  0.1495 -0.1386 -0.1719
 4354SOL    HW124698   0.168   4.727   0.816  1.4897  0.7984  1.2523
 4354SOL    HW224699   0.031   4.686   0.845 -0.1724 -0.3264  1.2575
 4355SOL     OW24700   1.318   2.228   4.515  0.2680  0.0359  0.2492
 4355SOL    HW124701   1.338   2.142   4.477  2.0666  0.6686 -0.2517
 4355SOL    HW224702   1.270   2.267   4.443 -1.1287 -1.1100  0.5666
 4356SOL     OW24703   1.554   2.122   1.601  0.2828 -0.5525 -0.2331
 4356SOL    HW124704   1.588   2.074   1.677 -0.5269 -0.7565  0.0078
 4356SOL    HW224705   1.613   2.196   1.595  1.5163 -1.6523 -1.4622
 4357SOL     OW24706   2.423   3.319   2.769 -0.4543  0.1831  0.7744
 4357SOL    HW124707   2.441   3.356   2.856  1.2337  0.9214  0.1005
 4357SOL    HW224708   2.473   3.238   2.785  0.2873  0.7398  1.3057
 4358SOL     OW24709   1.682   1.757   5.642  0.3214  0.0810  0.7039
 4358SOL    HW124710   1.700   1.770   5.735  1.6405  0.6095  0.3662
 4358SOL    HW224711   1.753   1.804   5.599 -0.4862  1.2780  0.6950
 4359SOL     OW24712   1.123   3.997   8.226  0.0347 -0.2066  0.3025
 4359SOL    HW124713   1.173   3.958   8.155 -1.6894 -0.8856 -0.5313
 4359SOL    HW224714   1.048   4.008   8.168  0.8986  0.3346 -0.7038
 4360SOL     OW24715   0.359   4.207   2.955  0.2158  0.0992 -0.2871
 4360SOL    HW124716   0.427   4.144   2.978  0.5808  1.0049  1.1704
 4360SOL    HW224717   0.277   4.159   2.967 -0.4352  1.3396  0.3505
 4361SOL     OW24718   4.124   1.414  11.507  0.6563 -0.2753  0.4929
 4361SOL    HW124719   4.199   1.376  11.460  0.1855 -0.5771 -0.0157
 4361SOL    HW224720   4.045   1.382  11.463  1.4983 -0.4945 -0.8674
 4362SOL     OW24721   3.339   2.386   5.040  0.4942 -0.1545  0.1674
 4362SOL    HW124722   3.388   2.374   4.959  0.6544 -1.0068  0.3986
 4362SOL    HW224723   3.273   2.317   5.033 -1.3448  1.6653 -0.5683
 4363SOL     OW24724   2.131   1.112   6.348 -0.2475  0.0126  0.5267
 4363SOL    HW124725   2.188   1.135   6.274 -1.6759 -1.4581 -1.0433
 4363SOL    HW224726   2.091   1.028   6.326 -0.6235  0.7560 -1.6205
 4364SOL     OW24727   0.338   2.334  12.443  0.3099  0.5197 -0.2619
 4364SOL    HW124728   0.270   2.276  12.407  0.5659  1.2870 -1.9872
 4364SOL    HW224729   0.397   2.269  12.481  0.2932  0.9292  0.4589
 4365SOL     OW24730   2.082   2.639   2.894 -0.0465  0.0093  0.0535
 4365SOL    HW124731   2.104   2.586   2.817 -0.4641  1.0242 -0.7573
 4365SOL    HW224732   2.087   2.583   2.972  0.5981  1.2317  0.9000
 4366SOL     OW24733   4.570   3.333   5.755  0.5124  0.3739  0.5307
 4366SOL    HW124734   4.649   3.290   5.786  0.6015  0.1766  0.0364
 4366SOL    HW224735   4.507   3.261   5.766  0.4090  0.3840 -0.0004
 4367SOL     OW24736   4.540   4.222   2.048 -0.5698  0.4753  0.3079
 4367SOL    HW124737   4.628   4.223   2.010  0.2273  1.3035  2.2122
 4367SOL    HW224738   4.511   4.144   2.000  2.2069  0.7182 -1.7994
 4368SOL     OW24739   4.219   0.213   1.233  0.2429 -0.3679  0.3246
 4368SOL    HW124740   4.129   0.189   1.257 -0.6320  2.1507 -0.4206
 4368SOL    HW224741   4.248   0.131   1.195 -0.1699 -0.1532 -0.4462
 4369SOL     OW24742   1.187   4.254   4.306 -0.2506 -0.0956 -0.2307
 4369SOL    HW124743   1.172   4.246   4.212  0.0862 -1.2995 -0.1933
 4369SOL    HW224744   1.101   4.275   4.343 -0.4920  0.5433 -1.1812
 4370SOL     OW24745   0.628   2.019  14.413 -0.4341 -0.6180 -0.3755
 4370SOL    HW124746   0.606   2.007  14.505  1.1708  2.2995  0.3648
 4370SOL    HW224747   0.576   2.096  14.392  0.8298 -0.4899 -3.0183
 4371SOL     OW24748   3.526   0.946   8.137 -0.3570 -0.0662  0.1447
 4371SOL    HW124749   3.514   0.876   8.073  1.8883  1.8526 -2.3866
 4371SOL    HW224750   3.618   0.929   8.155 -0.1498 -1.2912 -2.1172
 4372SOL     OW24751   3.133   0.526   4.087  0.3014  0.1298  0.3177
 4372SOL    HW124752   3.067   0.468   4.050  1.0906 -0.4936 -0.1041
 4372SOL    HW224753   3.208   0.506   4.030  0.3622 -0.4280  0.5968
 4373SOL     OW24754   4.416   2.536  15.860 -0.3660 -0.5107 -0.0738
 4373SOL    HW124755   4.436   2.443  15.866 -0.1716 -0.5405 -1.2403
 4373SOL    HW224756   4.505   2.572  15.866 -0.5590  0.0183 -0.3498
 4374SOL     OW24757   1.942   2.623   8.258 -0.2340 -0.1209  0.1750
 4374SOL    HW124758   1.999   2.551   8.285  0.6187 -0.0899 -1.5367
 4374SOL    HW224759   1.964   2.636   8.165  2.2015  0.0599  0.7642
 4375SOL     OW24760   2.644   3.393   9.423  0.1152  0.2555 -0.2073
 4375SOL    HW124761   2.720   3.424   9.472 -1.5136  2.0160  1.2314
 4375SOL    HW224762   2.613   3.465   9.367 -1.8235  0.9188  1.7263
 4376SOL     OW24763   1.983   1.963   2.008  0.4812  0.2420  0.6282
 4376SOL    HW124764   1.942   2.038   2.050  0.1238  1.1396 -1.3138
 4376SOL    HW224765   2.047   2.006   1.951  0.7401 -2.2661 -1.0025
 4377SOL     OW24766   0.557   3.367  12.432  0.0469 -0.2696  0.2392
 4377SOL    HW124767   0.567   3.445  12.377 -0.5744  1.0481  1.9799
 4377SOL    HW224768   0.518   3.315  12.362  0.3152  2.1312 -1.6947
 4378SOL     OW24769   2.633   2.206   3.098 -0.0845 -0.5845  0.3729
 4378SOL    HW124770   2.620   2.232   3.189  1.1261 -0.8334  0.6236
 4378SOL    HW224771   2.674   2.121   3.114 -0.6366 -0.7839  0.7263
 4379SOL     OW24772   4.501   4.016   5.747  0.2520 -0.2468 -0.0530
 4379SOL    HW124773   4.584   3.989   5.787  0.9033  0.6758 -0.7590
 4379SOL    HW224774   4.536   4.025   5.658 -3.0718  0.6941 -1.2428
 4380SOL     OW24775   3.710   3.756  15.803 -0.1178  0.0648  0.2360
 4380SOL    HW124776   3.751   3.785  15.722  1.4084 -0.3857  0.8387
 4380SOL    HW224777   3.629   3.805  15.785  0.0457 -0.1154 -0.9807
 4381SOL     OW24778   2.539   4.026   8.542 -0.2835 -0.0541 -0.1512
 4381SOL    HW124779   2.485   3.969   8.596 -1.3342  0.2385 -0.8887
 4381SOL    HW224780   2.471   4.062   8.485  0.5274  1.2263 -0.3083
 4382SOL     OW24781   2.957   1.425  10.120 -0.1749  0.4365  0.1220
 4382SOL    HW124782   2.953   1.513  10.083 -3.1083  0.0912 -0.3484
 4382SOL    HW224783   2.890   1.380  10.069 -1.2249 -0.0338  1.8848
 4383SOL     OW24784   0.537   3.400   3.446  0.1413  0.1776  0.4101
 4383SOL    HW124785   0.491   3.380   3.527 -0.1362 -1.4169 -0.1400
 4383SOL    HW224786   0.577   3.314   3.437 -0.9327 -0.1346 -1.4273
 4384SOL     OW24787   1.018   0.351   5.596  0.0960 -0.1470  0.2640
 4384SOL    HW124788   1.043   0.259   5.609 -2.0240 -0.9969 -1.6148
 4384SOL    HW224789   0.962   0.346   5.518 -1.1140 -3.6966  1.3658
 4385SOL     OW24790   4.314   3.543   1.443 -0.0302  0.1162 -0.7754
 4385SOL    HW124791   4.317   3.619   1.385 -0.1796  0.7074 -0.0120
 4385SOL    HW224792   4.405   3.528   1.468  0.5589  1.7458 -1.9556
 4386SOL     OW24793   4.522   3.542  12.708  0.4221  0.9064  0.1085
 4386SOL    HW124794   4.536   3.449  12.689 -2.8406  0.1042  1.7045
 4386SOL    HW224795   4.479   3.542  12.793 -2.0166 -0.4006 -1.1385
 4387SOL     OW24796   3.200   4.057   6.511  0.6917  0.3412  0.4640
 4387SOL    HW124797   3.197   3.961   6.502  0.2710  0.3945  0.0445
 4387SOL    HW224798   3.163   4.099   6.433 -0.4473 -2.1191 -0.3393
 4388SOL     OW24799   3.390   1.478   4.535 -0.2675  0.1532  0.2209
 4388SOL    HW124800   3.365   1.505   4.447 -0.4614 -0.2078  0.1647
 4388SOL    HW224801   3.306   1.435   4.551  0.4085 -0.4061  2.3645
 4389SOL     OW24802   2.395   1.953  14.180 -0.4432  0.5714  0.1720
 4389SOL    HW124803   2.354   2.023  14.231  1.9996  0.1562  2.6826
 4389SOL    HW224804   2.349   1.969  14.098 -0.3428  2.5397  0.4976
 4390SOL     OW24805   0.579   3.556   8.823  0.2077 -0.1732  0.5471
 4390SOL    HW124806   0.541   3.644   8.822 -0.0349 -0.2608  1.4607
 4390SOL    HW224807   0.655   3.563   8.767 -0.7307 -2.0149 -0.9390
 4391SOL     OW24808   0.460   0.084   9.163  0.1429 -0.0374 -0.4447
 4391SOL    HW124809   0.408   0.134   9.100 -1.7193  1.5619  2.3318
 4391SOL    HW224810   0.406   0.083   9.242 -0.5170 -0.6031 -0.9056
 4392SOL     OW24811   0.096   3.848   8.171  0.0663 -0.3695  0.2176
 4392SOL    HW124812   0.115   3.924   8.226  2.0906 -1.0570  0.4625
 4392SOL    HW224813   0.001   3.840   8.180 -0.1733  2.8030  0.6749
 4393SOL     OW24814   1.826   4.315   6.974  0.3204  0.5542 -0.4502
 4393SOL    HW124815   1.844   4.224   6.999 -0.6583  0.3544 -0.4729
 4393SOL    HW224816   1.896   4.338   6.913 -0.2846  1.5615 -0.7629
 4394SOL     OW24817   3.004   2.825   7.416 -0.0618  0.0585 -0.3719
 4394SOL    HW124818   3.078   2.766   7.406  0.9280  0.9507  1.8609
 4394SOL    HW224819   2.969   2.846   7.329 -2.4848 -0.5125  0.4647
 4395SOL     OW24820   1.622   4.439   2.411  0.4841 -0.0088  0.4712
 4395SOL    HW124821   1.653   4.442   2.321  0.2984 -0.2516  0.3964
 4395SOL    HW224822   1.683   4.505   2.442  0.4073  0.7554 -1.0115
 4396SOL     OW24823   3.633   2.973  15.780 -0.1837  0.1404  0.0390
 4396SOL    HW124824   3.575   3.049  15.789 -0.3882 -0.0824  0.6514
 4396SOL    HW224825   3.571   2.908  15.747  0.9403 -0.6075 -0.5966
 4397SOL     OW24826   1.747   0.695   5.514 -0.7292 -0.4409  0.3818
 4397SOL    HW124827   1.759   0.779   5.559 -2.1230  1.4379 -2.7907
 4397SOL    HW224828   1.808   0.640   5.563 -0.4849 -0.4228  0.0995
 4398SOL     OW24829   0.341   3.990   3.260 -0.6908  0.0750 -0.6247
 4398SOL    HW124830   0.431   4.009   3.233 -0.5703  0.2440 -0.1055
 4398SOL    HW224831   0.355   3.974   3.353  3.0920  1.4179 -0.9508
 4399SOL     OW24832   0.953   1.858  15.735 -0.5526  0.0579  0.0963
 4399SOL    HW124833   0.894   1.820  15.671 -1.6951 -0.3666  1.4183
 4399SOL    HW224834   0.887   1.893  15.795  0.5830  0.3707  1.1596
 4400SOL     OW24835   3.588   3.176   6.211 -0.3077  0.4460 -0.6249
 4400SOL    HW124836   3.495   3.154   6.202 -0.3329  0.1564  0.3910
 4400SOL    HW224837   3.583   3.271   6.216  1.5698  0.5089  0.0996
 4401SOL     OW24838   1.372   1.388   4.092  0.0138  0.4336  0.8903
 4401SOL    HW124839   1.383   1.419   4.002  0.3682 -0.0906  0.7470
 4401SOL    HW224840   1.432   1.314   4.081 -0.6181  0.0463  0.0171
 4402SOL     OW24841   4.593   3.563   2.663  0.0672  0.1607 -0.9390
 4402SOL    HW124842   4.617   3.591   2.751 -3.0258 -2.2856  0.7043
 4402SOL    HW224843   4.528   3.626   2.632 -0.0944  1.0267  1.1523
 4403SOL     OW24844   4.285   1.245   5.562 -0.0686  0.1804  0.3502
 4403SOL    HW124845   4.256   1.189   5.634 -4.2144  1.0600 -0.6443
 4403SOL    HW224846   4.338   1.180   5.516 -0.0427  0.5017 -0.0742
 4404SOL     OW24847   4.439   0.130  16.090 -0.0071  0.3327 -0.6064
 4404SOL    HW124848   4.492   0.172  16.023  2.4923 -1.6735  0.1028
 4404SOL    HW224849   4.501   0.141  16.162 -1.6073  0.4745  0.7839
 4405SOL     OW24850   3.533   2.880   9.785  0.0744 -0.4664 -0.0181
 4405SOL    HW124851   3.560   2.818   9.716 -0.2492 -1.2320  0.5408
 4405SOL    HW224852   3.600   2.946   9.775  1.5677 -2.3165 -2.3507
 4406SOL     OW24853   2.859   3.936  16.552  0.9662  0.6226 -0.6970
 4406SOL    HW124854   2.913   3.879  16.607  1.4444  0.0575 -1.7357
 4406SOL    HW224855   2.880   3.903  16.464  2.0340  1.0231 -0.5918
 4407SOL     OW24856   4.452   3.719   1.833  0.9869 -0.4726 -0.7357
 4407SOL    HW124857   4.394   3.740   1.907  0.5513  0.7608 -1.4350
 4407SOL    HW224858   4.510   3.667   1.888  2.9493  2.8170  0.3213
 4408SOL     OW24859   4.217   2.968   4.411 -0.6844 -0.9262  0.0529
 4408SOL    HW124860   4.197   2.884   4.453  1.8573 -1.7868 -0.4950
 4408SOL    HW224861   4.235   2.942   4.321 -2.2859  2.0518 -1.1318
 4409SOL     OW24862   0.735   3.865   5.571  0.1308 -0.2596  0.2255
 4409SOL    HW124863   0.787   3.870   5.652  0.4103  2.1291 -0.1073
 4409SOL    HW224864   0.759   3.776   5.548 -1.9119 -0.3638 -1.4686
 4410SOL     OW24865   2.492   1.806   5.481  0.8489 -0.6760 -0.4131
 4410SOL    HW124866   2.456   1.729   5.438  0.0103  1.0668 -2.8434
 4410SOL    HW224867   2.438   1.821   5.559 -0.6964 -0.1830 -1.5708
 4411SOL     OW24868   2.519   3.858  14.892 -0.0725  0.3438 -0.0276
 4411SOL    HW124869   2.451   3.790  14.891 -0.1911  0.4913 -2.3763
 4411SOL    HW224870   2.520   3.899  14.978  1.3944  1.0782 -0.3844
 4412SOL     OW24871   4.048   1.997   6.391 -0.0337  0.5701  0.3080
 4412SOL    HW124872   4.057   2.005   6.296 -0.5644  1.5165  0.3377
 4412SOL    HW224873   3.997   1.916   6.396 -0.7567  1.0038 -0.0753
 4413SOL     OW24874   3.504   0.941   2.757  0.3529 -0.1451  0.0898
 4413SOL    HW124875   3.420   0.966   2.718  0.0119 -1.6578 -0.1529
 4413SOL    HW224876   3.515   0.852   2.725  2.9288 -0.0672  0.7201
 4414SOL     OW24877   0.633   4.051   9.277  0.6184  0.5139  0.4498
 4414SOL    HW124878   0.580   4.069   9.199  1.9237  0.4509 -0.4614
 4414SOL    HW224879   0.587   3.982   9.325 -0.9609  0.2112 -1.4926
 4415SOL     OW24880   4.312   2.071  17.145 -0.2036 -0.3795  0.1854
 4415SOL    HW124881   4.377   2.019  17.193  1.4420  1.1004 -0.4677
 4415SOL    HW224882   4.348   2.084  17.057 -1.7520 -1.8715 -0.6758
 4416SOL     OW24883   2.622   0.899  15.823  0.0820 -0.4461  0.0147
 4416SOL    HW124884   2.527   0.909  15.809 -0.0017 -1.7606 -0.2986
 4416SOL    HW224885   2.628   0.807  15.801 -2.4464 -0.5662 -0.2235
 4417SOL     OW24886   0.662   1.941  13.769  0.5251 -0.0834 -0.3566
 4417SOL    HW124887   0.652   1.913  13.860 -0.8189 -0.6893 -0.6879
 4417SOL    HW224888   0.715   2.019  13.786  0.2952 -0.8464  3.8099
 4418SOL     OW24889   4.271   1.430   2.098 -0.0744 -0.1465  0.6633
 4418SOL    HW124890   4.223   1.477   2.166  1.1822 -0.1927  1.5799
 4418SOL    HW224891   4.360   1.458   2.117 -0.5374  0.8238  1.3901
 4419SOL     OW24892   3.550   1.246  13.169 -0.8414  0.4358 -0.6552
 4419SOL    HW124893   3.548   1.342  13.173  1.2513  0.5166 -1.4735
 4419SOL    HW224894   3.634   1.237  13.214 -0.6781 -0.8358 -1.2287
 4420SOL     OW24895   3.375   0.152   6.449  0.4430  0.0848 -0.0875
 4420SOL    HW124896   3.426   0.231   6.435 -1.7272  1.1962 -1.7551
 4420SOL    HW224897   3.404   0.127   6.537 -0.6187  0.1519  0.2806
 4421SOL     OW24898   2.960   3.628   2.438  0.0242 -0.3087  0.2412
 4421SOL    HW124899   2.923   3.716   2.429 -1.1086 -0.8933 -0.9218
 4421SOL    HW224900   2.897   3.583   2.494  0.3391 -0.0807  0.7771
 4422SOL     OW24901   3.648   1.273   4.420  0.5347  0.2068  0.1601
 4422SOL    HW124902   3.659   1.333   4.493 -0.6977 -0.8092  1.1814
 4422SOL    HW224903   3.739   1.242   4.417  0.2543 -0.5306 -0.7205
 4423SOL     OW24904   3.479   1.714   1.283 -0.3583 -0.2668  0.6043
 4423SOL    HW124905   3.434   1.633   1.261  3.0763 -2.1121  0.3963
 4423SOL    HW224906   3.478   1.772   1.207 -4.1342 -2.6778 -1.1799
 4424SOL     OW24907   0.316   4.731  13.267 -0.4671 -0.6051 -0.3801
 4424SOL    HW124908   0.394   4.720  13.213  0.1991  0.2975  0.4076
 4424SOL    HW224909   0.300   4.640  13.295  1.1963 -1.2525 -1.5436
 4425SOL     OW24910   1.576   2.395   6.377  0.4384  0.2954 -0.4809
 4425SOL    HW124911   1.646   2.398   6.443  0.3544  0.6282 -0.4071
 4425SOL    HW224912   1.502   2.426   6.429  0.4814  0.5101 -0.5472
 4426SOL     OW24913   1.784   1.234  13.102  0.2073 -0.0786 -0.3277
 4426SOL    HW124914   1.789   1.328  13.082 -0.1334 -0.1193 -0.5938
 4426SOL    HW224915   1.847   1.252  13.172  0.1507  3.4261 -1.1514
 4427SOL     OW24916   4.622   2.161   5.819 -0.4586  0.0298  0.1231
 4427SOL    HW124917   4.659   2.244   5.847 -0.2594 -0.8631  2.5302
 4427SOL    HW224918   4.527   2.161   5.832 -0.4029  0.1973  0.5074
 4428SOL     OW24919   2.476   2.724   2.778 -0.5374  0.6439  0.2401
 4428SOL    HW124920   2.535   2.779   2.727 -0.1485 -0.3190 -0.3624
 4428SOL    HW224921   2.418   2.698   2.707  0.1969 -1.7620  0.5121
 4429SOL     OW24922   3.956   1.772   1.318  0.7472  0.3844 -0.5425
 4429SOL    HW124923   3.965   1.771   1.223 -2.8009 -0.3130 -0.8859
 4429SOL    HW224924   4.049   1.775   1.342  0.9037 -0.2600 -1.0859
 4430SOL     OW24925   1.587   1.035  12.550  0.2884 -0.1024 -0.3196
 4430SOL    HW124926   1.629   1.058  12.633 -2.0074 -0.5323  0.9515
 4430SOL    HW224927   1.495   1.045  12.576  0.1202 -1.6329 -0.2978
 4431SOL     OW24928   3.067   1.959  17.330 -0.5693  0.0533 -0.4555
 4431SOL    HW124929   3.151   1.970  17.376 -1.4500 -0.4720  1.2775
 4431SOL    HW224930   3.056   2.044  17.289 -0.0803 -0.6848 -2.1155
 4432SOL     OW24931   1.571   2.686   5.301  0.6525  0.2955 -0.4604
 4432SOL    HW124932   1.529   2.721   5.380 -2.4672 -1.6236 -1.2579
 4432SOL    HW224933   1.540   2.595   5.295 -0.9486  0.7228  1.3379
 4433SOL     OW24934   0.404   3.599   0.118  0.7022 -0.1163 -0.3506
 4433SOL    HW124935   0.404   3.596   0.022 -0.6969  0.3353 -0.3599
 4433SOL    HW224936   0.351   3.524   0.145 -0.9157  1.0015 -0.4326
 4434SOL     OW24937   2.659   2.374   5.637  0.0928  0.1954  0.1250
 4434SOL    HW124938   2.636   2.342   5.549 -1.6408 -0.4716  0.8334
 4434SOL    HW224939   2.734   2.427   5.609 -1.7948  1.5369 -2.4137
 4435SOL     OW24940   1.067   3.678  12.550  0.6640  0.2645  0.2482
 4435SOL    HW124941   1.059   3.767  12.584 -0.3630  0.3716 -0.2875
 4435SOL    HW224942   1.009   3.630  12.609  0.0219 -0.8185 -1.2691
 4436SOL     OW24943   3.710   4.609   9.848 -0.3345  0.3534  0.7419
 4436SOL    HW124944   3.701   4.630   9.940  1.2553 -0.3345  1.0702
 4436SOL    HW224945   3.685   4.690   9.805 -2.0425 -0.7839 -0.4200
 4437SOL     OW24946   2.442   3.789   5.643  0.3280  0.1138  0.4279
 4437SOL    HW124947   2.529   3.751   5.655 -0.6287 -1.9021  1.0382
 4437SOL    HW224948   2.447   3.844   5.721  1.5636 -0.4779  0.7697
 4438SOL     OW24949   3.135   2.598   3.678 -0.2530  0.4132 -0.4897
 4438SOL    HW124950   3.129   2.569   3.769 -4.9150  0.2413 -0.8388
 4438SOL    HW224951   3.106   2.522   3.628 -0.0044 -0.2485  0.3720
 4439SOL     OW24952   2.598   0.371   8.768  0.2174 -0.3524 -0.5153
 4439SOL    HW124953   2.561   0.324   8.842 -1.2355 -1.1452 -1.7410
 4439SOL    HW224954   2.539   0.371   8.693  1.8071  0.1757 -1.7935
 4440SOL     OW24955   0.800   3.575   1.951 -0.2422  0.2126 -0.0225
 4440SOL    HW124956   0.824   3.485   1.972 -0.9347  0.4328  1.7374
 4440SOL    HW224957   0.873   3.619   1.994 -0.3007  1.0761 -0.8108
 4441SOL     OW24958   4.661   2.187  14.925  0.2561  0.0299  0.4795
 4441SOL    HW124959   4.639   2.194  15.018 -2.7417 -3.0819 -0.0059
 4441SOL    HW224960   4.577   2.154  14.893  0.0196 -0.8018  1.9622
 4442SOL     OW24961   2.939   3.281   4.350 -0.4793  0.2987 -0.1656
 4442SOL    HW124962   2.872   3.216   4.329 -0.4525 -0.0111  0.7044
 4442SOL    HW224963   2.970   3.323   4.270  0.4511 -0.8432 -0.4019
 4443SOL     OW24964   0.159   1.092  16.764  0.4246  0.3816  0.4208
 4443SOL    HW124965   0.204   1.027  16.818 -0.4879  0.2631  1.0284
 4443SOL    HW224966   0.224   1.123  16.700 -1.1593  0.5924 -1.0894
 4444SOL     OW24967   2.737   0.791   5.095 -0.1319  0.0589 -0.6877
 4444SOL    HW124968   2.830   0.789   5.071  0.0778 -0.2740  0.1518
 4444SOL    HW224969   2.748   0.767   5.187 -0.2936  1.9397 -0.1944
 4445SOL     OW24970   3.234   0.990   5.512  0.2313 -0.4197 -0.5272
 4445SOL    HW124971   3.242   1.082   5.535 -0.6808 -0.0821 -1.5336
 4445SOL    HW224972   3.147   0.983   5.473 -0.4800  1.3077  0.7806
 4446SOL     OW24973   1.813   3.298   3.644 -0.9243 -0.7672  0.2268
 4446SOL    HW124974   1.838   3.362   3.577 -1.5717  1.0000  1.6773
 4446SOL    HW224975   1.783   3.357   3.714  1.8604  0.7546  0.1455
 4447SOL     OW24976   0.354   1.312  15.070  0.3149 -0.3167 -0.0034
 4447SOL    HW124977   0.273   1.273  15.038  1.1424 -0.7777 -1.5646
 4447SOL    HW224978   0.323   1.357  15.148  1.3945  0.0824  0.2049
 4448SOL     OW24979   0.212   2.986  16.945 -0.5394  0.1687  0.4635
 4448SOL    HW124980   0.255   2.901  16.937 -1.9542 -0.8397  3.7849
 4448SOL    HW224981   0.177   3.011  16.859  1.4098 -1.7233 -0.8679
 4449SOL     OW24982   2.087   3.382   4.939 -0.1432 -0.1300 -0.0816
 4449SOL    HW124983   2.060   3.401   5.028 -1.7030 -0.5192 -0.4735
 4449SOL    HW224984   1.998   3.391   4.904 -0.0912 -0.6677 -0.3544
 4450SOL     OW24985   1.687   2.567  16.101 -0.0181  0.0310  0.1741
 4450SOL    HW124986   1.693   2.660  16.079  1.9472  0.7803  3.7771
 4450SOL    HW224987   1.620   2.544  16.037 -0.3568 -1.4346  1.0655
 4451SOL     OW24988   2.521   0.465   8.167 -0.1160  0.4621  0.4349
 4451SOL    HW124989   2.530   0.409   8.244 -1.1446  1.3641  1.2155
 4451SOL    HW224990   2.486   0.410   8.097 -0.9919 -0.1216  1.3419
 4452SOL     OW24991   3.331   1.247   5.691  0.1869  0.0111 -0.0677
 4452SOL    HW124992   3.361   1.335   5.668  1.5407 -0.5657 -0.5136
 4452SOL    HW224993   3.237   1.242   5.672 -0.1995 -0.0878  1.8556
 4453SOL     OW24994   2.536   1.455  17.001 -1.1627  0.2092  0.4354
 4453SOL    HW124995   2.495   1.368  16.999  0.1852 -0.4374  1.0147
 4453SOL    HW224996   2.488   1.508  17.065 -2.0032 -1.9690  1.6215
 4454SOL     OW24997   1.659   4.270   2.042 -0.4202 -0.1486  0.1562
 4454SOL    HW124998   1.727   4.210   2.075  0.4259 -0.1706 -1.6205
 4454SOL    HW224999   1.616   4.205   1.987  0.9095 -0.6260 -0.3334
 4455SOL     OW25000   1.458   4.486   8.652 -0.2850  0.3225  0.3163
 4455SOL    HW125001   1.495   4.409   8.694 -1.3285  0.5359  1.6309
 4455SOL    HW225002   1.422   4.450   8.571 -0.0308  0.4064  0.1629
 4456SOL     OW25003   0.557   1.110   7.857  0.1350 -0.1663  0.8022
 4456SOL    HW125004   0.623   1.048   7.825  0.6047  1.0269 -0.5503
 4456SOL    HW225005   0.604   1.191   7.834  1.9370 -1.6774 -0.7948
 4457SOL     OW25006   3.887   4.140   8.551  0.2912 -0.1429 -0.4144
 4457SOL    HW125007   3.978   4.165   8.565 -0.3961  0.8336  2.2908
 4457SOL    HW225008   3.885   4.100   8.464  1.4281  2.2546 -1.5179
 4458SOL     OW25009   1.962   0.755   2.130 -0.6024  0.2187  0.3466
 4458SOL    HW125010   2.015   0.718   2.201  0.7947  1.1422 -0.2118
 4458SOL    HW225011   2.022   0.824   2.103 -1.7811 -0.3376 -3.6641
 4459SOL     OW25012   0.545   2.372  17.345 -0.4251 -0.0152  0.2127
 4459SOL    HW125013   0.596   2.436  17.394 -0.2709 -0.1250  0.1972
 4459SOL    HW225014   0.475   2.421  17.303 -0.2001  0.1091 -0.0226
 4460SOL     OW25015   2.431   4.632   9.903  0.0768  0.0758  0.1070
 4460SOL    HW125016   2.512   4.676   9.879  0.4410 -0.9412 -0.5128
 4460SOL    HW225017   2.375   4.697   9.861 -2.6784 -2.2259  0.1634
 4461SOL     OW25018   2.817   4.397   8.671  0.3501  0.0139  0.3756
 4461SOL    HW125019   2.757   4.432   8.736 -1.1097  0.2079 -1.0829
 4461SOL    HW225020   2.863   4.479   8.658  0.9417 -0.8893 -3.3052
 4462SOL     OW25021   1.902   3.374  13.564  0.1447 -0.4375 -0.0993
 4462SOL    HW125022   1.939   3.316  13.497 -0.7116 -0.5222 -0.5039
 4462SOL    HW225023   1.832   3.407  13.507  1.0016 -0.8709 -1.4124
 4463SOL     OW25024   0.843   1.282   4.082 -0.4200 -0.0715 -0.1334
 4463SOL    HW125025   0.834   1.225   4.158 -2.0483 -0.1827 -0.3965
 4463SOL    HW225026   0.764   1.260   4.032  0.4661 -0.1329 -1.5210
 4464SOL     OW25027   0.654   3.521   6.351 -0.6145  0.1095  0.5803
 4464SOL    HW125028   0.731   3.540   6.404 -0.3679 -0.9176  0.5943
 4464SOL    HW225029   0.662   3.580   6.276  0.7322 -2.3847 -1.2383
 4465SOL     OW25030   0.159   2.422   0.707  0.5276  0.2334 -0.4926
 4465SOL    HW125031   0.212   2.488   0.751  1.5518  0.4857 -2.1369
 4465SOL    HW225032   0.215   2.347   0.727 -1.5510 -1.9867 -3.1015
 4466SOL     OW25033   0.583   4.146  17.671  0.1875  0.4277  0.4851
 4466SOL    HW125034   0.658   4.107  17.716 -0.6535 -0.3908  1.2148
 4466SOL    HW225035   0.544   4.185   0.001  0.4895  1.1869  0.2515
 4467SOL     OW25036   2.161   4.666  17.262  0.7662  0.0903  1.0541
 4467SOL    HW125037   2.141   4.696  17.173 -0.8770 -0.2673  1.3026
 4467SOL    HW225038   2.229   4.728  17.288  0.4476  1.5215 -1.5807
 4468SOL     OW25039   2.091   2.431  16.819  0.0654  0.7475  0.4006
 4468SOL    HW125040   2.035   2.505  16.796  0.1280  0.2873 -1.1981
 4468SOL    HW225041   2.111   2.393  16.734 -1.5976  1.3592 -0.2596
 4469SOL     OW25042   4.350   2.158   5.847 -0.3789  0.1111  0.2623
 4469SOL    HW125043   4.280   2.103   5.883 -0.6997 -0.0594 -0.6166
 4469SOL    HW225044   4.312   2.172   5.760 -0.2431 -0.1675  0.1569
 4470SOL     OW25045   0.658   0.282   7.847  0.2847  0.1980  0.3452
 4470SOL    HW125046   0.597   0.348   7.880  1.2767  0.4253  1.7211
 4470SOL    HW225047   0.664   0.296   7.753 -1.6089  1.0539  0.3463
 4471SOL     OW25048   2.886   1.257  17.389 -0.4731 -0.7009  0.0671
 4471SOL    HW125049   2.828   1.292  17.321  0.0330 -3.2992 -1.6788
 4471SOL    HW225050   2.904   1.335  17.442  1.4603  0.3556 -2.1574
 4472SOL     OW25051   0.168   0.427   8.252  0.5569  0.4612  0.2881
 4472SOL    HW125052   0.237   0.365   8.227  2.2712  2.1174  0.9324
 4472SOL    HW225053   0.203   0.454   8.337 -0.9901  1.2036  0.6778
 4473SOL     OW25054   2.632   4.377   2.729  0.1422  0.0857  0.1901
 4473SOL    HW125055   2.649   4.442   2.661  1.4075 -0.2719  0.1580
 4473SOL    HW225056   2.717   4.334   2.717 -0.1452 -1.3934  3.4742
 4474SOL     OW25057   1.632   1.155  15.739 -0.4992 -0.1783 -0.3559
 4474SOL    HW125058   1.556   1.191  15.785  0.1870 -0.1270  0.7226
 4474SOL    HW225059   1.700   1.218  15.762 -2.0376  0.6108  1.9940
 4475SOL     OW25060   0.673   1.904   2.085  0.1006  0.2664 -0.2455
 4475SOL    HW125061   0.746   1.909   2.147 -0.0814  2.3740 -0.1850
 4475SOL    HW225062   0.714   1.933   2.003  0.3179 -0.5815 -0.4353
 4476SOL     OW25063   4.728   2.220   8.328  0.2061 -0.8887  0.3324
 4476SOL    HW125064   0.012   2.147   8.271 -3.0630 -2.1803  0.7555
 4476SOL    HW225065   4.686   2.173   8.400 -1.5332  1.7183  1.0334
 4477SOL     OW25066   0.925   1.773   7.554  0.3433 -0.2139  0.1947
 4477SOL    HW125067   0.912   1.680   7.572  1.2731 -0.4255 -0.2014
 4477SOL    HW225068   0.929   1.801   7.645 -1.4766  1.9373 -0.3812
 4478SOL     OW25069   2.398   1.405  12.575  0.1962 -0.1834 -0.4036
 4478SOL    HW125070   2.448   1.400  12.657  1.1281 -1.8005 -1.0644
 4478SOL    HW225071   2.384   1.311  12.568 -1.1423 -0.2078  2.4176
 4479SOL     OW25072   0.571   2.079  10.847  0.1406 -0.0220 -0.5755
 4479SOL    HW125073   0.539   2.023  10.918  1.1540 -0.2839 -0.3351
 4479SOL    HW225074   0.598   2.022  10.775  3.3599  1.2354 -0.3691
 4480SOL     OW25075   2.073   2.248  15.615 -0.1548 -0.2803  0.1737
 4480SOL    HW125076   2.119   2.261  15.532  2.8200 -0.3660  1.8077
 4480SOL    HW225077   2.028   2.333  15.618 -1.3183 -0.8960 -0.1515
 4481SOL     OW25078   1.016   1.471   8.090  0.5073  0.1575 -0.4218
 4481SOL    HW125079   1.060   1.451   8.007  0.6857  1.1912 -0.5715
 4481SOL    HW225080   1.072   1.434   8.159  1.0522 -1.9646 -2.0065
 4482SOL     OW25081   3.468   2.707  15.296  0.8405 -0.3111 -0.3962
 4482SOL    HW125082   3.386   2.697  15.248  0.3497  0.8639  0.2041
 4482SOL    HW225083   3.467   2.623  15.342 -2.1055 -0.0439 -0.0307
 4483SOL     OW25084   1.203   4.010   7.240  0.5633  0.5757 -0.1926
 4483SOL    HW125085   1.192   3.924   7.282  2.1401 -0.7850 -2.5730
 4483SOL    HW225086   1.203   4.006   7.145  0.2120 -1.5136 -0.1032
 4484SOL     OW25087   1.970   3.817   6.430 -0.1884 -0.0719 -0.4462
 4484SOL    HW125088   1.934   3.743   6.381  0.4051 -0.3605 -0.4379
 4484SOL    HW225089   1.904   3.885   6.424 -1.4742 -1.1166  1.5868
 4485SOL     OW25090   0.945   2.452  12.439  0.4702  0.0437  0.1617
 4485SOL    HW125091   0.887   2.525  12.460 -1.0221 -1.9341  2.8687
 4485SOL    HW225092   1.019   2.484  12.491  1.6532 -0.4168 -1.2263
 4486SOL     OW25093   2.660   0.373  10.717  0.7205  0.6734 -0.0545
 4486SOL    HW125094   2.684   0.435  10.648  1.6437  0.0035 -0.3334
 4486SOL    HW225095   2.691   0.288  10.687 -2.1542 -0.9732  1.6113
 4487SOL     OW25096   1.452   1.029   4.446  0.3870  0.6206 -0.1792
 4487SOL    HW125097   1.542   1.000   4.465  0.1509 -0.2292 -0.3412
 4487SOL    HW225098   1.426   0.966   4.378  0.1321  0.5403 -0.0090
 4488SOL     OW25099   1.674   3.721   1.993  0.5843  0.3845  0.0909
 4488SOL    HW125100   1.713   3.700   2.078 -1.4157  0.5188  1.0228
 4488SOL    HW225101   1.597   3.666   2.004  0.1674  0.9871  0.1907
 4489SOL     OW25102   2.364   3.215  11.855 -0.1925 -0.2990  0.1288
 4489SOL    HW125103   2.350   3.122  11.870  0.3903 -0.7126 -1.9323
 4489SOL    HW225104   2.319   3.232  11.772  2.8199  1.9304 -1.0447
 4490SOL     OW25105   4.593   0.067   4.975  0.0966  0.1545 -0.2970
 4490SOL    HW125106   4.628   0.110   5.053  2.4112  0.8803 -1.7410
 4490SOL    HW225107   4.606   0.133   4.908 -4.0956  1.2231 -0.0282
 4491SOL     OW25108   0.661   2.881  10.143  0.5059 -0.0698  0.0500
 4491SOL    HW125109   0.741   2.874  10.091  1.7031  1.4814  1.7169
 4491SOL    HW225110   0.649   2.975  10.156  0.2805  0.3001 -2.8836
 4492SOL     OW25111   0.860   1.934   2.275 -0.4979  0.7538 -0.0473
 4492SOL    HW125112   0.850   1.886   2.357 -1.5131 -1.0004 -1.2031
 4492SOL    HW225113   0.864   2.025   2.305  1.7828 -0.3232  2.9193
 4493SOL     OW25114   1.126   4.068   7.875  0.4266 -0.0151 -0.2329
 4493SOL    HW125115   1.113   4.152   7.918  1.8313 -0.7576  1.6359
 4493SOL    HW225116   1.085   4.078   7.789 -1.9290  2.8848  1.2307
 4494SOL     OW25117   0.581   1.790   3.309 -0.4908  0.4910  1.1585
 4494SOL    HW125118   0.589   1.820   3.400  2.2906 -1.5096  1.5825
 4494SOL    HW225119   0.633   1.710   3.316 -1.7695 -0.4505 -0.1820
 4495SOL     OW25120   4.539   0.959   4.194  0.5745  0.1736  0.2793
 4495SOL    HW125121   4.510   0.886   4.140 -1.1675 -0.0017  1.4376
 4495SOL    HW225122   4.455   1.005   4.198  1.9380  2.7056 -0.1656
 4496SOL     OW25123   2.115   3.348   4.245 -0.3547 -0.2437 -0.3540
 4496SOL    HW125124   2.123   3.264   4.291 -2.1236 -0.9103 -1.2609
 4496SOL    HW225125   2.020   3.356   4.247 -0.2664  0.7321 -0.1865
 4497SOL     OW25126   1.061   2.529   3.560  0.0273  0.1948 -0.5606
 4497SOL    HW125127   1.045   2.446   3.605 -1.8054  1.6506  1.4505
 4497SOL    HW225128   1.121   2.492   3.495  0.0120  0.4799 -0.7356
 4498SOL     OW25129   0.058   2.656   0.222  0.1775  0.3382  0.0780
 4498SOL    HW125130   0.078   2.565   0.198 -1.5864 -0.1462  0.4417
 4498SOL    HW225131   0.081   2.630   0.312  0.9428 -1.3670 -0.6053
 4499SOL     OW25132   0.233   2.916   2.774 -0.7090  0.0300 -0.2349
 4499SOL    HW125133   0.170   2.844   2.781  1.0294 -1.6185 -1.5575
 4499SOL    HW225134   0.178   2.993   2.758 -0.9574  0.0940  0.9201
 4500SOL     OW25135   0.563   2.375  10.954  0.1127 -0.2043  0.2565
 4500SOL    HW125136   0.493   2.350  11.014  1.1484 -3.5539  0.0773
 4500SOL    HW225137   0.614   2.294  10.960  0.1157 -0.0414  2.4422
 4501SOL     OW25138   3.111   4.734   7.774 -0.0703  0.4714 -0.1631
 4501SOL    HW125139   3.074   0.082   7.792 -2.7168 -1.2316  2.4572
 4501SOL    HW225140   3.077   4.676   7.841 -1.3842 -1.7218 -2.7106
 4502SOL     OW25141   3.889   2.260  13.679  0.5719  0.0950 -0.7949
 4502SOL    HW125142   3.830   2.335  13.673  1.1167  0.4466 -1.7371
 4502SOL    HW225143   3.897   2.242  13.773 -1.1873  4.2579  0.1513
 4503SOL     OW25144   2.019   1.426   4.303  0.3933  0.1743 -0.5599
 4503SOL    HW125145   1.926   1.432   4.280 -0.2836 -0.2113  2.0670
 4503SOL    HW225146   2.014   1.419   4.399  0.8694  1.5730 -0.4331
 4504SOL     OW25147   0.978   1.150  10.299 -0.7154 -0.2749 -0.4733
 4504SOL    HW125148   0.958   1.186  10.212 -1.5455 -1.7241 -0.8692
 4504SOL    HW225149   0.947   1.223  10.352  0.3059 -0.1132 -0.0979
 4505SOL     OW25150   0.927   0.011   6.184  0.7632  0.4359 -0.6353
 4505SOL    HW125151   0.996   4.735   6.250 -1.4273 -1.3025  1.2741
 4505SOL    HW225152   0.979   0.059   6.120 -0.1682  1.7084 -0.4394
 4506SOL     OW25153   4.520   0.221  14.543  0.0625  0.0896  0.3949
 4506SOL    HW125154   4.584   0.291  14.558  0.0200 -0.1807  1.8034
 4506SOL    HW225155   4.560   0.144  14.584  1.2600  0.9348  0.8190
 4507SOL     OW25156   4.723   0.058   3.169  0.3277  0.4030 -0.0787
 4507SOL    HW125157   0.030   4.711   3.171  1.7642  1.1679 -0.4805
 4507SOL    HW225158   0.016   0.085   3.083  0.2365  0.4371 -0.1007
 4508SOL     OW25159   2.969   4.363  15.143  0.8899  0.2517  0.6680
 4508SOL    HW125160   3.034   4.325  15.083  0.5331  0.0960  0.3801
 4508SOL    HW225161   2.960   4.284  15.196  0.8411  0.2261  0.6211
 4509SOL     OW25162   2.118   2.967   5.304  0.0748  0.2253 -0.2865
 4509SOL    HW125163   2.161   3.002   5.226  1.7300  1.0347  0.9935
 4509SOL    HW225164   2.173   2.890   5.318  1.5298  1.5902  1.3973
 4510SOL     OW25165   4.411   4.424   0.177  0.1472  0.1786 -0.1367
 4510SOL    HW125166   4.444   4.430   0.267  2.0451 -1.0616 -0.7475
 4510SOL    HW225167   4.477   4.375   0.126 -0.5702 -0.8451 -0.0845
 4511SOL     OW25168   2.665   1.351   7.474  0.3816 -0.0957 -0.4123
 4511SOL    HW125169   2.734   1.358   7.539 -0.3449 -0.3800  0.3922
 4511SOL    HW225170   2.631   1.439   7.458  2.4590  0.9179  0.8402
 4512SOL     OW25171   0.999   1.623  14.865 -0.1915  0.2155 -0.5816
 4512SOL    HW125172   0.919   1.582  14.899  0.2086 -1.0616 -1.1710
 4512SOL    HW225173   0.986   1.717  14.880  2.0980  0.7735 -2.2023
 4513SOL     OW25174   3.675   4.104  15.022 -0.2536 -0.2313  0.0789
 4513SOL    HW125175   3.651   4.196  15.031  1.7142  0.1121  1.9273
 4513SOL    HW225176   3.620   4.071  14.951  0.9331 -0.3178 -0.8198
 4514SOL     OW25177   3.007   2.648   0.629  0.1306  0.0555  0.3885
 4514SOL    HW125178   3.042   2.734   0.608 -1.2162  0.2089 -1.2281
 4514SOL    HW225179   2.920   2.642   0.590 -0.1703 -0.3596  1.1261
 4515SOL     OW25180   2.005   1.186   3.683  0.3083 -0.0168  0.3373
 4515SOL    HW125181   1.982   1.155   3.595  0.8234 -1.6760  0.7929
 4515SOL    HW225182   2.033   1.272   3.652  2.6490 -0.9887 -0.3032
 4516SOL     OW25183   4.207   2.011   7.212  0.2038  0.3852  0.4668
 4516SOL    HW125184   4.289   1.965   7.193 -0.9040 -1.7553  0.8813
 4516SOL    HW225185   4.134   1.960   7.174 -0.8199  2.7412 -0.7147
 4517SOL     OW25186   0.865   4.558  12.393  0.5677  0.1483  0.2583
 4517SOL    HW125187   0.794   4.526  12.448 -0.9233  1.1308 -1.1013
 4517SOL    HW225188   0.941   4.501  12.407  0.5219 -0.3213 -1.4665
 4518SOL     OW25189   4.582   1.455   2.034 -0.6154 -0.4384  0.1640
 4518SOL    HW125190   4.635   1.498   1.966  1.5173  0.2889  2.2901
 4518SOL    HW225191   4.586   1.363   2.008  0.4074 -0.6754  1.1461
 4519SOL     OW25192   1.087   2.812   4.475 -0.2301 -0.4490  0.5160
 4519SOL    HW125193   1.012   2.872   4.473  1.7705  1.9986 -0.9705
 4519SOL    HW225194   1.159   2.874   4.462  0.6166 -1.3544  0.8801
 4520SOL     OW25195   3.813   4.709   2.284  0.1626 -0.7693  0.5127
 4520SOL    HW125196   3.737   4.686   2.337  0.4252 -2.2602  0.2563
 4520SOL    HW225197   3.851   0.047   2.329 -0.5825  0.3851 -0.8052
 4521SOL     OW25198   1.545   1.741   2.368 -0.4389  0.2002 -0.0732
 4521SOL    HW125199   1.493   1.742   2.447  0.1754  1.7861  0.3074
 4521SOL    HW225200   1.616   1.680   2.388 -2.2214 -1.5824  0.7472
 4522SOL     OW25201   1.363   2.933   2.789  0.1123  0.0873 -0.3172
 4522SOL    HW125202   1.371   3.014   2.739 -2.2127  0.8351  0.5587
 4522SOL    HW225203   1.456   2.912   2.793 -0.4397 -2.1182  0.7398
 4523SOL     OW25204   2.264   0.364   0.343  0.1623 -0.5813 -0.2039
 4523SOL    HW125205   2.280   0.289   0.399  0.9375 -0.3368 -0.0973
 4523SOL    HW225206   2.256   0.324   0.256 -0.4693  1.1930 -0.9706
 4524SOL     OW25207   2.794   3.313   4.795  0.2310  0.0503  0.1575
 4524SOL    HW125208   2.701   3.296   4.788  0.2835 -0.6099  1.0230
 4524SOL    HW225209   2.809   3.381   4.730 -0.8819  1.3541  1.2636
 4525SOL     OW25210   1.445   4.137   4.081 -0.2603  0.2932  0.0750
 4525SOL    HW125211   1.502   4.089   4.141  0.8104 -1.0635 -2.0040
 4525SOL    HW225212   1.507   4.135   4.008  1.7589 -3.0444  1.8778
 4526SOL     OW25213   2.209   3.368   2.252  0.1534 -0.1294 -0.3380
 4526SOL    HW125214   2.225   3.317   2.331  1.7037  1.3784  0.3123
 4526SOL    HW225215   2.228   3.307   2.180  1.0499  0.6381 -0.7589
 4527SOL     OW25216   4.278   0.872  11.197  0.0186 -0.2501  0.2830
 4527SOL    HW125217   4.365   0.837  11.182  0.4762  0.6514  0.8730
 4527SOL    HW225218   4.243   0.873  11.108  0.0769  0.5754  0.2738
 4528SOL     OW25219   2.745   0.147   7.892  0.6167  0.3906 -0.5268
 4528SOL    HW125220   2.756   0.099   7.975 -1.5357  0.9001  0.0418
 4528SOL    HW225221   2.837   0.156   7.867 -0.6862  2.5005 -4.4498
 4529SOL     OW25222   1.323   2.792   2.155 -0.0082  0.1921 -0.0619
 4529SOL    HW125223   1.355   2.704   2.137  3.2770  1.6540 -1.5457
 4529SOL    HW225224   1.263   2.773   2.227 -0.8127  1.6910 -0.3408
 4530SOL     OW25225   4.554   3.515   1.267  0.0967 -0.2768  0.1259
 4530SOL    HW125226   4.550   3.428   1.225 -0.6709  0.3633 -1.1343
 4530SOL    HW225227   4.597   3.566   1.198  1.9283 -2.2039 -0.1619
 4531SOL     OW25228   1.566   2.735   6.383 -0.3513  0.0365 -0.0253
 4531SOL    HW125229   1.555   2.687   6.301 -0.3845  1.0179 -0.5876
 4531SOL    HW225230   1.661   2.732   6.385 -0.3199  0.4175 -1.0859
 4532SOL     OW25231   4.156   1.998  14.813 -0.0994 -0.8112  1.1152
 4532SOL    HW125232   4.135   1.909  14.842 -0.0469 -1.2306 -0.1303
 4532SOL    HW225233   4.078   2.045  14.841 -0.3220 -0.3617 -0.2478
 4533SOL     OW25234   3.023   0.379  14.185 -0.0800 -0.3185 -0.1472
 4533SOL    HW125235   3.071   0.425  14.116 -1.3907  1.3761  0.0648
 4533SOL    HW225236   2.937   0.421  14.185  0.2806  0.4360 -1.9938
 4534SOL     OW25237   3.331   2.733   2.000 -0.3469  0.3427 -0.1059
 4534SOL    HW125238   3.323   2.777   1.915 -0.7375  1.3010  0.4209
 4534SOL    HW225239   3.258   2.771   2.050  0.9114  1.8824  0.5814
 4535SOL     OW25240   0.157   0.884   9.401 -0.0402  0.6546  0.1555
 4535SOL    HW125241   0.126   0.927   9.481 -1.6967  1.2822 -0.8261
 4535SOL    HW225242   0.156   0.790   9.420 -1.5687  0.3346 -1.5310
 4536SOL     OW25243   0.649   3.048   5.354  0.1706  0.2755  0.6611
 4536SOL    HW125244   0.569   3.064   5.403 -0.2304  0.7621 -0.1619
 4536SOL    HW225245   0.654   3.133   5.311  1.3252 -0.0332  0.1798
 4537SOL     OW25246   1.349   3.175   8.479  0.2840 -0.2517 -0.6460
 4537SOL    HW125247   1.368   3.108   8.414 -0.5402 -1.1613  0.0538
 4537SOL    HW225248   1.281   3.225   8.433  0.0161 -0.2360 -0.2330
 4538SOL     OW25249   2.023   4.195  14.029  0.5713  0.1200 -0.1828
 4538SOL    HW125250   2.113   4.181  14.057  0.1413  0.5322  1.4164
 4538SOL    HW225251   2.005   4.111  13.986  1.4516 -0.1914  0.0508
 4539SOL     OW25252   2.996   0.617  12.064  0.1958 -0.4104  0.2159
 4539SOL    HW125253   2.936   0.555  12.022  1.9160 -2.4399  0.7315
 4539SOL    HW225254   2.956   0.697  12.031 -3.5790 -1.6369  1.8090
 4540SOL     OW25255   2.752   0.490   3.685 -0.0756 -0.4359  0.0776
 4540SOL    HW125256   2.720   0.439   3.759  0.2387 -0.4249  0.2222
 4540SOL    HW225257   2.825   0.541   3.720  0.2700 -1.2286  0.5216
 4541SOL     OW25258   3.080   2.819   4.355  0.4209 -0.5070 -0.3957
 4541SOL    HW125259   3.054   2.763   4.428 -0.8058 -0.3502 -0.7094
 4541SOL    HW225260   3.021   2.895   4.363 -0.4037 -1.2154  0.2857
 4542SOL     OW25261   1.525   1.132   3.059  0.4856 -0.0739  0.0541
 4542SOL    HW125262   1.620   1.136   3.068  0.4685  0.5147  0.0096
 4542SOL    HW225263   1.503   1.126   2.966 -1.2821  0.5125  0.4309
 4543SOL     OW25264   3.889   3.669   0.404  0.3026 -0.2351 -1.2687
 4543SOL    HW125265   3.823   3.676   0.335 -0.8174  2.3065  0.0346
 4543SOL    HW225266   3.966   3.701   0.358  2.0392 -0.1059  1.7722
 4544SOL     OW25267   3.637   1.634  15.209 -0.2424  0.3314 -0.7195
 4544SOL    HW125268   3.723   1.650  15.171 -0.7237  0.0530 -1.9303
 4544SOL    HW225269   3.628   1.539  15.195 -2.3317  0.4310  0.0315
 4545SOL     OW25270   4.715   1.340   3.369 -0.2868  0.0063  0.1853
 4545SOL    HW125271   4.625   1.308   3.368 -0.0844 -0.5471 -0.7752
 4545SOL    HW225272   0.003   1.338   3.461  1.0603 -2.1441 -0.2540
 4546SOL     OW25273   2.734   0.176  16.693 -0.1849  0.2334  0.1820
 4546SOL    HW125274   2.713   0.118  16.619 -1.5740 -3.3092  3.3422
 4546SOL    HW225275   2.726   0.260  16.648 -1.4737 -0.0717 -0.1587
 4547SOL     OW25276   3.012   2.251   4.589  0.2688 -0.4244  0.1210
 4547SOL    HW125277   3.026   2.157   4.604  0.4653 -0.4193 -0.0254
 4547SOL    HW225278   2.918   2.263   4.602  0.5451  1.4678  0.4356
 4548SOL     OW25279   4.331   2.770  11.990  0.0842 -0.2271  0.4680
 4548SOL    HW125280   4.314   2.801  11.901  4.4441 -0.6603 -0.5253
 4548SOL    HW225281   4.426   2.773  11.993  0.1118  0.9384 -2.0551
 4549SOL     OW25282   4.374   0.289   5.004 -0.2758 -0.5270  0.0001
 4549SOL    HW125283   4.465   0.302   4.978  0.0246 -3.1990 -0.2645
 4549SOL    HW225284   4.378   0.286   5.099  2.3062  3.7178  0.0166
 4550SOL     OW25285   2.488   2.721  14.314  0.6389  0.9044 -0.2299
 4550SOL    HW125286   2.574   2.732  14.355  0.2492 -0.5593  0.9483
 4550SOL    HW225287   2.446   2.800  14.347 -0.7771 -0.1207  0.3883
 4551SOL     OW25288   0.131   3.704   4.637  0.0006  0.6848  0.0079
 4551SOL    HW125289   0.120   3.653   4.557 -1.4705 -0.7375  1.1210
 4551SOL    HW225290   0.102   3.639   4.701 -0.9464  3.7173  2.6741
 4552SOL     OW25291   3.547   2.955  17.019  0.2463 -0.4542 -0.3568
 4552SOL    HW125292   3.619   2.896  16.998  1.2935  0.9141 -0.5601
 4552SOL    HW225293   3.500   2.950  16.935 -0.5514  0.4900  0.0373
 4553SOL     OW25294   3.513   2.589   0.366 -0.2436  0.0138  0.0385
 4553SOL    HW125295   3.473   2.614   0.282 -0.1637 -0.5710 -0.1727
 4553SOL    HW225296   3.598   2.631   0.353 -1.3014  1.6177 -1.7290
 4554SOL     OW25297   4.398   0.544   4.176 -0.1082 -0.0414  0.6806
 4554SOL    HW125298   4.457   0.470   4.189 -0.7522 -0.5692  0.6118
 4554SOL    HW225299   4.348   0.511   4.102  1.5249  0.5866 -0.7095
 4555SOL     OW25300   4.333   4.356   7.320  0.4634  0.3562  0.4269
 4555SOL    HW125301   4.367   4.357   7.230  0.9726 -2.3649  0.5728
 4555SOL    HW225302   4.250   4.402   7.306  1.6342  1.6903 -2.1561
 4556SOL     OW25303   3.673   2.859   2.188  0.2228  0.1182  0.5058
 4556SOL    HW125304   3.727   2.923   2.142 -1.4874  0.8238 -0.5335
 4556SOL    HW225305   3.615   2.916   2.238 -0.3679  1.0009 -1.1763
 4557SOL     OW25306   4.565   1.604  13.785 -0.0817 -0.0673  0.0313
 4557SOL    HW125307   4.658   1.628  13.793 -0.2085  0.3935  0.1070
 4557SOL    HW225308   4.547   1.608  13.879  0.9535  0.1343  0.2257
 4558SOL     OW25309   1.886   3.055   3.490  0.1293 -0.1951 -0.0676
 4558SOL    HW125310   1.797   3.033   3.463 -1.2832  4.0002  1.2301
 4558SOL    HW225311   1.866   3.137   3.536 -0.1707  0.2724 -1.0389
 4559SOL     OW25312   0.725   2.696   1.718 -0.0232  0.8628 -0.1387
 4559SOL    HW125313   0.797   2.698   1.655  0.1552 -0.4035  0.0138
 4559SOL    HW225314   0.766   2.735   1.795 -0.5750 -0.3325  0.7698
 4560SOL     OW25315   4.543   0.823  11.154  0.2148  0.7734  0.6034
 4560SOL    HW125316   4.574   0.772  11.079  1.2127 -0.0660  1.5915
 4560SOL    HW225317   4.627   0.847  11.191  1.0608 -2.1002  0.5298
 4561SOL     OW25318   1.785   2.383   6.104 -0.1383  0.1123 -0.2146
 4561SOL    HW125319   1.760   2.391   6.012 -3.2823  2.2533  0.8330
 4561SOL    HW225320   1.699   2.386   6.146  1.5476 -0.5360  3.3536
 4562SOL     OW25321   1.230   3.522   4.500  0.3381 -0.0974  0.3008
 4562SOL    HW125322   1.213   3.585   4.570  0.2358  1.8882 -1.5491
 4562SOL    HW225323   1.271   3.453   4.553  0.8963 -0.2869 -0.3775
 4563SOL     OW25324   2.216   4.173   3.524  0.1812  0.2604 -0.5410
 4563SOL    HW125325   2.219   4.087   3.481  1.3739 -0.2789  0.5850
 4563SOL    HW225326   2.257   4.154   3.608  1.0996 -1.2712 -1.3388
 4564SOL     OW25327   0.078   0.588   8.061 -0.0747  0.3192  0.7226
 4564SOL    HW125328   0.081   0.525   8.133  1.3545 -0.6241 -0.1282
 4564SOL    HW225329   0.169   0.614   8.075  0.7122 -1.1984 -1.5646
 4565SOL     OW25330   0.919   0.832  15.667 -0.2540  0.0637  0.5953
 4565SOL    HW125331   0.904   0.921  15.700  0.4236 -0.4043  2.1675
 4565SOL    HW225332   1.012   0.826  15.648 -0.2751 -0.8915  0.7802
 4566SOL     OW25333   0.051   4.606  13.547 -0.1051 -0.3788 -0.7223
 4566SOL    HW125334   0.131   4.564  13.515 -0.2570  1.0802 -2.9356
 4566SOL    HW225335   4.730   4.574  13.479 -0.0907 -3.9061  0.9012
 4567SOL     OW25336   2.993   0.518   4.973 -0.4129  0.3681 -0.1856
 4567SOL    HW125337   2.901   0.499   4.991 -0.7164  0.5528 -1.5450
 4567SOL    HW225338   2.994   0.515   4.877  0.5290 -2.0022 -0.0900
 4568SOL     OW25339   0.129   0.978   6.827 -0.1733  0.0125  0.0052
 4568SOL    HW125340   0.160   1.026   6.750  1.2614  0.4989  0.8833
 4568SOL    HW225341   0.111   1.040   6.897  0.9671  0.4606 -0.0948
 4569SOL     OW25342   1.478   3.422   1.322  0.0060  0.6671  0.5249
 4569SOL    HW125343   1.460   3.506   1.365  2.1182  1.2804  0.2323
 4569SOL    HW225344   1.497   3.368   1.399 -2.2882  1.7215  1.8537
 4570SOL     OW25345   2.996   2.454   3.463  0.2837 -0.2321 -0.3685
 4570SOL    HW125346   2.969   2.541   3.432  0.9393 -0.6082 -1.9796
 4570SOL    HW225347   2.912   2.411   3.483  0.5373  0.3712  2.0225
 4571SOL     OW25348   1.903   1.611  11.155 -0.0735 -0.1611 -0.1583
 4571SOL    HW125349   1.971   1.564  11.203  1.3261 -0.2220 -2.2268
 4571SOL    HW225350   1.898   1.689  11.210  2.2938 -0.7085  0.8544
 4572SOL     OW25351   1.744   4.016   0.797  0.0019  0.0161  0.0525
 4572SOL    HW125352   1.653   3.987   0.792 -0.3421  0.7704  1.8233
 4572SOL    HW225353   1.781   3.939   0.753  0.5768  0.8048 -0.8268
 4573SOL     OW25354   1.253   4.229   0.032  0.0524 -0.2973  0.1512
 4573SOL    HW125355   1.327   4.231   0.093 -2.0929 -3.4237  2.8944
 4573SOL    HW225356   1.186   4.246   0.098 -1.7652  0.4994 -1.8617
 4574SOL     OW25357   1.550   3.250   9.389 -0.2007 -0.2675  0.3137
 4574SOL    HW125358   1.609   3.299   9.330  0.8118 -1.1651  0.5922
 4574SOL    HW225359   1.484   3.319   9.400 -1.2762 -1.1067 -0.8690
 4575SOL     OW25360   4.067   0.015   3.805 -0.2530 -0.2136 -0.1122
 4575SOL    HW125361   3.996   0.015   3.741  0.5898 -1.0336 -1.0454
 4575SOL    HW225362   4.139   4.720   3.750  1.2633  1.4129  0.9139
 4576SOL     OW25363   3.032   3.662   9.714  0.0905  0.2738 -0.7812
 4576SOL    HW125364   2.944   3.694   9.692  0.6750  1.2212 -1.7393
 4576SOL    HW225365   3.059   3.665   9.622  1.4295 -1.5104 -0.4398
 4577SOL     OW25366   2.707   4.475  16.411  0.1090  0.3651  0.3923
 4577SOL    HW125367   2.630   4.450  16.360 -0.6028  0.9705  1.1726
 4577SOL    HW225368   2.777   4.431  16.363 -1.0497 -0.2228 -0.7651
 4578SOL     OW25369   3.000   4.391   7.432  0.0769 -0.1109 -0.4350
 4578SOL    HW125370   2.989   4.475   7.477  2.1456 -1.3795  2.4902
 4578SOL    HW225371   3.096   4.389   7.433  0.0115 -1.4959  1.8010
 4579SOL     OW25372   4.733   2.499   1.405 -1.0699 -0.6015  0.3266
 4579SOL    HW125373   0.070   2.439   1.395  0.9488  1.3977  3.2430
 4579SOL    HW225374   4.664   2.439   1.434 -0.7019 -0.4605  1.5201
 4580SOL     OW25375   3.456   3.567  11.947 -0.2633  0.2831 -0.2609
 4580SOL    HW125376   3.455   3.516  12.028 -0.5167  0.1308 -0.3601
 4580SOL    HW225377   3.513   3.513  11.892  0.0312  0.3888 -0.0542
 4581SOL     OW25378   2.384   3.173   5.476 -0.3944 -0.5794  0.3223
 4581SOL    HW125379   2.416   3.185   5.387 -0.5803  1.7675  0.5801
 4581SOL    HW225380   2.331   3.252   5.488  0.4393  0.1863 -1.0461
 4582SOL     OW25381   1.570   2.644   8.668 -0.1964 -0.1032 -0.0628
 4582SOL    HW125382   1.647   2.698   8.651 -0.5765  0.3497 -0.3628
 4582SOL    HW225383   1.500   2.708   8.651 -0.9850 -0.8793  0.2737
 4583SOL     OW25384   0.317   0.742   6.893  0.1165 -0.5124  0.3576
 4583SOL    HW125385   0.281   0.820   6.849  1.2276  0.6945  1.5643
 4583SOL    HW225386   0.241   0.685   6.900  0.3959 -0.8800  0.3606
 4584SOL     OW25387   0.088   0.983   1.361 -0.1496 -0.3250  0.1117
 4584SOL    HW125388   0.117   0.932   1.285  0.4537 -1.0910  0.8539
 4584SOL    HW225389   0.156   1.049   1.350  1.1568 -1.4793  1.3584
 4585SOL     OW25390   1.149   1.762   2.403 -0.6248  0.1874  0.1134
 4585SOL    HW125391   1.106   1.691   2.357  2.6650 -1.8427  0.1875
 4585SOL    HW225392   1.214   1.780   2.335 -1.0035 -0.5273 -0.4356
 4586SOL     OW25393   4.247   3.814   1.993  0.6204 -0.2374 -0.1418
 4586SOL    HW125394   4.215   3.735   2.035  0.0157 -0.2582 -0.6388
 4586SOL    HW225395   4.239   3.862   2.075  3.8244  1.6565 -0.9281
 4587SOL     OW25396   4.148   3.424   4.588  0.7186 -0.2279 -0.5257
 4587SOL    HW125397   4.064   3.418   4.543  0.1594  0.3252  0.4411
 4587SOL    HW225398   4.184   3.338   4.564  0.4451 -0.2669 -0.7888
 4588SOL     OW25399   2.594   1.057  10.545  0.3055  0.0442  0.2789
 4588SOL    HW125400   2.671   1.016  10.585  0.3289  1.0252  1.2245
 4588SOL    HW225401   2.637   1.130  10.501  1.5773  1.0469  3.1880
 4589SOL     OW25402   0.648   2.809   8.377  0.5554 -0.2520  0.4270
 4589SOL    HW125403   0.667   2.720   8.410  0.4831 -0.7686 -0.9450
 4589SOL    HW225404   0.729   2.856   8.398  1.2721 -1.9133  1.4076
 4590SOL     OW25405   0.153   1.702   9.048 -1.1321  0.0042  0.1889
 4590SOL    HW125406   0.130   1.776   8.992 -0.9951  0.2285  0.4230
 4590SOL    HW225407   0.248   1.712   9.057 -1.1143 -0.0993  0.1177
 4591SOL     OW25408   4.210   3.887   5.430  0.8748 -0.2979  0.4460
 4591SOL    HW125409   4.159   3.836   5.492 -0.5600  0.3099 -0.2435
 4591SOL    HW225410   4.254   3.953   5.484  2.3544  0.7683 -2.0233
 4592SOL     OW25411   3.253   4.217  11.448  0.0972 -0.3471  0.0862
 4592SOL    HW125412   3.254   4.290  11.387  2.8866  1.5838  2.4120
 4592SOL    HW225413   3.180   4.166  11.414 -0.1697  0.6224 -0.7880
 4593SOL     OW25414   1.970   0.605   8.871 -0.5225  0.5857 -0.0669
 4593SOL    HW125415   2.062   0.584   8.855 -1.4074 -1.3484 -2.5260
 4593SOL    HW225416   1.945   0.662   8.798  0.6775  2.0316  0.6441
 4594SOL     OW25417   3.145   1.191   7.165  0.7484  0.4180  0.1608
 4594SOL    HW125418   3.063   1.142   7.163  2.2894 -2.1677  0.4201
 4594SOL    HW225419   3.158   1.193   7.260  2.8762  1.1053 -0.1480
 4595SOL     OW25420   4.008   1.336   6.531 -0.4654  0.0677  0.2431
 4595SOL    HW125421   4.018   1.245   6.502  0.1774  0.1965  0.0636
 4595SOL    HW225422   4.081   1.374   6.482  0.1277 -1.3563  0.0101
 4596SOL     OW25423   3.464   1.082   3.994  0.2006 -0.1402 -0.4144
 4596SOL    HW125424   3.494   1.161   4.039  2.7910 -1.4169  0.1632
 4596SOL    HW225425   3.472   1.017   4.063  0.1617  0.0453 -0.2371
 4597SOL     OW25426   3.302   4.079   1.739 -0.1698  0.8766 -0.1455
 4597SOL    HW125427   3.362   4.007   1.759  0.2094  1.1503 -0.3179
 4597SOL    HW225428   3.219   4.031   1.732  0.8456 -0.9380  0.0123
 4598SOL     OW25429   3.070   2.620   8.583 -0.1015  0.4723 -0.8649
 4598SOL    HW125430   3.040   2.607   8.493  2.4014  0.8560 -1.7723
 4598SOL    HW225431   3.162   2.593   8.586 -0.5018 -0.6096  1.3038
 4599SOL     OW25432   0.642   2.298  12.597  0.1805 -0.2311 -0.3897
 4599SOL    HW125433   0.598   2.237  12.656 -0.2110 -0.8102 -1.2884
 4599SOL    HW225434   0.735   2.288  12.616 -0.2626 -2.8639  0.4084
 4600SOL     OW25435   0.694   3.692   1.502 -0.2897 -0.0462 -0.5158
 4600SOL    HW125436   0.619   3.653   1.455 -0.5675 -0.6162  0.4014
 4600SOL    HW225437   0.649   3.774   1.523 -1.8048 -1.5033  1.9643
 4601SOL     OW25438   2.049   3.557   5.392 -0.4967 -0.8079  0.4376
 4601SOL    HW125439   2.123   3.595   5.345 -0.0216  1.3325  2.8857
 4601SOL    HW225440   2.051   3.468   5.356  1.5871 -0.7783  0.4727
 4602SOL     OW25441   3.142   4.224   8.523 -0.1755 -0.0011 -0.5994
 4602SOL    HW125442   3.176   4.311   8.546 -1.4979  0.3987 -0.1465
 4602SOL    HW225443   3.229   4.185   8.513  0.0468  0.3230  0.0222
 4603SOL     OW25444   0.096   1.502   0.341 -0.4276 -0.0101 -0.1096
 4603SOL    HW125445   0.075   1.546   0.259  0.5676 -3.0581 -2.0067
 4603SOL    HW225446   0.189   1.520   0.359 -0.5517  0.0378  0.4950
 4604SOL     OW25447   2.554   3.290   4.521  0.0493 -0.0852  0.4113
 4604SOL    HW125448   2.582   3.344   4.594 -1.1800 -0.4468  1.1397
 4604SOL    HW225449   2.518   3.214   4.566 -2.3135  1.0646  0.4286
 4605SOL     OW25450   2.608   3.518   4.329  0.5265 -0.0315 -0.5244
 4605SOL    HW125451   2.533   3.522   4.389  0.6924 -0.3367 -0.2986
 4605SOL    HW225452   2.570   3.501   4.242  1.5144 -2.2160 -0.5346
 4606SOL     OW25453   0.466   1.580   5.864 -0.2935 -0.2244  0.1692
 4606SOL    HW125454   0.468   1.644   5.936  2.5740 -0.7106  0.5079
 4606SOL    HW225455   0.480   1.643   5.794  0.8403  0.2657  0.8429
 4607SOL     OW25456   0.904   4.058   6.899 -0.0233  0.0061  0.0220
 4607SOL    HW125457   0.906   4.151   6.876  1.0737  0.7413  3.1548
 4607SOL    HW225458   0.855   4.065   6.980  0.1840  2.1161 -0.0438
 4608SOL     OW25459   2.527   2.248  16.174  0.3291 -0.3368 -0.6738
 4608SOL    HW125460   2.446   2.225  16.218  0.8314 -3.2789 -1.2641
 4608SOL    HW225461   2.545   2.168  16.124  0.3365 -0.4713 -0.4539
 4609SOL     OW25462   0.488   2.284  16.880  0.0935 -0.6521  0.1722
 4609SOL    HW125463   0.523   2.201  16.849 -1.1174 -0.4199 -1.8231
 4609SOL    HW225464   0.393   2.273  16.885 -0.1795  1.0243 -1.2312
 4610SOL     OW25465   0.060   2.324   3.461  0.2623 -0.3131 -0.5049
 4610SOL    HW125466   0.006   2.331   3.383 -0.6475  0.9478  0.2397
 4610SOL    HW225467   0.028   2.243   3.500 -1.0322  0.4744  0.0519
 4611SOL     OW25468   4.235   3.674   1.114  0.7170  0.4362 -0.0522
 4611SOL    HW125469   4.313   3.662   1.059 -0.2253 -0.0098 -1.3080
 4611SOL    HW225470   4.274   3.726   1.184 -2.2353  1.9343  0.4935
 4612SOL     OW25471   3.004   4.223  10.223 -0.1868 -0.1079 -0.1353
 4612SOL    HW125472   3.049   4.240  10.140 -0.6169 -0.5376 -0.4618
 4612SOL    HW225473   2.912   4.242  10.202  0.1107  2.8103  1.2188
 4613SOL     OW25474   4.613   3.463   3.764 -0.1905  0.4538 -0.3944
 4613SOL    HW125475   4.626   3.376   3.728  1.3177  0.5733 -0.1381
 4613SOL    HW225476   4.519   3.456   3.783 -0.1952 -0.4058 -0.7683
 4614SOL     OW25477   1.090   2.557  14.533 -0.0223 -0.4984 -0.1193
 4614SOL    HW125478   1.101   2.651  14.546 -0.0831 -0.6210  0.8541
 4614SOL    HW225479   1.086   2.524  14.623 -0.3381  0.1688  0.1127
 4615SOL     OW25480   2.480   3.241   7.844  0.0496  0.0494 -0.8936
 4615SOL    HW125481   2.502   3.150   7.865  1.6727  1.0837  1.9135
 4615SOL    HW225482   2.398   3.262   7.890 -0.9143 -1.8585 -1.7366
 4616SOL     OW25483   3.122   1.213  13.461  0.0262 -0.4335  0.1480
 4616SOL    HW125484   3.195   1.172  13.415 -0.8104  0.1344 -1.6921
 4616SOL    HW225485   3.074   1.138  13.496 -2.9872  0.0730 -2.9311
 4617SOL     OW25486   1.066   1.592   1.410  0.0975 -0.5868 -0.3813
 4617SOL    HW125487   1.080   1.660   1.343  0.2785 -2.5624 -2.3701
 4617SOL    HW225488   0.994   1.546   1.367 -1.1094  0.9667 -0.0233
 4618SOL     OW25489   4.517   0.571   6.146  0.4488  0.7670 -0.1983
 4618SOL    HW125490   4.467   0.563   6.227  2.3052 -1.0934  0.7562
 4618SOL    HW225491   4.521   0.666   6.136  0.3627  0.8631  0.6470
 4619SOL     OW25492   1.947   1.996   5.319  0.4901  0.3623 -0.2720
 4619SOL    HW125493   1.952   1.966   5.228 -1.1512  2.6916 -1.1135
 4619SOL    HW225494   1.934   2.088   5.295 -0.1409  0.3144 -0.1152
 4620SOL     OW25495   4.592   0.242   3.640 -0.0295 -0.2765  0.0996
 4620SOL    HW125496   4.659   0.228   3.573 -0.8462 -0.7179 -0.6396
 4620SOL    HW225497   4.593   0.157   3.684 -0.2805 -0.1159  0.4132
 4621SOL     OW25498   0.830   0.276   4.097 -0.3459  0.5575  0.7155
 4621SOL    HW125499   0.916   0.296   4.059 -0.0699  2.2644  2.2179
 4621SOL    HW225500   0.774   0.309   4.026 -0.1241 -1.1038 -0.2289
 4622SOL     OW25501   3.821   3.107  13.224 -0.0741  0.1919 -0.1112
 4622SOL    HW125502   3.876   3.064  13.289  0.8801  1.6769  0.0816
 4622SOL    HW225503   3.753   3.143  13.281 -0.5643 -3.0483  1.3294
 4623SOL     OW25504   3.422   2.820  10.594 -0.1744 -0.4145 -0.1370
 4623SOL    HW125505   3.461   2.751  10.540  0.3780  0.6664 -1.1270
 4623SOL    HW225506   3.355   2.856  10.537  1.2031 -0.0812 -1.5648
 4624SOL     OW25507   1.691   2.222   4.092 -0.3038 -0.3556  0.1778
 4624SOL    HW125508   1.673   2.301   4.042  1.7589  0.3501  0.5485
 4624SOL    HW225509   1.749   2.167   4.038 -1.8603 -1.3160 -0.5051
 4625SOL     OW25510   0.781   2.905   2.307 -0.1149 -0.0346  0.0095
 4625SOL    HW125511   0.796   2.829   2.251 -0.7899 -0.6267  0.6281
 4625SOL    HW225512   0.863   2.907   2.357  0.3919 -0.1972 -0.8113
 4626SOL     OW25513   1.597   0.737  17.198 -0.0153  0.5172 -0.4788
 4626SOL    HW125514   1.623   0.681  17.271  1.6822  1.6502 -0.2203
 4626SOL    HW225515   1.616   0.825  17.231 -1.2678  0.9358 -0.8726
 4627SOL     OW25516   0.552   4.439  13.339  0.0589 -0.2009 -0.1557
 4627SOL    HW125517   0.561   4.381  13.263  1.9469  2.8958 -2.2847
 4627SOL    HW225518   0.632   4.492  13.332 -0.9409  1.2170 -0.9053
 4628SOL     OW25519   3.185   2.829   6.866 -0.1662  0.1662  0.6649
 4628SOL    HW125520   3.157   2.753   6.917 -0.6302 -1.0940 -1.4536
 4628SOL    HW225521   3.105   2.855   6.820 -0.2410  1.3623  1.4621
 4629SOL     OW25522   0.721   0.380  11.751  0.1863  0.0402  0.3647
 4629SOL    HW125523   0.723   0.347  11.841  2.6685  1.2067  0.7298
 4629SOL    HW225524   0.628   0.390  11.731 -0.0448  0.2460  1.5501
 4630SOL     OW25525   3.969   2.528   2.160  0.6742 -0.3835  0.8604
 4630SOL    HW125526   4.012   2.452   2.120  0.2234 -0.1885  0.0189
 4630SOL    HW225527   3.999   2.599   2.105 -0.5849 -0.8308 -0.4209
 4631SOL     OW25528   3.381   1.442   4.162 -0.1024 -0.4278 -0.4028
 4631SOL    HW125529   3.380   1.428   4.067  1.8158  2.7592 -0.8746
 4631SOL    HW225530   3.474   1.425   4.175  0.0924 -0.2650 -1.5546
 4632SOL     OW25531   3.669   2.332   0.926 -0.2250 -0.2135 -0.1131
 4632SOL    HW125532   3.667   2.413   0.874 -2.2189  0.0229  0.3467
 4632SOL    HW225533   3.630   2.360   1.009  1.1745  1.0973  0.1135
 4633SOL     OW25534   0.072   2.121   8.667  0.7663  0.2959  0.2391
 4633SOL    HW125535   0.112   2.191   8.617  0.3315  1.1692  1.1202
 4633SOL    HW225536   0.058   2.161   8.753  0.7120  2.7981 -0.9500
 4634SOL     OW25537   3.088   3.168   0.163  0.2290  0.2381  0.0949
 4634SOL    HW125538   3.109   3.077   0.186 -0.1932 -0.0238 -0.5927
 4634SOL    HW225539   3.012   3.178   0.221 -1.3384  0.3238 -2.0065
 4635SOL     OW25540   3.520   4.312   5.918  0.0519  1.1911 -0.3487
 4635SOL    HW125541   3.530   4.219   5.936 -2.0956  1.2000  0.7932
 4635SOL    HW225542   3.433   4.320   5.880  0.5904 -0.1411 -1.8275
 4636SOL     OW25543   1.567   1.568   8.023 -0.5055  0.2196 -0.1962
 4636SOL    HW125544   1.651   1.535   7.992 -0.7336 -0.4566 -0.1071
 4636SOL    HW225545   1.532   1.489   8.065  2.2961  0.4612  2.5726
 4637SOL     OW25546   4.541   1.199   1.340 -0.5690 -0.0239 -0.0203
 4637SOL    HW125547   4.463   1.243   1.374  0.5486  2.6659 -0.9623
 4637SOL    HW225548   4.505   1.113   1.318 -0.9947  0.2629 -0.4344
 4638SOL     OW25549   4.416   1.447   2.788  0.3347 -0.4859 -0.1791
 4638SOL    HW125550   4.408   1.389   2.864  1.7616 -1.6197 -0.9076
 4638SOL    HW225551   4.333   1.495   2.786  0.3139 -0.5448 -0.6504
 4639SOL     OW25552   1.490   3.917   7.021  0.4168  0.4312 -0.6487
 4639SOL    HW125553   1.460   3.855   6.954  1.0735  0.2737 -0.7943
 4639SOL    HW225554   1.578   3.933   6.989  0.7817 -0.2649  0.0066
 4640SOL     OW25555   3.212   1.449   9.175 -0.4191  0.4406  0.2714
 4640SOL    HW125556   3.118   1.431   9.181 -0.4846  1.4519  1.9813
 4640SOL    HW225557   3.227   1.431   9.268  1.2537 -1.1818 -0.3198
 4641SOL     OW25558   3.191   4.181   5.973 -1.3889  0.1687  0.7262
 4641SOL    HW125559   3.171   4.093   6.007  1.1771 -1.9451 -3.2566
 4641SOL    HW225560   3.265   4.199   6.031 -0.7041 -1.4764  0.3658
 4642SOL     OW25561   2.818   0.078   0.541 -0.8194  0.2929  0.4629
 4642SOL    HW125562   2.895   0.130   0.520 -1.8322  2.2191  1.4798
 4642SOL    HW225563   2.823   4.732   0.495 -1.2190  0.2276  0.5377
 4643SOL     OW25564   0.544   0.396   8.709  0.0355 -0.2864  0.1093
 4643SOL    HW125565   0.555   0.462   8.778 -0.5940 -0.4602  0.3712
 4643SOL    HW225566   0.534   0.316   8.761 -3.8587  1.6723  2.3684
 4644SOL     OW25567   1.143   1.087   5.608 -0.3863  0.0021 -0.2987
 4644SOL    HW125568   1.172   0.999   5.583 -4.0411 -1.1439 -0.5397
 4644SOL    HW225569   1.082   1.046   5.669 -2.5417  3.4693 -0.0971
 4645SOL     OW25570   3.559   3.142  15.517  0.2565  0.2285 -0.0802
 4645SOL    HW125571   3.556   3.205  15.445  0.1867  2.5883  1.9691
 4645SOL    HW225572   3.501   3.187  15.579  3.1347  3.3862  0.2889
 4646SOL     OW25573   3.795   0.788  14.622  0.4075 -0.4717  0.4855
 4646SOL    HW125574   3.882   0.748  14.613  1.4879  1.4052  2.6668
 4646SOL    HW225575   3.731   0.738  14.571 -0.4277  2.1590 -1.0271
 4647SOL     OW25576   2.277   1.741  12.320 -0.5985 -0.3765 -0.1427
 4647SOL    HW125577   2.360   1.734  12.368  0.0835  2.0080 -0.9515
 4647SOL    HW225578   2.225   1.673  12.363 -0.3013 -0.2633  0.4051
 4648SOL     OW25579   2.082   2.769   2.128 -0.4595 -0.6223 -0.3787
 4648SOL    HW125580   2.070   2.858   2.162 -0.2189  0.1631 -2.3702
 4648SOL    HW225581   2.131   2.790   2.049  0.2574  2.6592  0.9364
 4649SOL     OW25582   0.873   1.934   9.424 -0.6812 -0.0950  0.4234
 4649SOL    HW125583   0.922   1.863   9.382  0.5248  1.8355 -1.4872
 4649SOL    HW225584   0.787   1.893   9.432 -1.1533  0.5517 -1.4792
 4650SOL     OW25585   0.828   3.902   6.664  0.6967  0.3873 -0.0557
 4650SOL    HW125586   0.756   3.840   6.664  1.0120  0.0247 -0.6803
 4650SOL    HW225587   0.815   3.946   6.748  0.5530 -4.5760  2.5224
 4651SOL     OW25588   3.170   3.989   8.086  0.5731 -0.7693  0.1243
 4651SOL    HW125589   3.128   3.944   8.159  1.2260 -0.0241  0.9582
 4651SOL    HW225590   3.154   4.076   8.120 -1.0718 -1.3423  0.8421
 4652SOL     OW25591   4.182   4.387  11.762  0.1756 -0.1713  0.5225
 4652SOL    HW125592   4.110   4.323  11.763  0.1204 -0.1279 -0.8154
 4652SOL    HW225593   4.133   4.469  11.764 -0.5028 -0.5166 -1.4071
 4653SOL     OW25594   4.091   4.303   2.836  0.2006  0.2819  0.0317
 4653SOL    HW125595   4.145   4.230   2.805  0.6777  0.8893 -0.5807
 4653SOL    HW225596   4.117   4.372   2.775  1.6203  0.3709  0.7362
 4654SOL     OW25597   3.881   2.013   3.568  0.0672  0.0012  0.0745
 4654SOL    HW125598   3.955   2.073   3.562 -1.4497  1.9996  1.4428
 4654SOL    HW225599   3.895   1.950   3.498  2.6743  0.0918  0.5354
 4655SOL     OW25600   4.640   1.607   9.116  0.0154 -0.3509 -1.1145
 4655SOL    HW125601   4.729   1.633   9.093 -0.3567 -0.9731 -3.2508
 4655SOL    HW225602   4.654   1.556   9.196 -3.2901 -0.2917 -0.5125
 4656SOL     OW25603   2.338   4.045   9.387 -0.4697  0.1130 -0.3292
 4656SOL    HW125604   2.409   4.002   9.339  0.4398 -0.0893  1.1998
 4656SOL    HW225605   2.333   4.125   9.334 -2.4784 -0.7021 -1.3654
 4657SOL     OW25606   1.942   2.315   4.941 -0.5364 -0.1018  0.2543
 4657SOL    HW125607   1.848   2.295   4.936 -0.0164 -2.4341 -0.1600
 4657SOL    HW225608   1.951   2.329   5.035  1.5594  2.1472 -0.2887
 4658SOL     OW25609   3.007   4.268   7.878 -0.3972  0.8470  0.1994
 4658SOL    HW125610   2.967   4.287   7.793 -0.4623 -2.4036 -0.4968
 4658SOL    HW225611   2.925   4.247   7.923 -1.2366 -1.6703 -2.5427
 4659SOL     OW25612   3.573   1.968   5.889  0.2407  0.1056 -0.4628
 4659SOL    HW125613   3.598   2.012   5.970 -0.8726 -0.9877  0.4794
 4659SOL    HW225614   3.516   1.896   5.918  0.4027  0.0900 -0.1848
 4660SOL     OW25615   2.362   1.346   6.112  0.1635 -0.0869 -0.0102
 4660SOL    HW125616   2.423   1.279   6.143 -1.2904 -0.5735  1.8304
 4660SOL    HW225617   2.278   1.301   6.105 -0.5588  1.6727 -2.3051
 4661SOL     OW25618   4.320   4.609   0.527 -0.2709  0.2108  0.5822
 4661SOL    HW125619   4.260   4.618   0.453 -1.1628 -1.8868  1.0518
 4661SOL    HW225620   4.261   4.643   0.593 -1.1386 -1.0718  0.4637
 4662SOL     OW25621   1.215   4.264   6.997  0.4388  0.3256 -0.0692
 4662SOL    HW125622   1.206   4.172   6.973 -1.5407  0.3561  0.5465
 4662SOL    HW225623   1.235   4.306   6.914  0.9520  0.3172  0.0505
 4663SOL     OW25624   1.393   3.087   3.624 -0.2236 -0.0068  0.0653
 4663SOL    HW125625   1.368   2.999   3.597  1.1692 -0.6206  0.7898
 4663SOL    HW225626   1.343   3.092   3.706  0.6924 -2.4079  0.7454
 4664SOL     OW25627   0.912   0.212  13.558 -0.3050 -0.7432  0.6314
 4664SOL    HW125628   0.935   0.153  13.486 -1.7927  0.4530 -0.8169
 4664SOL    HW225629   0.974   0.282  13.539 -0.9610  0.0673  1.4971
 4665SOL     OW25630   4.321   4.266   3.854  0.6035  0.4587  0.7654
 4665SOL    HW125631   4.353   4.274   3.763  0.4510  0.8637  0.7465
 4665SOL    HW225632   4.256   4.336   3.859 -0.0324 -0.1512  0.9936
 4666SOL     OW25633   3.146   1.039   2.487  0.0842 -0.3686 -0.2034
 4666SOL    HW125634   3.141   1.120   2.537 -1.0500 -0.3045 -0.4136
 4666SOL    HW225635   3.189   1.068   2.406 -2.3452 -1.1241 -1.7657
 4667SOL     OW25636   0.111   4.404   6.980 -0.7518  0.0279 -0.0259
 4667SOL    HW125637   0.148   4.439   6.900  2.5377 -2.1507  0.5515
 4667SOL    HW225638   0.044   4.343   6.949 -0.7068 -0.0950  0.1175
 4668SOL     OW25639   3.274   4.278   0.918 -0.8627 -0.1434 -0.1850
 4668SOL    HW125640   3.296   4.354   0.865  0.9750 -0.4799  0.0906
 4668SOL    HW225641   3.356   4.237   0.945 -1.2060 -0.5616  0.2296
 4669SOL     OW25642   1.554   0.785   0.071 -0.3214 -0.3752  0.2009
 4669SOL    HW125643   1.539   0.874   0.103 -1.8644 -0.5369 -0.0996
 4669SOL    HW225644   1.588   0.748   0.152 -0.6245 -0.3523  0.3382
 4670SOL     OW25645   2.802   3.982   8.296 -0.7234 -0.4865  0.1403
 4670SOL    HW125646   2.887   3.947   8.271  0.1994  2.0173 -0.1586
 4670SOL    HW225647   2.805   4.000   8.389 -0.9030 -2.0192  0.4518
 4671SOL     OW25648   1.460   2.875  16.229  0.2006  0.4216 -0.3721
 4671SOL    HW125649   1.394   2.818  16.191 -0.4050  0.2406  0.9856
 4671SOL    HW225650   1.540   2.839  16.189  0.6514  2.3628 -1.2792
 4672SOL     OW25651   2.682   0.672  10.070  0.3694 -0.1371 -0.3413
 4672SOL    HW125652   2.733   0.599  10.105 -0.5047 -1.1621 -1.2014
 4672SOL    HW225653   2.754   0.718  10.028 -0.2661  0.2894 -0.9722
 4673SOL     OW25654   4.498   4.396  11.571 -0.1236 -0.1115  0.1702
 4673SOL    HW125655   4.472   4.392  11.663  0.0381  0.9118  0.2662
 4673SOL    HW225656   4.574   4.454  11.576 -0.4261  0.5227 -2.7747
 4674SOL     OW25657   4.035   4.345   6.980  0.2373 -0.0290 -0.1237
 4674SOL    HW125658   4.121   4.305   6.992  1.1230  1.4668 -1.3617
 4674SOL    HW225659   4.017   4.336   6.887  0.0882  0.4979 -0.1479
 4675SOL     OW25660   1.910   1.070   5.906  0.0802 -0.0226  0.0358
 4675SOL    HW125661   1.937   1.031   5.822  0.0565 -0.3717  0.1881
 4675SOL    HW225662   1.868   0.996   5.950 -1.3284 -0.7785 -2.5421
 4676SOL     OW25663   2.540   3.574   2.112 -0.1520  0.3176 -0.2936
 4676SOL    HW125664   2.537   3.492   2.161 -0.6358  0.4416 -0.1174
 4676SOL    HW225665   2.586   3.544   2.034  0.2626 -1.6219  0.7085
 4677SOL     OW25666   4.263   0.415   1.399 -0.2409  0.3971  0.4004
 4677SOL    HW125667   4.265   0.340   1.339 -1.1922  1.8520 -1.4508
 4677SOL    HW225668   4.290   0.483   1.337  0.5697 -3.0753 -3.0647
 4678SOL     OW25669   1.577   0.426   5.667  0.0938  0.0649  0.0457
 4678SOL    HW125670   1.515   0.355   5.648 -0.1739  0.6191 -1.2164
 4678SOL    HW225671   1.659   0.377   5.665 -0.6304 -1.0970 -0.8602
 4679SOL     OW25672   0.661   0.866   8.294  0.1932  0.2103  0.1807
 4679SOL    HW125673   0.579   0.819   8.282  0.7629 -0.7573  0.0149
 4679SOL    HW225674   0.706   0.836   8.215  0.4913 -0.8250  0.7423
 4680SOL     OW25675   4.488   3.765   7.069  0.2468  0.5475 -0.3008
 4680SOL    HW125676   4.475   3.841   7.127  1.2862  0.4788  0.0179
 4680SOL    HW225677   4.404   3.766   7.024 -0.5854  0.9634  1.2451
 4681SOL     OW25678   2.805   0.131   5.473 -0.0889 -0.4386 -0.6787
 4681SOL    HW125679   2.858   0.211   5.481 -2.1315  0.8201  0.1697
 4681SOL    HW225680   2.816   0.098   5.563  2.1343  1.8187 -0.0995
 4682SOL     OW25681   0.530   1.339   2.880 -0.2296 -0.2135 -0.3800
 4682SOL    HW125682   0.453   1.344   2.824 -0.1251 -2.1976 -0.7154
 4682SOL    HW225683   0.516   1.412   2.940 -2.0997  0.1012 -1.2070
 4683SOL     OW25684   3.607   1.708   0.578 -0.1354  0.2424  0.3164
 4683SOL    HW125685   3.515   1.734   0.574  0.2302  1.2552 -1.3121
 4683SOL    HW225686   3.612   1.625   0.532 -1.2950  0.4189 -0.1221
 4684SOL     OW25687   4.593   2.897   4.398 -0.0888 -0.2450 -0.7969
 4684SOL    HW125688   4.668   2.840   4.414 -0.1861 -0.1878 -0.1384
 4684SOL    HW225689   4.526   2.839   4.360  0.0664 -0.3570 -0.8977
 4685SOL     OW25690   1.819   3.429   6.876  0.3770  0.9326 -0.2502
 4685SOL    HW125691   1.860   3.399   6.794  0.3743 -0.3838  0.2329
 4685SOL    HW225692   1.890   3.473   6.923  1.0113 -0.2282 -0.1365
 4686SOL     OW25693   2.012   1.990   4.439  0.3504  0.5486 -0.5178
 4686SOL    HW125694   2.092   2.041   4.430  1.4677 -0.9453  0.8451
 4686SOL    HW225695   1.999   1.967   4.347 -0.2735  1.8481 -0.7562
 4687SOL     OW25696   4.399   3.765   2.566  0.1757 -0.1977  0.7653
 4687SOL    HW125697   4.331   3.817   2.523  0.3022  0.4288  1.3132
 4687SOL    HW225698   4.453   3.839   2.595 -0.2578  0.2458  0.4340
 4688SOL     OW25699   0.651   3.951   8.903  0.0672 -0.6137  0.0617
 4688SOL    HW125700   0.602   3.989   8.976 -0.5025 -1.1158 -0.0570
 4688SOL    HW225701   0.575   3.909   8.862  0.7827 -1.6013 -0.2383
 4689SOL     OW25702   2.886   3.880   5.919 -0.2464 -0.1439 -0.1434
 4689SOL    HW125703   2.855   3.963   5.954  0.4484  0.0680 -0.0348
 4689SOL    HW225704   2.941   3.844   5.989  1.3106  1.7101 -0.4069
 4690SOL     OW25705   2.968   2.838  10.534  0.2309 -0.1078  0.0860
 4690SOL    HW125706   2.934   2.927  10.539  0.6449  0.1882 -2.1220
 4690SOL    HW225707   3.049   2.860  10.488  0.1918 -0.6312 -0.2383
 4691SOL     OW25708   0.575   0.554   8.960 -0.5538 -0.1145 -0.5334
 4691SOL    HW125709   0.664   0.581   8.987  0.8788 -1.0718 -4.3464
 4691SOL    HW225710   0.530   0.639   8.960  0.5789  0.4906  1.6438
 4692SOL     OW25711   0.793   2.175   3.193  0.0076 -0.0311  0.1598
 4692SOL    HW125712   0.704   2.178   3.228  0.6220  1.8841  1.5289
 4692SOL    HW225713   0.794   2.080   3.181  0.5427 -0.3399  2.6407
 4693SOL     OW25714   3.739   3.361   2.984 -0.1641 -0.6899 -0.9130
 4693SOL    HW125715   3.739   3.265   2.975  0.2745 -0.6388 -1.4881
 4693SOL    HW225716   3.678   3.369   3.057 -0.1291 -1.8659 -0.7444
 4694SOL     OW25717   0.347   3.761   5.639 -0.1325  0.0914 -0.4571
 4694SOL    HW125718   0.331   3.849   5.605 -0.0040 -0.4249 -1.8797
 4694SOL    HW225719   0.284   3.703   5.596  0.7182  0.2045 -1.8516
 4695SOL     OW25720   4.615   3.189   6.047 -0.5455  0.0582 -0.4650
 4695SOL    HW125721   4.650   3.102   6.064  0.0806  0.4242  0.1372
 4695SOL    HW225722   4.690   3.234   6.086  0.0120 -2.1290  0.9736
 4696SOL     OW25723   1.434   4.590  13.204 -0.0445 -0.0295  0.0047
 4696SOL    HW125724   1.512   4.645  13.213  0.8382 -1.2864  0.0318
 4696SOL    HW225725   1.423   4.594  13.109 -2.5489  0.7653  0.3391
 4697SOL     OW25726   0.623   4.723   6.986  0.2241  0.0076  0.1169
 4697SOL    HW125727   0.571   0.056   7.023 -1.4899 -0.6969 -0.9758
 4697SOL    HW225728   0.566   4.648   7.005  0.4761 -0.4633 -1.0072
 4698SOL     OW25729   0.686   2.101   8.032  0.7959 -0.2588 -0.3612
 4698SOL    HW125730   0.602   2.146   8.040  0.1845 -1.4121 -0.3746
 4698SOL    HW225731   0.719   2.142   7.952 -0.0992 -1.3151 -1.2756
 4699SOL     OW25732   0.598   2.423  11.952  0.0874  0.0657  0.0900
 4699SOL    HW125733   0.526   2.431  12.015 -1.1562 -2.4899 -0.9933
 4699SOL    HW225734   0.669   2.480  11.982  2.0055 -2.2045 -0.1524
 4700SOL     OW25735   4.135   3.094   0.233  0.4412 -0.1919 -0.3775
 4700SOL    HW125736   4.069   3.024   0.230 -3.0327  3.0110  1.6586
 4700SOL    HW225737   4.088   3.173   0.258 -1.2164 -1.3595  0.2081
 4701SOL     OW25738   1.134   3.207   2.833 -0.5719 -0.2533 -0.1657
 4701SOL    HW125739   1.195   3.160   2.777  0.4573  0.9185 -0.0430
 4701SOL    HW225740   1.067   3.139   2.841 -1.6837  0.7183 -1.1519
 4702SOL     OW25741   4.299   1.138   6.142 -0.3132 -0.5929 -0.4329
 4702SOL    HW125742   4.294   1.095   6.228 -0.2787 -0.6729 -0.4715
 4702SOL    HW225743   4.388   1.171   6.152 -0.5051 -0.5721  1.3770
 4703SOL     OW25744   0.247   2.811   6.396 -0.0742  0.6329 -0.2440
 4703SOL    HW125745   0.253   2.887   6.338  0.8602  2.0360  1.6858
 4703SOL    HW225746   0.207   2.854   6.471  2.9673 -0.1611  1.8523
 4704SOL     OW25747   0.449   3.524   1.111  0.0950  0.3208  0.0208
 4704SOL    HW125748   0.536   3.484   1.122  1.7322  4.4627  2.1204
 4704SOL    HW225749   0.432   3.544   1.203  2.6205 -2.0541  1.0147
 4705SOL     OW25750   0.458   2.594  12.436  0.2218 -0.2107  0.0572
 4705SOL    HW125751   0.426   2.504  12.440  0.5351 -0.3972 -1.5185
 4705SOL    HW225752   0.450   2.619  12.343 -0.5183 -1.9813 -0.3443
 4706SOL     OW25753   1.146   3.944   2.525  0.2860  0.2273  0.1562
 4706SOL    HW125754   1.068   3.904   2.487 -0.1272  0.0975  1.1422
 4706SOL    HW225755   1.189   3.859   2.532  1.9961  1.1687  1.2172
 4707SOL     OW25756   3.094   1.014   8.939  0.3364  0.8041 -0.8989
 4707SOL    HW125757   3.168   1.058   8.980  1.7998 -2.0561 -0.4988
 4707SOL    HW225758   3.073   1.072   8.866  1.3629  2.7322  0.3180
 4708SOL     OW25759   2.918   4.429  15.796 -0.0484  0.1685 -0.2395
 4708SOL    HW125760   2.917   4.510  15.745 -0.9488  0.5226  0.3327
 4708SOL    HW225761   3.012   4.424  15.816  0.5234 -0.0754 -3.0791
 4709SOL     OW25762   2.923   0.111   1.608 -0.5476  0.1421 -0.7341
 4709SOL    HW125763   2.916   0.017   1.593 -2.5131 -0.2547  2.6736
 4709SOL    HW225764   3.000   0.128   1.663 -1.3961 -1.3611  0.9001
 4710SOL     OW25765   3.085   4.507   6.486 -0.1373 -0.3418 -0.0706
 4710SOL    HW125766   3.104   4.600   6.496 -3.0743  0.4217 -1.4312
 4710SOL    HW225767   3.013   4.481   6.543  2.1646 -1.6828  2.2081
 4711SOL     OW25768   2.939   0.667  13.685  0.4822  0.4849  0.5905
 4711SOL    HW125769   2.994   0.717  13.625 -1.2130  0.6129 -0.8734
 4711SOL    HW225770   2.920   0.727  13.756 -2.4648  0.9037 -0.5353
 4712SOL     OW25771   3.271   3.354   9.459 -0.2118  0.5201 -0.0374
 4712SOL    HW125772   3.304   3.279   9.510 -1.5145  0.5229  0.8118
 4712SOL    HW225773   3.228   3.312   9.386 -1.9412  0.6170  0.9312
 4713SOL     OW25774   4.119   1.396   5.382 -0.2972 -0.1307 -0.2447
 4713SOL    HW125775   4.064   1.409   5.459  1.3172 -3.1147  1.4087
 4713SOL    HW225776   4.190   1.340   5.415 -0.9570  0.3949  2.0696
 4714SOL     OW25777   4.201   4.275   2.258 -0.4919 -0.1664 -0.0614
 4714SOL    HW125778   4.112   4.280   2.292 -0.1149 -0.2407  0.9448
 4714SOL    HW225779   4.244   4.334   2.320  0.7374  0.5127 -1.5835
 4715SOL     OW25780   3.409   0.802   3.933 -0.2176  0.7050 -0.0168
 4715SOL    HW125781   3.368   0.794   4.019 -0.1265  0.6506  0.0217
 4715SOL    HW225782   3.384   0.891   3.909  0.4845  0.5906 -1.1778
 4716SOL     OW25783   2.173   1.679   8.849  0.1098 -0.2737  0.0394
 4716SOL    HW125784   2.125   1.727   8.782  1.4876  2.1907  0.8051
 4716SOL    HW225785   2.167   1.742   8.921  0.2294  0.7208 -0.8138
 4717SOL     OW25786   0.161   2.575  16.818 -0.3545 -0.3384  0.1682
 4717SOL    HW125787   0.247   2.614  16.803 -0.6299  0.9246  1.8705
 4717SOL    HW225788   0.143   2.614  16.903  0.7600 -1.5047  0.9306
 4718SOL     OW25789   4.539   2.124   2.584 -0.2712  0.0438 -0.7627
 4718SOL    HW125790   4.567   2.213   2.605 -1.3785  0.5050 -1.2178
 4718SOL    HW225791   4.608   2.098   2.522  1.1951  0.0594  0.8742
 4719SOL     OW25792   2.150   0.668   6.496  0.2269  0.0766 -0.4850
 4719SOL    HW125793   2.223   0.698   6.550  1.2790 -1.8175 -0.8853
 4719SOL    HW225794   2.173   0.577   6.514 -0.2188 -0.0916 -0.7577
 4720SOL     OW25795   1.413   0.039   8.524  0.1739 -0.2641  0.5866
 4720SOL    HW125796   1.385   0.090   8.449  1.0452  0.1489  0.5382
 4720SOL    HW225797   1.466   4.713   8.475  0.0858 -0.7239  1.0779
 4721SOL     OW25798   2.838   0.930   5.870  0.0190 -0.3399 -1.1319
 4721SOL    HW125799   2.851   0.842   5.836 -0.3698 -0.5376 -0.7651
 4721SOL    HW225800   2.923   0.974   5.861 -0.3517  0.5251 -0.4532
 4722SOL     OW25801   4.093   2.529   9.474 -0.1500  0.0761  0.4188
 4722SOL    HW125802   4.139   2.570   9.547  1.2051  1.1223 -1.0253
 4722SOL    HW225803   4.103   2.596   9.406  0.1384 -1.7627 -1.3434
 4723SOL     OW25804   4.275   1.542   8.494 -0.3977 -0.0337  0.3394
 4723SOL    HW125805   4.274   1.446   8.496 -0.6131 -0.0371  0.0389
 4723SOL    HW225806   4.236   1.563   8.579  1.1746 -1.1136  1.3426
 4724SOL     OW25807   0.175   0.466   2.349 -0.1779  0.3603  0.5226
 4724SOL    HW125808   0.195   0.559   2.351  2.7851 -0.2868  1.5385
 4724SOL    HW225809   0.112   0.465   2.421  1.8491 -0.6479  2.2942
 4725SOL     OW25810   0.157   4.012   8.391 -0.1209  0.3788  0.6491
 4725SOL    HW125811   0.113   3.965   8.462  0.8903 -0.4900  0.7198
 4725SOL    HW225812   0.232   4.051   8.436  1.1711 -1.2113 -0.1168
 4726SOL     OW25813   1.280   0.383  14.939  0.0968 -0.3842  0.5473
 4726SOL    HW125814   1.364   0.430  14.940  1.0125 -2.0172  0.2978
 4726SOL    HW225815   1.274   0.334  15.021 -1.9379 -2.3203 -0.7564
 4727SOL     OW25816   1.148   3.091   5.952 -0.6526 -0.0594  0.5140
 4727SOL    HW125817   1.090   3.041   5.895 -2.5312  4.6598 -1.6803
 4727SOL    HW225818   1.088   3.134   6.013 -0.9857 -1.4086  1.1280
 4728SOL     OW25819   4.702   3.181  13.385 -0.4792 -0.2880  0.0001
 4728SOL    HW125820   4.607   3.192  13.380 -0.4396  0.5953  1.3386
 4728SOL    HW225821   4.716   3.127  13.307 -0.9498  1.3877 -1.2513
 4729SOL     OW25822   1.764   1.746  13.460 -0.0432 -0.0445  0.1869
 4729SOL    HW125823   1.706   1.800  13.514 -0.3278  0.0903 -0.2575
 4729SOL    HW225824   1.835   1.810  13.462 -0.2840  0.2772 -1.6473
 4730SOL     OW25825   4.344   1.625  12.883 -0.4435  0.0349  0.2726
 4730SOL    HW125826   4.263   1.633  12.834  0.7990  0.7317 -1.6621
 4730SOL    HW225827   4.312   1.593  12.968  0.1264 -2.3021 -0.3754
 4731SOL     OW25828   2.730   3.770  17.711  0.5652  0.2577  0.1365
 4731SOL    HW125829   2.822   3.748  17.727 -0.3553 -3.2547  0.5480
 4731SOL    HW225830   2.713   3.713  17.637 -0.1071 -1.6427  1.7619
 4732SOL     OW25831   2.518   0.295   4.418  0.0460 -0.1738 -0.6130
 4732SOL    HW125832   2.527   0.201   4.399 -1.1839 -0.3426 -0.3863
 4732SOL    HW225833   2.501   0.328   4.330 -0.3473  0.1324 -0.4226
 4733SOL     OW25834   3.329   3.629   4.128 -0.0218 -0.0195 -0.4389
 4733SOL    HW125835   3.327   3.636   4.033 -0.6955 -1.7046 -0.5594
 4733SOL    HW225836   3.384   3.704   4.150 -0.3306 -0.2379  1.0724
 4734SOL     OW25837   3.966   3.752   4.126 -0.4054 -0.3793  0.1354
 4734SOL    HW125838   3.934   3.756   4.036  0.1475  0.3055 -0.0321
 4734SOL    HW225839   4.051   3.794   4.115 -0.7809 -0.3604 -2.5951
 4735SOL     OW25840   1.708   3.362   6.260 -0.1351 -0.0062  0.1572
 4735SOL    HW125841   1.766   3.419   6.311 -0.9063  0.4808  0.4812
 4735SOL    HW225842   1.673   3.431   6.205  0.0744  1.0034  1.2819
 4736SOL     OW25843   2.952   3.152   3.924 -0.4085  0.5085 -0.0643
 4736SOL    HW125844   2.943   3.076   3.866  0.1586  0.1153  0.3595
 4736SOL    HW225845   3.044   3.146   3.949  0.2517 -0.7415 -2.6973
 4737SOL     OW25846   0.936   1.369   9.616  0.1878  0.0721  0.7138
 4737SOL    HW125847   0.865   1.306   9.600 -0.8851  1.3271  0.4848
 4737SOL    HW225848   1.012   1.332   9.571  0.0030 -2.7888  2.7159
 4738SOL     OW25849   1.605   4.620   4.035  0.5015 -0.2783 -0.6694
 4738SOL    HW125850   1.598   4.690   3.971 -1.9427  1.1304  1.1358
 4738SOL    HW225851   1.516   4.587   4.019  1.3028 -1.4476 -2.6760
 4739SOL     OW25852   3.756   1.353   0.624  0.7527  0.3158 -0.7148
 4739SOL    HW125853   3.662   1.355   0.608  0.9466  0.2347 -1.8444
 4739SOL    HW225854   3.778   1.294   0.552  1.3930 -0.9905  0.5387
 4740SOL     OW25855   2.051   1.141  10.969  0.0998 -0.1986  0.0978
 4740SOL    HW125856   2.087   1.061  11.008  1.0590 -1.2220 -2.8599
 4740SOL    HW225857   2.139   1.180  10.968 -0.4971  1.2207  3.3187
 4741SOL     OW25858   3.626   3.843   0.990  0.1489  0.2168 -0.2036
 4741SOL    HW125859   3.572   3.829   0.912  1.1285 -3.0280 -0.3149
 4741SOL    HW225860   3.616   3.759   1.035  1.0555  0.4322  0.4010
 4742SOL     OW25861   3.516   4.084   2.220 -0.0600 -0.2246 -0.8475
 4742SOL    HW125862   3.528   3.991   2.238  0.7629  0.2136  0.8023
 4742SOL    HW225863   3.590   4.105   2.164  0.1279  0.0050 -0.5080
 4743SOL     OW25864   0.398   2.012  17.102  0.4263  0.2285 -0.4973
 4743SOL    HW125865   0.328   2.030  17.165 -1.8757  0.8526 -3.2679
 4743SOL    HW225866   0.480   2.051  17.133 -0.7212  0.1850  2.6083
 4744SOL     OW25867   3.827   2.776   4.439  0.1110  0.1390 -0.1804
 4744SOL    HW125868   3.867   2.747   4.357  1.4233  0.9349  0.1741
 4744SOL    HW225869   3.777   2.850   4.406 -0.3229  0.6575  1.6539
 4745SOL     OW25870   2.225   1.500   1.760  0.0827 -0.4382 -0.5235
 4745SOL    HW125871   2.294   1.476   1.822  1.7878  2.1919 -1.4257
 4745SOL    HW225872   2.245   1.440   1.688  0.9000 -1.1952  0.3306
 4746SOL     OW25873   1.956   4.109   2.456  0.7530 -0.1749 -0.2250
 4746SOL    HW125874   1.951   4.134   2.548  3.4607  0.7192 -0.3056
 4746SOL    HW225875   1.864   4.114   2.432  0.6763  4.2623  1.1680
 4747SOL     OW25876   2.476   1.587   9.962 -0.1868 -0.0585 -0.2664
 4747SOL    HW125877   2.424   1.605   9.884 -1.7945 -1.8942  0.3828
 4747SOL    HW225878   2.409   1.540  10.012 -0.6186 -1.6271 -2.3218
 4748SOL     OW25879   3.460   3.836   0.108  0.4090  0.2704 -0.1784
 4748SOL    HW125880   3.417   3.780   0.173 -0.2264  2.3276  1.1814
 4748SOL    HW225881   3.474   3.771   0.040  1.9956  0.4434 -0.0033
 4749SOL     OW25882   0.324   2.628   0.984 -0.5879 -0.1345  0.6023
 4749SOL    HW125883   0.339   2.657   0.895 -1.1978 -0.1526  0.4924
 4749SOL    HW225884   0.254   2.684   1.018  0.6196  1.6789  0.0712
 4750SOL     OW25885   2.286   3.263  11.028 -0.7273 -0.2855 -0.2427
 4750SOL    HW125886   2.367   3.264  10.976 -0.8543  0.7186 -0.4283
 4750SOL    HW225887   2.292   3.177  11.070 -0.6283 -1.3278 -2.4003
 4751SOL     OW25888   2.059   1.086   2.511 -0.3911 -0.4773 -0.2569
 4751SOL    HW125889   2.135   1.082   2.453  1.0665  0.8639  1.5740
 4751SOL    HW225890   2.096   1.133   2.585 -0.0313 -1.2071  0.0290
 4752SOL     OW25891   2.099   4.664  15.182 -0.2533 -0.0448  0.1250
 4752SOL    HW125892   2.107   0.016  15.216 -1.2366  0.2232 -0.3495
 4752SOL    HW225893   2.191   4.638  15.186 -0.2275 -0.0530 -0.6169
 4753SOL     OW25894   0.769   0.184   2.531 -0.3377  0.4362 -0.4082
 4753SOL    HW125895   0.850   0.136   2.551  0.9396  1.6340 -2.7258
 4753SOL    HW225896   0.808   0.269   2.508 -1.0037  0.8890  0.1480
 4754SOL     OW25897   0.741   1.401   8.955 -0.0256 -0.0966  0.5744
 4754SOL    HW125898   0.818   1.349   8.934  0.9302  1.3265  0.5841
 4754SOL    HW225899   0.733   1.390   9.050  0.8475 -0.7148  0.5788
 4755SOL     OW25900   2.672   2.591   3.674 -0.2309 -0.2347 -0.0920
 4755SOL    HW125901   2.675   2.602   3.579  0.4978  1.8182  0.1834
 4755SOL    HW225902   2.736   2.646   3.718  1.0150 -0.0714 -2.1149
 4756SOL     OW25903   4.386   3.342   7.132 -0.5454  0.1679 -0.4349
 4756SOL    HW125904   4.346   3.364   7.217  0.4453 -2.7862  0.7967
 4756SOL    HW225905   4.328   3.394   7.077 -2.0269 -1.8037 -0.7092
 4757SOL     OW25906   1.111   4.622   8.244 -0.0763  0.6400 -0.5817
 4757SOL    HW125907   1.072   4.673   8.173  0.9328  2.8285  0.4578
 4757SOL    HW225908   1.136   4.693   8.303  2.7098 -0.7183 -0.1200
 4758SOL     OW25909   0.229   3.509   2.700  0.2243 -0.1891 -0.4548
 4758SOL    HW125910   0.322   3.492   2.686  0.4656 -0.3934  1.3127
 4758SOL    HW225911   0.227   3.605   2.694 -0.4718 -0.0071  2.7667
 4759SOL     OW25912   1.921   0.513   5.688  0.0152  0.2104 -0.1709
 4759SOL    HW125913   1.878   0.471   5.762 -0.8919  1.1090 -0.1872
 4759SOL    HW225914   1.970   0.443   5.645 -1.1248 -0.3885 -0.4839
 4760SOL     OW25915   1.927   2.609  11.291 -0.3891 -0.1065 -0.2407
 4760SOL    HW125916   1.952   2.540  11.230 -0.1668 -0.0270 -0.2394
 4760SOL    HW225917   1.835   2.585  11.298  0.1225 -1.3663  1.9339
 4761SOL     OW25918   2.744   0.631   8.500 -0.3144 -0.0700 -0.0056
 4761SOL    HW125919   2.675   0.586   8.451  1.3420 -2.6913  0.0622
 4761SOL    HW225920   2.694   0.662   8.575  2.4228  3.8653  0.1625
 4762SOL     OW25921   2.263   3.641   6.232  0.2864  0.0403 -0.2165
 4762SOL    HW125922   2.179   3.597   6.219  0.3562  0.6955 -2.8795
 4762SOL    HW225923   2.297   3.568   6.285  0.8235  0.0883 -0.4922
 4763SOL     OW25924   4.128   1.719   4.774  0.2690  0.2483  0.3658
 4763SOL    HW125925   4.103   1.795   4.721 -3.0319 -1.1803 -0.1056
 4763SOL    HW225926   4.042   1.678   4.785 -0.5406  1.0691 -2.8399
 4764SOL     OW25927   3.189   0.530  14.043 -0.2222 -0.2711  0.6285
 4764SOL    HW125928   3.261   0.566  13.991  0.2026 -0.6287  0.9659
 4764SOL    HW225929   3.211   0.553  14.133 -0.5304  0.1073  0.6028
 4765SOL     OW25930   4.540   3.253  10.727 -0.5917 -0.3405  0.5323
 4765SOL    HW125931   4.522   3.330  10.782 -0.5897  0.5132 -0.6644
 4765SOL    HW225932   4.528   3.286  10.638 -0.3735  1.1870  1.0635
 4766SOL     OW25933   0.742   3.473   2.512  0.0760  0.0723  0.6064
 4766SOL    HW125934   0.673   3.524   2.470  1.2334 -1.4623 -3.1009
 4766SOL    HW225935   0.705   3.386   2.496 -0.5530  0.2402  1.1401
 4767SOL     OW25936   2.380   0.072  11.825  0.0024  0.4842 -0.5305
 4767SOL    HW125937   2.344   0.067  11.914  2.9797 -1.0166  0.5777
 4767SOL    HW225938   2.333   0.140  11.775 -0.6195  0.9238  0.6569
 4768SOL     OW25939   1.264   1.605  11.932  0.0424  0.0995  0.6614
 4768SOL    HW125940   1.214   1.616  11.851 -0.0933  1.0641  0.8715
 4768SOL    HW225941   1.336   1.668  11.923 -0.4679  0.8720  1.9885
 4769SOL     OW25942   1.123   0.153  12.759  0.1191 -0.5345  0.0721
 4769SOL    HW125943   1.036   0.154  12.800  0.8662 -0.0359  1.6503
 4769SOL    HW225944   1.104   0.228  12.703  2.9748  1.8772  2.3848
 4770SOL     OW25945   1.270   3.580   7.908 -0.1837 -0.5070  0.1691
 4770SOL    HW125946   1.336   3.638   7.871 -1.0789 -1.0634 -2.2632
 4770SOL    HW225947   1.263   3.526   7.829 -1.4274 -1.5821  1.0036
 4771SOL     OW25948   4.168   4.663   8.428 -0.1822 -0.6336 -0.1407
 4771SOL    HW125949   4.233   4.593   8.422  0.6145  0.2142 -1.2941
 4771SOL    HW225950   4.102   4.631   8.489  1.1191  0.1995  1.7011
 4772SOL     OW25951   1.264   1.202   5.394  0.2207 -0.0006  0.2412
 4772SOL    HW125952   1.311   1.254   5.459  2.6055 -2.8813  0.8009
 4772SOL    HW225953   1.221   1.141   5.455  1.5088  1.5994  2.7592
 4773SOL     OW25954   3.618   0.133   3.814 -0.3629 -0.1444  0.7639
 4773SOL    HW125955   3.693   0.188   3.793 -1.8769  1.6103  0.0355
 4773SOL    HW225956   3.602   0.094   3.728  1.1741 -0.6566  0.6966
 4774SOL     OW25957   0.274   2.902   1.347  0.2147 -0.1167  0.2890
 4774SOL    HW125958   0.280   2.947   1.262  0.3404  1.7432  1.2939
 4774SOL    HW225959   0.188   2.860   1.344  0.9037 -1.4459 -0.5844
 4775SOL     OW25960   2.407   0.351   4.149  0.0871  0.3041 -0.5402
 4775SOL    HW125961   2.327   0.404   4.155  0.6394  0.9983  0.6952
 4775SOL    HW225962   2.432   0.354   4.057 -0.6651  2.7740 -0.6403
 4776SOL     OW25963   4.217   3.135   3.025 -0.2780 -0.7550  0.4492
 4776SOL    HW125964   4.277   3.110   3.095  2.0600  0.0746 -1.2564
 4776SOL    HW225965   4.140   3.157   3.077 -0.4435 -0.1220 -0.0648
 4777SOL     OW25966   3.977   0.439  14.792  0.0221 -0.4286 -0.2851
 4777SOL    HW125967   3.943   0.458  14.705 -2.3070 -3.5878 -0.0592
 4777SOL    HW225968   4.043   0.507  14.782  0.9199 -1.3058 -0.2330
 4778SOL     OW25969   4.542   3.278   0.021 -0.2982 -0.3001  0.0949
 4778SOL    HW125970   4.585   3.355  17.732 -0.7003  0.4626  1.1594
 4778SOL    HW225971   4.567   3.207  17.712 -2.2246 -1.9980  1.3412
 4779SOL     OW25972   3.576   4.273  17.211  0.2425 -0.0879  0.3456
 4779SOL    HW125973   3.543   4.330  17.142  1.4122  1.2617  0.9004
 4779SOL    HW225974   3.669   4.294  17.203  0.0853 -0.3532 -2.2243
 4780SOL     OW25975   4.007   1.396   6.804  0.1743 -0.1236 -0.2395
 4780SOL    HW125976   4.071   1.329   6.829  1.4396  1.7203  1.4530
 4780SOL    HW225977   3.993   1.385   6.710 -0.0992  1.9823 -0.4457
 4781SOL     OW25978   0.695   0.700  10.693  0.0797  0.1406 -0.2611
 4781SOL    HW125979   0.728   0.669  10.608  4.3171  1.9127  0.7484
 4781SOL    HW225980   0.728   0.790  10.686 -1.7415  1.0502  2.6136
 4782SOL     OW25981   3.011   1.453   0.006 -0.2640  0.6459 -0.3507
 4782SOL    HW125982   3.067   1.379  17.730 -0.0202  0.8156 -0.3024
 4782SOL    HW225983   2.958   1.470  17.677  0.6454  1.3970 -0.8113
 4783SOL     OW25984   1.118   1.609  11.457  0.8529  0.8131  0.5214
 4783SOL    HW125985   1.060   1.673  11.415  1.6142  0.4524 -1.0697
 4783SOL    HW225986   1.086   1.607  11.547  3.8654 -0.7390  1.5674
 4784SOL     OW25987   3.397   3.676   7.791  0.3021  0.3850  0.1116
 4784SOL    HW125988   3.390   3.760   7.836 -1.7261 -0.7646  1.9562
 4784SOL    HW225989   3.337   3.697   7.719  0.6811 -1.0202 -0.6155
 4785SOL     OW25990   2.565   3.690   8.792 -0.0080  0.6175  0.2299
 4785SOL    HW125991   2.625   3.630   8.836 -0.9850 -0.6501 -0.1605
 4785SOL    HW225992   2.585   3.662   8.702 -1.9563  1.2897 -0.4032
 4786SOL     OW25993   3.956   1.020   2.228  0.3057 -0.5721 -0.4538
 4786SOL    HW125994   3.921   0.933   2.245  1.5330 -0.6565  1.6180
 4786SOL    HW225995   3.911   1.068   2.298  0.8604 -2.6916  1.3586
 4787SOL     OW25996   3.388   2.488  12.265 -0.4718 -0.5296  0.9787
 4787SOL    HW125997   3.420   2.413  12.316 -1.4880 -0.4354  1.7446
 4787SOL    HW225998   3.321   2.509  12.329  1.1290  1.6622  1.9271
 4788SOL     OW25999   0.114   1.845   8.591 -0.4042  0.1352 -0.6116
 4788SOL    HW126000   0.079   1.932   8.609 -4.1499 -1.6536  0.7334
 4788SOL    HW226001   0.041   1.790   8.620  0.6049 -1.1001 -0.4045
 4789SOL     OW26002   1.488   4.250   3.329  0.0582 -0.4158  0.4554
 4789SOL    HW126003   1.479   4.235   3.235 -1.8856 -1.8961  0.8681
 4789SOL    HW226004   1.401   4.223   3.358 -0.2646 -1.1263 -1.1831
 4790SOL     OW26005   4.126   3.348   8.452 -0.5714  0.1619 -0.2173
 4790SOL    HW126006   4.041   3.390   8.441 -0.9394 -0.5795 -0.1881
 4790SOL    HW226007   4.144   3.326   8.361  0.2201  0.2110 -0.0755
 4791SOL     OW26008   2.580   1.836   9.180 -0.8560 -0.4243  0.2770
 4791SOL    HW126009   2.586   1.880   9.265  2.0511 -1.3283  0.5234
 4791SOL    HW226010   2.514   1.771   9.205 -0.7558 -0.7390 -0.2691
 4792SOL     OW26011   2.979   3.991  14.802  0.1852 -0.1401 -0.4605
 4792SOL    HW126012   2.975   3.957  14.713  1.4646  1.4216 -1.1033
 4792SOL    HW226013   2.886   4.012  14.801 -0.1864 -1.6533  1.9984
 4793SOL     OW26014   0.262   1.471  15.296 -0.1287  0.2714  0.4880
 4793SOL    HW126015   0.300   1.462  15.383  1.9607  2.9775 -0.1658
 4793SOL    HW226016   0.170   1.444  15.297 -0.0110 -0.2512 -2.1770
 4794SOL     OW26017   2.617   1.671   2.616  0.6290 -0.1727  0.1067
 4794SOL    HW126018   2.588   1.665   2.525  0.2683  1.8178  0.0797
 4794SOL    HW226019   2.661   1.756   2.618 -3.9505  2.1846  1.3292
 4795SOL     OW26020   0.419   2.594   3.070 -0.1144 -0.0772  0.1117
 4795SOL    HW126021   0.462   2.570   3.152  1.7080  1.3271 -0.4469
 4795SOL    HW226022   0.326   2.594   3.094 -0.8563 -1.1642 -2.8294
 4796SOL     OW26023   1.282   2.174   7.676  0.1863  0.2829 -0.0896
 4796SOL    HW126024   1.200   2.138   7.709  0.3566  0.6070  0.6913
 4796SOL    HW226025   1.269   2.269   7.684  1.2613  0.2260  2.3520
 4797SOL     OW26026   4.098   3.560   5.061  0.4558 -0.2693  0.1405
 4797SOL    HW126027   4.145   3.534   4.981  0.9331  0.5028  0.1673
 4797SOL    HW226028   4.123   3.652   5.065  1.5410 -0.6432  2.0009
 4798SOL     OW26029   3.077   4.218   7.056  0.3181 -0.2641 -0.7212
 4798SOL    HW126030   3.150   4.174   7.101 -1.0267  0.0949  1.8361
 4798SOL    HW226031   3.084   4.199   6.963 -0.2404 -1.7498 -0.4718
 4799SOL     OW26032   2.163   3.931  17.390 -0.4594 -0.3184  0.0933
 4799SOL    HW126033   2.162   4.020  17.426  1.1137 -0.3521  0.2479
 4799SOL    HW226034   2.214   3.946  17.310  0.8297  1.3972  1.2265
 4800SOL     OW26035   1.561   0.729   8.634 -0.0339 -0.7395 -0.2164
 4800SOL    HW126036   1.475   0.688   8.621 -0.5104 -0.2732  1.4467
 4800SOL    HW226037   1.564   0.725   8.730 -0.5035  0.0420 -0.1679
 4801SOL     OW26038   4.242   2.840   7.369 -0.5943 -0.5276  0.6891
 4801SOL    HW126039   4.185   2.828   7.294 -3.3365  0.8505  2.5409
 4801SOL    HW226040   4.285   2.755   7.368  0.9132  0.2620 -1.9719
 4802SOL     OW26041   4.272   1.674  10.284 -0.2501 -0.0003  0.5651
 4802SOL    HW126042   4.265   1.589  10.327 -1.1200 -0.0168  0.4003
 4802SOL    HW226043   4.364   1.700  10.282 -0.5073  0.7880 -1.3540
 4803SOL     OW26044   1.560   2.854   3.832 -0.2884  0.7691 -0.2482
 4803SOL    HW126045   1.608   2.936   3.821 -3.2927  2.3955 -1.0834
 4803SOL    HW226046   1.516   2.864   3.916  0.3380  0.7410  0.0878
 4804SOL     OW26047   0.803   3.220  11.507  0.1415  0.8492  0.2234
 4804SOL    HW126048   0.790   3.215  11.412 -2.8969 -0.3280  0.7267
 4804SOL    HW226049   0.712   3.216  11.536 -0.1739 -2.3400 -1.2883
 4805SOL     OW26050   0.441   3.695   3.819 -0.0977 -0.0776  0.3813
 4805SOL    HW126051   0.373   3.676   3.884 -0.1010 -0.9070  0.1399
 4805SOL    HW226052   0.517   3.724   3.869 -0.2243  0.7835  0.0651
 4806SOL     OW26053   3.100   4.063   4.876  0.6939 -0.0881  0.3415
 4806SOL    HW126054   3.031   4.129   4.877  2.2300  1.5324  0.6272
 4806SOL    HW226055   3.171   4.128   4.875  0.8166 -0.2958 -2.4792
 4807SOL     OW26056   1.934   1.335   7.321 -0.4985  0.8774  0.1702
 4807SOL    HW126057   1.962   1.426   7.329  1.1480  0.3710  0.1517
 4807SOL    HW226058   1.841   1.343   7.342 -0.3964  2.2267  0.1052
 4808SOL     OW26059   4.488   0.725   3.234 -0.7860 -0.3411 -0.2415
 4808SOL    HW126060   4.535   0.808   3.238 -0.9645 -0.2747  0.3998
 4808SOL    HW226061   4.516   0.691   3.319  0.7734  1.0102 -0.2232
 4809SOL     OW26062   3.300   3.081   2.662  0.1033  0.0891 -0.5389
 4809SOL    HW126063   3.211   3.113   2.648  0.2570  0.8883  0.3291
 4809SOL    HW226064   3.310   3.029   2.582  0.0267 -0.2400 -0.3306
 4810SOL     OW26065   0.575   0.063   5.358  0.0309  0.1039  0.1242
 4810SOL    HW126066   0.630   0.001   5.310  1.1958 -0.5719  2.3012
 4810SOL    HW226067   0.487   0.027   5.351 -1.1125  2.8261  0.4720
 4811SOL     OW26068   0.067   2.029   2.948  0.2397  0.8788  0.6159
 4811SOL    HW126069   0.101   2.037   2.858 -2.9661  1.1526 -0.5580
 4811SOL    HW226070   0.105   1.947   2.981 -0.1831  0.1547 -0.6729
 4812SOL     OW26071   1.448   3.733   5.347 -0.0497  0.3390 -0.3671
 4812SOL    HW126072   1.377   3.696   5.294 -0.0336 -2.6309  1.7091
 4812SOL    HW226073   1.419   3.825   5.351  2.5567  1.2166 -1.9289
 4813SOL     OW26074   1.864   1.760   1.817 -0.0829  0.0050  0.4157
 4813SOL    HW126075   1.890   1.825   1.882 -1.7193  3.0647 -1.9898
 4813SOL    HW226076   1.917   1.683   1.837  1.6366  0.9191 -0.6524
 4814SOL     OW26077   0.882   3.066   5.045  0.5081 -0.0542 -0.0553
 4814SOL    HW126078   0.828   2.987   5.040  0.3841  0.1727 -2.4053
 4814SOL    HW226079   0.853   3.123   4.974 -0.9535  2.1644  2.3649
 4815SOL     OW26080   0.546   4.445  12.333 -0.1117  0.1551  0.1902
 4815SOL    HW126081   0.563   4.524  12.282  1.8503 -0.1998  0.3135
 4815SOL    HW226082   0.591   4.463  12.415  0.7676  2.4988 -0.8159
 4816SOL     OW26083   3.768   4.054   6.819  0.2335  0.5001 -0.0213
 4816SOL    HW126084   3.711   3.981   6.796  1.7463 -0.4185 -0.8878
 4816SOL    HW226085   3.793   4.100   6.738 -1.7605 -0.2460 -1.0617
 4817SOL     OW26086   4.608   1.125   3.821 -0.1826  0.1564  0.2629
 4817SOL    HW126087   4.523   1.144   3.783 -0.4822  0.6481  1.1684
 4817SOL    HW226088   4.623   1.198   3.882  2.0349 -0.8018  0.8863
 4818SOL     OW26089   1.510   3.821   8.789  1.0307  0.2308 -0.4027
 4818SOL    HW126090   1.602   3.827   8.764  1.6927  1.9848  2.4830
 4818SOL    HW226091   1.512   3.875   8.868 -1.7745 -0.9519  0.4939
 4819SOL     OW26092   3.755   2.043   2.618 -0.4252  0.1104 -0.4580
 4819SOL    HW126093   3.759   1.952   2.588 -0.9043 -0.8307  2.3314
 4819SOL    HW226094   3.753   2.094   2.537 -0.3999  0.2173 -0.3905
 4820SOL     OW26095   2.833   0.816   8.801  0.2300 -0.7444 -0.2141
 4820SOL    HW126096   2.766   0.751   8.783  0.7229 -1.0475 -0.9459
 4820SOL    HW226097   2.918   0.774   8.791  0.4932 -0.5381  1.1241
 4821SOL     OW26098   0.498   1.961   5.241  0.2091  0.6371  0.2710
 4821SOL    HW126099   0.550   1.930   5.316 -0.1415 -0.4894  0.0545
 4821SOL    HW226100   0.551   1.928   5.168 -1.8436 -1.8401 -0.0968
 4822SOL     OW26101   2.940   0.215  15.011 -0.3010 -0.1098 -0.2771
 4822SOL    HW126102   2.952   0.296  14.961 -0.6639 -1.1883 -2.1197
 4822SOL    HW226103   2.849   0.194  14.989 -0.7214  0.0339  1.3449
 4823SOL     OW26104   2.471   1.603   2.812  0.1554  0.7995 -0.0287
 4823SOL    HW126105   2.524   1.635   2.739  0.2114  0.5249 -0.1087
 4823SOL    HW226106   2.545   1.587   2.870 -1.6324 -2.5909  1.3163
 4824SOL     OW26107   1.837   4.422   8.928 -0.2228 -0.6955  0.2919
 4824SOL    HW126108   1.745   4.425   8.954 -0.7683 -1.2523 -1.5489
 4824SOL    HW226109   1.822   4.364   8.853  1.4104 -0.6162 -0.0921
 4825SOL     OW26110   1.530   1.673  15.546 -0.5328  0.1582  0.3891
 4825SOL    HW126111   1.620   1.700  15.564 -1.5863  2.5465  2.0178
 4825SOL    HW226112   1.554   1.590  15.505  2.6617  1.4361 -0.2743
 4826SOL     OW26113   1.498   3.668   4.638 -0.5928  0.4411 -0.1155
 4826SOL    HW126114   1.527   3.742   4.584  1.0890 -0.1027  0.0385
 4826SOL    HW226115   1.558   3.599   4.609  0.4467  0.9622  0.7514
 4827SOL     OW26116   2.300   1.760   4.723 -0.6116 -0.2212 -0.2562
 4827SOL    HW126117   2.275   1.712   4.644  0.1517 -0.0751 -0.5783
 4827SOL    HW226118   2.228   1.734   4.780  1.5421  3.4525  4.0996
 4828SOL     OW26119   0.165   4.536   2.643  0.1016  0.3379 -0.1255
 4828SOL    HW126120   0.243   4.484   2.658 -0.6003 -0.3230  1.3119
 4828SOL    HW226121   0.188   4.624   2.672  0.7754 -0.8583  2.9731
 4829SOL     OW26122   3.487   4.180  12.224 -0.0069 -0.4627 -0.3558
 4829SOL    HW126123   3.428   4.105  12.226 -1.8268  0.9047 -2.6088
 4829SOL    HW226124   3.481   4.207  12.315 -1.0071  0.3326 -0.6601
 4830SOL     OW26125   4.008   0.014   7.898  0.0055  0.7346 -0.4377
 4830SOL    HW126126   4.087   0.031   7.848  0.7420 -1.9736 -0.1879
 4830SOL    HW226127   3.943   0.073   7.860  0.8561  0.9305 -1.5829
 4831SOL     OW26128   2.248   3.132   1.839 -0.0741  0.1560 -0.5127
 4831SOL    HW126129   2.341   3.122   1.820 -0.2215 -1.7090 -0.2915
 4831SOL    HW226130   2.224   3.204   1.781  0.9475  0.0243 -1.0990
 4832SOL     OW26131   0.417   1.609  12.892 -0.0371  0.3795 -0.3396
 4832SOL    HW126132   0.499   1.562  12.873 -0.1933  0.3026 -0.8237
 4832SOL    HW226133   0.388   1.590  12.981  0.1657  3.9205  0.4774
 4833SOL     OW26134   3.938   3.602   0.083  0.5571 -0.1105 -0.2402
 4833SOL    HW126135   3.895   3.630   0.002  2.4337  2.8268 -0.2244
 4833SOL    HW226136   4.027   3.610   0.048  0.8837  1.9725  1.0330
 4834SOL     OW26137   3.253   4.146   4.501  0.3431  0.0000 -0.6178
 4834SOL    HW126138   3.331   4.142   4.556 -0.1940  3.4243  0.4338
 4834SOL    HW226139   3.192   4.173   4.571 -2.0801 -0.4690 -2.5555
 4835SOL     OW26140   0.089   1.697   4.150  0.5760  0.2610  0.4768
 4835SOL    HW126141   0.126   1.610   4.168 -0.9068 -0.9309 -2.1781
 4835SOL    HW226142   0.035   1.714   4.227  2.6067 -1.5387  2.2826
 4836SOL     OW26143   1.379   2.366  15.088  0.3857  0.1003  0.2454
 4836SOL    HW126144   1.325   2.310  15.033  1.3460 -0.1150 -0.4951
 4836SOL    HW226145   1.464   2.349  15.047 -0.5867 -1.7545 -1.0040
 4837SOL     OW26146   3.197   2.963  10.462  0.0359 -0.4169  0.0052
 4837SOL    HW126147   3.201   3.049  10.503 -1.0978  0.3027 -1.3956
 4837SOL    HW226148   3.196   2.987  10.370  0.4579  2.4767  0.7729
 4838SOL     OW26149   1.412   0.710   6.424  0.1976  0.0278  0.2314
 4838SOL    HW126150   1.339   0.705   6.362  0.4397  0.9883 -0.1369
 4838SOL    HW226151   1.490   0.686   6.374  0.7376  3.2426 -0.4629
 4839SOL     OW26152   0.120   1.199  17.238  0.2575  0.7116  0.0396
 4839SOL    HW126153   0.095   1.144  17.164  0.2329 -2.0882  2.1222
 4839SOL    HW226154   0.200   1.159  17.271 -0.3073 -1.4496 -1.2550
 4840SOL     OW26155   3.600   1.921  14.517  0.7531 -0.1745  0.3485
 4840SOL    HW126156   3.548   1.951  14.592  2.1410 -1.4448  1.8218
 4840SOL    HW226157   3.527   1.873  14.477  0.6436 -1.3296  1.8949
 4841SOL     OW26158   4.222   0.494  13.560  0.1126  0.4645  0.1838
 4841SOL    HW126159   4.170   0.508  13.481 -1.5143  0.9425  1.3361
 4841SOL    HW226160   4.163   0.436  13.609  1.4309 -1.3763 -0.3948
 4842SOL     OW26161   0.575   4.322   6.452 -0.0647 -0.1283 -0.3438
 4842SOL    HW126162   0.625   4.293   6.528 -1.2616  2.3202  1.3697
 4842SOL    HW226163   0.638   4.305   6.382 -1.2519 -0.0698 -1.4292
 4843SOL     OW26164   2.653   4.549   4.582  0.0253  0.1269 -0.4734
 4843SOL    HW126165   2.748   4.542   4.579  0.0184 -0.0844 -0.1547
 4843SOL    HW226166   2.634   4.499   4.503 -0.4710 -0.5263  0.0513
 4844SOL     OW26167   4.330   3.242   8.585  0.3730  0.7754 -0.3516
 4844SOL    HW126168   4.260   3.289   8.541 -0.6859 -1.1376 -0.7082
 4844SOL    HW226169   4.392   3.252   8.512  0.2367 -0.1629 -0.6060
 4845SOL     OW26170   1.015   4.269   9.203 -0.0001  0.2732  0.3114
 4845SOL    HW126171   1.043   4.292   9.115  0.8488  2.0138  1.0271
 4845SOL    HW226172   0.938   4.325   9.215 -0.6958 -0.4183 -0.9267
 4846SOL     OW26173   3.086   0.882  13.561 -0.1643 -0.1898  0.2195
 4846SOL    HW126174   3.099   0.889  13.467 -0.8543  2.6855  0.3400
 4846SOL    HW226175   3.008   0.935  13.575 -0.6684 -1.2976  1.6020
 4847SOL     OW26176   1.994   0.518   4.809 -0.0222  0.4219  0.1816
 4847SOL    HW126177   1.900   0.530   4.800 -0.1081  0.5625  1.2713
 4847SOL    HW226178   2.013   0.530   4.902 -1.9704 -0.7487  0.7226
 4848SOL     OW26179   4.341   4.680   9.114  0.5137  0.0638  0.1699
 4848SOL    HW126180   4.336   4.597   9.160  2.6838 -0.0117  0.2874
 4848SOL    HW226181   4.281   4.663   9.042 -0.7694 -0.6405  1.4123
 4849SOL     OW26182   4.496   2.606   6.033  0.3129 -0.4888  0.3305
 4849SOL    HW126183   4.474   2.683   6.086 -0.6326 -2.0984  2.2665
 4849SOL    HW226184   4.454   2.629   5.950  1.1182 -2.9949 -0.7490
 4850SOL     OW26185   3.238   3.399   1.401  0.0412  0.0527 -0.0146
 4850SOL    HW126186   3.171   3.368   1.340  1.6957 -3.2749 -0.1620
 4850SOL    HW226187   3.195   3.402   1.486  2.6267  2.6728  1.1876
 4851SOL     OW26188   1.461   1.028   0.256 -0.6007 -0.0789 -0.0050
 4851SOL    HW126189   1.369   1.007   0.272 -1.0335  1.7499 -0.0940
 4851SOL    HW226190   1.504   1.044   0.340  2.1699 -1.1231 -1.2280
 4852SOL     OW26191   4.368   3.831   7.514  0.0532 -0.1568 -0.1246
 4852SOL    HW126192   4.316   3.753   7.536 -2.3463  1.1500 -1.1335
 4852SOL    HW226193   4.402   3.866   7.596 -1.6518 -0.4474  0.7182
 4853SOL     OW26194   1.905   4.040   7.074  0.7867  0.2862  0.3617
 4853SOL    HW126195   1.869   4.007   6.992  1.5806 -0.1280  0.1745
 4853SOL    HW226196   1.850   3.986   7.130  2.0092 -0.5620  0.7547
 4854SOL     OW26197   2.388   1.998   6.394 -0.3099 -0.8933  0.1184
 4854SOL    HW126198   2.292   2.005   6.394 -0.3330 -1.2007 -0.3691
 4854SOL    HW226199   2.412   2.090   6.402  1.2014 -1.5975  3.7683
 4855SOL     OW26200   2.509   2.513  10.329  0.2267  0.1360  0.3270
 4855SOL    HW126201   2.463   2.558  10.400 -2.0290  0.6657 -1.4332
 4855SOL    HW226202   2.579   2.567  10.292 -0.6669  2.6794  2.3356
 4856SOL     OW26203   2.543   4.605   7.836 -0.2652 -0.1500 -0.2971
 4856SOL    HW126204   2.501   4.667   7.777  0.3663 -0.4583 -1.0808
 4856SOL    HW226205   2.633   4.602   7.802  0.3725  1.5830  1.2282
 4857SOL     OW26206   3.290   1.957   4.046  0.1929 -0.1565 -0.1357
 4857SOL    HW126207   3.306   2.017   3.973  0.0024 -1.3869 -1.1899
 4857SOL    HW226208   3.283   1.871   4.004  0.9784  0.1743 -0.9443
 4858SOL     OW26209   4.199   2.175  13.388 -0.8458  0.0134 -0.2353
 4858SOL    HW126210   4.251   2.256  13.388  1.2961 -1.3682 -0.3837
 4858SOL    HW226211   4.266   2.107  13.387  0.8196  1.6554 -1.2544
 4859SOL     OW26212   3.686   2.093   0.784  0.6287  0.0760  0.0411
 4859SOL    HW126213   3.616   2.037   0.816  0.4425  0.5970  0.5359
 4859SOL    HW226214   3.687   2.169   0.843 -0.2108 -0.5234  0.8147
 4860SOL     OW26215   1.356   1.312   9.116 -0.0129 -0.0304 -0.2408
 4860SOL    HW126216   1.363   1.273   9.029  0.9575  2.1511 -1.1441
 4860SOL    HW226217   1.339   1.234   9.167  0.8030  0.5076  0.8598
 4861SOL     OW26218   1.516   1.835   6.380 -0.7736  0.6485 -0.2671
 4861SOL    HW126219   1.606   1.827   6.410 -0.5242  1.7800 -0.7490
 4861SOL    HW226220   1.498   1.748   6.343 -0.1472 -0.4898  2.1012
 4862SOL     OW26221   4.198   0.720  15.887 -0.9976  0.5982  0.5779
 4862SOL    HW126222   4.240   0.643  15.925 -1.1446  1.0068  1.5745
 4862SOL    HW226223   4.105   0.695  15.885 -0.8531 -0.0882  1.9929
 4863SOL     OW26224   1.132   3.156   9.427 -0.1822  0.2218  0.8600
 4863SOL    HW126225   1.133   3.251   9.422 -0.9107  0.1854  0.0765
 4863SOL    HW226226   1.203   3.143   9.490 -0.0876 -0.3692  0.6370
 4864SOL     OW26227   4.157   4.334   4.446 -0.4524  0.4570 -0.2163
 4864SOL    HW126228   4.142   4.341   4.352 -0.7794  2.5002 -0.0004
 4864SOL    HW226229   4.112   4.252   4.470 -1.0676  0.5026 -1.2377
 4865SOL     OW26230   3.115   0.550   8.121  0.4156  0.2951  0.1155
 4865SOL    HW126231   3.050   0.597   8.172  0.7325  1.8856 -0.9503
 4865SOL    HW226232   3.158   0.624   8.077 -3.0165  1.4091 -1.3441
 4866SOL     OW26233   2.919   0.508   6.288  0.7065  0.1797 -0.5682
 4866SOL    HW126234   2.925   0.566   6.211  2.4228 -0.4577 -0.9143
 4866SOL    HW226235   2.944   0.568   6.358 -0.1549 -0.1235 -0.0053
 4867SOL     OW26236   4.727   0.083   6.925 -0.4059  0.2884  0.5380
 4867SOL    HW126237   0.027   0.068   7.012  1.4038  3.6285  0.3270
 4867SOL    HW226238   4.661   0.013   6.928  1.3315 -1.4604 -2.0944
 4868SOL     OW26239   0.324   1.199   3.915 -1.0229 -0.3452 -0.1116
 4868SOL    HW126240   0.312   1.192   4.009  1.5898  0.4983  0.2823
 4868SOL    HW226241   0.262   1.127   3.901 -1.3161 -0.2686  0.7908
 4869SOL     OW26242   2.863   3.676   0.718  0.3326  0.0141  0.7958
 4869SOL    HW126243   2.912   3.639   0.791  1.7347  1.0523  0.3790
 4869SOL    HW226244   2.861   3.770   0.737 -0.4590 -0.1911  1.7052
 4870SOL     OW26245   0.203   4.610   7.764 -0.1699 -0.0453  0.5400
 4870SOL    HW126246   0.179   4.536   7.707 -0.1160 -1.2769  2.1344
 4870SOL    HW226247   0.194   4.573   7.851 -2.3930 -0.0946  0.2813
 4871SOL     OW26248   1.633   2.540   3.545  0.3599 -0.0226 -1.2003
 4871SOL    HW126249   1.590   2.565   3.627  1.3747  0.2457 -0.7489
 4871SOL    HW226250   1.600   2.615   3.496  0.4290  0.5321 -0.4022
 4872SOL     OW26251   3.813   3.008   2.622  0.4613  0.3483  0.2010
 4872SOL    HW126252   3.879   3.060   2.667  0.2217  0.7205  0.1186
 4872SOL    HW226253   3.735   3.055   2.653 -1.2030 -1.1434 -1.7104
 4873SOL     OW26254   0.345   4.664   7.267 -0.1365 -0.0833 -0.1516
 4873SOL    HW126255   0.411   4.606   7.306 -0.3320 -1.0818 -1.3212
 4873SOL    HW226256   0.268   4.654   7.323 -0.3148 -0.9148 -0.5611
 4874SOL     OW26257   2.585   1.938   0.486 -0.6589 -0.0660  0.0933
 4874SOL    HW126258   2.584   1.975   0.574 -0.6087  0.3745 -0.0941
 4874SOL    HW226259   2.492   1.953   0.470 -0.0936  4.3503  1.1585
 4875SOL     OW26260   0.401   1.338   7.300  0.5879  0.3388  0.0373
 4875SOL    HW126261   0.430   1.416   7.348  0.9998 -0.2614  0.7715
 4875SOL    HW226262   0.426   1.374   7.216 -1.1647 -1.1153 -1.0987
 4876SOL     OW26263   4.144   4.517  13.592  0.0710 -0.0377 -0.3024
 4876SOL    HW126264   4.051   4.501  13.576  0.1405  1.3899 -2.1560
 4876SOL    HW226265   4.148   4.486  13.682  0.4545 -0.1964 -0.3732
 4877SOL     OW26266   2.014   2.033  16.548 -0.2475 -0.1166 -0.5376
 4877SOL    HW126267   2.039   2.106  16.490  1.3233 -0.3882 -0.1872
 4877SOL    HW226268   2.089   1.973  16.549 -0.5687 -0.5108 -0.2832
 4878SOL     OW26269   1.640   0.833   4.374  0.0015  0.5203 -0.4357
 4878SOL    HW126270   1.730   0.823   4.404 -0.1081  0.3469 -0.1702
 4878SOL    HW226271   1.599   0.749   4.351  1.1953 -0.3000  0.4183
 4879SOL     OW26272   0.795   2.567   8.123  0.0696  0.2494 -0.8073
 4879SOL    HW126273   0.700   2.575   8.117  0.1816  0.9199 -1.7278
 4879SOL    HW226274   0.800   2.477   8.155 -1.4081  0.9878  1.4775
 4880SOL     OW26275   4.012   3.681   1.705 -0.4402  0.1063  0.2494
 4880SOL    HW126276   4.064   3.603   1.691 -2.6196 -1.3215  0.0434
 4880SOL    HW226277   4.045   3.735   1.633  3.5479 -0.3363  1.7866
 4881SOL     OW26278   0.696   0.682   4.668 -0.7545 -0.1419 -0.2271
 4881SOL    HW126279   0.635   0.650   4.735 -0.7713  1.0370  0.3236
 4881SOL    HW226280   0.643   0.753   4.630 -1.2152 -0.8125 -0.8514
 4882SOL     OW26281   1.290   3.525  13.078  0.3064 -0.2539  0.1673
 4882SOL    HW126282   1.222   3.460  13.090  1.5061 -1.3829  0.8418
 4882SOL    HW226283   1.354   3.473  13.029  1.1217  0.2115  0.7412
 4883SOL     OW26284   1.980   2.812   9.846  0.2460  0.1544  0.1917
 4883SOL    HW126285   2.065   2.769   9.838 -0.4406 -0.7702 -2.1875
 4883SOL    HW226286   2.004   2.904   9.853 -1.3633  0.4881  1.4952
 4884SOL     OW26287   4.146   2.957   5.951 -0.2970 -0.1770 -0.6288
 4884SOL    HW126288   4.076   3.015   5.919 -0.2189 -0.1561 -0.7609
 4884SOL    HW226289   4.203   2.940   5.876  1.2705  1.8705  0.1052
 4885SOL     OW26290   3.427   2.540   4.485 -0.5863 -0.4922 -0.5207
 4885SOL    HW126291   3.474   2.560   4.403  0.2310  2.0400  0.5508
 4885SOL    HW226292   3.441   2.446   4.476  2.7243  0.0402 -1.0690
 4886SOL     OW26293   0.118   2.103   9.456  0.6264  0.4030  0.1865
 4886SOL    HW126294   0.114   2.068   9.367  1.3369  0.2892  0.1948
 4886SOL    HW226295   0.079   2.190   9.445  2.4024  0.8338 -2.9094
 4887SOL     OW26296   0.395   1.530   4.478  0.0427 -0.0250  0.8827
 4887SOL    HW126297   0.480   1.570   4.494  1.3449 -2.7927  0.8064
 4887SOL    HW226298   0.424   1.446   4.444  0.0564  0.8139 -1.1855
 4888SOL     OW26299   4.516   2.873   2.907  0.0183 -0.1609  0.0892
 4888SOL    HW126300   4.524   2.966   2.889  1.5841 -0.0339  1.4786
 4888SOL    HW226301   4.429   2.851   2.873  0.1810 -0.2423 -0.2763
 4889SOL     OW26302   4.072   1.388   2.743  0.8061  0.1418 -0.5346
 4889SOL    HW126303   4.111   1.353   2.823  1.1484  1.5568 -0.0889
 4889SOL    HW226304   3.991   1.417   2.785  0.0617 -0.3356 -1.6067
 4890SOL     OW26305   3.703   1.831   2.448 -0.0807  0.3187  0.9514
 4890SOL    HW126306   3.733   1.743   2.472  1.5547  0.3778 -0.9054
 4890SOL    HW226307   3.699   1.835   2.352  0.1225 -2.3924  0.8207
 4891SOL     OW26308   4.290   2.394   5.450  0.2073  0.0153 -0.4631
 4891SOL    HW126309   4.245   2.400   5.534 -0.0707  0.6338 -0.6569
 4891SOL    HW226310   4.375   2.414   5.488  0.5123 -2.9488  0.4378
 4892SOL     OW26311   3.747   2.417   8.577 -0.3750 -0.6368 -0.2916
 4892SOL    HW126312   3.701   2.336   8.597  2.2683 -2.0864 -0.1048
 4892SOL    HW226313   3.751   2.470   8.657 -1.8084  0.3314 -0.8554
 4893SOL     OW26314   0.065   1.933   8.929  0.0740 -0.3183  0.2331
 4893SOL    HW126315   4.717   1.930   8.886  0.7732  0.7595 -1.1871
 4893SOL    HW226316   0.086   2.024   8.909 -1.3741 -0.2953 -1.1410
 4894SOL     OW26317   0.517   2.762   4.618 -0.0067 -0.3358 -0.6154
 4894SOL    HW126318   0.534   2.824   4.547  1.6731 -1.3220 -1.0702
 4894SOL    HW226319   0.591   2.702   4.624  0.0287 -0.2213  0.1204
 4895SOL     OW26320   1.510   2.192   0.011  0.1210 -0.1218  0.1317
 4895SOL    HW126321   1.526   2.285  17.744 -0.2564 -0.1821 -0.6029
 4895SOL    HW226322   1.450   2.179  17.687  0.3145 -0.9766  0.1234
 4896SOL     OW26323   2.267   3.892  12.461  0.0930  0.0873  0.5416
 4896SOL    HW126324   2.334   3.961  12.467  2.4037 -1.9616 -1.8074
 4896SOL    HW226325   2.186   3.940  12.475 -0.8454 -1.4118  0.1849
 4897SOL     OW26326   0.235   3.650  12.156 -0.3138 -0.4746  0.2197
 4897SOL    HW126327   0.205   3.561  12.173  1.1348 -0.6851  1.6383
 4897SOL    HW226328   0.199   3.698  12.230 -0.0693 -0.2486  0.1924
 4898SOL     OW26329   3.820   0.215   8.068 -0.1900  0.0505  0.2334
 4898SOL    HW126330   3.767   0.239   8.145 -1.0343 -0.9481 -0.0463
 4898SOL    HW226331   3.880   0.155   8.111  1.9805  2.1199  0.1292
 4899SOL     OW26332   0.564   1.541   9.672 -0.0048 -0.4511  0.2233
 4899SOL    HW126333   0.649   1.571   9.641 -1.3035  2.7348 -0.2169
 4899SOL    HW226334   0.583   1.472   9.736 -0.8785 -1.2926 -0.4273
 4900SOL     OW26335   2.785   1.498   4.624 -0.1758 -0.1790  0.1572
 4900SOL    HW126336   2.708   1.529   4.672  0.5894  1.2172  0.4737
 4900SOL    HW226337   2.747   1.466   4.542 -1.9826 -1.0559  1.3536
 4901SOL     OW26338   1.660   2.875   7.189  0.1606  0.2127 -0.3666
 4901SOL    HW126339   1.584   2.865   7.247  1.9690 -0.4322  1.8716
 4901SOL    HW226340   1.633   2.940   7.124  0.2194 -0.4799 -1.0850
 4902SOL     OW26341   1.391   2.882   8.591 -0.0024  0.4291 -0.3690
 4902SOL    HW126342   1.377   2.933   8.511  1.8120  0.2521 -0.8072
 4902SOL    HW226343   1.306   2.840   8.604 -1.6253  3.7023 -0.2979
 4903SOL     OW26344   4.526   1.182  16.811  0.8762 -0.0784  0.1342
 4903SOL    HW126345   4.508   1.150  16.899  4.2271 -0.8151  0.5644
 4903SOL    HW226346   4.459   1.250  16.800  5.1154  4.3321  1.7440
 4904SOL     OW26347   1.433   0.044   6.561  0.2826  0.3386  0.3257
 4904SOL    HW126348   1.346   0.034   6.599  0.7052  0.4618  1.3550
 4904SOL    HW226349   1.484   0.033   6.642 -0.8301  1.0131  1.1225
 4905SOL     OW26350   0.484   3.553   8.339  0.2535 -0.4268  0.6461
 4905SOL    HW126351   0.532   3.485   8.385 -1.1872 -0.0646  2.6693
 4905SOL    HW226352   0.434   3.495   8.281 -0.1463 -1.5822  2.1565
 4906SOL     OW26353   1.771   2.317  17.581 -0.2178  0.1744  0.3638
 4906SOL    HW126354   1.769   2.371  17.501  0.6788  0.7532  0.7312
 4906SOL    HW226355   1.712   2.357  17.645 -0.1092  0.9310 -0.0077
 4907SOL     OW26356   1.722   1.322  11.620  0.1196  0.1396 -0.2619
 4907SOL    HW126357   1.638   1.364  11.604  0.4203  1.6303  2.1681
 4907SOL    HW226358   1.709   1.277  11.703  1.8607 -1.0484 -0.6157
 4908SOL     OW26359   4.125   3.217   8.190  0.1657 -0.7907 -0.0251
 4908SOL    HW126360   4.109   3.149   8.125  2.2901 -1.6476  0.3587
 4908SOL    HW226361   4.119   3.299   8.142  0.3325 -0.5496  0.3657
 4909SOL     OW26362   1.045   0.106   4.443  0.3034 -0.3172  0.1403
 4909SOL    HW126363   1.104   0.065   4.505  0.1280 -0.2179  0.3721
 4909SOL    HW226364   1.099   0.149   4.377  0.1001 -0.7417 -0.3047
 4910SOL     OW26365   4.460   2.437   6.597 -0.0423  0.3176 -0.2648
 4910SOL    HW126366   4.412   2.450   6.679 -1.9800 -0.9139 -1.1928
 4910SOL    HW226367   4.464   2.529   6.571  0.4383  0.2443 -0.4580
 4911SOL     OW26368   3.723   2.598   6.693  0.7138  0.0644  0.3289
 4911SOL    HW126369   3.733   2.582   6.787  1.0530  0.4646  0.3606
 4911SOL    HW226370   3.805   2.582   6.648 -0.5845 -2.4237 -1.1194
 4912SOL     OW26371   3.461   0.281  11.356 -0.3740 -0.5448 -0.0193
 4912SOL    HW126372   3.431   0.335  11.429  0.6248  1.5511 -1.1351
 4912SOL    HW226373   3.379   0.241  11.327  0.2189 -0.7468 -1.4065
 4913SOL     OW26374   4.142   0.883   8.179 -0.8076  0.4970 -0.5199
 4913SOL    HW126375   4.199   0.955   8.206  0.3542 -0.7225  0.2753
 4913SOL    HW226376   4.074   0.933   8.134  0.6235  1.5536 -1.4990
 4914SOL     OW26377   4.693   1.895  15.642  0.0230  0.1413  0.3011
 4914SOL    HW126378   4.732   1.931  15.722 -1.2365 -1.8068  1.7950
 4914SOL    HW226379   4.605   1.870  15.668  0.3568 -1.9445 -0.5551
 4915SOL     OW26380   0.024   0.666  11.445 -0.5600 -0.4223  0.6975
 4915SOL    HW126381   0.003   0.754  11.475  3.0469  1.4753 -2.3050
 4915SOL    HW226382   4.681   0.649  11.398 -0.4622  3.2668 -0.7569
 4916SOL     OW26383   2.264   2.898  14.189 -0.2943  0.1575 -0.0729
 4916SOL    HW126384   2.337   2.958  14.171  0.8311 -1.6664 -1.5949
 4916SOL    HW226385   2.243   2.912  14.281  1.9578  0.7966  0.3428
 4917SOL     OW26386   3.369   3.831   6.601  0.2937 -0.0218 -0.0482
 4917SOL    HW126387   3.323   3.758   6.641  1.8176 -0.7556  0.3763
 4917SOL    HW226388   3.370   3.805   6.509 -1.2888  0.2628 -0.1503
 4918SOL     OW26389   1.369   3.616   9.042  0.1462  0.0248 -0.0843
 4918SOL    HW126390   1.358   3.701   9.084  2.7851  0.4973 -0.3690
 4918SOL    HW226391   1.280   3.587   9.024 -0.3352  1.4964 -0.0698
 4919SOL     OW26392   4.211   2.054  16.022 -0.3085  0.0652 -0.4443
 4919SOL    HW126393   4.269   1.978  16.024  0.2460  0.4689 -1.0650
 4919SOL    HW226394   4.166   2.045  16.106  2.1668  0.9847  0.9848
 4920SOL     OW26395   2.505   4.043   1.371 -0.0449  0.1598 -0.0303
 4920SOL    HW126396   2.534   4.124   1.329 -0.7646  0.2163 -0.4137
 4920SOL    HW226397   2.564   4.030   1.445 -0.1194 -2.6740 -0.4707
 4921SOL     OW26398   4.560   2.028   6.510 -0.2389 -0.0008  0.3519
 4921SOL    HW126399   4.622   2.059   6.576  0.9646 -1.0421 -0.2975
 4921SOL    HW226400   4.497   2.098   6.495 -0.2840 -0.1123  0.0170
 4922SOL     OW26401   2.827   3.450   5.712 -0.3615  0.0982 -0.3241
 4922SOL    HW126402   2.778   3.450   5.795  0.2147 -1.3214  0.0365
 4922SOL    HW226403   2.764   3.396   5.665 -1.4735  1.6252 -0.5584
 4923SOL     OW26404   1.355   1.972   8.425  0.5143 -0.0738 -0.4945
 4923SOL    HW126405   1.303   1.928   8.357  0.2024 -2.4314  1.2733
 4923SOL    HW226406   1.397   2.051   8.391  2.6117 -0.4056  1.3244
 4924SOL     OW26407   3.105   0.887   8.309 -0.4241 -0.7161 -0.0314
 4924SOL    HW126408   3.048   0.812   8.291 -2.7190  1.1043 -0.4368
 4924SOL    HW226409   3.173   0.881   8.242  0.3755 -1.0621  0.8103
 4925SOL     OW26410   2.205   0.512   8.468 -0.0639  0.5491  0.0706
 4925SOL    HW126411   2.197   0.563   8.548 -1.8605  0.8377 -0.2922
 4925SOL    HW226412   2.112   0.514   8.446 -0.5424 -0.3486  2.0372
 4926SOL     OW26413   2.656   0.956  14.740  0.1356 -0.1995 -0.0779
 4926SOL    HW126414   2.699   0.892  14.797 -0.5941 -0.2067  0.4709
 4926SOL    HW226415   2.714   0.954  14.664  1.2103  0.5082  0.7234
 4927SOL     OW26416   4.204   2.242  17.599  0.3512 -0.1800  0.1214
 4927SOL    HW126417   4.202   2.236  17.503  1.9740  1.6895 -0.0275
 4927SOL    HW226418   4.127   2.291  17.626  1.5840  0.7776  1.9270
 4928SOL     OW26419   2.111   0.573   3.156  0.4161  0.5368  0.1176
 4928SOL    HW126420   2.142   0.485   3.175 -1.6197  0.1153  1.5529
 4928SOL    HW226421   2.017   0.558   3.171  0.0446  0.2562 -2.5552
 4929SOL     OW26422   3.283   2.174   1.176 -0.2153 -0.0926 -0.2140
 4929SOL    HW126423   3.325   2.196   1.093  0.2004 -2.0333 -0.5125
 4929SOL    HW226424   3.356   2.165   1.238 -0.0144 -2.2142 -0.7403
 4930SOL     OW26425   3.572   1.601   2.893  0.7999 -0.3303  0.8124
 4930SOL    HW126426   3.539   1.544   2.963 -1.6002  0.3549  0.2649
 4930SOL    HW226427   3.555   1.687   2.931 -0.4009 -0.9171  1.6088
 4931SOL     OW26428   0.148   0.427  16.421 -0.5267  0.3436  0.2485
 4931SOL    HW126429   0.138   0.509  16.372  1.5801  1.1979  1.2543
 4931SOL    HW226430   0.242   0.421  16.435 -0.4840 -0.0228 -0.2213
 4932SOL     OW26431   4.254   1.940   5.347  0.3064 -0.3054 -0.0354
 4932SOL    HW126432   4.219   1.885   5.278 -2.0033 -1.3695  1.9833
 4932SOL    HW226433   4.237   1.879   5.419  2.9313 -0.6547  0.3044
 4933SOL     OW26434   1.997   2.288   5.921 -0.8536  0.0890  0.3488
 4933SOL    HW126435   2.043   2.353   5.975 -0.5050 -0.4312  0.6785
 4933SOL    HW226436   1.985   2.327   5.835  2.1726  0.3113  0.0277
 4934SOL     OW26437   4.333   1.504   3.486  0.0816 -0.4709 -0.7078
 4934SOL    HW126438   4.367   1.505   3.396  1.9928 -0.4343  0.0111
 4934SOL    HW226439   4.388   1.575   3.521  0.3178 -1.4661  0.9420
 4935SOL     OW26440   1.960   3.213   7.842 -0.0504 -0.2084  0.0584
 4935SOL    HW126441   2.004   3.291   7.808  2.1702 -1.7831 -0.6761
 4935SOL    HW226442   1.993   3.143   7.786  1.6734  0.5006  0.1894
 4936SOL     OW26443   2.264   3.648   1.522 -0.6159  0.0026  0.1444
 4936SOL    HW126444   2.337   3.696   1.484 -1.1514 -0.1776 -1.1055
 4936SOL    HW226445   2.315   3.607   1.592  1.2289 -0.2254 -1.3321
 4937SOL     OW26446   4.554   1.806  12.768 -0.1235  0.0325  0.3777
 4937SOL    HW126447   4.460   1.823  12.777 -0.1906 -0.8145  1.3543
 4937SOL    HW226448   4.575   1.753  12.845 -0.6351 -3.5420 -1.9301
 4938SOL     OW26449   2.876   3.391   5.342 -0.0153 -0.3844 -0.2063
 4938SOL    HW126450   2.832   3.463   5.297  2.3677  0.9107 -0.4754
 4938SOL    HW226451   2.801   3.365   5.395 -1.8150  0.1320 -2.4921
 4939SOL     OW26452   2.902   2.909   4.689 -0.1484 -0.3875  0.1360
 4939SOL    HW126453   2.931   2.854   4.617  0.5722 -1.6216  1.3709
 4939SOL    HW226454   2.949   2.992   4.682 -2.3265  0.6117 -2.8802
 4940SOL     OW26455   1.656   4.591   0.729 -0.4223  0.4746  0.1737
 4940SOL    HW126456   1.738   4.634   0.707  0.3642 -0.3109  1.5332
 4940SOL    HW226457   1.659   4.514   0.672  0.4348 -0.0271  0.8907
 4941SOL     OW26458   0.522   3.321   6.796  0.0986  0.0351  0.3907
 4941SOL    HW126459   0.578   3.283   6.728 -0.0036 -0.5161  0.6131
 4941SOL    HW226460   0.577   3.364   6.861  0.8223 -1.6592  0.9008
 4942SOL     OW26461   3.183   0.544   6.393  0.8711  0.0090 -0.0599
 4942SOL    HW126462   3.130   0.489   6.450  3.5538  0.1387  2.5963
 4942SOL    HW226463   3.244   0.587   6.454  0.1622  1.0661 -0.1021
 4943SOL     OW26464   1.376   4.334  13.156 -0.8868 -0.6094  0.0038
 4943SOL    HW126465   1.335   4.299  13.234 -0.9192 -3.9823 -1.5149
 4943SOL    HW226466   1.409   4.417  13.190 -2.8661  0.8815 -1.7775
 4944SOL     OW26467   4.477   4.587  15.484  0.4740  0.1490  0.0279
 4944SOL    HW126468   4.520   4.569  15.401 -0.7007 -1.7288 -0.1607
 4944SOL    HW226469   4.469   4.683  15.478 -0.4543  0.0541 -0.2342
 4945SOL     OW26470   4.005   1.798  11.792 -0.4880  0.0844 -0.2958
 4945SOL    HW126471   4.031   1.760  11.876 -2.4737 -1.4132 -0.3579
 4945SOL    HW226472   4.031   1.737  11.723 -1.0370  0.7574 -1.1005
 4946SOL     OW26473   1.367   3.255   6.010 -0.6891 -0.5661  0.7054
 4946SOL    HW126474   1.328   3.342   6.012  0.7362  0.1170 -1.2564
 4946SOL    HW226475   1.289   3.207   5.980 -1.0416  1.5591 -1.7422
 4947SOL     OW26476   3.455   2.943   7.032 -0.3938 -0.3004 -0.0137
 4947SOL    HW126477   3.420   2.937   6.944 -0.2304 -0.7306 -0.0496
 4947SOL    HW226478   3.402   2.878   7.078 -1.5421  1.4097  1.0855
 4948SOL     OW26479   1.498   2.942  16.738 -0.1989 -0.0166  0.2219
 4948SOL    HW126480   1.510   2.921  16.646  0.7850 -0.5388  0.4703
 4948SOL    HW226481   1.415   2.989  16.736  0.0701  0.4639  0.2587
 4949SOL     OW26482   3.262   4.494   5.680 -0.5667 -0.0188 -0.2043
 4949SOL    HW126483   3.337   4.543   5.646  1.2584 -1.7214  1.4407
 4949SOL    HW226484   3.264   4.408   5.638  0.6589 -0.5574  0.9857
 4950SOL     OW26485   3.966   2.746   4.207  0.2815 -0.5724 -0.3787
 4950SOL    HW126486   4.003   2.658   4.206  2.2873  0.2571  1.5912
 4950SOL    HW226487   4.040   2.806   4.197  0.3666 -0.8572 -1.5297
 4951SOL     OW26488   0.314   4.002   0.427  0.3512 -0.3885  0.4497
 4951SOL    HW126489   0.380   4.056   0.470 -0.2929  0.7932 -0.0239
 4951SOL    HW226490   0.262   3.989   0.506 -2.2700 -0.3972 -1.2410
 4952SOL     OW26491   0.455   0.472   7.959 -0.4036  0.0304 -0.9346
 4952SOL    HW126492   0.369   0.431   7.956 -0.6641  0.6799 -2.6258
 4952SOL    HW226493   0.424   0.561   7.974 -0.0898 -0.5020  2.8875
 4953SOL     OW26494   2.504   4.532   1.624 -0.6409 -0.1288 -0.2926
 4953SOL    HW126495   2.559   4.532   1.702 -0.8556  0.8202 -0.1386
 4953SOL    HW226496   2.437   4.592   1.657  0.6528  0.4242  1.3146
 4954SOL     OW26497   3.077   1.274   7.653 -0.2398 -0.0201 -0.9213
 4954SOL    HW126498   2.988   1.286   7.685  0.3848  0.0175  0.8325
 4954SOL    HW226499   3.088   1.350   7.596 -0.1737  0.9567  0.4070
 4955SOL     OW26500   4.617   1.465  12.070 -0.0572 -0.1573 -0.1613
 4955SOL    HW126501   4.590   1.388  12.120  2.2447  0.0102  1.3058
 4955SOL    HW226502   4.654   1.518  12.140  0.8671 -1.1127  0.0786
 4956SOL     OW26503   4.562   2.016   5.195 -0.4679 -0.2591 -0.0731
 4956SOL    HW126504   4.551   2.072   5.272 -0.5126  1.2572 -1.1856
 4956SOL    HW226505   4.552   1.924   5.222  0.1926 -0.2092  0.3451
 4957SOL     OW26506   3.079   1.116   8.444  0.3096  0.0373  0.0053
 4957SOL    HW126507   3.069   1.181   8.375  1.3795 -1.0354 -1.1592
 4957SOL    HW226508   3.058   1.041   8.389 -0.7696  0.4360 -0.1216
 4958SOL     OW26509   0.332   0.293   7.707 -0.6270 -0.7154 -0.2222
 4958SOL    HW126510   0.286   0.309   7.789 -0.0717  2.7794 -0.5871
 4958SOL    HW226511   0.379   0.209   7.713 -1.4778 -1.3067 -1.9640
 4959SOL     OW26512   1.802   1.040   1.163 -0.9069 -0.5183 -0.3521
 4959SOL    HW126513   1.842   0.976   1.222  0.6535  0.4581 -0.3505
 4959SOL    HW226514   1.779   1.110   1.225  0.0927 -1.9610  1.6483
 4960SOL     OW26515   3.546   1.537  13.396  0.2797  0.3452  0.3365
 4960SOL    HW126516   3.562   1.517  13.303  1.6070  0.1240  0.6030
 4960SOL    HW226517   3.552   1.452  13.440 -2.6814  0.9009  1.8056
 4961SOL     OW26518   3.373   0.113   8.152 -0.1564  0.4927 -0.5355
 4961SOL    HW126519   3.374   0.137   8.245 -0.7091 -0.4759 -0.2811
 4961SOL    HW226520   3.279   0.130   8.143 -0.6126 -1.6503  0.2724
 4962SOL     OW26521   3.321   1.683   3.927  0.5143 -0.2943  0.4093
 4962SOL    HW126522   3.417   1.683   3.926  0.5194 -0.6942  1.7046
 4962SOL    HW226523   3.297   1.726   3.844  1.6032  1.7914  1.1681
 4963SOL     OW26524   1.474   1.444  17.443  0.4848  0.0341 -0.4793
 4963SOL    HW126525   1.507   1.534  17.443  2.1536 -0.5761  0.7693
 4963SOL    HW226526   1.414   1.431  17.517 -1.8288  1.0005 -2.1726
 4964SOL     OW26527   1.531   3.240   1.531  0.4189 -0.1102  0.9150
 4964SOL    HW126528   1.488   3.186   1.597 -1.4081 -4.5995 -4.0195
 4964SOL    HW226529   1.625   3.235   1.549  0.2515  3.1494  2.7224
 4965SOL     OW26530   0.208   0.454  11.526  0.1833  0.3962 -0.0327
 4965SOL    HW126531   0.280   0.478  11.467  1.2756 -2.1987  0.2580
 4965SOL    HW226532   0.136   0.513  11.504  0.0197 -0.1862 -1.0891
 4966SOL     OW26533   0.260   0.117   5.297  0.3227 -0.0607  0.6562
 4966SOL    HW126534   0.310   0.116   5.216  1.0720  0.9497  1.1116
 4966SOL    HW226535   0.227   0.206   5.287  0.9696  0.1669  0.5797
 4967SOL     OW26536   2.628   3.008   4.741 -0.1111  0.2087 -0.0083
 4967SOL    HW126537   2.621   3.003   4.836  1.3416 -1.1059  0.0325
 4967SOL    HW226538   2.718   2.983   4.721  0.2383  1.0685  0.5034
 4968SOL     OW26539   0.054   0.063   6.662 -0.0633 -0.0365 -0.0161
 4968SOL    HW126540   0.024   0.055   6.753 -2.4013 -2.2796 -0.9714
 4968SOL    HW226541   0.147   0.072   6.683 -0.4235  1.4587  0.9184
 4969SOL     OW26542   0.056   3.051   3.513  0.0025  0.4594 -0.3193
 4969SOL    HW126543   0.130   3.045   3.573 -0.8854  1.1181  0.8482
 4969SOL    HW226544   0.075   2.970   3.466 -0.5459  0.2227 -0.1364
 4970SOL     OW26545   3.061   1.581   0.620 -0.4500 -0.2313 -0.5672
 4970SOL    HW126546   3.003   1.509   0.594 -0.5883 -0.6919  1.0181
 4970SOL    HW226547   3.033   1.646   0.555  0.1009 -0.5788 -1.1560
 4971SOL     OW26548   1.023   0.657   8.478  0.8384 -0.4057 -0.1627
 4971SOL    HW126549   0.990   0.584   8.531 -1.6964  2.4177  2.1848
 4971SOL    HW226550   1.000   0.630   8.389 -1.5856 -2.4311  1.0660
 4972SOL     OW26551   3.909   0.130   5.875 -0.5119 -0.0797 -0.4510
 4972SOL    HW126552   3.926   0.219   5.844 -1.8163 -0.4389 -2.2093
 4972SOL    HW226553   3.970   0.079   5.823 -0.0989  0.3418 -0.3787
 4973SOL     OW26554   1.259   1.136  16.886  0.3989  0.1544 -0.4321
 4973SOL    HW126555   1.271   1.173  16.799  0.5407  0.6266 -0.2144
 4973SOL    HW226556   1.191   1.199  16.912  0.0495  0.5318 -2.2744
 4974SOL     OW26557   1.208   2.038  12.489  0.3180  0.2707  0.3248
 4974SOL    HW126558   1.143   1.994  12.543  0.6717 -0.7266 -0.0671
 4974SOL    HW226559   1.254   2.089  12.556 -2.0744  1.1606  1.3082
 4975SOL     OW26560   3.453   3.496   4.508 -0.3050  0.0970 -0.3873
 4975SOL    HW126561   3.463   3.566   4.444  2.2725  0.7547  0.7255
 4975SOL    HW226562   3.370   3.518   4.549  0.7254 -1.5681  2.6837
 4976SOL     OW26563   1.838   0.971   8.126 -0.1374 -0.3339 -0.0747
 4976SOL    HW126564   1.784   1.049   8.120 -0.0133 -0.4210 -2.7592
 4976SOL    HW226565   1.889   0.998   8.202  1.3174 -2.1123 -0.4135
 4977SOL     OW26566   1.362   2.519  11.386  0.8829  0.4705 -0.3551
 4977SOL    HW126567   1.267   2.514  11.395  0.9839 -0.3346  0.2951
 4977SOL    HW226568   1.392   2.506  11.477  1.2600 -0.7181 -0.6427
 4978SOL     OW26569   3.107   1.559   5.769 -0.0267 -0.1861 -0.5430
 4978SOL    HW126570   3.100   1.526   5.679  0.6504  2.3481 -1.5249
 4978SOL    HW226571   3.092   1.475   5.812 -0.8700  0.3191  0.1388
 4979SOL     OW26572   1.175   3.526  10.564  0.3240  0.3538 -0.3320
 4979SOL    HW126573   1.089   3.496  10.534  0.7063 -2.6192  1.4960
 4979SOL    HW226574   1.208   3.438  10.582  1.0198  0.6835  0.0012
 4980SOL     OW26575   0.454   4.334   2.719  0.0076 -0.5418  0.4573
 4980SOL    HW126576   0.417   4.300   2.800  2.3872 -0.6769  1.4665
 4980SOL    HW226577   0.443   4.254   2.668  0.7487 -1.2005  1.3397
 4981SOL     OW26578   3.169   0.355   6.839 -0.1752 -0.4194 -0.4079
 4981SOL    HW126579   3.180   0.341   6.933  0.2909  1.2121 -0.2246
 4981SOL    HW226580   3.139   0.269   6.808  0.3050 -0.7120 -0.0555
 4982SOL     OW26581   1.422   3.633   9.968  0.2962  0.0636 -0.6088
 4982SOL    HW126582   1.430   3.648  10.062 -1.2065 -0.8310 -0.3318
 4982SOL    HW226583   1.445   3.541   9.958 -1.6979 -0.6744  1.6944
 4983SOL     OW26584   2.876   4.646   2.119  0.2739 -0.1019  0.4294
 4983SOL    HW126585   2.956   4.681   2.079 -0.7951  3.3407  1.2822
 4983SOL    HW226586   2.814   4.697   2.067  1.2159  0.6972  0.0739
 4984SOL     OW26587   0.323   0.866  15.407  0.2064 -0.8481 -0.0154
 4984SOL    HW126588   0.383   0.825  15.469 -1.8432 -0.8660  1.9371
 4984SOL    HW226589   0.242   0.855  15.456 -0.1901  0.8798 -0.2750
 4985SOL     OW26590   0.377   4.726   4.072 -0.0992  0.2316 -0.2647
 4985SOL    HW126591   0.348   4.704   4.161 -1.3411  0.7691 -0.5373
 4985SOL    HW226592   0.301   4.685   4.031 -0.4610  0.2996  0.3347
 4986SOL     OW26593   2.620   0.968   2.438 -0.1161 -0.4012 -0.6353
 4986SOL    HW126594   2.591   1.032   2.503 -0.5623 -1.3666  0.1055
 4986SOL    HW226595   2.715   0.977   2.441 -0.3613  1.5628  0.8166
 4987SOL     OW26596   2.672   4.290   6.238 -0.0381  0.2713  0.6380
 4987SOL    HW126597   2.761   4.324   6.223  0.4744 -1.1967  0.3826
 4987SOL    HW226598   2.634   4.298   6.150 -1.7252  1.4052  1.4817
 4988SOL     OW26599   1.823   2.717   5.108  0.2009  0.2387 -0.9141
 4988SOL    HW126600   1.918   2.722   5.101  0.1097  1.9507 -0.9866
 4988SOL    HW226601   1.795   2.726   5.200  2.0069  1.5589 -0.4992
 4989SOL     OW26602   3.023   0.399   1.519  0.7402 -0.0136  0.2665
 4989SOL    HW126603   3.114   0.424   1.531  0.8679 -0.2836 -0.1623
 4989SOL    HW226604   3.041   0.306   1.502  0.2420 -0.0850  0.1262
 4990SOL     OW26605   4.606   2.445   5.136  0.0038 -0.3781  1.0491
 4990SOL    HW126606   4.645   2.370   5.181  3.0679  0.6834  0.1481
 4990SOL    HW226607   4.515   2.416   5.124 -1.1909  2.7577  2.6271
 4991SOL     OW26608   3.160   1.285   2.230 -0.0795  0.0135  0.9511
 4991SOL    HW126609   3.192   1.357   2.176 -0.9965 -0.3728 -0.1260
 4991SOL    HW226610   3.243   1.255   2.267 -0.6643 -1.4466  1.1008
 4992SOL     OW26611   1.412   2.980   8.325  0.0729  0.0342  0.1992
 4992SOL    HW126612   1.418   2.884   8.329  1.1620  0.1540  1.3356
 4992SOL    HW226613   1.499   3.007   8.354 -0.6749  1.0353  1.5137
 4993SOL     OW26614   2.236   0.858  13.541  0.3911  0.2692 -0.3577
 4993SOL    HW126615   2.314   0.915  13.548  0.8164 -0.0625 -2.5779
 4993SOL    HW226616   2.189   0.901  13.470  2.2384  1.5249 -0.8317
 4994SOL     OW26617   3.969   1.118   1.979  0.1566 -0.1247  0.1284
 4994SOL    HW126618   3.882   1.091   1.951  1.1883 -2.9252 -0.3424
 4994SOL    HW226619   3.969   1.079   2.066  0.0928  1.8136  1.0126
 4995SOL     OW26620   2.366   2.846   7.462  0.5335 -0.0877  0.0367
 4995SOL    HW126621   2.436   2.844   7.397  0.9649  1.4915  0.4442
 4995SOL    HW226622   2.405   2.809   7.542  0.4342  2.4550  1.2676
 4996SOL     OW26623   3.917   4.295   2.305  0.1114 -0.1600 -0.0647
 4996SOL    HW126624   3.915   4.352   2.382 -0.1555  0.0132 -0.1991
 4996SOL    HW226625   3.899   4.209   2.345  1.7527 -0.7706 -0.6439
 4997SOL     OW26626   0.671   2.853   5.073  0.5507  0.1132  0.1776
 4997SOL    HW126627   0.612   2.813   5.010 -1.2510  5.3546 -1.4815
 4997SOL    HW226628   0.603   2.906   5.114  0.2019 -1.2532  1.3549
 4998SOL     OW26629   2.419   4.702   4.036 -0.3952 -0.4949  0.0793
 4998SOL    HW126630   2.381   0.032   3.981  1.0358 -0.3941 -0.7742
 4998SOL    HW226631   2.351   4.639   4.013  1.5230 -2.3029 -0.6075
 4999SOL     OW26632   4.092   2.922  14.380 -0.0310  0.5539 -0.1346
 4999SOL    HW126633   4.153   2.851  14.362 -2.1518 -1.6375  1.3147
 4999SOL    HW226634   4.095   2.969  14.296  2.7602  0.9308  0.1812
 5000SOL     OW26635   3.005   3.056   8.861 -0.1072 -0.0582 -0.4332
 5000SOL    HW126636   3.001   2.972   8.816 -0.5330 -1.4706  2.2627
 5000SOL    HW226637   3.100   3.065   8.868 -0.4222  2.3902  0.6124
 5001SOL     OW26638   1.207   2.409   2.285 -0.3571 -0.1379  0.2701
 5001SOL    HW126639   1.231   2.319   2.264  1.2945  0.5426 -0.6806
 5001SOL    HW226640   1.281   2.460   2.252 -0.4935 -1.1864 -1.6767
 5002SOL     OW26641   1.368   1.044   8.137 -0.1833 -0.0003  0.2923
 5002SOL    HW126642   1.275   1.034   8.153 -0.5058  1.4881 -0.6518
 5002SOL    HW226643   1.383   1.130   8.176 -2.0245  1.1420 -1.5801
 5003SOL     OW26644   3.604   3.978  13.499  0.6720  0.0293 -0.4470
 5003SOL    HW126645   3.530   3.970  13.559  2.4305  1.4268  1.9056
 5003SOL    HW226646   3.594   4.070  13.474  1.1256  0.2780  0.2986
 5004SOL     OW26647   4.628   0.394   4.158 -0.4612  0.7984  0.1860
 5004SOL    HW126648   4.597   0.303   4.152 -3.7121  1.8285  1.0240
 5004SOL    HW226649   4.660   0.401   4.068 -2.6911  0.6845 -0.6371
 5005SOL     OW26650   4.632   0.409  17.217  0.1742  0.4366  0.1883
 5005SOL    HW126651   4.554   0.435  17.169 -1.9669 -2.8566  1.9016
 5005SOL    HW226652   4.704   0.444  17.164  0.8208  1.2853  1.6181
 5006SOL     OW26653   0.702   3.471  17.666 -0.2997  0.6392 -0.0728
 5006SOL    HW126654   0.745   3.553  17.641  0.8442  0.3816  1.0539
 5006SOL    HW226655   0.722   3.424  17.585  0.0290 -0.0784  0.4307
 5007SOL     OW26656   3.084   0.930   2.130 -0.3977  0.5155 -0.1447
 5007SOL    HW126657   3.178   0.934   2.149 -0.6877 -1.0574  1.5741
 5007SOL    HW226658   3.085   0.890   2.043  3.9154  0.8144 -0.2787
 5008SOL     OW26659   2.931   0.407   2.589 -0.8042  0.3114  0.1111
 5008SOL    HW126660   2.937   0.502   2.578 -3.2468  0.4949  0.3748
 5008SOL    HW226661   2.933   0.372   2.500 -0.1463 -0.7984  0.5603
 5009SOL     OW26662   3.620   4.331   3.726  0.1146  0.3549 -0.2365
 5009SOL    HW126663   3.663   4.247   3.707  0.6496  0.7466 -0.7706
 5009SOL    HW226664   3.532   4.299   3.745  0.4581  0.2989  1.2202
 5010SOL     OW26665   3.707   1.719   8.286 -0.1765 -0.7758 -0.1299
 5010SOL    HW126666   3.650   1.668   8.343 -3.0824  1.9628 -0.6147
 5010SOL    HW226667   3.742   1.645   8.236 -3.0802 -1.9828 -0.3629
 5011SOL     OW26668   3.470   1.358   8.003  0.2809  0.6734  0.4108
 5011SOL    HW126669   3.421   1.378   7.923  1.8058 -0.9303 -0.9249
 5011SOL    HW226670   3.414   1.396   8.071 -1.3471 -0.6534 -0.2177
 5012SOL     OW26671   3.048   3.688   6.377  0.5858  0.3205  0.3414
 5012SOL    HW126672   3.049   3.739   6.458  0.0997  0.3655  0.3165
 5012SOL    HW226673   3.139   3.668   6.352 -0.3240 -0.5649 -2.2787
 5013SOL     OW26674   3.203   3.116   4.020 -0.7030  0.7651  0.5825
 5013SOL    HW126675   3.204   3.024   4.048  2.7433  1.1670  1.7846
 5013SOL    HW226676   3.291   3.140   4.050 -0.1164 -2.8467  1.8250
 5014SOL     OW26677   2.349   0.504  17.296  0.1721  0.3013 -0.0905
 5014SOL    HW126678   2.336   0.467  17.209 -1.9613  0.3175  0.2274
 5014SOL    HW226679   2.267   0.548  17.321 -0.0789  1.1112 -2.3448
 5015SOL     OW26680   2.052   2.619   8.021  0.2350 -0.2347 -0.7338
 5015SOL    HW126681   2.009   2.657   7.945  1.1062  0.0688 -1.0774
 5015SOL    HW226682   2.139   2.659   8.016  0.6029 -1.2279 -2.0645
 5016SOL     OW26683   2.000   3.911   6.119  0.3783  0.1158 -0.0403
 5016SOL    HW126684   1.933   3.977   6.137 -0.1199  0.0574 -1.6445
 5016SOL    HW226685   1.990   3.851   6.193  3.4372 -0.3860 -0.0555
 5017SOL     OW26686   2.491   0.910   3.980 -0.5378  0.6059  1.1072
 5017SOL    HW126687   2.402   0.926   4.010 -1.7756 -0.8895 -1.7637
 5017SOL    HW226688   2.492   0.967   3.903 -0.0527 -0.7992  0.0711
 5018SOL     OW26689   2.322   4.259   9.172  0.3751 -0.1011 -0.3677
 5018SOL    HW126690   2.344   4.288   9.084  2.1883 -1.1342 -0.2402
 5018SOL    HW226691   2.271   4.334   9.203  1.4878  0.3908  0.2475
 5019SOL     OW26692   0.490   3.643   4.819 -0.1266 -0.3413  0.1124
 5019SOL    HW126693   0.549   3.639   4.744 -2.1231 -0.6594 -1.4496
 5019SOL    HW226694   0.545   3.669   4.892 -0.7655  1.2894  0.0240
 5020SOL     OW26695   1.010   0.578   9.432  0.0504  0.3156 -0.1063
 5020SOL    HW126696   0.996   0.640   9.360 -1.2695  2.0465  1.6451
 5020SOL    HW226697   1.093   0.607   9.469 -0.3052 -1.4278  2.0357
 5021SOL     OW26698   4.198   4.434   2.626  0.0784 -0.2567 -0.2452
 5021SOL    HW126699   4.113   4.455   2.588 -0.1976 -1.0894 -0.0679
 5021SOL    HW226700   4.250   4.473   2.555  0.5147 -1.4482 -0.5762
 5022SOL     OW26701   4.630   0.447   3.871 -0.4103 -0.1278 -0.6711
 5022SOL    HW126702   4.679   0.446   3.788  0.8244 -0.1099  0.0623
 5022SOL    HW226703   4.549   0.398   3.851 -2.3924  3.8194 -2.3055
 5023SOL     OW26704   3.998   3.169   3.251  0.0553  0.3052 -0.4196
 5023SOL    HW126705   3.936   3.133   3.315  0.0477  0.8095 -0.1427
 5023SOL    HW226706   3.966   3.123   3.174  2.5806 -0.3233 -1.0867
 5024SOL     OW26707   0.569   3.010   9.002 -0.1694 -0.3462 -0.4225
 5024SOL    HW126708   0.566   2.967   8.916  0.2381 -1.1742 -0.0229
 5024SOL    HW226709   0.542   3.099   8.978  1.2278  0.8320  2.3940
 5025SOL     OW26710   4.573   0.271   5.600  0.0369 -0.1176  0.2241
 5025SOL    HW126711   4.574   0.177   5.621 -0.8855 -0.3831 -0.8896
 5025SOL    HW226712   4.662   0.283   5.567  0.4386 -0.8351  1.0630
 5026SOL     OW26713   0.567   1.241  12.295  0.4503  0.2743  0.2970
 5026SOL    HW126714   0.557   1.283  12.380  1.3256 -0.3116  0.6861
 5026SOL    HW226715   0.480   1.200  12.283  0.4428 -0.0864  1.6230
 5027SOL     OW26716   3.617   3.574   6.583  0.3029 -0.0221 -0.2924
 5027SOL    HW126717   3.562   3.511   6.630  0.5138 -1.7677 -2.3842
 5027SOL    HW226718   3.686   3.576   6.649 -1.1855 -1.7422  1.3111
 5028SOL     OW26719   4.403   3.071   0.254 -0.1105  0.1023  0.9922
 5028SOL    HW126720   4.396   3.151   0.202  0.9294 -0.4109  0.0539
 5028SOL    HW226721   4.310   3.046   0.257 -0.1133  0.0952  0.8789
 5029SOL     OW26722   2.165   2.070   0.847  0.7613  0.3150 -0.4816
 5029SOL    HW126723   2.080   2.109   0.827  0.2851 -1.0129 -1.0570
 5029SOL    HW226724   2.180   2.107   0.934  3.2007  0.2182 -0.8456
 5030SOL     OW26725   1.135   4.520  12.460  0.6634 -0.1749 -0.1461
 5030SOL    HW126726   1.199   4.546  12.395 -0.9213  0.3611 -1.4951
 5030SOL    HW226727   1.178   4.442  12.493 -0.0721 -0.9545 -1.0273
 5031SOL     OW26728   4.348   3.817   5.203  0.0288 -0.0821  0.2699
 5031SOL    HW126729   4.397   3.766   5.266 -2.4747 -2.1161  0.5834
 5031SOL    HW226730   4.293   3.855   5.271  0.0944  1.1308 -0.3468
 5032SOL     OW26731   3.320   0.367   9.259 -0.5966  0.1077 -0.5640
 5032SOL    HW126732   3.372   0.441   9.289  0.4400  0.0184 -2.1181
 5032SOL    HW226733   3.292   0.328   9.341 -2.5230  0.1137 -1.2119
 5033SOL     OW26734   0.726   1.673  14.244 -0.3223 -0.1074  0.6246
 5033SOL    HW126735   0.754   1.622  14.321  0.6097  2.8664  2.2538
 5033SOL    HW226736   0.806   1.720  14.224 -0.1290 -0.2057  1.1674
 5034SOL     OW26737   0.723   0.989   6.581 -0.3849 -0.1008 -0.8162
 5034SOL    HW126738   0.698   1.042   6.657  1.7698 -1.5762  0.9012
 5034SOL    HW226739   0.643   0.971   6.531  0.6675 -1.8399 -1.8739
 5035SOL     OW26740   4.421   0.240   8.618 -0.1773 -0.5821 -0.0583
 5035SOL    HW126741   4.396   0.327   8.587  2.0377 -0.0803 -0.3678
 5035SOL    HW226742   4.362   0.227   8.693  0.4932 -0.2123  0.5309
 5036SOL     OW26743   3.480   3.679  15.243  0.2085  0.1188  0.3260
 5036SOL    HW126744   3.395   3.636  15.230  0.2064  0.4995 -0.8971
 5036SOL    HW226745   3.463   3.766  15.207  1.7060  0.9091  1.5277
 5037SOL     OW26746   3.205   0.678   3.238  0.3160  0.4119  0.1778
 5037SOL    HW126747   3.221   0.740   3.167 -0.1777 -0.6866 -0.9014
 5037SOL    HW226748   3.116   0.651   3.214  0.6231 -1.1137  0.7469
 5038SOL     OW26749   0.390   0.692   6.294 -0.0978  0.2232 -0.5075
 5038SOL    HW126750   0.318   0.649   6.340  1.3919 -1.0068  0.6689
 5038SOL    HW226751   0.336   0.733   6.226  0.4686 -1.7561 -2.1396
 5039SOL     OW26752   0.788   4.400   9.197  0.7292  0.0727 -0.2951
 5039SOL    HW126753   0.721   4.460   9.165 -0.7202 -0.9932  0.7528
 5039SOL    HW226754   0.781   4.412   9.292  1.7473 -1.6962 -0.0052
 5040SOL     OW26755   2.452   1.733  12.910  0.1640  0.3038  0.1904
 5040SOL    HW126756   2.514   1.730  12.838 -0.7054 -0.0789 -0.5438
 5040SOL    HW226757   2.421   1.823  12.905 -0.8311  0.0646  1.6831
 5041SOL     OW26758   1.755   0.567   4.499  0.3694 -0.3120 -0.0697
 5041SOL    HW126759   1.701   0.561   4.577 -1.2691 -1.5995 -1.3014
 5041SOL    HW226760   1.693   0.532   4.434  1.5588  1.3970 -2.1413
 5042SOL     OW26761   1.408   0.501   5.891 -0.3117 -0.1518 -0.0286
 5042SOL    HW126762   1.337   0.541   5.840  0.7774  1.4466 -0.2946
 5042SOL    HW226763   1.474   0.479   5.826  0.6917 -0.7302  1.1933
 5043SOL     OW26764   0.336   3.904  11.350 -0.5798 -0.0683  0.0653
 5043SOL    HW126765   0.408   3.947  11.396 -1.4141  0.6718  0.6845
 5043SOL    HW226766   0.355   3.811  11.355  1.9890  0.4452 -0.4262
 5044SOL     OW26767   2.885   2.856   5.389  0.6644  0.1986  0.3148
 5044SOL    HW126768   2.913   2.796   5.458  1.9010 -0.1909 -0.5177
 5044SOL    HW226769   2.912   2.815   5.307  2.1180  1.3463  0.2047
 5045SOL     OW26770   1.746   3.919   9.144  0.3525  0.4379 -0.3816
 5045SOL    HW126771   1.785   4.005   9.159 -0.0026  0.3956  0.8384
 5045SOL    HW226772   1.827   3.869   9.138 -0.2462 -0.4780 -0.8311
 5046SOL     OW26773   0.153   1.698   8.373 -0.1146 -0.1136 -0.4813
 5046SOL    HW126774   0.192   1.640   8.438 -2.6190 -0.0914  1.0141
 5046SOL    HW226775   0.134   1.764   8.439 -1.8582 -0.8111 -0.2930
 5047SOL     OW26776   2.013   0.588   7.126  0.2818  0.1340  0.3587
 5047SOL    HW126777   2.011   0.682   7.143 -0.4605  0.4175 -1.2727
 5047SOL    HW226778   2.076   0.567   7.056 -3.1578 -1.7475 -2.1696
 5048SOL     OW26779   1.699   1.867   7.542 -0.2260  0.0477 -0.2673
 5048SOL    HW126780   1.691   1.784   7.589  1.8420  0.3726  0.6804
 5048SOL    HW226781   1.765   1.906   7.599 -0.1877 -2.3214  1.3229
 5049SOL     OW26782   0.463   3.816   8.789 -0.0625 -0.2490  0.4413
 5049SOL    HW126783   0.368   3.810   8.797 -0.3460 -0.2881 -3.1579
 5049SOL    HW226784   0.476   3.843   8.699 -1.9943  1.0514  0.5590
 5050SOL     OW26785   1.424   4.604  16.998  0.1961  0.0800  0.1273
 5050SOL    HW126786   1.449   4.625  16.908  2.5694  2.9990  1.4673
 5050SOL    HW226787   1.329   4.613  17.000  0.2397  0.2930  1.6888
 5051SOL     OW26788   1.688   3.415   8.714 -0.0157  0.2742  0.0421
 5051SOL    HW126789   1.614   3.474   8.731  0.5514  0.9693  0.1256
 5051SOL    HW226790   1.691   3.415   8.619  0.6182 -2.0797  0.0657
 5052SOL     OW26791   1.280   1.693  17.554 -0.9993  0.1680 -0.0065
 5052SOL    HW126792   1.341   1.626  17.582 -1.7448  0.2629  1.7968
 5052SOL    HW226793   1.215   1.690  17.624  0.2475  1.4286  1.1907
 5053SOL     OW26794   3.141   0.219   8.785  0.0648  0.0963  0.4438
 5053SOL    HW126795   3.175   0.263   8.863  0.2838  0.5738  0.0767
 5053SOL    HW226796   3.174   0.277   8.717 -0.3418  1.1125  1.1080
 5054SOL     OW26797   2.515   3.484   1.378  0.4758 -0.7366  0.2494
 5054SOL    HW126798   2.465   3.456   1.302 -0.9875  0.2895  0.8291
 5054SOL    HW226799   2.494   3.577   1.388 -0.3205 -0.7356 -1.4416
 5055SOL     OW26800   1.332   1.673  15.750  0.8842 -0.7188 -0.5658
 5055SOL    HW126801   1.385   1.620  15.810 -1.2668 -0.5698  1.4904
 5055SOL    HW226802   1.398   1.683  15.682 -0.5816  1.7540 -1.6253
 5056SOL     OW26803   1.660   3.025   8.432 -0.2559  0.5013  0.1586
 5056SOL    HW126804   1.728   2.960   8.416 -1.9384 -1.7650  2.1093
 5056SOL    HW226805   1.687   3.065   8.514 -0.7260  0.6089  0.2625
 5057SOL     OW26806   3.256   2.420  11.147 -0.0826  0.3174 -0.4367
 5057SOL    HW126807   3.202   2.345  11.126 -1.8249  1.9158 -1.6986
 5057SOL    HW226808   3.192   2.484  11.115  1.3665  1.7218 -0.5712
 5058SOL     OW26809   4.038   2.547   8.920  0.0580  0.2124 -0.4343
 5058SOL    HW126810   3.980   2.588   8.857 -2.5035  0.6102  2.1930
 5058SOL    HW226811   4.025   2.457   8.890  1.3881  0.5468 -2.0067
 5059SOL     OW26812   1.509   0.078   9.387  0.0178 -0.5113  0.2687
 5059SOL    HW126813   1.470   4.729   9.393 -0.6744 -0.2535 -0.6436
 5059SOL    HW226814   1.518   0.098   9.481  3.0426 -0.9806  0.0861
 5060SOL     OW26815   0.577   3.247   5.696 -0.3196  0.2814 -0.1410
 5060SOL    HW126816   0.497   3.290   5.724  0.7126  1.3497  1.1426
 5060SOL    HW226817   0.615   3.320   5.647  2.5092 -3.2563 -3.2650
 5061SOL     OW26818   1.984   0.830   7.235  0.4550 -0.2415 -0.0212
 5061SOL    HW126819   1.967   0.917   7.198  2.4125 -0.6251 -1.8541
 5061SOL    HW226820   1.957   0.852   7.324  1.4930  0.3165  0.1497
 5062SOL     OW26821   2.175   4.259   4.979 -0.1492  0.3058 -0.0046
 5062SOL    HW126822   2.159   4.202   5.055 -0.9159  0.1868 -0.2571
 5062SOL    HW226823   2.148   4.201   4.908  0.2240 -0.6242  0.6048
 5063SOL     OW26824   4.078   3.770  17.260  0.4087 -0.1190  0.7746
 5063SOL    HW126825   3.998   3.746  17.307  1.0524 -1.9069  0.9752
 5063SOL    HW226826   4.036   3.830  17.200 -0.0033 -1.6962 -0.5061
 5064SOL     OW26827   0.629   0.478  14.569  0.5121 -0.0857  0.3629
 5064SOL    HW126828   0.593   0.516  14.489 -0.1060 -0.8000  0.2985
 5064SOL    HW226829   0.544   0.449  14.602  0.4678  0.1818  0.4838
 5065SOL     OW26830   2.100   1.032   5.333 -0.1744  0.2403 -0.2230
 5065SOL    HW126831   2.066   0.970   5.398  1.7593 -1.5848 -0.9376
 5065SOL    HW226832   2.093   0.977   5.255 -0.3308 -0.4291  0.2655
 5066SOL     OW26833   2.465   2.775  11.647  0.0719 -0.1879 -0.0227
 5066SOL    HW126834   2.388   2.766  11.590  0.4455  2.2763 -0.8896
 5066SOL    HW226835   2.448   2.841  11.715  1.7785 -0.9380  1.1095
 5067SOL     OW26836   1.028   0.281   7.306 -0.7577 -0.1652  0.0179
 5067SOL    HW126837   1.023   0.266   7.212  1.2735  1.5725 -0.3813
 5067SOL    HW226838   1.096   0.349   7.308 -0.9475  0.0150  0.2676
 5068SOL     OW26839   0.501   3.621   5.831 -0.5226 -0.1446  0.3211
 5068SOL    HW126840   0.443   3.668   5.771  1.1638  0.4792 -0.8137
 5068SOL    HW226841   0.502   3.532   5.798 -1.4081 -0.7681  1.9595
 5069SOL     OW26842   1.406   0.909   3.591  0.1243  0.1719 -0.3378
 5069SOL    HW126843   1.463   0.859   3.650 -0.2507  0.2450  0.0902
 5069SOL    HW226844   1.464   0.933   3.519  0.5835 -0.7567 -0.2848
 5070SOL     OW26845   0.808   0.955   2.948 -0.3654 -0.0544 -0.2300
 5070SOL    HW126846   0.890   0.939   2.995 -0.7437  1.9077  1.1201
 5070SOL    HW226847   0.836   1.033   2.900 -2.0149  0.5225 -0.2728
 5071SOL     OW26848   3.960   4.429   4.683  0.2186 -0.0682 -0.6420
 5071SOL    HW126849   4.036   4.384   4.720  0.6818  0.2927 -1.1536
 5071SOL    HW226850   3.928   4.479   4.758  2.6017 -0.0551  0.3740
 5072SOL     OW26851   1.649   3.452  11.287  0.5741 -0.1183 -0.7112
 5072SOL    HW126852   1.697   3.404  11.220  2.8001  1.0331  0.0772
 5072SOL    HW226853   1.618   3.525  11.233 -1.3137 -0.3804  0.0067
 5073SOL     OW26854   2.145   1.402   8.826  0.2552 -0.3481  0.3979
 5073SOL    HW126855   2.089   1.399   8.749  1.8364  0.3163 -0.7869
 5073SOL    HW226856   2.158   1.496   8.842  0.5530 -0.1717 -0.8330
 5074SOL     OW26857   0.242   2.616   5.618  0.2460 -0.0852 -0.3873
 5074SOL    HW126858   0.249   2.528   5.581  0.3515 -0.9869  1.7517
 5074SOL    HW226859   0.147   2.630   5.626  0.2142 -1.4505  1.7845
 5075SOL     OW26860   2.139   1.554   7.266  0.8035  0.2252  0.1766
 5075SOL    HW126861   2.066   1.594   7.312  1.1798  0.6830  0.3747
 5075SOL    HW226862   2.164   1.491   7.333 -0.5468  0.0615  0.5282
 5076SOL     OW26863   0.550   1.992   6.942 -1.0197  0.3032  0.2089
 5076SOL    HW126864   0.456   1.984   6.930 -0.9888 -2.1530  1.5550
 5076SOL    HW226865   0.576   2.006   6.851 -2.3122 -0.7191 -0.3134
 5077SOL     OW26866   3.088   1.419   7.391 -0.3059 -0.1997 -0.6956
 5077SOL    HW126867   3.161   1.423   7.330  0.4494 -0.3938  0.1823
 5077SOL    HW226868   3.022   1.369   7.343  0.5033 -1.3304 -0.6254
 5078SOL     OW26869   2.813   3.902   1.519 -0.0319  1.0106  0.1318
 5078SOL    HW126870   2.779   3.842   1.453  1.1419  0.4053  0.0828
 5078SOL    HW226871   2.764   3.875   1.596 -0.1328  0.9692  0.0526
 5079SOL     OW26872   1.316   2.644  16.160 -0.8309 -0.9187 -0.2303
 5079SOL    HW126873   1.297   2.561  16.117 -2.0612  0.1120 -1.6815
 5079SOL    HW226874   1.274   2.629  16.244 -3.7066  0.3536 -1.4260
 5080SOL     OW26875   1.559   0.138   9.669  0.1473  0.2199  0.1084
 5080SOL    HW126876   1.541   0.162   9.760  0.5431 -0.4601  0.3645
 5080SOL    HW226877   1.566   0.224   9.626 -2.3058 -0.2829 -1.2695
 5081SOL     OW26878   1.148   2.871   2.671  0.1651 -0.2205  0.0978
 5081SOL    HW126879   1.085   2.906   2.733  0.9111 -0.0467  0.7558
 5081SOL    HW226880   1.223   2.890   2.726 -2.0342 -0.7906  3.3230
 5082SOL     OW26881   2.779   1.276   9.932 -0.1705  0.1370  0.3742
 5082SOL    HW126882   2.691   1.252   9.962  0.3660  0.0740  1.8635
 5082SOL    HW226883   2.805   1.192   9.895  1.5378  0.3968  0.9966
 5083SOL     OW26884   3.921   4.437  16.817  0.7579  0.2656  0.1543
 5083SOL    HW126885   3.986   4.504  16.836 -0.8008  1.2511  2.0152
 5083SOL    HW226886   3.965   4.375  16.759  0.3265  0.7974 -0.7619
 5084SOL     OW26887   3.368   3.234   8.260  0.1287  0.5695  0.1402
 5084SOL    HW126888   3.431   3.172   8.297 -0.4113 -1.0062 -1.5853
 5084SOL    HW226889   3.321   3.188   8.191  0.3325  1.6409 -0.7221
 5085SOL     OW26890   3.438   1.317   8.446  0.4214  0.1620 -0.5167
 5085SOL    HW126891   3.377   1.256   8.405  1.0031 -1.5095  1.1029
 5085SOL    HW226892   3.520   1.270   8.430  0.3720 -0.0190 -0.2183
 5086SOL     OW26893   4.310   3.577   5.573  0.5074  0.2311  0.1730
 5086SOL    HW126894   4.321   3.482   5.568 -1.0666  0.1746 -2.0297
 5086SOL    HW226895   4.243   3.572   5.505 -0.3532 -2.4690  1.2439
 5087SOL     OW26896   3.427   0.005   1.643 -0.6767 -0.0743 -0.0181
 5087SOL    HW126897   3.452   0.097   1.644 -1.1025  0.0330  0.3568
 5087SOL    HW226898   3.482   4.721   1.567  0.1329 -0.1609  0.5808
 5088SOL     OW26899   3.690   1.613  11.731  0.3691 -0.3369  0.2475
 5088SOL    HW126900   3.728   1.533  11.765  0.2068 -0.7431 -0.5186
 5088SOL    HW226901   3.638   1.585  11.655  2.0489  0.0323 -1.0301
 5089SOL     OW26902   1.876   2.303   8.900  0.2627  0.5527 -0.0415
 5089SOL    HW126903   1.808   2.334   8.840  2.5947  2.2174 -1.8298
 5089SOL    HW226904   1.862   2.346   8.984 -0.7442  0.0479  0.0573
 5090SOL     OW26905   0.021   0.440   2.921  0.0773 -0.5328  0.0599
 5090SOL    HW126906   0.005   0.352   2.887  1.8706 -0.6147 -0.5670
 5090SOL    HW226907   0.114   0.440   2.943  0.0004 -1.9518  0.4448
 5091SOL     OW26908   0.134   3.095   5.244 -0.3479 -0.0012 -0.2900
 5091SOL    HW126909   0.153   3.063   5.156  0.0682 -0.7158  0.0597
 5091SOL    HW226910   0.217   3.088   5.290 -0.8841  1.4964  0.9097
 5092SOL     OW26911   1.570   4.057   7.745  0.2586 -0.1498 -0.1540
 5092SOL    HW126912   1.634   4.127   7.732  0.6742 -0.2767  1.2104
 5092SOL    HW226913   1.495   4.115   7.758 -0.4804 -1.1254 -0.0108
 5093SOL     OW26914   3.290   3.856   4.690  0.4764  0.2490  0.2840
 5093SOL    HW126915   3.345   3.862   4.769 -1.0254 -1.1562  1.4327
 5093SOL    HW226916   3.218   3.903   4.733 -0.0661  0.5932 -1.0144
 5094SOL     OW26917   2.353   4.120   2.817  0.0559 -0.3447  0.2140
 5094SOL    HW126918   2.390   4.175   2.886  1.3656 -2.9815  1.6277
 5094SOL    HW226919   2.259   4.138   2.826  0.4283  1.5926  0.0695
 5095SOL     OW26920   0.090   4.528   4.481 -0.1246 -0.1027 -0.1036
 5095SOL    HW126921   0.065   4.441   4.511  0.3081 -0.3030 -0.3377
 5095SOL    HW226922   0.002   4.558   4.457  0.4640  2.2736  0.7238
 5096SOL     OW26923   3.480   2.845  13.041 -0.2639 -0.3534 -0.0044
 5096SOL    HW126924   3.432   2.794  12.977 -2.5469 -0.6226  1.9260
 5096SOL    HW226925   3.504   2.923  12.992  1.4357 -0.6278  0.3877
 5097SOL     OW26926   0.012   4.123   7.368  0.4132  0.0545 -0.2052
 5097SOL    HW126927   4.670   4.083   7.335 -0.8447  0.5278  2.3186
 5097SOL    HW226928   0.004   4.209   7.326 -2.8141 -0.6539 -1.0500
 5098SOL     OW26929   1.148   1.060   2.499 -1.0281  0.5848  0.0270
 5098SOL    HW126930   1.106   1.015   2.573  0.1687  0.8515  0.8753
 5098SOL    HW226931   1.075   1.079   2.441 -0.6925 -0.5853 -0.7749
 5099SOL     OW26932   2.169   3.080   9.691  0.2560 -0.2284 -0.3049
 5099SOL    HW126933   2.074   3.065   9.695  0.2299  0.0352  0.0415
 5099SOL    HW226934   2.181   3.156   9.634 -0.6162 -0.0048 -0.1969
 5100SOL     OW26935   2.537   4.685   8.114 -0.2064 -0.1546  0.7379
 5100SOL    HW126936   2.551   4.642   8.030 -0.7851  1.6832 -0.2968
 5100SOL    HW226937   2.629   4.686   8.140  0.1810  0.5349 -0.6787
 5101SOL     OW26938   2.649   2.179   6.776  0.0196  0.1207 -0.2300
 5101SOL    HW126939   2.722   2.208   6.831  0.0314  0.6627 -0.5349
 5101SOL    HW226940   2.581   2.193   6.842 -0.4313 -0.2507 -0.6131
 5102SOL     OW26941   1.888   3.657  13.661 -0.0950 -0.0424 -0.2796
 5102SOL    HW126942   1.904   3.666  13.755 -1.4923 -1.8833  0.1435
 5102SOL    HW226943   1.898   3.562  13.662  0.0739  0.0077  2.7071
 5103SOL     OW26944   1.055   4.180   2.380 -0.3412  0.0521  0.3305
 5103SOL    HW126945   1.064   4.107   2.441  0.1879  1.2144  1.6593
 5103SOL    HW226946   0.975   4.222   2.413 -0.9104  0.4858 -1.6163
 5104SOL     OW26947   1.457   2.485  15.938  0.3324  0.2926 -0.0833
 5104SOL    HW126948   1.447   2.398  15.901  0.2970  0.9537 -1.6670
 5104SOL    HW226949   1.367   2.505  15.965  1.3014  1.2108  2.4131
 5105SOL     OW26950   3.441   0.797   2.469 -0.0443  0.2998  0.2404
 5105SOL    HW126951   3.476   0.708   2.465 -1.2858 -0.0773 -2.5790
 5105SOL    HW226952   3.502   0.844   2.411  0.1301 -1.3574 -0.9317
 5106SOL     OW26953   4.591   3.546   9.098  0.1135 -0.1171  0.5120
 5106SOL    HW126954   4.527   3.484   9.063 -0.5935  1.1077 -0.3907
 5106SOL    HW226955   4.666   3.488   9.110 -0.3961 -0.9831 -0.4761
 5107SOL     OW26956   2.251   2.845  13.119  0.0795  0.0970  0.1509
 5107SOL    HW126957   2.157   2.833  13.110  0.2825 -2.4178  1.3696
 5107SOL    HW226958   2.281   2.812  13.035 -0.2094  0.6362 -0.1631
 5108SOL     OW26959   3.244   3.106   9.631  0.4637 -0.1704 -0.1597
 5108SOL    HW126960   3.199   3.061   9.560 -0.5724 -0.3463  0.6048
 5108SOL    HW226961   3.212   3.052   9.704 -2.6882 -0.5845 -1.8773
 5109SOL     OW26962   0.145   0.939  12.376  0.2388  0.5175 -0.2975
 5109SOL    HW126963   0.214   0.894  12.327 -0.1212  0.1478 -0.4668
 5109SOL    HW226964   0.197   0.998  12.430  0.9750 -0.4559  0.0659
 5110SOL     OW26965   4.457   2.386   3.628  0.5738  0.3968 -0.0068
 5110SOL    HW126966   4.364   2.386   3.650  1.4203  3.8233  3.4933
 5110SOL    HW226967   4.474   2.292   3.616 -0.2402  0.1919  0.4373
 5111SOL     OW26968   2.294   1.136   5.848 -0.2160 -0.1583 -0.1465
 5111SOL    HW126969   2.314   1.051   5.808 -0.3943  0.0581 -0.6967
 5111SOL    HW226970   2.374   1.179   5.820  0.0064  0.6833  1.8257
 5112SOL     OW26971   0.179   2.628   9.382 -0.2615  0.5229  0.5592
 5112SOL    HW126972   0.231   2.624   9.462 -1.2335 -0.2395  1.1369
 5112SOL    HW226973   0.096   2.664   9.413 -1.3718 -1.4843 -0.0657
 5113SOL     OW26974   3.826   3.140   3.679 -0.4858 -0.2676  0.2075
 5113SOL    HW126975   3.750   3.198   3.669 -0.2275  0.1164  0.4921
 5113SOL    HW226976   3.786   3.091   3.751  0.2136 -1.7372 -0.3932
 5114SOL     OW26977   2.989   0.822   5.018 -0.5955  0.0073 -0.5979
 5114SOL    HW126978   2.974   0.801   4.925 -0.5392  0.3578 -0.6863
 5114SOL    HW226979   3.082   0.806   5.034 -0.5945  1.3967  0.7890
 5115SOL     OW26980   3.127   3.236  14.952 -0.4280 -0.4133  0.1471
 5115SOL    HW126981   3.197   3.288  14.912 -0.9173  1.1193  1.3015
 5115SOL    HW226982   3.175   3.179  15.012 -1.2998  0.6037  1.7931
 5116SOL     OW26983   0.993   0.839   2.100  0.4022 -0.3624  0.1070
 5116SOL    HW126984   1.054   0.766   2.114  1.0813  0.1415 -0.2426
 5116SOL    HW226985   0.950   0.845   2.185  1.4896  0.0781  0.6273
 5117SOL     OW26986   4.604   0.463   6.435  0.4156  0.2504 -0.5211
 5117SOL    HW126987   4.654   0.509   6.501 -0.0773 -1.3075  0.9534
 5117SOL    HW226988   4.525   0.517   6.426 -0.1256 -0.5905 -0.8641
 5118SOL     OW26989   3.590   0.044  12.573  0.6095  0.5281 -0.4117
 5118SOL    HW126990   3.555   0.048  12.484  1.0636  0.5283 -0.5879
 5118SOL    HW226991   3.650   4.710  12.555  2.5142  2.6714 -2.4042
 5119SOL     OW26992   2.503   2.187   7.009 -0.0208  0.3451  0.1775
 5119SOL    HW126993   2.526   2.094   7.009 -1.3051  0.0338  1.3767
 5119SOL    HW226994   2.509   2.212   7.102 -0.3349 -1.9113  0.7972
 5120SOL     OW26995   1.245   0.215  15.147  0.3932 -0.0254  0.2086
 5120SOL    HW126996   1.268   0.209  15.240  1.0809 -2.3022 -0.0945
 5120SOL    HW226997   1.227   0.123  15.127 -1.1138  0.6108 -1.3321
 5121SOL     OW26998   4.154   2.166   5.650  0.8727  0.8123 -0.2865
 5121SOL    HW126999   4.105   2.102   5.600  1.1606  0.5474 -0.2333
 5121SOL    HW227000   4.079   2.222   5.668 -1.1674 -2.1339  0.3729
 5122SOL     OW27001   3.750   2.720   0.380 -0.4758  0.6437  0.4995
 5122SOL    HW127002   3.791   2.797   0.341 -0.4889  0.6597  0.5173
 5122SOL    HW227003   3.728   2.755   0.466 -0.6791  1.6090  0.0490
 5123SOL     OW27004   2.405   1.950   2.766  0.1491 -0.3582  0.1107
 5123SOL    HW127005   2.412   1.965   2.861 -1.7397  0.0737  0.1901
 5123SOL    HW227006   2.342   2.019   2.742  1.1360  0.8623  1.0026
 5124SOL     OW27007   2.034   0.075   1.924  0.0568  0.8614  0.0761
 5124SOL    HW127008   2.017   0.122   2.006  0.3600  1.0387  0.0404
 5124SOL    HW227009   2.082   0.006   1.970 -0.8825 -0.3787 -0.8263
 5125SOL     OW27010   3.845   1.429   7.057  0.1484 -0.0328  0.3420
 5125SOL    HW127011   3.839   1.336   7.078  2.0143 -0.7460 -2.2734
 5125SOL    HW227012   3.892   1.422   6.973 -1.5578 -2.0906 -0.4416
 5126SOL     OW27013   1.130   2.883   4.987 -0.2730  0.5512  0.3355
 5126SOL    HW127014   1.094   2.814   4.930  0.3283 -0.3681  1.0698
 5126SOL    HW227015   1.052   2.922   5.027 -2.1395 -1.5972 -1.2133
 5127SOL     OW27016   1.782   3.520   8.105  0.1222  0.6624  0.4837
 5127SOL    HW127017   1.712   3.581   8.131 -0.5719  0.2609 -0.4313
 5127SOL    HW227018   1.774   3.446   8.165  0.8482 -0.5631 -0.9306
 5128SOL     OW27019   0.043   1.623   3.347 -0.4971  0.1969  0.3736
 5128SOL    HW127020   0.058   1.533   3.378  1.4569  0.1272 -0.7692
 5128SOL    HW227021   0.048   1.601   3.254 -4.1698 -0.6526  0.3926
 5129SOL     OW27022   1.812   2.388   6.960 -0.1201  0.2328  0.0169
 5129SOL    HW127023   1.802   2.472   7.006  0.4560  0.1980  0.1981
 5129SOL    HW227024   1.717   2.376   6.956  0.1191 -0.6109 -2.9230
 5130SOL     OW27025   0.358   0.319   6.465  0.0998  0.5668 -0.1057
 5130SOL    HW127026   0.309   0.384   6.416  0.6204  0.1986 -1.1208
 5130SOL    HW227027   0.340   0.344   6.556 -0.8093 -1.0648  0.1674
 5131SOL     OW27028   2.442   2.590   1.958 -0.2552 -0.3191  0.8028
 5131SOL    HW127029   2.461   2.497   1.967 -0.8985 -0.5764 -0.5724
 5131SOL    HW227030   2.437   2.620   2.049  0.0215  0.9115  0.4128
 5132SOL     OW27031   3.347   3.159   4.639 -0.0845  0.3801  0.0989
 5132SOL    HW127032   3.415   3.156   4.572  0.6799 -2.8064  1.0552
 5132SOL    HW227033   3.288   3.222   4.597 -0.4415  0.2354  0.3823
 5133SOL     OW27034   2.999   2.488   1.545 -0.2267  0.2339  0.4648
 5133SOL    HW127035   2.906   2.502   1.528 -0.2326 -1.1306 -0.6817
 5133SOL    HW227036   3.009   2.405   1.499  2.3585  1.0931 -0.5802
 5134SOL     OW27037   3.990   1.282   1.703 -0.7114 -0.7716  0.4327
 5134SOL    HW127038   3.962   1.373   1.697 -0.5937 -0.8026 -0.7502
 5134SOL    HW227039   3.998   1.255   1.794 -0.2602  0.6340  0.7944
 5135SOL     OW27040   1.241   2.704   2.433 -0.6207 -0.2542 -1.0231
 5135SOL    HW127041   1.163   2.648   2.439  0.9795 -2.3767 -0.2599
 5135SOL    HW227042   1.215   2.753   2.511  1.2248  3.0635 -2.5278
 5136SOL     OW27043   0.293   4.234   7.091  0.4265 -0.5748  0.2640
 5136SOL    HW127044   0.244   4.287   7.027  0.2898  0.1795  0.9934
 5136SOL    HW227045   0.262   4.149   7.061  2.2234 -1.0884 -0.1437
 5137SOL     OW27046   1.987   1.120   0.974  0.9660  0.2124  0.4606
 5137SOL    HW127047   1.898   1.111   1.008  1.3516  1.3749  1.8117
 5137SOL    HW227048   2.024   1.148   1.058  1.2964  2.0966 -0.2916
 5138SOL     OW27049   1.457   3.417  12.906 -0.5534  0.7235  0.7187
 5138SOL    HW127050   1.544   3.390  12.878 -1.1408 -0.0457 -0.3516
 5138SOL    HW227051   1.400   3.376  12.841  1.6913  1.9470 -2.0248
 5139SOL     OW27052   3.319   3.341  12.117 -0.8064  0.0968  0.1408
 5139SOL    HW127053   3.347   3.273  12.055  0.3217  1.9040 -1.3504
 5139SOL    HW227054   3.379   3.331  12.190 -2.7514 -0.6635  1.6290
 5140SOL     OW27055   3.457   2.860   2.791 -0.2643  0.6507  0.0752
 5140SOL    HW127056   3.366   2.856   2.761  1.1338  0.0135 -4.1720
 5140SOL    HW227057   3.484   2.951   2.778 -0.9152  0.8105 -0.1186
 5141SOL     OW27058   1.894   2.672  11.567  0.1309 -0.1563  0.0859
 5141SOL    HW127059   1.900   2.688  11.473 -0.5068 -0.7022 -0.0519
 5141SOL    HW227060   1.819   2.613  11.563  0.8178 -0.8069 -3.6248
 5142SOL     OW27061   0.175   0.448   6.059 -0.2793 -0.1324  0.7956
 5142SOL    HW127062   0.224   0.459   5.977  2.8327  1.9586  2.9506
 5142SOL    HW227063   0.093   0.408   6.030  0.2319  0.1207 -1.0361
 5143SOL     OW27064   1.025   1.640   9.509 -0.1009  0.0612 -0.7765
 5143SOL    HW127065   1.088   1.712   9.506 -0.0645  0.1352  1.7063
 5143SOL    HW227066   1.050   1.590   9.431  2.0007 -0.0494 -0.0218
 5144SOL     OW27067   4.020   0.513   3.153  0.3842  0.1671 -0.0607
 5144SOL    HW127068   4.023   0.559   3.237 -0.3742 -2.9978  1.6798
 5144SOL    HW227069   3.931   0.538   3.128  0.5487  0.9938  0.1904
 5145SOL     OW27070   2.543   4.422   6.466  0.0480  0.1699  0.0665
 5145SOL    HW127071   2.592   4.382   6.394 -1.2982 -0.4683 -0.4850
 5145SOL    HW227072   2.502   4.501   6.431  0.1084  1.0769  2.0475
 5146SOL     OW27073   0.243   2.188   4.145  0.1957  0.0005 -0.3210
 5146SOL    HW127074   0.194   2.137   4.080  1.9131 -3.5713  1.2044
 5146SOL    HW227075   0.184   2.193   4.221  1.6354  1.5672  0.7047
 5147SOL     OW27076   1.202   3.233   6.387  0.1542 -0.1746  0.1288
 5147SOL    HW127077   1.295   3.246   6.369  0.4455 -1.3571  0.7705
 5147SOL    HW227078   1.175   3.149   6.350  0.1597 -0.5025  0.8606
 5148SOL     OW27079   3.438   0.018   6.209 -0.1694 -0.3946  1.1126
 5148SOL    HW127080   3.533   0.014   6.221 -0.1583 -0.6617  0.9310
 5148SOL    HW227081   3.415   0.059   6.293  0.7079  1.0140  0.6645
 5149SOL     OW27082   2.500   2.115   1.686  0.3469  0.4424  0.0561
 5149SOL    HW127083   2.453   2.156   1.613  1.5155 -2.2927 -2.2131
 5149SOL    HW227084   2.469   2.025   1.684 -0.9709  0.8976  0.2066
 5150SOL     OW27085   1.092   2.973   7.650  0.0873  0.0198 -0.2393
 5150SOL    HW127086   1.059   3.060   7.672  0.1238  0.3081 -1.3660
 5150SOL    HW227087   1.181   2.974   7.685 -0.4000 -0.2698  1.0134
 5151SOL     OW27088   3.340   4.529  17.248  0.2730  0.5522  0.1745
 5151SOL    HW127089   3.419   4.528  17.302  1.7059  0.2159 -1.9124
 5151SOL    HW227090   3.382   4.511  17.164  0.7945 -2.8587  1.1690
 5152SOL     OW27091   1.184   3.230   9.062 -0.3679  0.0037  0.2889
 5152SOL    HW127092   1.165   3.152   9.114  2.2820  0.4354  1.9242
 5152SOL    HW227093   1.273   3.253   9.091 -0.1197 -2.3096  1.3373
 5153SOL     OW27094   1.698   0.226   3.242 -0.4135  0.0359 -0.6825
 5153SOL    HW127095   1.627   0.191   3.296  2.6968 -3.2446  1.2544
 5153SOL    HW227096   1.697   0.320   3.259 -0.3928  0.2519 -1.9147
 5154SOL     OW27097   3.683   4.691   3.204  0.3516  0.1860  0.1653
 5154SOL    HW127098   3.690   4.681   3.299  1.6596 -0.5188 -0.0084
 5154SOL    HW227099   3.616   4.624   3.190  1.0364 -0.4662  0.0749
 5155SOL     OW27100   0.575   4.024   3.003 -0.7719  0.6018  0.4017
 5155SOL    HW127101   0.604   3.956   3.063 -1.3545  2.0436  2.2929
 5155SOL    HW227102   0.649   4.085   3.004  0.0065 -0.3861  1.5183
 5156SOL     OW27103   2.160   0.963   2.084  0.1959  0.0283  0.6829
 5156SOL    HW127104   2.235   0.959   2.024 -2.4079  1.4881 -2.6325
 5156SOL    HW227105   2.215   0.999   2.155  0.8503 -0.9985  0.6947
 5157SOL     OW27106   1.272   1.034  13.720  0.1334  0.1998 -0.2806
 5157SOL    HW127107   1.261   0.941  13.736 -0.1751  0.5971  1.8062
 5157SOL    HW227108   1.336   1.060  13.787 -1.5246  1.1670  0.9289
 5158SOL     OW27109   3.785   1.706   9.397  0.0004  0.2477  0.0724
 5158SOL    HW127110   3.809   1.773   9.461  1.4116 -0.2168  0.0266
 5158SOL    HW227111   3.869   1.670   9.369  0.0672  0.7129 -0.3268
 5159SOL     OW27112   4.230   3.679   5.797  0.1133 -0.2098 -0.3598
 5159SOL    HW127113   4.300   3.696   5.860  0.0909  0.5451 -0.5391
 5159SOL    HW227114   4.274   3.628   5.730 -1.0355 -2.8110  0.8402
 5160SOL     OW27115   2.632   2.861   0.176 -0.2981 -0.1422  0.4918
 5160SOL    HW127116   2.671   2.824   0.097  0.6743 -0.8374  1.2896
 5160SOL    HW227117   2.581   2.930   0.136 -2.3381 -0.3593  2.6973
 5161SOL     OW27118   4.401   1.219   3.658 -0.3718 -0.3830 -0.2578
 5161SOL    HW127119   4.429   1.260   3.576 -0.8067  1.1594  0.3718
 5161SOL    HW227120   4.317   1.181   3.632 -0.0611 -0.8517 -0.5695
 5162SOL     OW27121   4.079   1.987   4.681  0.4546  0.6744 -0.0459
 5162SOL    HW127122   4.065   2.081   4.689 -1.4412  0.2653  1.6256
 5162SOL    HW227123   4.020   1.962   4.610  0.5674 -1.7457  0.6920
 5163SOL     OW27124   3.466   1.192  14.096 -0.2299  0.5983  0.2748
 5163SOL    HW127125   3.417   1.264  14.057 -1.6535 -1.2239 -1.2920
 5163SOL    HW227126   3.457   1.204  14.190 -0.1009 -3.3518  0.8021
 5164SOL     OW27127   0.740   1.413   6.818 -0.2419 -0.1470 -0.1701
 5164SOL    HW127128   0.703   1.501   6.814 -0.7853 -0.3760 -0.1487
 5164SOL    HW227129   0.666   1.356   6.798  0.5831 -1.4160  0.4009
 5165SOL     OW27130   1.409   4.318   8.448 -0.4503  0.6774 -0.0591
 5165SOL    HW127131   1.373   4.229   8.452  3.0701 -0.8374 -1.5800
 5165SOL    HW227132   1.373   4.338   8.362 -0.1705 -1.7210 -0.7427
 5166SOL     OW27133   3.766   3.257   1.814 -0.3997  0.3970 -0.2715
 5166SOL    HW127134   3.817   3.325   1.858 -0.5658  1.1855 -1.3098
 5166SOL    HW227135   3.711   3.307   1.754 -1.2627 -0.6865 -0.3791
 5167SOL     OW27136   0.446   2.827   5.619 -0.1314  0.1725 -0.7556
 5167SOL    HW127137   0.382   2.757   5.603 -0.4598 -0.0236  1.4337
 5167SOL    HW227138   0.523   2.776   5.643  0.6127  1.1393 -1.0608
 5168SOL     OW27139   1.272   4.296   4.577  0.1518 -0.3324 -0.2682
 5168SOL    HW127140   1.348   4.295   4.519  0.9590  2.5583  0.7682
 5168SOL    HW227141   1.305   4.305   4.666 -2.4102 -2.5268  0.9315
 5169SOL     OW27142   2.642   0.305   2.351 -0.1740 -0.0915 -0.1362
 5169SOL    HW127143   2.714   0.242   2.359 -0.0953  0.1591  1.2403
 5169SOL    HW227144   2.578   0.253   2.303  0.0859 -1.6450  1.1879
 5170SOL     OW27145   0.920   4.586   8.508  0.0618 -0.3263  0.2065
 5170SOL    HW127146   0.981   4.643   8.460 -0.0070 -1.6077 -1.4238
 5170SOL    HW227147   0.972   4.552   8.580  1.3448  3.5904  1.1415
 5171SOL     OW27148   0.215   1.320  11.542 -0.2527  0.5306  0.0375
 5171SOL    HW127149   0.181   1.347  11.627  0.5822  0.2551  0.4568
 5171SOL    HW227150   0.299   1.366  11.542  0.8745 -1.4956  0.6385
 5172SOL     OW27151   1.816   3.757   3.279  0.2675  0.8373  0.1035
 5172SOL    HW127152   1.901   3.750   3.235 -0.0298  0.5631 -0.4173
 5172SOL    HW227153   1.829   3.840   3.325 -2.1864  1.0792  0.3373
 5173SOL     OW27154   3.573   3.514   5.793 -0.5916  0.3331 -0.2328
 5173SOL    HW127155   3.636   3.458   5.748 -2.5613 -1.4236 -0.7795
 5173SOL    HW227156   3.508   3.449   5.818  0.1366 -0.2917  0.0419
 5174SOL     OW27157   1.231   1.660   5.674 -0.1386  0.0944  0.3948
 5174SOL    HW127158   1.164   1.629   5.613  0.7710 -1.9169  0.4133
 5174SOL    HW227159   1.306   1.604   5.653 -0.3155 -0.0764  0.2262
 5175SOL     OW27160   1.386   3.604  14.818  0.2498  0.1290 -0.0828
 5175SOL    HW127161   1.403   3.672  14.753 -1.1573  1.2466  0.7269
 5175SOL    HW227162   1.343   3.659  14.883 -0.2057 -0.0695 -0.2167
 5176SOL     OW27163   1.014   3.308   4.519 -0.1115  0.0566  0.2467
 5176SOL    HW127164   1.077   3.368   4.480 -1.0299  1.0481  0.3124
 5176SOL    HW227165   1.018   3.334   4.611 -1.1476  0.7650  0.0921
 5177SOL     OW27166   2.903   3.331   2.054 -0.2878  0.0565 -0.1055
 5177SOL    HW127167   2.853   3.253   2.079  0.0263 -0.4224 -0.9865
 5177SOL    HW227168   2.924   3.351   2.146  0.2179  1.6396 -0.5654
 5178SOL     OW27169   0.182   4.282  13.524 -0.3817  0.1458 -0.2101
 5178SOL    HW127170   0.214   4.192  13.515  0.4730  0.5543 -1.3945
 5178SOL    HW227171   0.165   4.292  13.617 -2.2109  0.0444 -0.5389
 5179SOL     OW27172   0.750   0.407   6.979 -0.8688  0.0289 -0.3159
 5179SOL    HW127173   0.805   0.483   6.963  0.4510 -0.7290  0.6293
 5179SOL    HW227174   0.814   0.335   6.971  0.0626  0.6054  2.0362
 5180SOL     OW27175   0.396   1.629   9.304  0.2950  0.4171 -0.1482
 5180SOL    HW127176   0.475   1.576   9.313  0.5465  0.4517 -2.1822
 5180SOL    HW227177   0.401   1.660   9.214  1.8112 -0.5419 -0.3955
 5181SOL     OW27178   0.082   1.346  15.828  0.0953  0.0601  0.1868
 5181SOL    HW127179   0.168   1.307  15.819 -0.2286 -0.7105  0.4052
 5181SOL    HW227180   0.026   1.297  15.768  1.2525  0.2068 -0.9939
 5182SOL     OW27181   1.725   1.662   3.984 -0.1359  0.2651 -0.1307
 5182SOL    HW127182   1.695   1.746   3.949 -0.5171 -0.2796 -1.1123
 5182SOL    HW227183   1.672   1.656   4.063  1.4320 -3.6815  0.6279
 5183SOL     OW27184   2.584   0.076   8.910  0.1265  0.6925  0.4535
 5183SOL    HW127185   2.508   0.025   8.937  0.8564 -0.8095 -0.3078
 5183SOL    HW227186   2.587   0.150   8.971  0.1962  0.2625  0.9752
 5184SOL     OW27187   1.391   1.705   7.377  0.1700 -0.1472 -0.0876
 5184SOL    HW127188   1.353   1.674   7.294  0.2569 -1.0172  0.2024
 5184SOL    HW227189   1.485   1.692   7.362  0.2563  0.5275 -0.1612
 5185SOL     OW27190   3.367   1.179   2.363  0.0449  0.1303  0.3044
 5185SOL    HW127191   3.412   1.263   2.356 -0.9996  0.6019 -0.7253
 5185SOL    HW227192   3.439   1.133   2.407 -1.0973 -1.5492  0.4204
 5186SOL     OW27193   2.749   4.462   1.091 -0.4783  0.2326  0.5338
 5186SOL    HW127194   2.692   4.529   1.127  0.7958  0.2022  2.5895
 5186SOL    HW227195   2.831   4.504   1.117 -1.2516  1.2184  1.3681
 5187SOL     OW27196   2.997   0.316   2.347 -0.1363  0.6853  0.0140
 5187SOL    HW127197   2.969   0.315   2.255 -0.8013 -2.1754  0.2671
 5187SOL    HW227198   3.086   0.352   2.347 -0.6786  1.9771  3.5402
 5188SOL     OW27199   3.748   0.373   6.260 -0.4963  0.6801 -0.0349
 5188SOL    HW127200   3.796   0.290   6.258  0.0361  0.9918 -0.0745
 5188SOL    HW227201   3.668   0.332   6.294  0.0523  1.1817  1.8508
 5189SOL     OW27202   2.205   3.549   9.474  0.1364 -0.1928  0.0876
 5189SOL    HW127203   2.182   3.591   9.390  0.6483 -1.0655 -0.4895
 5189SOL    HW227204   2.196   3.619   9.538 -0.2257 -2.3642  2.3937
 5190SOL     OW27205   2.349   4.587   7.383  0.7416 -0.0798 -0.2139
 5190SOL    HW127206   2.383   4.537   7.457 -0.7489 -0.3032  0.3090
 5190SOL    HW227207   2.257   4.565   7.393  0.5510  0.0875 -1.5816
 5191SOL     OW27208   3.334   3.944  12.341  0.0855 -0.0266  0.5504
 5191SOL    HW127209   3.415   3.941  12.392  0.0798 -1.3583  0.4698
 5191SOL    HW227210   3.287   4.012  12.390 -0.9218 -0.0925 -0.3086
 5192SOL     OW27211   0.172   4.351   4.931  0.2648  0.2026 -0.1021
 5192SOL    HW127212   0.264   4.375   4.945  0.1364  0.8284 -0.3431
 5192SOL    HW227213   0.171   4.257   4.945 -1.4357  0.1226 -0.8143
 5193SOL     OW27214   0.206   0.713   6.083  0.2852 -0.1764 -0.0597
 5193SOL    HW127215   0.184   0.741   5.994  0.3487 -0.8444 -0.2798
 5193SOL    HW227216   0.200   0.619   6.067 -0.0591  0.2281 -2.2578
 5194SOL     OW27217   3.403   1.843  12.085  0.5241 -0.7086  0.4330
 5194SOL    HW127218   3.442   1.931  12.083  0.4350 -0.6930 -0.8613
 5194SOL    HW227219   3.474   1.788  12.053 -0.1489 -0.7875 -0.9188
 5195SOL     OW27220   1.669   2.432   8.791 -0.3033 -0.2021  0.4238
 5195SOL    HW127221   1.597   2.369   8.795  0.3067 -0.9095  0.3266
 5195SOL    HW227222   1.642   2.508   8.740 -0.9746 -1.8613 -1.7242
 5196SOL     OW27223   3.745   0.423   6.931  0.7321 -0.1665  0.0615
 5196SOL    HW127224   3.687   0.488   6.969  1.3080 -1.1360  2.6123
 5196SOL    HW227225   3.739   0.345   6.987  1.8006  0.7254  1.4123
 5197SOL     OW27226   2.180   0.311   8.777  0.2890  0.5594 -0.1191
 5197SOL    HW127227   2.236   0.344   8.706 -0.8428  4.2658  0.6891
 5197SOL    HW227228   2.222   0.225   8.772  1.2904  0.9714  1.4512
 5198SOL     OW27229   0.595   3.518  12.736 -0.8274  0.1537  0.4588
 5198SOL    HW127230   0.538   3.498  12.810 -1.5794 -1.4843 -0.5640
 5198SOL    HW227231   0.535   3.554  12.671 -0.2224  1.3315  0.5354
 5199SOL     OW27232   1.551   1.228   7.387 -0.7386 -0.0697  0.2842
 5199SOL    HW127233   1.533   1.217   7.293 -3.0782 -2.4559  1.0178
 5199SOL    HW227234   1.584   1.317   7.381 -2.4981  0.5455 -0.3010
 5200SOL     OW27235   3.349   2.216   0.239 -0.1588 -0.3112 -0.5579
 5200SOL    HW127236   3.437   2.245   0.259 -0.9668  1.6790  0.0974
 5200SOL    HW227237   3.309   2.202   0.325  2.0439 -2.2184  0.1696
 5201SOL     OW27238   2.947   0.007  14.275 -0.0765 -0.2893  0.5557
 5201SOL    HW127239   2.879   0.041  14.333  0.7297  2.8408 -0.3652
 5201SOL    HW227240   2.994   4.677  14.324 -0.0310 -0.5320  0.1752
 5202SOL     OW27241   4.585   2.426  14.664 -0.1237  0.0826  0.0590
 5202SOL    HW127242   4.596   2.458  14.575 -1.8036 -0.0190 -0.1905
 5202SOL    HW227243   4.663   2.375  14.686  0.5929  0.6413 -1.2149
 5203SOL     OW27244   1.246   0.531   4.319  0.3028 -0.1411 -0.6016
 5203SOL    HW127245   1.165   0.506   4.274 -1.9567 -0.0474  3.4090
 5203SOL    HW227246   1.215   0.598   4.380  0.2360 -1.6706  1.0780
 5204SOL     OW27247   1.063   4.550   2.669  0.2364 -0.1454 -0.0779
 5204SOL    HW127248   1.116   4.470   2.672 -1.9471 -1.5152  1.5694
 5204SOL    HW227249   1.131   4.609   2.635 -1.0583  1.9593  1.0108
 5205SOL     OW27250   4.338   4.081   8.446 -0.6621  0.7378 -0.0991
 5205SOL    HW127251   4.287   4.005   8.474  0.3380  0.3702  0.7232
 5205SOL    HW227252   4.376   4.121   8.524 -2.2353  1.5677  0.2404
 5206SOL     OW27253   4.616   3.248  12.623  0.4439 -0.0554 -0.3217
 5206SOL    HW127254   4.648   3.160  12.641 -0.7087 -0.9082 -2.3418
 5206SOL    HW227255   4.529   3.225  12.589  1.0002 -2.0411 -0.4060
 5207SOL     OW27256   2.283   2.252   7.198  0.1251 -0.0221 -0.3881
 5207SOL    HW127257   2.236   2.207   7.128 -0.7336  1.6267 -0.8966
 5207SOL    HW227258   2.326   2.172   7.226  1.2865  0.7815  0.1167
 5208SOL     OW27259   2.703   4.526   9.126  0.0948  0.3995  0.0634
 5208SOL    HW127260   2.783   4.553   9.172 -0.4493 -0.7487  1.6813
 5208SOL    HW227261   2.642   4.590   9.163  0.3493  0.0267  1.1268
 5209SOL     OW27262   4.343   0.206   4.428 -0.3069 -0.3241 -0.5231
 5209SOL    HW127263   4.299   0.152   4.493  0.7210  0.7121  1.0380
 5209SOL    HW227264   4.317   0.155   4.352  1.0599 -0.7702 -0.6869
 5210SOL     OW27265   0.308   2.449   4.744 -0.6109 -0.2481  0.1286
 5210SOL    HW127266   0.275   2.366   4.779  2.2409 -1.1947  0.6308
 5210SOL    HW227267   0.393   2.415   4.715 -0.9790 -1.2395  0.2152
 5211SOL     OW27268   3.720   2.326   8.112 -0.0241 -0.1036  0.1849
 5211SOL    HW127269   3.798   2.334   8.057 -1.7633 -2.0272 -2.6046
 5211SOL    HW227270   3.757   2.332   8.200  0.5108  1.9948 -0.1806
 5212SOL     OW27271   0.537   4.688  13.095  0.1743  0.3761  0.1907
 5212SOL    HW127272   0.604   4.687  13.164 -0.4980  0.3148  0.8433
 5212SOL    HW227273   0.553   0.031  13.045  2.0722  0.2672  0.6223
 5213SOL     OW27274   2.065   0.243   5.048  0.0609 -0.1757  0.4071
 5213SOL    HW127275   2.144   0.193   5.028  0.3249  1.2232 -2.0572
 5213SOL    HW227276   2.002   0.172   5.051  0.4162 -0.5201 -0.1248
 5214SOL     OW27277   1.661   4.643   1.260  0.0565  0.2119  0.4010
 5214SOL    HW127278   1.677   4.612   1.349  1.7569  1.2442  0.4475
 5214SOL    HW227279   1.638   4.560   1.217 -1.9403  0.9009  0.1018
 5215SOL     OW27280   2.242   4.398  17.279  0.3915  0.1323 -0.2648
 5215SOL    HW127281   2.331   4.424  17.259  1.0318  0.2110  2.6318
 5215SOL    HW227282   2.201   4.484  17.281 -2.2476 -1.0775 -1.1595
 5216SOL     OW27283   0.865   1.162   8.115 -0.0296 -0.1856 -0.0059
 5216SOL    HW127284   0.783   1.152   8.164  0.0491 -1.1308 -0.0660
 5216SOL    HW227285   0.896   1.245   8.150 -1.2429 -0.0951  0.8929
 5217SOL     OW27286   1.150   4.467   9.911  0.4767  0.6958  0.4353
 5217SOL    HW127287   1.070   4.500   9.871 -0.4060 -0.2722  1.4421
 5217SOL    HW227288   1.120   4.390   9.959 -1.3631  0.6959 -0.7297
 5218SOL     OW27289   1.304   3.217   2.628 -0.2513 -0.0346 -0.6946
 5218SOL    HW127290   1.373   3.280   2.648  0.0427 -1.0203  1.4432
 5218SOL    HW227291   1.233   3.278   2.612 -0.8008 -0.4042  0.3279
 5219SOL     OW27292   3.731   0.966   0.638  0.2622  0.0168  0.1937
 5219SOL    HW127293   3.791   1.012   0.697  1.9755 -3.0520  0.8309
 5219SOL    HW227294   3.738   0.872   0.653  0.1769  0.1041  0.7721
 5220SOL     OW27295   1.051   0.540   4.679 -0.2712 -0.2302  0.4564
 5220SOL    HW127296   1.082   0.467   4.732  0.4233 -0.7488 -0.6618
 5220SOL    HW227297   1.132   0.579   4.648  0.0112 -0.4706  0.8911
 5221SOL     OW27298   4.354   4.355  13.842  0.2388 -0.6192 -0.2896
 5221SOL    HW127299   4.351   4.328  13.750 -0.5313 -0.8675 -0.1879
 5221SOL    HW227300   4.261   4.364  13.863  0.0526  1.9982 -2.1530
 5222SOL     OW27301   2.127   3.945  17.083  0.1457 -0.0741 -0.2643
 5222SOL    HW127302   2.217   3.975  17.096 -0.1548  0.8013 -0.2160
 5222SOL    HW227303   2.116   3.968  16.990 -1.1573 -3.3264 -0.9123
 5223SOL     OW27304   1.897   2.150   0.879 -0.1224 -0.3356 -0.0968
 5223SOL    HW127305   1.821   2.192   0.839  0.6240  0.8016 -0.3180
 5223SOL    HW227306   1.860   2.145   0.968 -0.6542 -0.9194 -0.3570
 5224SOL     OW27307   3.585   4.059   9.208 -0.1794  0.3330 -0.1865
 5224SOL    HW127308   3.628   4.113   9.274 -0.3446  0.1391  0.0843
 5224SOL    HW227309   3.506   4.106   9.183 -0.5424 -0.7070 -1.0148
 5225SOL     OW27310   4.283   0.687  11.640  0.1428  0.3482  0.3676
 5225SOL    HW127311   4.229   0.763  11.618 -0.1843 -0.7130 -2.4159
 5225SOL    HW227312   4.224   0.629  11.592  3.3727  0.6184 -3.9632
 5226SOL     OW27313   2.653   3.231   7.004  0.4811  0.3109  0.1238
 5226SOL    HW127314   2.645   3.175   7.081  1.8355 -0.1708 -0.0876
 5226SOL    HW227315   2.732   3.200   6.959  0.2086  1.5551 -1.1887
 5227SOL     OW27316   2.012   0.325  14.164 -0.0108  0.4986 -0.3505
 5227SOL    HW127317   2.104   0.347  14.149  0.4478 -1.0999  0.0821
 5227SOL    HW227318   2.005   0.277  14.247 -3.8689  0.3047 -0.7750
 5228SOL     OW27319   1.902   0.314   7.191 -0.4941 -0.4103 -0.0776
 5228SOL    HW127320   1.878   0.403   7.217  5.1374  1.6662 -1.9630
 5228SOL    HW227321   1.988   0.327   7.151  0.1487  2.2929  2.1901
 5229SOL     OW27322   2.614   0.688   5.722  0.4299  0.2498 -0.2164
 5229SOL    HW127323   2.651   0.610   5.765  0.1184 -1.4044 -2.9238
 5229SOL    HW227324   2.693   0.740   5.706  0.6236  0.2909  0.8829
 5230SOL     OW27325   2.817   4.481   8.291 -0.4928 -0.4843  0.3487
 5230SOL    HW127326   2.837   4.539   8.365 -0.5517  2.0488 -1.6398
 5230SOL    HW227327   2.826   4.394   8.331  2.3211 -1.6087 -2.7274
 5231SOL     OW27328   0.712   0.080   0.792  0.7831 -0.2152  0.0883
 5231SOL    HW127329   0.765   0.128   0.856  2.2839 -1.3783 -0.2674
 5231SOL    HW227330   0.773   0.046   0.726  0.0432 -0.6132 -0.3927
 5232SOL     OW27331   0.865   4.136  12.020 -0.4845  0.3277 -0.1216
 5232SOL    HW127332   0.802   4.185  12.073 -2.5613 -1.2635 -1.1100
 5232SOL    HW227333   0.880   4.201  11.951 -1.2705 -0.6006 -1.1737
 5233SOL     OW27334   4.573   1.420  11.057 -0.1521  0.1096  0.6901
 5233SOL    HW127335   4.574   1.404  10.963 -2.3603 -0.1336  0.6978
 5233SOL    HW227336   4.647   1.369  11.089  0.9682  0.3976 -1.4808
 5234SOL     OW27337   3.568   3.063   7.349 -0.2697 -0.1553 -0.2830
 5234SOL    HW127338   3.620   3.127   7.398  0.5993 -0.4934 -0.7710
 5234SOL    HW227339   3.599   3.080   7.260  1.0846 -1.6663 -0.0760
 5235SOL     OW27340   2.838   4.464   5.857  0.1558  0.2004  0.3040
 5235SOL    HW127341   2.907   4.399   5.851  0.8233  0.6017  3.3248
 5235SOL    HW227342   2.769   4.419   5.809  1.7158  0.1115 -1.8273
 5236SOL     OW27343   3.665   4.335  16.288  0.2739  0.6190  0.3397
 5236SOL    HW127344   3.647   4.275  16.360  0.3138 -1.8766 -1.7528
 5236SOL    HW227345   3.755   4.363  16.306 -0.2125  1.5125  1.4019
 5237SOL     OW27346   2.004   4.275   4.373  0.0385 -0.4360 -0.2990
 5237SOL    HW127347   2.051   4.351   4.338  0.8435 -1.1659 -0.7917
 5237SOL    HW227348   1.914   4.304   4.355 -1.7501 -3.8153  3.2860
 5238SOL     OW27349   1.723   3.639   7.754 -0.2901 -0.2986  0.7479
 5238SOL    HW127350   1.810   3.655   7.791 -0.1840  0.1883  0.2880
 5238SOL    HW227351   1.726   3.544   7.739 -1.2796 -0.0220 -1.2771
 5239SOL     OW27352   3.225   4.149   3.980  0.2142  0.1834 -0.2537
 5239SOL    HW127353   3.197   4.058   3.990  1.2708 -0.1213 -0.0534
 5239SOL    HW227354   3.215   4.176   4.072  1.5742 -0.9665  0.2347
 5240SOL     OW27355   0.924   2.541  16.021 -0.3318 -0.7116  0.0342
 5240SOL    HW127356   0.900   2.613  16.079 -0.2607  0.0047 -0.8277
 5240SOL    HW227357   0.921   2.589  15.938  0.4290 -1.2133 -0.2867
 5241SOL     OW27358   4.339   1.553  15.521  0.1715  0.0975 -0.7343
 5241SOL    HW127359   4.286   1.516  15.451  0.8629 -0.4551 -0.9653
 5241SOL    HW227360   4.277   1.557  15.594  1.7792 -0.6496  0.6663
 5242SOL     OW27361   4.140   2.839  11.185 -0.4607  0.1482 -0.4119
 5242SOL    HW127362   4.225   2.881  11.169 -1.2733  1.1545 -2.0884
 5242SOL    HW227363   4.122   2.902  11.256 -0.8146  0.4746 -0.7924
 5243SOL     OW27364   0.139   3.809  13.127 -0.3983 -0.4204  0.3273
 5243SOL    HW127365   0.153   3.733  13.071  1.2058 -0.0260  0.2193
 5243SOL    HW227366   0.156   3.764  13.209 -1.3370 -0.2665  0.6135
 5244SOL     OW27367   3.961   2.288  17.379 -0.0311  0.0490  0.2478
 5244SOL    HW127368   3.974   2.381  17.362  0.8091 -0.3350 -1.1217
 5244SOL    HW227369   3.942   2.304  17.472 -0.3972 -0.9654  0.3477
 5245SOL     OW27370   3.827   3.973   3.375  0.6374  0.3401 -0.6723
 5245SOL    HW127371   3.797   3.995   3.463 -1.7638 -0.8796 -1.1678
 5245SOL    HW227372   3.780   4.042   3.327  0.3098  0.2282 -0.5157
 5246SOL     OW27373   0.640   1.564  10.311  0.1618 -0.1292 -0.1211
 5246SOL    HW127374   0.595   1.500  10.365 -0.6951 -0.1248 -0.8310
 5246SOL    HW227375   0.589   1.637  10.346  1.3932  0.6709  0.0369
 5247SOL     OW27376   2.806   2.507   8.350  0.0019 -0.2939  0.0763
 5247SOL    HW127377   2.899   2.498   8.328  0.1358 -0.2581  0.6076
 5247SOL    HW227378   2.773   2.430   8.303 -0.7898 -0.8744  1.5896
 5248SOL     OW27379   1.184   4.020   9.481 -0.4299  0.3578 -0.2987
 5248SOL    HW127380   1.101   4.046   9.441  0.1064  1.7433 -0.5182
 5248SOL    HW227381   1.238   4.091   9.446  1.5215 -0.3457  1.2659
 5249SOL     OW27382   0.497   2.203   3.792  0.1914  0.0784  0.5989
 5249SOL    HW127383   0.555   2.128   3.777  0.3489 -0.1625  2.4055
 5249SOL    HW227384   0.431   2.174   3.729  1.6157  2.0726 -1.8435
 5250SOL     OW27385   2.479   4.440   7.568  0.2107  0.0548  0.3708
 5250SOL    HW127386   2.495   4.350   7.598 -0.8496 -0.1584  0.2868
 5250SOL    HW227387   2.547   4.487   7.616 -2.0218  2.1053  1.5364
 5251SOL     OW27388   3.803   3.221  14.663 -0.0563  0.1863 -0.0221
 5251SOL    HW127389   3.888   3.176  14.658 -1.1604 -1.7341 -1.4344
 5251SOL    HW227390   3.764   3.152  14.610  1.1209  0.8306 -1.7433
 5252SOL     OW27391   1.434   4.659  12.940  0.0416 -0.2800 -0.3884
 5252SOL    HW127392   1.514   4.694  12.900  0.9193 -1.4314  0.3125
 5252SOL    HW227393   1.377   4.662  12.863 -0.9326  2.0221  0.4336
 5253SOL     OW27394   1.095   1.386  13.425 -0.1947 -0.4065  0.0793
 5253SOL    HW127395   1.048   1.467  13.445  0.3312 -0.2615  0.7222
 5253SOL    HW227396   1.132   1.357  13.508  0.3688  1.5146  0.5065
 5254SOL     OW27397   2.861   0.564   4.577  0.1256 -0.2502  0.5451
 5254SOL    HW127398   2.790   0.627   4.592  0.0280 -0.2851  0.2423
 5254SOL    HW227399   2.848   0.554   4.483 -0.1566 -0.1847  0.5771
 5255SOL     OW27400   4.614   1.597   2.552 -1.0157 -0.3940  0.2280
 5255SOL    HW127401   4.532   1.627   2.514  0.5750  0.5586 -2.4270
 5255SOL    HW227402   4.638   1.679   2.595  0.6699 -2.5974  3.4808
 5256SOL     OW27403   0.436   0.128   7.129 -0.6095 -0.5167 -0.1599
 5256SOL    HW127404   0.411   0.052   7.183 -2.2313  1.3274  1.7093
 5256SOL    HW227405   0.440   0.182   7.208 -1.2996  0.1488 -0.5741
 5257SOL     OW27406   1.397   2.873   7.339  0.4860 -0.0310 -0.3765
 5257SOL    HW127407   1.341   2.796   7.344 -2.4001  2.1746  0.9750
 5257SOL    HW227408   1.364   2.911   7.258 -0.3976  0.5540  0.2642
 5258SOL     OW27409   1.454   2.547   1.146 -0.8057 -0.5632  0.3587
 5258SOL    HW127410   1.429   2.638   1.162  0.1137 -0.4387  1.0683
 5258SOL    HW227411   1.545   2.563   1.122 -1.6120  1.4629 -1.3757
 5259SOL     OW27412   2.999   2.258   7.703  0.5359  0.5488 -0.2418
 5259SOL    HW127413   2.978   2.173   7.665 -0.3712  0.4685  0.4260
 5259SOL    HW227414   3.069   2.247   7.767  0.5700  3.6121  0.2484
 5260SOL     OW27415   2.198   2.372   7.975 -0.5331  0.5059  0.1618
 5260SOL    HW127416   2.222   2.449   7.923  1.7736 -0.7532 -0.6559
 5260SOL    HW227417   2.111   2.349   7.941 -0.4215  0.4074 -0.0601
 5261SOL     OW27418   3.531   4.299  13.685 -0.4805 -0.4883 -0.4518
 5261SOL    HW127419   3.469   4.367  13.708  2.5953  2.3587 -0.6056
 5261SOL    HW227420   3.521   4.300  13.590 -2.4003 -0.3458 -0.2397
 5262SOL     OW27421   4.675   1.255   1.096  0.1183 -0.2236  0.2607
 5262SOL    HW127422   4.652   1.211   1.178 -1.9325  2.4737  1.1435
 5262SOL    HW227423   0.023   1.216   1.080  0.5705 -0.4505  3.2050
 5263SOL     OW27424   4.389   0.407  17.036  0.2998  1.0265 -0.3968
 5263SOL    HW127425   4.304   0.451  17.038  0.3553  1.1817 -1.3440
 5263SOL    HW227426   4.368   0.325  17.079 -0.5686  1.0542 -0.7758
 5264SOL     OW27427   2.737   1.409  17.209 -0.5207 -0.0207  0.3717
 5264SOL    HW127428   2.682   1.428  17.134 -0.7229  0.3930  0.6235
 5264SOL    HW227429   2.683   1.457  17.273 -0.5488 -2.3319  2.1039
 5265SOL     OW27430   0.572   4.676   4.706 -0.0189  0.1112  0.2992
 5265SOL    HW127431   0.574   4.705   4.797  0.3059  2.8422 -0.5829
 5265SOL    HW227432   0.478   4.666   4.691 -0.1424 -0.6555  1.6141
 5266SOL     OW27433   4.517   0.862   6.154 -0.0766  0.3445  0.0628
 5266SOL    HW127434   4.494   0.883   6.245  1.6177 -0.7133  0.7327
 5266SOL    HW227435   4.611   0.879   6.158  0.3410 -1.7939 -0.4071
 5267SOL     OW27436   2.204   0.433   2.243 -0.5632  0.2304  0.4804
 5267SOL    HW127437   2.258   0.424   2.322 -1.2388 -1.4152  0.7590
 5267SOL    HW227438   2.201   0.528   2.232  0.7392  0.2047 -0.1236
 5268SOL     OW27439   0.990   3.733   3.529 -0.2994  0.0055  0.1544
 5268SOL    HW127440   0.954   3.788   3.598  2.7685  1.0520  0.9316
 5268SOL    HW227441   0.910   3.718   3.478  0.0814  1.9474 -1.0103
 5269SOL     OW27442   3.146   0.778   9.922 -0.2053 -0.5286  0.2591
 5269SOL    HW127443   3.173   0.788  10.013 -0.9477 -0.1763  0.4391
 5269SOL    HW227444   3.161   0.865   9.886  3.1667 -0.6686  1.3078
 5270SOL     OW27445   4.702   1.686   4.412 -0.2078 -0.0842  0.1648
 5270SOL    HW127446   4.665   1.679   4.500 -2.5204 -1.4121 -0.8990
 5270SOL    HW227447   0.031   1.751   4.436  0.3884 -0.6614  0.0560
 5271SOL     OW27448   0.121   0.352   5.254  0.1051 -0.7288 -0.6599
 5271SOL    HW127449   0.111   0.378   5.163 -0.3359  1.3579 -0.0228
 5271SOL    HW227450   0.049   0.404   5.292  1.2593 -0.2058  0.8445
 5272SOL     OW27451   4.090   2.818  16.525  0.3951 -0.1274 -0.3266
 5272SOL    HW127452   4.013   2.762  16.521 -0.0920  0.3373  2.2936
 5272SOL    HW227453   4.044   2.896  16.557 -2.4745 -1.1735 -1.8637
 5273SOL     OW27454   0.144   0.071  13.802 -0.2499 -0.1128 -0.6696
 5273SOL    HW127455   0.090   4.730  13.798 -0.0758 -0.0814 -3.7359
 5273SOL    HW227456   0.169   0.073  13.709  1.7830  2.6668 -0.0834
 5274SOL     OW27457   2.164   2.488  12.754 -0.1178 -0.6469 -0.1062
 5274SOL    HW127458   2.187   2.580  12.763  0.3442 -0.8550  0.8032
 5274SOL    HW227459   2.227   2.469  12.685 -0.8713  0.1103 -0.9936
 5275SOL     OW27460   0.141   3.274   4.049  0.4438  0.2922  0.3694
 5275SOL    HW127461   0.165   3.262   3.958  0.2679  0.7947  0.2590
 5275SOL    HW227462   0.049   3.299   4.041  0.3495 -0.7093 -1.4738
 5276SOL     OW27463   3.894   0.089  11.079 -0.6712  0.0437 -0.0585
 5276SOL    HW127464   3.985   0.100  11.104 -1.0112  1.3059  0.6381
 5276SOL    HW227465   3.870   0.175  11.044  0.2008  0.9957  1.6728
 5277SOL     OW27466   3.056   3.034  14.570  0.5955  0.4707  0.5315
 5277SOL    HW127467   3.126   2.969  14.564  0.6038  0.6637 -1.3791
 5277SOL    HW227468   3.004   2.996  14.499  1.2660 -0.2063  0.4012
 5278SOL     OW27469   0.022   1.422   7.539  0.1363 -0.1158  0.0111
 5278SOL    HW127470   4.680   1.473   7.556  0.1452  0.5395 -1.9180
 5278SOL    HW227471   0.076   1.481   7.487  1.0487 -0.8470  0.1300
 5279SOL     OW27472   1.435   2.540   2.158  0.2525 -0.6165  0.1287
 5279SOL    HW127473   1.488   2.562   2.235 -0.7177  1.5101  0.2002
 5279SOL    HW227474   1.480   2.464   2.121 -0.2544 -1.1754  0.6713
 5280SOL     OW27475   3.241   1.154   3.564  0.0176 -0.0425  0.1362
 5280SOL    HW127476   3.319   1.133   3.616  0.5690  0.7786 -0.3539
 5280SOL    HW227477   3.218   1.072   3.523 -0.6242  0.1277  0.1623
 5281SOL     OW27478   1.410   1.345  11.847  0.0289 -0.1909  0.4964
 5281SOL    HW127479   1.375   1.268  11.892 -0.3206 -1.7541 -2.4851
 5281SOL    HW227480   1.330   1.398  11.851 -0.2250 -0.8609  4.2845
 5282SOL     OW27481   0.980   3.460   3.577  0.3574 -0.2441 -0.9801
 5282SOL    HW127482   0.998   3.423   3.491  1.3862  1.0661 -1.3325
 5282SOL    HW227483   1.007   3.549   3.555 -0.3583  0.7082  1.9610
 5283SOL     OW27484   4.473   1.902  11.001 -0.1338  0.0991  0.0871
 5283SOL    HW127485   4.486   1.826  10.944  1.7850  0.1538  0.4542
 5283SOL    HW227486   4.445   1.856  11.080 -1.2968  0.1859 -0.2705
 5284SOL     OW27487   1.018   1.735   4.527  0.1575  0.2320  0.2625
 5284SOL    HW127488   1.091   1.716   4.468  0.2243  3.1530 -0.6279
 5284SOL    HW227489   1.007   1.830   4.534 -2.0732 -0.2041  2.3852
 5285SOL     OW27490   2.181   3.999   7.832 -0.3180  0.4649 -0.6835
 5285SOL    HW127491   2.275   3.981   7.828 -0.4648 -0.1175 -1.3691
 5285SOL    HW227492   2.139   3.935   7.776  0.8839  0.8385 -2.0195
 5286SOL     OW27493   3.323   1.514   1.238  0.2251 -0.8674  0.2125
 5286SOL    HW127494   3.264   1.442   1.261 -0.4084 -0.8141 -1.2528
 5286SOL    HW227495   3.260   1.564   1.187 -0.5221 -0.9421  1.0551
 5287SOL     OW27496   4.347   3.367   2.865  0.5310  0.4013  0.0479
 5287SOL    HW127497   4.257   3.337   2.868 -0.0492  2.1725  0.8787
 5287SOL    HW227498   4.370   3.386   2.956  0.2993 -2.1546  0.6302
 5288SOL     OW27499   2.112   0.434   1.486 -0.2424 -0.1136 -0.5134
 5288SOL    HW127500   2.129   0.340   1.479  2.9266  0.5132 -1.2691
 5288SOL    HW227501   2.191   0.462   1.531 -0.4022  0.2708 -0.4738
 5289SOL     OW27502   2.284   2.045   4.417  0.0191 -0.6368  0.0581
 5289SOL    HW127503   2.358   1.998   4.378  1.0609  1.2238 -0.1924
 5289SOL    HW227504   2.292   2.032   4.512 -0.8697  2.2648  0.5409
 5290SOL     OW27505   1.292   0.354   6.400  0.4829 -0.3224  0.4983
 5290SOL    HW127506   1.371   0.398   6.431  1.8208 -1.4212 -1.3125
 5290SOL    HW227507   1.315   0.355   6.306 -0.6852 -0.5673  0.2179
 5291SOL     OW27508   2.178   1.095   3.114  0.2570 -0.0567 -0.3152
 5291SOL    HW127509   2.100   1.074   3.063  0.0415  0.7801 -0.3341
 5291SOL    HW227510   2.231   1.143   3.051  1.3300 -0.7829  0.0305
 5292SOL     OW27511   0.888   0.585   6.199  0.1314  0.0379 -0.0356
 5292SOL    HW127512   0.930   0.610   6.282 -0.3397  0.1474  0.1672
 5292SOL    HW227513   0.837   0.511   6.231  0.6297 -0.0216  0.6353
 5293SOL     OW27514   0.184   2.921  10.978 -0.8516 -0.0963 -0.4107
 5293SOL    HW127515   0.181   2.996  10.919  2.5246  0.0976 -0.3375
 5293SOL    HW227516   0.247   2.948  11.044 -0.0319 -1.7233 -0.5315
 5294SOL     OW27517   3.351   1.153   5.162 -0.0908  0.4017  0.4627
 5294SOL    HW127518   3.345   1.103   5.081  1.6978  0.6136  0.2088
 5294SOL    HW227519   3.361   1.087   5.230 -0.2004  1.1448  1.2097
 5295SOL     OW27520   1.684   0.359   4.263  0.0736 -0.2643 -0.8868
 5295SOL    HW127521   1.756   0.298   4.276  0.4240  0.4456  0.4593
 5295SOL    HW227522   1.688   0.368   4.167  1.6306 -1.7795 -0.9552
 5296SOL     OW27523   3.620   1.791   7.703 -0.1797 -0.3050 -0.0317
 5296SOL    HW127524   3.534   1.833   7.710  0.6810  1.3789  0.5550
 5296SOL    HW227525   3.617   1.703   7.741 -0.0198 -0.9298 -1.4891
 5297SOL     OW27526   0.334   4.377   8.362  0.3999  0.3644  0.1123
 5297SOL    HW127527   0.418   4.424   8.361  1.1335 -0.9300  0.4453
 5297SOL    HW227528   0.360   4.290   8.392  0.4585  0.0227 -0.9490
 5298SOL     OW27529   0.835   2.893   6.036  0.1241 -0.6671  0.0036
 5298SOL    HW127530   0.778   2.924   5.966  2.8266 -0.1323 -1.9542
 5298SOL    HW227531   0.832   2.801   6.007  1.5472 -0.6249 -0.2672
 5299SOL     OW27532   0.196   0.386   7.934 -0.1392 -0.1768 -0.2574
 5299SOL    HW127533   0.150   0.467   7.956 -0.1848  0.0790 -1.3006
 5299SOL    HW227534   0.119   0.329   7.928  0.9030 -1.7382  1.1054
 5300SOL     OW27535   1.900   1.104   2.951  0.2923  0.5092  0.2469
 5300SOL    HW127536   1.823   1.091   2.896 -1.4119  4.1359  1.7420
 5300SOL    HW227537   1.970   1.065   2.900  0.6455 -2.2427  2.8225
 5301SOL     OW27538   2.355   3.924   7.294  0.5598 -0.1407  0.2484
 5301SOL    HW127539   2.411   3.988   7.251  1.8277 -1.2042  0.3244
 5301SOL    HW227540   2.276   3.931   7.240  1.0499  0.5006 -0.3760
 5302SOL     OW27541   1.715   0.275   2.055 -0.3378 -0.0070  0.2798
 5302SOL    HW127542   1.724   0.250   1.963  0.1014  0.3819  0.2170
 5302SOL    HW227543   1.635   0.327   2.056  0.3818  1.0218  3.3601
 5303SOL     OW27544   1.976   2.224   6.785  0.0185  0.1300 -0.2738
 5303SOL    HW127545   2.006   2.275   6.710 -3.8747  3.4062  0.4165
 5303SOL    HW227546   1.937   2.295   6.835 -2.2573  1.3302 -3.7944
 5304SOL     OW27547   2.874   4.245   2.679  0.3195  0.0850  0.7532
 5304SOL    HW127548   2.921   4.269   2.599 -0.4788 -0.8445  0.0059
 5304SOL    HW227549   2.883   4.150   2.682  0.5323  0.1173  1.1126
 5305SOL     OW27550   1.754   2.558  16.370 -0.1620 -0.3215 -0.6434
 5305SOL    HW127551   1.686   2.496  16.398  1.7357 -1.1902  2.0101
 5305SOL    HW227552   1.739   2.576  16.277 -1.5250 -1.3350 -0.6288
 5306SOL     OW27553   3.912   1.518   2.250  0.7716 -0.5008 -0.4751
 5306SOL    HW127554   3.989   1.570   2.227  1.7597 -1.1160  1.4164
 5306SOL    HW227555   3.876   1.481   2.169 -2.3377  0.5369  0.4521
 5307SOL     OW27556   3.804   3.599   6.769 -0.4767 -0.0933 -0.7291
 5307SOL    HW127557   3.785   3.529   6.831 -0.8567  1.5815  1.0410
 5307SOL    HW227558   3.898   3.611   6.785  0.2793 -3.3083 -2.6195
 5308SOL     OW27559   1.278   3.107  17.748 -0.0931  0.2882  0.1368
 5308SOL    HW127560   1.198   3.145  17.711 -0.8744 -2.2247 -0.7494
 5308SOL    HW227561   1.284   3.127   0.093  0.7092 -1.6700  0.5110
 5309SOL     OW27562   2.904   4.191   9.192 -0.3287  0.1248  0.1471
 5309SOL    HW127563   2.812   4.216   9.198 -0.8992 -1.7389 -0.8335
 5309SOL    HW227564   2.913   4.181   9.097  1.3766 -2.8205  0.6227
 5310SOL     OW27565   2.300   3.008  11.129  0.3841  0.2345 -0.3691
 5310SOL    HW127566   2.390   2.976  11.138  0.3034  0.7286  2.2858
 5310SOL    HW227567   2.270   2.992  11.219 -0.3153  0.5422 -0.5499
 5311SOL     OW27568   2.221   1.645   8.339  0.5974 -0.4484  0.1399
 5311SOL    HW127569   2.134   1.675   8.313  1.0709 -0.8032 -1.8512
 5311SOL    HW227570   2.202   1.562   8.382 -0.7193  0.6048  1.5832
 5312SOL     OW27571   0.865   4.054   3.033  0.5045 -0.2497 -0.4296
 5312SOL    HW127572   0.818   3.994   3.092 -1.1438  1.0010 -0.4687
 5312SOL    HW227573   0.883   3.999   2.957  0.2690  1.3368 -1.6422
 5313SOL     OW27574   3.773   1.787   7.141  0.3637  0.0264  0.5929
 5313SOL    HW127575   3.709   1.857   7.124 -0.8083 -1.4648 -1.1623
 5313SOL    HW227576   3.758   1.772   7.234 -0.4062  1.5960  0.7251
 5314SOL     OW27577   1.794   1.875   0.916 -0.2022 -0.2896 -0.4231
 5314SOL    HW127578   1.802   1.946   0.852 -3.5033  1.4132  1.0534
 5314SOL    HW227579   1.872   1.875   0.972  0.2027  0.7155 -0.9771
 5315SOL     OW27580   3.233   0.920  13.038 -0.0061  0.1121  0.0927
 5315SOL    HW127581   3.328   0.933  13.035 -0.0437  0.5436  0.8378
 5315SOL    HW227582   3.203   1.004  13.005  1.0783  0.1675 -0.7688
 5316SOL     OW27583   3.663   4.095  17.707 -0.7190 -0.2418  0.0301
 5316SOL    HW127584   3.591   4.088   0.021 -1.3057  1.0733 -0.4985
 5316SOL    HW227585   3.627   4.070  17.622 -1.3938 -0.1336  0.2876
 5317SOL     OW27586   3.708   2.127  17.142  0.7380 -0.3465 -0.1077
 5317SOL    HW127587   3.801   2.123  17.165  0.2327 -0.5363  1.9173
 5317SOL    HW227588   3.703   2.069  17.067  2.2899 -0.3586 -0.2085
 5318SOL     OW27589   4.737   2.650  17.337  0.4173 -0.0448 -0.1378
 5318SOL    HW127590   0.080   2.606  17.363  0.8837  0.0441 -1.4703
 5318SOL    HW227591   4.668   2.593  17.372  0.1336 -0.1244 -0.8307
 5319SOL     OW27592   3.819   1.424   2.882  0.2764 -0.5591  0.1339
 5319SOL    HW127593   3.740   1.469   2.851  0.4067 -1.3894 -1.3750
 5319SOL    HW227594   3.778   1.347   2.921  1.1677 -0.7443  0.7010
 5320SOL     OW27595   2.118   3.210   9.297  0.2988  0.2101  0.2137
 5320SOL    HW127596   2.146   3.258   9.219  0.6262 -1.4832 -0.7164
 5320SOL    HW227597   2.026   3.191   9.277 -0.2262  1.3609  1.5225
 5321SOL     OW27598   3.229   0.400   5.435 -0.1468 -0.6794  0.5224
 5321SOL    HW127599   3.234   0.483   5.483  0.8152 -0.8567  0.7183
 5321SOL    HW227600   3.262   0.429   5.350 -1.9059  0.1471  0.1085
 5322SOL     OW27601   1.928   2.620   5.441  0.2438  0.0575  0.0607
 5322SOL    HW127602   1.984   2.665   5.504  0.6424  1.0577 -1.0054
 5322SOL    HW227603   1.986   2.558   5.397 -1.1681 -0.9376 -0.4112
 5323SOL     OW27604   4.215   1.453   8.241  0.1357  0.1703 -0.0703
 5323SOL    HW127605   4.217   1.508   8.319 -1.2908 -0.8363  0.6906
 5323SOL    HW227606   4.310   1.455   8.236  0.2652  1.5749  2.9857
 5324SOL     OW27607   1.169   1.050   7.596 -0.1342 -0.5661 -0.5821
 5324SOL    HW127608   1.134   1.129   7.637  1.4954  0.0972 -0.4537
 5324SOL    HW227609   1.115   1.055   7.517 -0.8981 -4.1121 -0.2737
 5325SOL     OW27610   3.514   3.060   4.967 -0.4163  0.3844 -0.2300
 5325SOL    HW127611   3.476   3.074   5.053 -2.0412  0.0543 -0.8768
 5325SOL    HW227612   3.444   3.009   4.926  0.9552 -1.5247 -0.2002
 5326SOL     OW27613   2.961   0.143  15.272 -0.2970  0.0838 -0.1617
 5326SOL    HW127614   2.976   0.161  15.179  1.7630 -1.6371 -0.1524
 5326SOL    HW227615   2.977   0.049  15.268  3.4165  0.7135  0.1629
 5327SOL     OW27616   2.941   3.956   2.676  0.1852  0.4430 -0.0328
 5327SOL    HW127617   2.905   3.897   2.610 -1.1694  1.4682 -0.2110
 5327SOL    HW227618   3.003   3.901   2.725 -0.2218 -0.8321 -0.9563
 5328SOL     OW27619   0.083   4.632  14.489 -0.2307 -0.1810  0.5090
 5328SOL    HW127620   0.022   4.649  14.418  0.8320 -0.2211 -0.4068
 5328SOL    HW227621   0.144   4.574  14.444  1.0091 -0.5269  2.6480
 5329SOL     OW27622   0.344   3.635   4.332  0.1711  0.4748 -0.0385
 5329SOL    HW127623   0.384   3.638   4.419 -1.7885  2.2557  0.8133
 5329SOL    HW227624   0.306   3.547   4.328  1.9484 -0.3335  1.0537
 5330SOL     OW27625   0.097   0.112   4.280 -0.4428 -0.1158 -0.0970
 5330SOL    HW127626   0.075   0.110   4.186  0.2994  0.7746 -0.2822
 5330SOL    HW227627   0.014   0.146   4.314 -1.3701 -1.8911 -0.5728
 5331SOL     OW27628   3.468   1.852   6.264 -0.4530  0.8168 -0.4196
 5331SOL    HW127629   3.399   1.851   6.331  1.2709  0.2038  1.3410
 5331SOL    HW227630   3.546   1.881   6.312  1.3391 -3.9993 -0.4194
 5332SOL     OW27631   4.097   2.804   1.670 -0.1089 -0.3094  0.3412
 5332SOL    HW127632   4.078   2.776   1.759 -0.8316 -0.5730  0.1000
 5332SOL    HW227633   4.026   2.862   1.644  0.1322  0.8555  2.2558
 5333SOL     OW27634   1.585   3.558   5.084  0.4014  0.4872 -0.6446
 5333SOL    HW127635   1.623   3.488   5.136  0.0188 -0.2097 -1.3088
 5333SOL    HW227636   1.492   3.536   5.078  0.7621 -0.6396 -2.1712
 5334SOL     OW27637   3.147   2.753   2.206  0.1546 -0.2054  0.3973
 5334SOL    HW127638   3.065   2.713   2.174  0.8468  0.3013 -1.9949
 5334SOL    HW227639   3.168   2.700   2.283 -1.1539  0.1758  1.0226
 5335SOL     OW27640   0.040   1.012  17.059 -0.1316  0.0927 -0.3456
 5335SOL    HW127641   0.053   0.918  17.068  0.2407  0.1335 -0.4521
 5335SOL    HW227642   0.104   1.029  16.989  0.4560 -1.9061 -0.2905
 5336SOL     OW27643   3.708   2.976   3.865  0.0971  0.3349  0.3757
 5336SOL    HW127644   3.670   2.984   3.953  0.0276 -2.6956  0.6439
 5336SOL    HW227645   3.777   2.913   3.885 -1.1698 -1.2833 -0.3122
 5337SOL     OW27646   1.715   2.993  17.205 -0.9298 -0.0726 -0.3066
 5337SOL    HW127647   1.627   2.966  17.177 -1.1312  1.6299 -1.3551
 5337SOL    HW227648   1.749   3.026  17.122  2.6622 -1.1159  0.7590
 5338SOL     OW27649   1.194   3.342   0.373 -0.5039 -0.5314  0.3639
 5338SOL    HW127650   1.160   3.363   0.460 -1.5374 -0.2991 -0.0937
 5338SOL    HW227651   1.247   3.420   0.358  1.6745 -1.5319  2.9596
 5339SOL     OW27652   1.856   0.347   6.039  0.6347  0.7925  0.3107
 5339SOL    HW127653   1.943   0.310   6.023  0.1811  0.1967 -0.8195
 5339SOL    HW227654   1.809   0.320   5.960 -1.3813  0.8835  1.4877
 5340SOL     OW27655   0.255   3.840   2.106  0.1049  0.0027  0.5971
 5340SOL    HW127656   0.236   3.921   2.153  0.7909  0.1161  0.6840
 5340SOL    HW227657   0.342   3.858   2.070 -0.6690  3.1433  0.2596
 5341SOL     OW27658   2.293   3.037   3.401 -0.1855 -0.1726  0.1959
 5341SOL    HW127659   2.332   2.976   3.464 -0.6380 -0.5797  0.0839
 5341SOL    HW227660   2.366   3.041   3.340  0.5460  0.3720  1.1126
 5342SOL     OW27661   3.722   2.655   3.301  0.0978  0.6555 -0.1754
 5342SOL    HW127662   3.678   2.598   3.365  3.0183 -0.2587  1.0061
 5342SOL    HW227663   3.654   2.643   3.235 -0.7435  0.0625  0.7870
 5343SOL     OW27664   1.907   3.377   5.637  0.9632  0.1161 -0.4171
 5343SOL    HW127665   1.833   3.333   5.594 -0.9697  2.0496  0.9315
 5343SOL    HW227666   1.975   3.338   5.582  2.6029 -0.0030  1.6743
 5344SOL     OW27667   0.980   3.807   7.932 -0.6415  0.5755  0.2877
 5344SOL    HW127668   1.021   3.893   7.933  3.1786 -1.2530  0.5082
 5344SOL    HW227669   1.027   3.761   7.863  0.3403  1.0323  0.6658
 5345SOL     OW27670   3.999   3.057   9.629 -0.2845 -0.3100  0.1075
 5345SOL    HW127671   4.062   3.100   9.687 -0.4012 -0.9377  0.6935
 5345SOL    HW227672   4.004   3.113   9.551 -2.0369 -1.8519 -1.0846
 5346SOL     OW27673   3.185   2.593   0.246  0.4591  0.2806 -0.2003
 5346SOL    HW127674   3.196   2.508   0.203 -0.8184  0.2011 -0.3605
 5346SOL    HW227675   3.170   2.641   0.165  2.9658  0.0937 -0.7859
 5347SOL     OW27676   2.009   1.940   4.161  0.3904 -0.3502  0.1630
 5347SOL    HW127677   2.007   1.850   4.128  0.1131  0.4069 -1.8622
 5347SOL    HW227678   2.012   1.994   4.082 -2.7586  1.4487  1.2786
 5348SOL     OW27679   1.550   1.553   6.311  0.1287  0.5720  0.3385
 5348SOL    HW127680   1.598   1.531   6.232  0.7267 -1.0124  1.1473
 5348SOL    HW227681   1.581   1.485   6.371 -0.8244 -0.7972 -0.7144
 5349SOL     OW27682   2.500   2.278   6.581  0.0469 -0.0128  0.1777
 5349SOL    HW127683   2.570   2.239   6.633  0.4503 -0.3012 -0.5756
 5349SOL    HW227684   2.553   2.300   6.504 -0.3647 -0.4439 -0.2295
 5350SOL     OW27685   3.989   2.229   4.686 -0.1509 -0.2681 -0.0420
 5350SOL    HW127686   3.943   2.294   4.633 -0.7033  0.0126  0.7749
 5350SOL    HW227687   3.918   2.217   4.749 -1.8676  2.8555 -1.4061
 5351SOL     OW27688   0.823   0.298   2.823  0.3412  0.3606 -0.6969
 5351SOL    HW127689   0.832   0.258   2.736 -0.7570  2.3187 -1.6936
 5351SOL    HW227690   0.788   0.219   2.865 -0.5659  0.5557 -1.0813
 5352SOL     OW27691   0.679   3.936   7.820  0.5638 -0.3632 -0.1101
 5352SOL    HW127692   0.754   3.898   7.866 -0.0255  0.9300  1.9208
 5352SOL    HW227693   0.705   4.027   7.803  0.4935  0.1404  2.5173
 5353SOL     OW27694   0.383   3.009  15.078 -0.4902  0.0711  0.1654
 5353SOL    HW127695   0.425   2.923  15.083  0.7092  0.5007 -2.5341
 5353SOL    HW227696   0.327   2.991  15.003  0.2125  1.7472 -0.7575
 5354SOL     OW27697   2.723   3.089   8.225 -0.0819 -0.5666  0.1105
 5354SOL    HW127698   2.750   3.158   8.285 -0.4878 -1.0276  0.8163
 5354SOL    HW227699   2.629   3.078   8.237 -0.4505  1.4792 -0.8098
 5355SOL     OW27700   2.934   0.654  13.985  0.1095  0.2362  0.3747
 5355SOL    HW127701   3.028   0.638  13.988  0.1162 -0.0648 -1.3919
 5355SOL    HW227702   2.934   0.747  13.964  1.3823  0.0413 -0.4724
 5356SOL     OW27703   2.382   3.266   7.600 -0.0948 -0.4310  0.4377
 5356SOL    HW127704   2.427   3.260   7.684 -1.0754 -3.0943  0.7796
 5356SOL    HW227705   2.450   3.304   7.544  1.0384  0.0785  2.1594
 5357SOL     OW27706   3.925   3.649   0.731 -0.1383 -0.5746  0.2323
 5357SOL    HW127707   4.015   3.680   0.719 -0.2071 -0.5632 -0.2340
 5357SOL    HW227708   3.934   3.557   0.706  3.7816 -0.0848 -0.1689
 5358SOL     OW27709   4.296   0.915   2.906  0.1615  0.1484  0.3611
 5358SOL    HW127710   4.238   0.961   2.845  2.3967 -0.2144 -2.0331
 5358SOL    HW227711   4.380   0.913   2.861 -0.5622  1.3422 -1.0399
 5359SOL     OW27712   2.909   4.475   4.991  0.0844  0.9424  0.7366
 5359SOL    HW127713   2.885   4.390   4.954 -0.7451  1.2761  0.5143
 5359SOL    HW227714   2.827   4.490   5.038  0.0453 -0.9929  1.2681
 5360SOL     OW27715   3.637   2.802  15.502  0.0292  0.4552  0.1497
 5360SOL    HW127716   3.548   2.789  15.537 -0.1915  2.4108  0.2883
 5360SOL    HW227717   3.627   2.775  15.411  1.4735  1.9031 -0.4126
 5361SOL     OW27718   2.190   4.048   9.024 -0.0708  0.3660  0.1363
 5361SOL    HW127719   2.218   3.956   9.024 -0.8502  0.1349  0.3823
 5361SOL    HW227720   2.261   4.090   9.073  2.1709 -2.3864 -0.7674
 5362SOL     OW27721   0.422   1.563  14.286 -0.4517  0.0954  0.3151
 5362SOL    HW127722   0.414   1.626  14.357 -0.0832 -2.1093  2.3315
 5362SOL    HW227723   0.495   1.601  14.237 -0.0420 -0.0788  0.7869
 5363SOL     OW27724   1.131   4.706  15.083 -0.0509 -1.0097  0.1246
 5363SOL    HW127725   1.134   4.612  15.071  0.5269 -0.8869 -0.6630
 5363SOL    HW227726   1.062   4.737  15.024 -0.4511  1.1854  1.7265
 5364SOL     OW27727   4.339   0.588   7.579 -0.2449  0.3388 -0.0851
 5364SOL    HW127728   4.424   0.628   7.560  0.7245 -2.1068 -0.9743
 5364SOL    HW227729   4.306   0.588   7.489  2.8545  0.6352 -1.2140
 5365SOL     OW27730   2.651   1.878   4.442 -0.5126 -0.3349 -0.0443
 5365SOL    HW127731   2.622   1.865   4.532 -0.3380 -0.5490 -0.0160
 5365SOL    HW227732   2.568   1.895   4.397 -0.2682 -0.1563 -0.4259
 5366SOL     OW27733   0.440   1.445   3.130  0.1705  0.1808 -0.1731
 5366SOL    HW127734   0.523   1.490   3.144 -0.0902  0.5108  0.3469
 5366SOL    HW227735   0.468   1.354   3.140 -0.1371  0.2034  0.9537
 5367SOL     OW27736   1.604   0.863   7.828  0.0838  0.2158 -0.1643
 5367SOL    HW127737   1.513   0.890   7.823  0.6343  2.0197 -0.5828
 5367SOL    HW227738   1.623   0.855   7.922  1.4044 -1.0340 -0.5385
 5368SOL     OW27739   0.110   0.637   9.498  0.6954  0.3473 -0.0065
 5368SOL    HW127740   0.030   0.598   9.531  0.8322 -0.8818 -1.1356
 5368SOL    HW227741   0.159   0.652   9.579 -1.6698 -2.6937  1.9493
 5369SOL     OW27742   1.868   0.803  11.883 -0.1588  0.3264  0.1536
 5369SOL    HW127743   1.788   0.750  11.885  1.4808 -2.2508 -1.9870
 5369SOL    HW227744   1.837   0.893  11.877 -0.1517  0.2524 -1.0355
 5370SOL     OW27745   4.737   2.563   9.590  0.2285  0.7545  0.0009
 5370SOL    HW127746   4.731   2.625   9.663  1.4233  0.5300  0.2829
 5370SOL    HW227747   4.685   2.489   9.619  0.4422 -0.1333 -1.8630
 5371SOL     OW27748   3.080   1.434   4.510  0.5526  0.4597  0.2588
 5371SOL    HW127749   3.020   1.420   4.583  1.7152  0.8504  1.2815
 5371SOL    HW227750   3.037   1.376   4.447  1.1234 -0.6085  0.8738
 5372SOL     OW27751   1.920   1.290   3.156  0.3437 -0.1414  0.1797
 5372SOL    HW127752   1.985   1.352   3.122  1.5515 -1.5234 -0.0029
 5372SOL    HW227753   1.912   1.227   3.084 -3.0539  0.0091  0.4251
 5373SOL     OW27754   2.825   0.696   4.319 -0.4143  0.2866 -0.4052
 5373SOL    HW127755   2.912   0.722   4.347 -0.2187  1.2636 -1.9386
 5373SOL    HW227756   2.774   0.768   4.357 -1.6863 -0.7681 -0.1184
 5374SOL     OW27757   2.687   3.322  15.641 -0.1920 -0.4366  0.7378
 5374SOL    HW127758   2.681   3.288  15.552  2.0316  0.7308  0.1282
 5374SOL    HW227759   2.770   3.287  15.673  0.7207  0.2686 -0.8563
 5375SOL     OW27760   4.116   0.210   4.960 -0.9925 -0.2459 -0.4065
 5375SOL    HW127761   4.087   0.286   5.011  2.1180  1.6264 -1.3465
 5375SOL    HW227762   4.209   0.231   4.950 -1.0401  0.1617 -0.0290
 5376SOL     OW27763   1.897   3.723   5.537 -0.1547 -0.3138  0.2989
 5376SOL    HW127764   1.957   3.656   5.505  0.6418  0.5110  0.0842
 5376SOL    HW227765   1.958   3.795   5.547 -1.8122  0.9837  1.1158
 5377SOL     OW27766   0.965   0.646   1.872  0.1666  0.0953 -0.4576
 5377SOL    HW127767   1.057   0.652   1.898  0.3587  0.8009 -1.2869
 5377SOL    HW227768   0.923   0.731   1.890  2.4531  0.8262  1.4167
 5378SOL     OW27769   0.188   4.040  13.006 -0.1594  0.0262  0.2690
 5378SOL    HW127770   0.178   3.952  13.042  2.7835 -1.1506 -1.7464
 5378SOL    HW227771   0.097   4.067  13.020 -0.1808  0.6019 -0.9164
 5379SOL     OW27772   2.824   0.245  14.414 -0.0261  0.2472 -0.1289
 5379SOL    HW127773   2.824   0.322  14.358  1.4776  0.0201 -0.4364
 5379SOL    HW227774   2.887   0.273  14.480 -2.9803  0.4224  2.6051
 5380SOL     OW27775   1.413   3.044   9.019  0.3327  0.1162 -0.2811
 5380SOL    HW127776   1.322   3.038   9.047  1.4317  0.3401  3.3465
 5380SOL    HW227777   1.429   3.131   9.055 -0.3938  0.3606 -0.5561
 5381SOL     OW27778   4.639   3.060  11.930  0.1543 -0.3783  0.0259
 5381SOL    HW127779   4.702   3.019  11.871 -0.7421 -1.2715 -0.3062
 5381SOL    HW227780   4.588   3.122  11.877 -0.2402 -0.0718  0.7645
 5382SOL     OW27781   1.502   0.791   6.962  0.2685 -0.2915  0.4586
 5382SOL    HW127782   1.499   0.733   6.885  4.4689 -0.4384  0.3780
 5382SOL    HW227783   1.461   0.868   6.923  1.0944 -0.1689 -0.1708
 5383SOL     OW27784   1.325   1.500   3.814  0.1890 -0.0985 -0.0960
 5383SOL    HW127785   1.263   1.482   3.743  0.9335  1.2329 -1.0613
 5383SOL    HW227786   1.313   1.594   3.823  0.8468  0.0270 -0.5298
 5384SOL     OW27787   0.159   1.461   2.708 -0.0200  0.1214 -0.3127
 5384SOL    HW127788   0.148   1.553   2.681 -1.0469  0.0965 -0.0135
 5384SOL    HW227789   0.158   1.469   2.804 -1.6909  0.1443 -0.3269
 5385SOL     OW27790   1.809   3.327   1.524  0.0774 -0.2741 -0.6409
 5385SOL    HW127791   1.886   3.320   1.468 -0.5568 -1.4771 -1.3428
 5385SOL    HW227792   1.819   3.418   1.553 -2.5287 -0.1373 -0.1828
 5386SOL     OW27793   1.216   1.362   5.807  0.0344  0.7879  0.3284
 5386SOL    HW127794   1.180   1.274   5.793  0.6568  0.7343 -0.9712
 5386SOL    HW227795   1.290   1.355   5.747 -0.4599  1.7550 -0.3919
 5387SOL     OW27796   0.172   3.629  12.906 -0.1129  0.3164  0.3263
 5387SOL    HW127797   0.247   3.575  12.928 -0.5950 -1.4967 -2.4846
 5387SOL    HW227798   0.116   3.567  12.859 -0.0513 -0.1599  0.8803
 5388SOL     OW27799   3.957   0.381   7.805 -0.1592 -0.5780  0.1760
 5388SOL    HW127800   3.881   0.421   7.846  0.7008  1.0853  0.1549
 5388SOL    HW227801   3.931   0.386   7.713 -1.3762 -2.2491  0.4459
 5389SOL     OW27802   3.746   0.656  10.059 -0.1752 -0.0881  0.0421
 5389SOL    HW127803   3.703   0.736  10.091 -0.6671  0.1671 -1.2335
 5389SOL    HW227804   3.694   0.633   9.982  0.0811  3.0203 -1.0642
 5390SOL     OW27805   2.509   2.052   5.341  0.0285  0.2051 -0.7066
 5390SOL    HW127806   2.517   2.024   5.250 -0.4350 -1.3597 -0.2747
 5390SOL    HW227807   2.512   1.963   5.377 -0.9974 -0.2054 -1.6320
 5391SOL     OW27808   0.768   4.455   2.005 -0.1667 -0.6527  0.2123
 5391SOL    HW127809   0.840   4.516   1.989 -2.0898  1.4108 -0.7008
 5391SOL    HW227810   0.686   4.504   1.994 -0.8448 -1.7917  0.1560
 5392SOL     OW27811   2.823   0.157   8.612 -0.0103 -0.2221 -0.5859
 5392SOL    HW127812   2.848   0.138   8.703  0.1686  0.1356 -0.5603
 5392SOL    HW227813   2.730   0.138   8.604  0.0481 -0.5349 -0.5607
 5393SOL     OW27814   1.666   4.163   6.707 -0.3071 -0.4149  0.5458
 5393SOL    HW127815   1.629   4.209   6.782 -0.0903  2.7068 -1.2498
 5393SOL    HW227816   1.731   4.109   6.751  1.5233  0.3873 -1.1600
 5394SOL     OW27817   3.043   0.838   4.022 -0.2889 -0.2087  0.0874
 5394SOL    HW127818   3.107   0.859   4.090 -2.3710  0.7064  1.7769
 5394SOL    HW227819   3.007   0.753   4.048 -0.8627  0.5533  1.8364
 5395SOL     OW27820   0.456   1.138   6.996 -0.8676  0.0532 -0.1878
 5395SOL    HW127821   0.495   1.057   7.031 -0.9940  0.8962  1.9396
 5395SOL    HW227822   0.494   1.202   7.057  1.2348 -1.8214  0.4878
 5396SOL     OW27823   1.723   3.201   5.536 -0.4328  0.3305  1.2376
 5396SOL    HW127824   1.662   3.265   5.498  0.4239 -0.5389 -1.5660
 5396SOL    HW227825   1.683   3.126   5.493 -2.5489  1.1511  1.7552
 5397SOL     OW27826   3.172   2.115  14.005  0.0330  0.5274  0.5412
 5397SOL    HW127827   3.221   2.167  13.941 -1.9592 -0.4513 -1.7708
 5397SOL    HW227828   3.238   2.052  14.036 -1.7117 -1.0313  1.0910
 5398SOL     OW27829   0.387   3.935   8.220  0.1739  0.0709 -0.1477
 5398SOL    HW127830   0.321   3.866   8.221 -0.2363  0.4496 -1.1394
 5398SOL    HW227831   0.385   3.957   8.313  1.3192  0.3428 -0.1805
 5399SOL     OW27832   1.783   4.010   2.054 -0.2777 -0.0373  0.0944
 5399SOL    HW127833   1.711   3.947   2.060  2.0642 -2.8759 -1.5421
 5399SOL    HW227834   1.852   3.965   2.006 -0.4256 -3.9409  3.5337
 5400SOL     OW27835   1.823   2.464   3.380 -0.3019  0.6552  0.2680
 5400SOL    HW127836   1.739   2.481   3.422 -0.7230  2.5754 -1.3853
 5400SOL    HW227837   1.878   2.528   3.424 -0.1211 -0.2696  1.3709
 5401SOL     OW27838   0.965   4.649  16.770  0.3227 -0.0016 -0.3583
 5401SOL    HW127839   0.872   4.629  16.759  0.1290  1.5316 -1.5010
 5401SOL    HW227840   0.966   0.001  16.737 -2.6805 -0.1001 -0.6958
 5402SOL     OW27841   2.974   3.321  10.932  0.3279 -0.1586  0.2032
 5402SOL    HW127842   2.896   3.358  10.972  0.8428  0.8330  0.3039
 5402SOL    HW227843   2.991   3.250  10.993 -1.1019 -0.7322 -0.0742
 5403SOL     OW27844   4.356   3.811  10.285  0.1367 -0.0476  0.2201
 5403SOL    HW127845   4.410   3.769  10.352 -0.3884  0.3142  0.8730
 5403SOL    HW227846   4.377   3.749  10.215  2.8367  0.5559  0.5054
 5404SOL     OW27847   2.692   4.279   9.038  0.4239  0.4059  0.1736
 5404SOL    HW127848   2.657   4.283   8.949 -0.5196 -0.4503  0.5143
 5404SOL    HW227849   2.697   4.370   9.068 -3.4895  0.7417 -0.2569
 5405SOL     OW27850   4.434   0.966  15.411  0.1148 -0.2761  0.2098
 5405SOL    HW127851   4.441   0.886  15.462 -0.8539 -0.1715  0.4919
 5405SOL    HW227852   4.528   0.980  15.395 -0.3922  1.0828 -1.5527
 5406SOL     OW27853   4.587   2.797   3.321  0.0429  0.1835  0.1896
 5406SOL    HW127854   4.571   2.723   3.380 -2.1544 -0.5484 -1.3191
 5406SOL    HW227855   4.680   2.816   3.331 -0.1752  0.6730  1.3138
 5407SOL     OW27856   1.474   0.425   9.557  0.2387  0.5820  0.0951
 5407SOL    HW127857   1.379   0.417   9.554  0.2546  1.4688 -2.6836
 5407SOL    HW227858   1.483   0.471   9.641  1.1749  0.4645  0.0548
 5408SOL     OW27859   4.607   2.076  12.735  0.0781  0.4868 -0.1423
 5408SOL    HW127860   4.644   2.083  12.822  0.5684 -1.6725 -0.1762
 5408SOL    HW227861   4.601   1.981  12.725 -1.9797  0.8264 -2.1140
 5409SOL     OW27862   1.856   1.464   7.966 -0.0836  0.2427  0.7767
 5409SOL    HW127863   1.862   1.396   8.033 -1.7249 -0.9775 -0.3033
 5409SOL    HW227864   1.841   1.414   7.886  1.2346  0.7719  0.2112
 5410SOL     OW27865   2.068   2.084   3.377 -1.1510 -0.6231  0.0838
 5410SOL    HW127866   1.994   2.034   3.413 -1.0687 -1.8614 -1.4764
 5410SOL    HW227867   2.129   2.020   3.340  0.1525  1.3967 -1.2572
 5411SOL     OW27868   4.720   2.534   8.573  0.1185 -0.3399 -0.2706
 5411SOL    HW127869   4.648   2.577   8.618  1.3340  0.4978  0.9008
 5411SOL    HW227870   4.676   2.498   8.496 -0.6249 -2.3705  1.0864
 5412SOL     OW27871   2.820   3.471   4.484  0.7058  0.5297 -0.3212
 5412SOL    HW127872   2.871   3.402   4.443  1.3180  0.7477  0.0727
 5412SOL    HW227873   2.743   3.477   4.426  1.5506  0.5086 -1.4363
 5413SOL     OW27874   4.052   1.725   4.170  0.2878  0.1894 -0.0698
 5413SOL    HW127875   4.057   1.652   4.233  0.6362 -0.7503 -1.1885
 5413SOL    HW227876   4.045   1.671   4.092  1.0127  0.1162 -0.0804
 5414SOL     OW27877   0.667   1.048   3.619  0.4638 -0.1027  0.0174
 5414SOL    HW127878   0.669   1.143   3.624 -1.7442 -0.0207 -0.7427
 5414SOL    HW227879   0.602   1.031   3.550  1.1823 -0.2467 -0.6323
 5415SOL     OW27880   1.700   2.858   8.919 -0.6308  0.3485 -0.0403
 5415SOL    HW127881   1.731   2.836   8.832  2.1125  2.1591  0.4929
 5415SOL    HW227882   1.626   2.797   8.915  0.2548 -0.8691  1.8992
 5416SOL     OW27883   1.041   2.613   6.449 -0.0758  0.5292  0.2453
 5416SOL    HW127884   0.975   2.668   6.405 -0.1306  1.7392  1.8612
 5416SOL    HW227885   0.975   2.555   6.486  1.5201 -0.4934  1.4839
 5417SOL     OW27886   4.666   1.058   1.554 -0.1535  0.2230 -0.0922
 5417SOL    HW127887   4.608   1.106   1.494 -1.1802 -0.7857  0.1008
 5417SOL    HW227888   4.728   1.035   1.484  1.2588 -0.4978  1.3987
 5418SOL     OW27889   1.172   3.983  17.619 -0.1599 -0.6275 -0.4526
 5418SOL    HW127890   1.227   4.016  17.691  0.8489 -0.1618 -1.4329
 5418SOL    HW227891   1.221   4.025  17.549 -2.3682 -0.1066 -1.6632
 5419SOL     OW27892   1.178   2.531   1.510  0.4386 -0.6248 -0.0765
 5419SOL    HW127893   1.253   2.488   1.471  0.1690 -2.7511  1.7576
 5419SOL    HW227894   1.116   2.461   1.494  0.0224 -0.0003 -1.1996
 5420SOL     OW27895   3.310   3.635   6.311 -0.1052  0.2740 -0.2202
 5420SOL    HW127896   3.360   3.569   6.358  1.8843 -0.3067 -3.1423
 5420SOL    HW227897   3.312   3.594   6.224  1.1236  1.7155 -0.8793
 5421SOL     OW27898   0.209   2.699   2.388 -0.1224  0.7957  0.2574
 5421SOL    HW127899   0.226   2.785   2.349  0.1390  0.9760  0.7551
 5421SOL    HW227900   0.182   2.649   2.311  1.4668  2.2022 -1.2269
 5422SOL     OW27901   1.923   4.513  12.083 -0.3221  0.1451  0.7444
 5422SOL    HW127902   1.937   4.594  12.131 -1.3977  0.4259  0.5971
 5422SOL    HW227903   2.011   4.478  12.092 -0.1848  0.6167  1.2333
 5423SOL     OW27904   0.006   0.387  14.625  0.3437  0.0593  0.3461
 5423SOL    HW127905   0.065   0.462  14.625  0.4215 -0.0018  0.4645
 5423SOL    HW227906   0.054   0.323  14.572 -1.5640 -0.9941 -0.1174
 5424SOL     OW27907   0.314   0.668   5.116  0.1786 -0.1433 -0.4989
 5424SOL    HW127908   0.361   0.697   5.194 -0.5475 -2.3223  0.7473
 5424SOL    HW227909   0.355   0.582   5.104 -0.5279 -0.7036  1.1573
 5425SOL     OW27910   2.833   3.095   5.159  0.2282  0.6534  0.0918
 5425SOL    HW127911   2.888   3.081   5.236 -1.0703  2.7494  1.3876
 5425SOL    HW227912   2.905   3.098   5.097 -0.2705  0.8447 -0.4731
 5426SOL     OW27913   2.509   1.258   5.722 -0.2302 -0.3433 -0.3128
 5426SOL    HW127914   2.571   1.212   5.666  2.6806  1.0722  1.7366
 5426SOL    HW227915   2.555   1.280   5.803 -0.8675  1.3746 -0.4267
 5427SOL     OW27916   4.407   2.282   7.562 -0.0124 -0.4747  0.3145
 5427SOL    HW127917   4.451   2.204   7.597 -2.3854 -1.6522  0.7088
 5427SOL    HW227918   4.382   2.257   7.473 -0.4525  1.5364 -0.1158
 5428SOL     OW27919   1.284   1.979   6.120 -0.3587 -0.6295  0.7047
 5428SOL    HW127920   1.281   1.885   6.135 -0.3771 -1.0151 -1.7438
 5428SOL    HW227921   1.340   2.015   6.189 -0.8765 -0.6487  1.1320
 5429SOL     OW27922   0.084   3.895   7.683  0.1073  0.2153 -0.6423
 5429SOL    HW127923   0.117   3.938   7.762  0.3181 -1.3437  0.1232
 5429SOL    HW227924   0.160   3.908   7.626  0.2586 -0.5458 -0.6091
 5430SOL     OW27925   4.650   3.035   7.381 -0.3199  0.5104 -0.1718
 5430SOL    HW127926   4.619   3.089   7.309 -1.7114  0.9839  0.7849
 5430SOL    HW227927   4.628   2.949   7.346  2.6184 -0.4136  0.3122
 5431SOL     OW27928   4.106   3.790   0.272  0.0265  0.1193 -0.4336
 5431SOL    HW127929   4.131   3.795   0.180  1.0248  3.0156  0.0017
 5431SOL    HW227930   4.142   3.874   0.301  3.2953 -2.2343  2.4273
 5432SOL     OW27931   3.397   4.079   6.729 -0.1244  0.5594  0.2412
 5432SOL    HW127932   3.394   4.129   6.648  0.7000 -0.2260 -0.2740
 5432SOL    HW227933   3.372   3.995   6.690  0.6431  0.5636 -0.2628
 5433SOL     OW27934   2.721   3.825  11.293  0.1392 -0.7378  0.1969
 5433SOL    HW127935   2.634   3.859  11.271  0.7161  1.1561  0.8507
 5433SOL    HW227936   2.737   3.871  11.375 -0.6108  1.5594 -0.9253
 5434SOL     OW27937   3.967   3.610   7.106  0.4075 -0.2187 -0.3584
 5434SOL    HW127938   3.921   3.574   7.182 -0.2398 -1.3457 -1.2830
 5434SOL    HW227939   3.929   3.696   7.090 -0.8822 -0.9160 -0.9765
 5435SOL     OW27940   3.825   1.001   6.610 -0.6533  0.9247  0.1266
 5435SOL    HW127941   3.854   1.063   6.677 -0.1660 -0.1309  0.8871
 5435SOL    HW227942   3.836   0.917   6.655  0.5452  0.6546 -0.6521
 5436SOL     OW27943   0.337   1.402  15.541 -0.6682 -0.3727  0.2546
 5436SOL    HW127944   0.417   1.353  15.555 -1.2554 -1.6452 -0.8045
 5436SOL    HW227945   0.279   1.327  15.525 -1.4504  0.2072  0.3676
 5437SOL     OW27946   1.532   0.611   4.262  0.3196  0.2089  0.0440
 5437SOL    HW127947   1.476   0.689   4.258  1.3737  0.9251 -0.6829
 5437SOL    HW227948   1.464   0.549   4.237 -0.0409 -0.1185  1.8067
 5438SOL     OW27949   1.701   3.413   9.260 -0.4755 -0.1219 -0.2440
 5438SOL    HW127950   1.694   3.502   9.293  0.9824  1.2293 -3.4990
 5438SOL    HW227951   1.729   3.438   9.171  0.1103  0.7317  0.1816
 5439SOL     OW27952   0.945   0.268   1.571  0.1445  0.0391 -0.7647
 5439SOL    HW127953   0.968   0.186   1.615 -2.6451 -0.3797 -0.0862
 5439SOL    HW227954   0.942   0.239   1.480  0.2798  1.1160 -1.1097
 5440SOL     OW27955   4.707   3.492  10.780  0.3501  0.3248 -0.1365
 5440SOL    HW127956   0.041   3.556  10.781  0.7750 -0.1374 -0.7832
 5440SOL    HW227957   4.723   3.437  10.703  1.5986 -1.9834  1.7580
 5441SOL     OW27958   3.504   1.435  11.562  0.0463  0.5571 -0.4560
 5441SOL    HW127959   3.462   1.349  11.557  0.1171  0.5424 -0.7627
 5441SOL    HW227960   3.452   1.472  11.634 -0.1840  1.4960 -1.1124
 5442SOL     OW27961   4.484   2.314   7.263 -0.4291  0.0501 -0.1561
 5442SOL    HW127962   4.430   2.322   7.184 -1.8292 -0.2956  0.7599
 5442SOL    HW227963   4.499   2.220   7.255  0.9915  0.2821 -0.1696
 5443SOL     OW27964   4.460   0.398   4.612 -0.1109 -0.5131 -0.3475
 5443SOL    HW127965   4.396   0.371   4.547  0.2851  0.5395 -1.1857
 5443SOL    HW227966   4.530   0.436   4.557  0.3890  0.7785  1.1735
 5444SOL     OW27967   1.998   0.441   4.390 -0.5080 -0.4941 -0.0039
 5444SOL    HW127968   1.909   0.474   4.407  0.2129  0.9172  0.9969
 5444SOL    HW227969   1.984   0.357   4.346  1.3241 -0.7255 -0.1341
 5445SOL     OW27970   4.287   2.514   1.816  0.1966 -0.5396  0.2598
 5445SOL    HW127971   4.279   2.466   1.733  3.0204  0.6166 -0.6943
 5445SOL    HW227972   4.310   2.602   1.784 -0.3708 -0.1395  0.9444
 5446SOL     OW27973   3.885   1.085   6.889 -0.0832 -0.2047 -0.0156
 5446SOL    HW127974   3.851   1.041   6.966  0.3835  1.8394  1.3683
 5446SOL    HW227975   3.960   1.029   6.869  1.0815  0.8702  1.3538
 5447SOL     OW27976   4.706   4.243   8.515  0.8874  0.2694 -0.3799
 5447SOL    HW127977   0.006   4.322   8.477  1.0837 -0.8406 -2.5108
 5447SOL    HW227978   4.657   4.208   8.440 -0.4368 -0.3400  0.7693
 5448SOL     OW27979   3.470   0.603   6.182  0.1849 -0.0904  0.3670
 5448SOL    HW127980   3.450   0.528   6.238 -0.7302 -0.2364 -0.1615
 5448SOL    HW227981   3.534   0.563   6.123  1.2454  2.1207  0.0330
 5449SOL     OW27982   0.284   2.249  13.592  0.2328  0.1717 -0.5367
 5449SOL    HW127983   0.376   2.271  13.576 -0.2921  2.0769 -0.9212
 5449SOL    HW227984   0.265   2.216  13.504  1.8023 -2.0250 -0.0667
 5450SOL     OW27985   4.544   2.065   7.212 -0.6787 -0.6640  0.8247
 5450SOL    HW127986   4.620   2.019   7.246  0.2187 -0.1233 -0.4789
 5450SOL    HW227987   4.491   1.993   7.177 -2.4481  0.6547  0.7652
 5451SOL     OW27988   3.247   0.942   8.584 -0.0866 -0.2315  0.6172
 5451SOL    HW127989   3.255   0.929   8.490  0.1920  1.7466  0.3614
 5451SOL    HW227990   3.191   1.019   8.580 -0.3621 -0.5344 -1.4615
 5452SOL     OW27991   2.437   3.178   0.215  0.5545 -0.4936 -0.0378
 5452SOL    HW127992   2.519   3.225   0.201  0.0571 -0.0929 -1.6822
 5452SOL    HW227993   2.451   3.117   0.142 -0.7365  1.1756 -1.6967
 5453SOL     OW27994   2.573   3.416   6.809 -0.2276  0.4027 -0.0860
 5453SOL    HW127995   2.561   3.496   6.861 -0.9735  0.1562  0.1158
 5453SOL    HW227996   2.591   3.362   6.886  0.6496  1.4493  0.4385
 5454SOL     OW27997   2.604   0.680   3.176 -0.6309  0.0799 -0.1422
 5454SOL    HW127998   2.547   0.629   3.234  0.1612  1.5520  1.9158
 5454SOL    HW227999   2.690   0.643   3.198 -1.9211 -1.8750  1.6715
 5455SOL     OW28000   2.764   2.335   3.531 -0.2441 -0.0460  0.4744
 5455SOL    HW128001   2.710   2.288   3.469 -0.0229  0.2840  0.0337
 5455SOL    HW228002   2.709   2.411   3.552  1.9530  1.5341  0.4777
 5456SOL     OW28003   3.171   1.574   2.931  0.0799 -0.6981 -0.5830
 5456SOL    HW128004   3.205   1.530   2.854  0.0394 -0.5032 -0.7118
 5456SOL    HW228005   3.235   1.550   2.998  1.4427  0.9671 -1.3045
 5457SOL     OW28006   3.100   3.601   2.047 -0.6608 -0.1859  0.6542
 5457SOL    HW128007   3.019   3.636   2.083 -1.0684 -0.9125  0.4288
 5457SOL    HW228008   3.144   3.678   2.009  0.0478 -0.6245  0.5855
 5458SOL     OW28009   3.297   2.464   2.016  0.0923  0.0285  0.3624
 5458SOL    HW128010   3.293   2.434   1.925 -1.9582  1.7893 -0.1363
 5458SOL    HW228011   3.304   2.560   2.010  0.3654  0.0191  0.5385
 5459SOL     OW28012   4.583   2.286   3.264  1.0790 -0.0055 -0.0708
 5459SOL    HW128013   4.548   2.203   3.234 -2.5219  1.1856  0.8048
 5459SOL    HW228014   4.503   2.337   3.252  0.4671 -0.9672 -0.0575
 5460SOL     OW28015   0.637   2.076   9.606 -0.3654 -0.2105 -0.1520
 5460SOL    HW128016   0.648   2.111   9.518  1.5888  3.2502  1.4102
 5460SOL    HW228017   0.640   1.984   9.580 -0.3630 -0.4693  0.7557
 5461SOL     OW28018   2.911   2.956   3.075 -0.1784  0.1876 -0.1731
 5461SOL    HW128019   2.860   3.036   3.064  0.9635  1.0023  0.4714
 5461SOL    HW228020   2.960   2.980   3.153 -1.7482  2.7241  0.0323
 5462SOL     OW28021   1.111   3.874   6.684 -0.1073 -0.2339 -0.0541
 5462SOL    HW128022   1.025   3.913   6.698 -0.9907 -1.6313 -1.6872
 5462SOL    HW228023   1.103   3.782   6.660  0.9181 -0.5585  0.8215
 5463SOL     OW28024   4.530   3.142   2.851 -0.0686 -0.4074 -0.5893
 5463SOL    HW128025   4.575   3.155   2.935 -1.6710  0.0263  0.1860
 5463SOL    HW228026   4.465   3.211   2.859  2.5978  2.0224 -0.1349
 5464SOL     OW28027   0.490   3.721  10.580  0.3443  0.1375  0.0396
 5464SOL    HW128028   0.483   3.757  10.491 -1.6706 -1.9374 -0.6543
 5464SOL    HW228029   0.400   3.691  10.593 -0.1824  1.6858  0.0331
 5465SOL     OW28030   4.268   4.653   3.635 -0.5568 -0.0751 -0.5844
 5465SOL    HW128031   4.331   4.707   3.587 -0.2033  0.4161  0.4417
 5465SOL    HW228032   4.329   4.610   3.694 -2.0687 -0.2861  0.8093
 5466SOL     OW28033   0.527   3.250   3.178  0.0509 -0.2323  0.1830
 5466SOL    HW128034   0.573   3.188   3.235  0.2413 -0.6261 -0.4073
 5466SOL    HW228035   0.433   3.241   3.190  0.0378 -0.7585 -0.3314
 5467SOL     OW28036   2.560   0.077   8.608  0.7855  0.4308  0.0892
 5467SOL    HW128037   2.562   0.065   8.702  0.8143  1.0736  0.1707
 5467SOL    HW228038   2.469   0.108   8.613  1.2274  1.5793  0.8794
 5468SOL     OW28039   0.183   1.130   8.080 -0.2412  0.6581 -0.1507
 5468SOL    HW128040   0.152   1.048   8.119 -1.0067  1.2037  0.4007
 5468SOL    HW228041   0.206   1.109   7.990 -0.1407 -0.0637  0.0361
 5469SOL     OW28042   4.351   2.427   0.536  0.0571 -0.2818  0.0387
 5469SOL    HW128043   4.390   2.468   0.459 -0.1416  0.8288  0.5319
 5469SOL    HW228044   4.398   2.344   0.538  1.1681  0.3767  1.2257
 5470SOL     OW28045   3.517   0.340   8.372  0.2305  0.6058 -0.3540
 5470SOL    HW128046   3.447   0.280   8.398  1.3973 -0.1621  1.0477
 5470SOL    HW228047   3.513   0.332   8.277 -1.6779 -0.9937 -0.1488
 5471SOL     OW28048   4.476   1.058  17.042 -0.6826  0.2197  0.3996
 5471SOL    HW128049   4.432   0.975  17.056 -2.1466  0.9468  0.0714
 5471SOL    HW228050   4.568   1.032  17.044 -0.8395 -0.1379  3.1041
 5472SOL     OW28051   2.476   0.885  13.287 -0.5893 -0.4211  0.6354
 5472SOL    HW128052   2.402   0.914  13.235 -1.9358 -0.8865  2.3042
 5472SOL    HW228053   2.466   0.790  13.277 -0.0748 -0.4882  0.7232
 5473SOL     OW28054   2.694   0.345   4.668 -0.0403  0.3521 -0.3170
 5473SOL    HW128055   2.773   0.378   4.624  0.0814  0.4415 -0.0337
 5473SOL    HW228056   2.633   0.333   4.596  0.2775 -0.0658 -0.5149
 5474SOL     OW28057   4.561   0.505  12.607  0.0046  0.3252  0.0150
 5474SOL    HW128058   4.523   0.497  12.695  0.7903 -1.2782  0.2058
 5474SOL    HW228059   4.554   0.599  12.592 -1.8485 -0.3999 -3.7392
 5475SOL     OW28060   3.210   4.089   9.201  0.0035  0.0549  0.5614
 5475SOL    HW128061   3.123   4.129   9.196 -0.4081 -0.8463  0.4344
 5475SOL    HW228062   3.270   4.162   9.192  1.1426 -0.9415  0.0017
 5476SOL     OW28063   0.119   3.965   1.858  0.0923  0.2430  0.5731
 5476SOL    HW128064   0.033   3.977   1.818 -0.0577 -0.0242  0.8168
 5476SOL    HW228065   0.089   3.957   1.948 -2.9940  2.3961 -0.2586
 5477SOL     OW28066   2.729   0.852  16.609  0.3076  0.1171 -0.2863
 5477SOL    HW128067   2.800   0.913  16.589  0.3375  0.0168 -0.4874
 5477SOL    HW228068   2.735   0.850  16.704 -1.2791  1.7213 -0.1474
 5478SOL     OW28069   1.344   4.037   8.400  0.4235  0.0514 -0.1757
 5478SOL    HW128070   1.326   3.978   8.473  1.2991  0.1789  0.1438
 5478SOL    HW228071   1.266   4.013   8.349  1.7147 -0.5840 -1.8815
 5479SOL     OW28072   1.473   0.825   7.213 -0.4426 -0.5782 -0.2786
 5479SOL    HW128073   1.456   0.735   7.241  0.2528 -1.7156 -3.5001
 5479SOL    HW228074   1.526   0.807   7.135  1.2244 -1.0682  0.9627
 5480SOL     OW28075   1.847   0.289  15.947 -0.2450  0.1748 -0.4582
 5480SOL    HW128076   1.829   0.216  15.887  2.9248 -0.6135 -0.4590
 5480SOL    HW228077   1.776   0.295  16.010 -0.2027 -2.7402 -0.1129
 5481SOL     OW28078   2.872   0.658   5.781 -0.0001  0.0429 -0.5756
 5481SOL    HW128079   2.875   0.610   5.698  0.8657  1.2056 -1.2197
 5481SOL    HW228080   2.921   0.594   5.832 -1.2805  0.6547  1.4228
 5482SOL     OW28081   1.386   0.534   2.896 -0.1176  0.1782  0.3306
 5482SOL    HW128082   1.362   0.447   2.864 -0.8037  0.4246  0.1664
 5482SOL    HW228083   1.380   0.584   2.814 -1.4994 -0.7904 -0.1641
 5483SOL     OW28084   3.963   1.768   3.426  0.1954  0.1736  0.6066
 5483SOL    HW128085   3.896   1.708   3.394 -0.5943  0.5118  1.6173
 5483SOL    HW228086   4.026   1.756   3.355 -1.7499  1.4090 -1.3234
 5484SOL     OW28087   0.034   0.100   3.978  0.5461 -0.3889  0.6753
 5484SOL    HW128088   0.034   0.055   3.893 -2.1346 -4.6411  2.9137
 5484SOL    HW228089   4.683   0.136   3.972  0.2946 -1.6139 -2.8747
 5485SOL     OW28090   3.360   1.825   7.831  0.2692 -0.8695 -0.8186
 5485SOL    HW128091   3.421   1.848   7.901 -1.7703 -1.2302  1.0797
 5485SOL    HW228092   3.276   1.842   7.874  1.5038 -1.3808  1.7799
 5486SOL     OW28093   4.494   4.682  17.292  1.2676  0.5807 -0.5951
 5486SOL    HW128094   4.487   4.654  17.383  2.2681  2.2413 -0.0134
 5486SOL    HW228095   4.508   0.036  17.314 -0.8936  1.1547 -1.6007
 5487SOL     OW28096   0.683   3.730   1.170 -0.3251 -0.6641  0.2178
 5487SOL    HW128097   0.698   3.782   1.091 -1.1367  1.5215  1.5337
 5487SOL    HW228098   0.597   3.756   1.200 -1.1758 -0.7747 -2.0990
 5488SOL     OW28099   0.547   3.684   9.664 -0.0316  0.2836 -0.4584
 5488SOL    HW128100   0.509   3.712   9.747 -0.3677 -2.5051  0.3085
 5488SOL    HW228101   0.557   3.592   9.687 -1.3515 -0.1662 -1.6780
 5489SOL     OW28102   2.309   3.994   1.763 -0.3112 -0.0921  0.7100
 5489SOL    HW128103   2.252   3.956   1.697  0.3033  0.6816 -0.2671
 5489SOL    HW228104   2.302   4.087   1.744 -1.1138 -0.6127 -1.4613
 5490SOL     OW28105   3.005   4.341   9.380 -0.1366 -0.2413 -0.3417
 5490SOL    HW128106   2.946   4.345   9.455 -0.0556 -2.6205 -0.1485
 5490SOL    HW228107   2.964   4.281   9.317  0.3326  0.5504 -1.4152
 5491SOL     OW28108   4.306   1.561   4.659  0.4794  0.3820 -0.2732
 5491SOL    HW128109   4.302   1.644   4.612 -0.1729  0.6385  0.2357
 5491SOL    HW228110   4.225   1.576   4.708 -0.3383  1.0793 -1.8380
 5492SOL     OW28111   4.282   3.364   9.957 -0.6036  0.1774 -0.1659
 5492SOL    HW128112   4.268   3.328  10.044 -0.4178  2.8793  0.9701
 5492SOL    HW228113   4.276   3.279   9.913  0.2537 -0.4020  0.8442
 5493SOL     OW28114   2.664   1.862   0.206  0.3926 -0.3645  0.3185
 5493SOL    HW128115   2.632   1.946   0.239  0.6077 -0.8164  1.6982
 5493SOL    HW228116   2.645   1.809   0.284  0.9186  0.2585  0.8620
 5494SOL     OW28117   0.760   3.230   0.590  0.0809 -0.2413  0.6284
 5494SOL    HW128118   0.775   3.136   0.594  0.9220 -0.2349 -2.4923
 5494SOL    HW228119   0.673   3.234   0.551  0.6874 -2.2620 -0.9467
 5495SOL     OW28120   0.174   3.061  12.003  0.3479 -0.2156  0.5638
 5495SOL    HW128121   0.146   3.042  11.913 -0.5041  0.7382  0.6261
 5495SOL    HW228122   0.093   3.091  12.044  1.7864  0.7123  2.7128
 5496SOL     OW28123   2.957   3.144   0.791  0.1314 -0.0464  0.2575
 5496SOL    HW128124   2.997   3.156   0.877  0.8674 -0.4439 -0.0337
 5496SOL    HW228125   2.864   3.160   0.808 -0.8359 -3.3861 -1.9461
 5497SOL     OW28126   3.368   1.790   4.962  0.1976  0.2748 -0.4569
 5497SOL    HW128127   3.290   1.829   4.923 -2.1156 -3.0975  0.9057
 5497SOL    HW228128   3.393   1.736   4.886  1.9689  1.6140 -0.8299
 5498SOL     OW28129   2.786   3.745   9.575  0.2068 -0.7735  0.4876
 5498SOL    HW128130   2.702   3.789   9.558  0.8135  1.3269  2.8643
 5498SOL    HW228131   2.832   3.762   9.493 -0.7540  3.8832  0.8700
 5499SOL     OW28132   0.611   2.399   2.391  0.0536 -0.2809 -0.0379
 5499SOL    HW128133   0.612   2.356   2.305  0.4034  0.9476 -0.6620
 5499SOL    HW228134   0.518   2.397   2.413 -0.3148  0.0784 -1.5224
 5500SOL     OW28135   3.895   2.066   5.107  0.3130  0.6414 -0.2563
 5500SOL    HW128136   3.945   2.038   5.030 -0.9776 -3.1861  0.3387
 5500SOL    HW228137   3.828   1.998   5.105 -1.9669  2.8306  1.5889
 5501SOL     OW28138   2.523   3.016   6.598 -0.1789 -0.1610  0.2640
 5501SOL    HW128139   2.480   3.099   6.619 -0.3624  0.1530 -1.3603
 5501SOL    HW228140   2.475   2.991   6.519 -0.5562 -2.0275  1.0750
 5502SOL     OW28141   4.713   0.878   8.352  0.0082  0.0744  0.4850
 5502SOL    HW128142   4.716   0.942   8.423  2.0789 -1.1650  1.4936
 5502SOL    HW228143   0.017   0.801   8.390 -0.5777  0.7998  2.6001
 5503SOL     OW28144   3.587   0.941   6.491  0.1843 -0.6136  0.2439
 5503SOL    HW128145   3.549   1.011   6.545  0.9647 -0.6537  0.8485
 5503SOL    HW228146   3.679   0.958   6.511  0.5197 -1.7639 -0.3091
 5504SOL     OW28147   4.436   2.921   8.503  0.5641  0.4054 -1.0597
 5504SOL    HW128148   4.366   2.958   8.449 -2.2673 -3.4170 -0.0190
 5504SOL    HW228149   4.507   2.954   8.448  0.1153 -1.2431 -2.6406
 5505SOL     OW28150   2.256   4.344   6.695  0.0873  0.1887  0.2445
 5505SOL    HW128151   2.312   4.422   6.700 -0.4339  0.5795 -0.0258
 5505SOL    HW228152   2.319   4.275   6.674 -1.2235 -0.7328 -0.6419
 5506SOL     OW28153   2.410   1.222   7.385 -0.0830  0.0271  0.8943
 5506SOL    HW128154   2.368   1.299   7.423 -1.6605 -0.3108 -0.1670
 5506SOL    HW228155   2.484   1.213   7.446 -0.1197  1.7675  1.1910
 5507SOL     OW28156   1.985   4.594   7.130 -0.8964 -0.0218 -0.5621
 5507SOL    HW128157   2.051   4.561   7.069 -0.0898  0.1397  0.2276
 5507SOL    HW228158   2.015   4.681   7.159 -1.8886 -0.3077  1.3015
 5508SOL     OW28159   3.142   0.173   1.734 -0.1520 -0.0506  0.2827
 5508SOL    HW128160   3.187   0.204   1.655 -2.6762 -0.9999 -1.5052
 5508SOL    HW228161   3.166   0.238   1.801 -1.8494  0.4208  0.4403
 5509SOL     OW28162   2.969   3.673   7.495  0.3514 -0.0177 -0.0503
 5509SOL    HW128163   3.007   3.657   7.581 -0.9580  0.0192  0.5309
 5509SOL    HW228164   2.996   3.593   7.450 -0.3680  0.1390 -0.7573
 5510SOL     OW28165   3.260   1.853   1.012  0.3449  0.4458  0.4742
 5510SOL    HW128166   3.351   1.826   1.001 -0.0382 -1.0509  1.1125
 5510SOL    HW228167   3.218   1.802   0.944  0.9183  1.0982 -0.3732
 5511SOL     OW28168   3.226   1.592   8.523 -0.3884  0.0886  0.3340
 5511SOL    HW128169   3.293   1.654   8.553  0.3642  0.7608 -2.6870
 5511SOL    HW228170   3.167   1.650   8.473  1.5172 -0.3717 -2.4836
 5512SOL     OW28171   2.853   3.926   7.033  0.6928 -0.0186  0.0363
 5512SOL    HW128172   2.867   3.854   7.094 -0.3396  2.1096  2.7681
 5512SOL    HW228173   2.800   3.979   7.092 -1.9205  0.2339 -2.5574
 5513SOL     OW28174   1.542   4.066   3.587  0.5534 -0.4650 -0.4396
 5513SOL    HW128175   1.586   4.109   3.660  1.1449 -0.1726 -0.9638
 5513SOL    HW228176   1.455   4.105   3.580 -0.4650 -2.4217  1.3645
 5514SOL     OW28177   2.351   4.630   1.943 -0.6372  0.2856  1.1660
 5514SOL    HW128178   2.401   4.559   1.983  0.4880 -0.1677 -1.0205
 5514SOL    HW228179   2.266   4.615   1.985 -2.1993 -1.2570 -2.5480
 5515SOL     OW28180   3.785   2.907  16.274 -0.1027 -0.1520 -0.3258
 5515SOL    HW128181   3.871   2.947  16.270 -0.3992  0.5396  0.1856
 5515SOL    HW228182   3.765   2.883  16.183  1.1130 -0.8007 -0.4259
 5516SOL     OW28183   2.521   3.900   9.801  0.2408  0.2909 -0.5852
 5516SOL    HW128184   2.516   3.856   9.717 -0.1623 -3.4182  1.3976
 5516SOL    HW228185   2.535   3.989   9.769 -1.0308  1.0591  0.9590
 5517SOL     OW28186   2.688   4.449   3.423 -0.1676  0.1914  0.1983
 5517SOL    HW128187   2.708   4.478   3.512  1.4878 -0.7061  0.1048
 5517SOL    HW228188   2.675   4.356   3.441  1.0963  0.0597  0.3786
 5518SOL     OW28189   1.889   0.806   4.481  0.0460  0.3240  0.0828
 5518SOL    HW128190   1.950   0.813   4.554 -1.5248  3.7700  1.0804
 5518SOL    HW228191   1.840   0.726   4.500  1.3118 -0.7009 -0.9525
 5519SOL     OW28192   4.152   0.537  17.085  0.3260  0.6328  0.0955
 5519SOL    HW128193   4.068   0.491  17.083  1.1404 -0.8658  0.5401
 5519SOL    HW228194   4.147   0.599  17.158  2.0500  0.1356  0.6286
 5520SOL     OW28195   1.271   3.610   8.340  0.0707 -0.2700 -0.1476
 5520SOL    HW128196   1.191   3.629   8.292 -1.2316  1.2975  2.6613
 5520SOL    HW228197   1.237   3.607   8.430 -1.0611 -1.7048 -0.6453
 5521SOL     OW28198   0.701   3.201   6.079  0.0172 -0.0388  0.7130
 5521SOL    HW128199   0.633   3.178   6.143 -2.2449  2.0570 -0.8955
 5521SOL    HW228200   0.676   3.285   6.038  0.3595 -0.7737 -0.9831
 5522SOL     OW28201   4.468   4.056   3.988 -0.0005  0.2580 -0.0952
 5522SOL    HW128202   4.437   4.047   4.078  0.7184 -0.4773  0.0799
 5522SOL    HW228203   4.468   4.151   3.975 -0.3001  0.3348  0.4798
 5523SOL     OW28204   2.098   1.576   6.243 -0.3124 -0.2403 -0.1766
 5523SOL    HW128205   2.135   1.623   6.167  0.6419  0.5740  0.7954
 5523SOL    HW228206   2.169   1.581   6.307 -0.6007  0.8314  0.0656
 5524SOL     OW28207   3.190   2.730   0.013  0.0041 -0.2602  0.0746
 5524SOL    HW128208   3.166   2.643  17.730  0.2990 -0.2013 -0.3058
 5524SOL    HW228209   3.274   2.746  17.720  0.2064  0.9823  0.9718
 5525SOL     OW28210   2.672   1.535   6.776 -0.0501  0.2097 -0.1742
 5525SOL    HW128211   2.610   1.502   6.711  3.2268 -2.5949 -1.9173
 5525SOL    HW228212   2.749   1.486   6.746  1.2304  1.5408  0.8899
 5526SOL     OW28213   3.535   4.079   2.788 -0.4541  0.0977  0.4726
 5526SOL    HW128214   3.557   4.145   2.723  0.5724 -1.6986 -1.0220
 5526SOL    HW228215   3.572   4.125   2.863  0.0834 -1.1075  0.9572
 5527SOL     OW28216   1.357   0.286   7.310  0.4469  0.3955  0.2620
 5527SOL    HW128217   1.399   0.206   7.341 -0.0355 -0.3765 -1.0882
 5527SOL    HW228218   1.330   0.335   7.387  2.1171 -0.2999  1.2795
 5528SOL     OW28219   3.959   4.472  13.172  0.1879 -0.0497 -0.1484
 5528SOL    HW128220   4.031   4.479  13.235  2.2063  0.3640 -2.5075
 5528SOL    HW228221   4.001   4.501  13.091 -0.4823 -2.3517 -1.3198
 5529SOL     OW28222   3.398   1.491   5.625  0.6254 -0.5748 -0.4929
 5529SOL    HW128223   3.387   1.555   5.695 -0.5196 -0.6065 -0.6332
 5529SOL    HW228224   3.354   1.547   5.561 -0.1052 -1.3627 -0.6817
 5530SOL     OW28225   3.721   2.099   4.564 -0.0860  0.1162 -0.3951
 5530SOL    HW128226   3.778   2.124   4.491  2.7018  1.8492  2.3596
 5530SOL    HW228227   3.691   2.189   4.575  2.6360  0.7463  1.9941
 5531SOL     OW28228   2.260   2.272   8.649 -0.0245  0.5846  0.2557
 5531SOL    HW128229   2.269   2.303   8.559 -2.5126  1.5840  0.3560
 5531SOL    HW228230   2.165   2.270   8.656  0.0627  0.1316  1.3960
 5532SOL     OW28231   2.017   4.173  10.318  0.1772  0.3778  0.2496
 5532SOL    HW128232   1.960   4.117  10.266  0.4287  0.6896 -0.3565
 5532SOL    HW228233   2.092   4.174  10.259 -1.6230  1.7104 -2.0246
 5533SOL     OW28234   3.010   1.480   5.059  0.2922 -0.0259  0.4784
 5533SOL    HW128235   2.923   1.493   5.095 -0.5663 -2.3424 -0.7684
 5533SOL    HW228236   2.981   1.425   4.986 -0.3257 -0.7611  1.2794
 5534SOL     OW28237   0.215   1.490   4.277  0.2292 -0.8348 -0.4587
 5534SOL    HW128238   0.271   1.519   4.350  0.3080  0.4420 -1.0230
 5534SOL    HW228239   0.260   1.417   4.235  0.0006 -1.7764  0.9279
 5535SOL     OW28240   3.494   1.855   4.258  0.7147 -0.0040 -0.2201
 5535SOL    HW128241   3.457   1.852   4.170 -2.7834 -1.2838  1.2712
 5535SOL    HW228242   3.583   1.845   4.225  0.2657 -2.7546 -0.6628
 5536SOL     OW28243   4.452   3.985   4.768  0.2268 -0.7866  0.1413
 5536SOL    HW128244   4.466   3.949   4.681  1.2107  0.7743 -0.3412
 5536SOL    HW228245   4.366   3.954   4.796 -1.1216  0.4825 -2.6334
 5537SOL     OW28246   3.225   3.186  10.621 -0.2605 -0.2555  0.5209
 5537SOL    HW128247   3.306   3.200  10.571 -0.7477  0.3486 -0.1132
 5537SOL    HW228248   3.254   3.174  10.711 -0.3290  0.9129  0.7010
 5538SOL     OW28249   1.960   4.078   9.198 -0.7505 -0.7802  0.1692
 5538SOL    HW128250   2.036   4.043   9.150  0.2677  0.4506  0.8747
 5538SOL    HW228251   1.988   4.065   9.289 -1.1874 -0.6893  0.3130
 5539SOL     OW28252   1.202   1.392   9.559  0.0786 -0.0968 -0.5188
 5539SOL    HW128253   1.148   1.382   9.638 -0.1662  0.7135 -0.5826
 5539SOL    HW228254   1.291   1.407   9.591 -0.5771 -0.0094  1.2739
 5540SOL     OW28255   1.648   2.024   9.982  0.1058 -0.6810  0.1815
 5540SOL    HW128256   1.572   2.034   9.925 -0.4593 -0.1120  1.0248
 5540SOL    HW228257   1.627   1.957  10.047 -0.7150 -0.4971  0.1120
 5541SOL     OW28258   4.080   4.085   1.821 -0.2434  0.8152 -0.5377
 5541SOL    HW128259   4.013   4.145   1.787 -1.9976  0.0809  1.5644
 5541SOL    HW228260   4.030   4.031   1.882 -0.9491  1.2172 -0.7560
 5542SOL     OW28261   2.546   2.292  11.633  0.4008  0.0542 -0.0374
 5542SOL    HW128262   2.598   2.323  11.559 -0.0607  1.3097  0.1635
 5542SOL    HW228263   2.536   2.376  11.678  2.4279  1.8823 -3.0330
 5543SOL     OW28264   3.918   4.604   6.495 -0.9620 -0.6595 -0.8625
 5543SOL    HW128265   3.864   4.680   6.511  0.9575 -0.1185  3.1019
 5543SOL    HW228266   3.928   4.579   6.587 -0.8832 -1.6595 -1.1393
 5544SOL     OW28267   3.795   2.998   7.505 -0.4753  0.0379  0.0545
 5544SOL    HW128268   3.847   3.041   7.436 -0.2434 -2.4269 -1.3112
 5544SOL    HW228269   3.710   2.998   7.461  0.5145 -2.6242 -1.8821
 5545SOL     OW28270   0.053   0.725  14.265  0.0379 -0.5377  1.1943
 5545SOL    HW128271   0.049   0.634  14.237  0.7010 -0.2129  0.0718
 5545SOL    HW228272   4.710   0.756  14.223  1.4973  0.4571 -0.8132
 5546SOL     OW28273   2.967   3.951   8.860  0.1659 -0.1085  0.2428
 5546SOL    HW128274   2.956   4.026   8.802  0.2114  0.3886  0.8677
 5546SOL    HW228275   3.061   3.936   8.851  0.3774  1.7952 -0.7566
 5547SOL     OW28276   1.979   2.337  14.100 -0.1011  0.2020 -0.1761
 5547SOL    HW128277   1.923   2.410  14.074  0.2473  0.3201 -0.5989
 5547SOL    HW228278   1.928   2.260  14.074  0.4285  0.1436 -1.0417
 5548SOL     OW28279   0.582   1.945   5.957 -0.8702  0.6221  0.1378
 5548SOL    HW128280   0.669   1.964   5.924 -0.4801  0.5692  1.1343
 5548SOL    HW228281   0.526   1.958   5.880  1.0165 -1.2882 -1.5369
 5549SOL     OW28282   3.715   0.826   0.105  0.4351  0.0953  0.3564
 5549SOL    HW128283   3.650   0.756   0.102  1.5172 -0.8816 -0.1559
 5549SOL    HW228284   3.683   0.885   0.173  0.1892 -0.6849  0.9109
 5550SOL     OW28285   3.116   0.548   7.486  0.0273  0.0184  0.3923
 5550SOL    HW128286   3.186   0.549   7.551  0.8946 -2.6033 -0.4744
 5550SOL    HW228287   3.145   0.476   7.430 -1.0358 -0.7302  0.8038
 5551SOL     OW28288   0.192   2.562   6.301 -0.2398  0.0682 -0.8391
 5551SOL    HW128289   0.150   2.511   6.370 -1.1730  1.7173 -0.1847
 5551SOL    HW228290   0.214   2.644   6.345  2.9140 -2.3339  2.0512
 5552SOL     OW28291   1.905   0.080  12.821  0.3245  0.0373 -0.3390
 5552SOL    HW128292   1.979   0.041  12.773  0.6494 -0.0781  0.2517
 5552SOL    HW228293   1.932   0.171  12.816 -0.4656  0.3145  0.5551
 5553SOL     OW28294   3.138   2.720   2.741  0.0232  0.0339 -0.6428
 5553SOL    HW128295   3.140   2.651   2.806 -1.1787 -0.2584 -0.9023
 5553SOL    HW228296   3.120   2.797   2.796  0.5627 -1.3393  1.4252
 5554SOL     OW28297   1.421   3.528   4.290  0.7012 -0.0133  0.0923
 5554SOL    HW128298   1.346   3.531   4.350 -1.4728  1.2497 -2.6783
 5554SOL    HW228299   1.458   3.442   4.310  0.3401 -0.2740 -0.3661
 5555SOL     OW28300   2.445   3.779   4.239  0.3228 -0.3263 -0.0162
 5555SOL    HW128301   2.408   3.700   4.279 -0.6352  0.8488  1.4381
 5555SOL    HW228302   2.449   3.834   4.317 -0.8433 -0.2236 -0.0299
 5556SOL     OW28303   3.696   3.709  13.764  0.4402 -0.4518 -0.5464
 5556SOL    HW128304   3.680   3.616  13.750 -0.0644 -0.4277 -0.1424
 5556SOL    HW228305   3.624   3.717  13.826  1.2993 -0.6523  0.4858
 5557SOL     OW28306   0.725   3.884   3.174 -0.4389 -0.6082  0.7903
 5557SOL    HW128307   0.741   3.842   3.258  2.0537  0.0613  0.6575
 5557SOL    HW228308   0.722   3.806   3.119  1.9280  0.3778 -0.7740
 5558SOL     OW28309   1.094   1.884   5.332  0.3244  0.0958 -0.2307
 5558SOL    HW128310   1.122   1.799   5.299  0.6515 -0.2205  0.8565
 5558SOL    HW228311   1.034   1.862   5.403  1.3978 -0.9920  0.3305
 5559SOL     OW28312   2.012   3.150   5.787 -0.6300  0.0320 -0.2051
 5559SOL    HW128313   1.995   3.226   5.731  0.5025  0.7432  0.4097
 5559SOL    HW228314   1.954   3.086   5.746 -1.3290  0.3133  0.3322
 5560SOL     OW28315   3.827   4.616   1.487 -0.2572  0.3452 -0.0898
 5560SOL    HW128316   3.737   4.586   1.484 -0.1749  0.1025 -0.1250
 5560SOL    HW228317   3.860   4.580   1.570  0.4667  0.5481 -0.2895
 5561SOL     OW28318   3.620   1.078   5.003  0.2397 -0.2235  0.5197
 5561SOL    HW128319   3.695   1.126   5.037  0.4518  0.5442 -1.0312
 5561SOL    HW228320   3.636   0.988   5.032  2.3022  0.3617  1.1604
 5562SOL     OW28321   0.712   4.623  12.184  0.0467 -0.1314 -0.0540
 5562SOL    HW128322   0.724   4.541  12.136  0.5826  0.4146 -0.8503
 5562SOL    HW228323   0.766   4.606  12.261 -1.4394 -0.2481  0.9543
 5563SOL     OW28324   0.119   2.037   8.108 -0.1210  0.4507  0.0215
 5563SOL    HW128325   0.129   1.946   8.136 -1.7271 -0.4025 -2.2176
 5563SOL    HW228326   0.204   2.056   8.068 -0.3127  2.2508  0.4668
 5564SOL     OW28327   3.057   0.171  16.674 -0.9015  0.3185  0.2542
 5564SOL    HW128328   3.048   0.216  16.758  1.6233 -0.3896  0.9005
 5564SOL    HW228329   2.966   0.177  16.644 -0.7097  1.0947 -0.1755
 5565SOL     OW28330   0.011   3.883   6.851  0.4215  0.2462 -0.1252
 5565SOL    HW128331   0.025   3.789   6.845 -1.7805 -0.0576 -0.7078
 5565SOL    HW228332   4.654   3.885   6.865  0.4265 -0.8086  0.0442
 5566SOL     OW28333   0.093   2.395   0.165 -0.3297 -0.1940  0.1253
 5566SOL    HW128334   0.017   2.350   0.127  1.7255 -1.6215 -2.3017
 5566SOL    HW228335   0.109   2.348   0.246 -1.2865 -0.1356  0.3465
 5567SOL     OW28336   2.201   3.611  15.180  0.2465  0.1094  0.0177
 5567SOL    HW128337   2.160   3.694  15.153 -0.7740  0.1483  1.6958
 5567SOL    HW228338   2.219   3.618  15.274 -1.0318  0.7752  0.2166
 5568SOL     OW28339   1.233   1.143   9.341 -0.3263  0.1542  0.1806
 5568SOL    HW128340   1.277   1.059   9.355  0.8886  0.9362  1.1197
 5568SOL    HW228341   1.246   1.176   9.430  0.7590 -0.2592  0.1719
 5569SOL     OW28342   1.438   4.299  17.204 -0.2837  0.0587  0.0616
 5569SOL    HW128343   1.377   4.367  17.176 -1.1217 -0.9980 -0.6917
 5569SOL    HW228344   1.382   4.248  17.263 -0.8834 -0.6667 -1.1386
 5570SOL     OW28345   0.176   0.159   2.925 -0.2587  0.5968 -0.2669
 5570SOL    HW128346   0.197   0.135   2.835 -0.4477  0.9993 -0.4196
 5570SOL    HW228347   0.263   0.149   2.963 -0.5138  1.4516  0.5558
 5571SOL     OW28348   3.399   0.270   5.602 -0.1303 -0.1450 -0.7104
 5571SOL    HW128349   3.339   0.196   5.614  0.4655 -0.7072 -1.2397
 5571SOL    HW228350   3.360   0.313   5.527 -0.8566 -2.2715 -1.5523
 5572SOL     OW28351   0.564   1.885  12.618  0.3254  0.2265  0.1923
 5572SOL    HW128352   0.601   1.869  12.531 -1.8738 -0.1776 -0.6613
 5572SOL    HW228353   0.628   1.943  12.658  0.3319  1.1914 -1.2440
 5573SOL     OW28354   3.939   4.188   1.125  0.1745  0.1756 -0.1734
 5573SOL    HW128355   3.862   4.226   1.084  0.0354 -1.6609 -1.6130
 5573SOL    HW228356   3.903   4.105   1.155  1.7507 -0.2121  0.6585
 5574SOL     OW28357   2.571   3.803   8.269 -0.0928  0.0148 -0.3098
 5574SOL    HW128358   2.631   3.738   8.233  2.5790  0.6018  3.1583
 5574SOL    HW228359   2.631   3.874   8.295 -2.4422  1.7169  0.4409
 5575SOL     OW28360   2.310   1.127   2.263  0.4645 -0.3353 -0.0726
 5575SOL    HW128361   2.315   1.220   2.285  0.2823 -0.1450 -0.8345
 5575SOL    HW228362   2.399   1.107   2.234  0.9019  0.5233  0.6610
 5576SOL     OW28363   3.156   4.409  11.203 -0.1164 -0.3520  0.2966
 5576SOL    HW128364   3.224   4.477  11.207 -1.1163  0.5580  1.8405
 5576SOL    HW228365   3.078   4.464  11.202  0.0357 -0.1672 -1.5898
 5577SOL     OW28366   0.967   3.870  17.493  0.1015  0.0501  0.5948
 5577SOL    HW128367   1.046   3.888  17.545  0.6365  1.5241 -0.7344
 5577SOL    HW228368   1.007   3.853  17.408  2.3485 -0.9989  1.8470
 5578SOL     OW28369   2.484   0.191   6.383  0.0689 -0.4569 -0.2994
 5578SOL    HW128370   2.536   0.267   6.355  0.5431 -0.6371  0.0877
 5578SOL    HW228371   2.555   0.136   6.416 -0.5475 -0.6557  0.7106
 5579SOL     OW28372   1.064   2.660   4.827 -0.5205  0.3641  0.6199
 5579SOL    HW128373   1.078   2.623   4.740 -0.6287  0.9362  0.3577
 5579SOL    HW228374   0.983   2.614   4.847  0.8505 -1.3808  2.1545
 5580SOL     OW28375   0.545   0.012   2.695  0.7617 -0.3260  0.0983
 5580SOL    HW128376   0.606   4.721   2.627  1.1247  1.7596 -0.4335
 5580SOL    HW228377   0.569   4.678   2.755  1.5153 -0.2898 -0.1557
 5581SOL     OW28378   3.906   1.777   6.443 -0.8794 -0.1560 -0.6439
 5581SOL    HW128379   3.922   1.730   6.362  0.7778  0.1269 -0.4914
 5581SOL    HW228380   3.863   1.707   6.493 -2.2346  0.4396 -0.9923
 5582SOL     OW28381   3.464   2.261   3.647  0.2425  0.1321 -0.2993
 5582SOL    HW128382   3.378   2.250   3.606 -0.9023  2.8455  1.3443
 5582SOL    HW228383   3.451   2.297   3.735  0.0360  0.8353 -0.6168
 5583SOL     OW28384   2.646   4.030   7.876 -1.0475 -0.4861 -0.0290
 5583SOL    HW128385   2.691   3.966   7.822  1.0307  0.4777  0.5701
 5583SOL    HW228386   2.596   3.973   7.935 -0.5150 -1.6035 -0.6798
 5584SOL     OW28387   1.325   3.335  14.480  0.3718  0.6748  0.1347
 5584SOL    HW128388   1.321   3.424  14.515  1.0159  0.3020  1.1624
 5584SOL    HW228389   1.299   3.347  14.388 -0.8671 -0.0866  0.3857
 5585SOL     OW28390   3.065   2.181   6.597  0.2699  0.0549  0.0261
 5585SOL    HW128391   3.030   2.249   6.541  1.0584 -0.3826 -0.9983
 5585SOL    HW228392   3.154   2.165   6.567  1.6472  2.3378  2.8499
 5586SOL     OW28393   0.985   1.786   8.046 -0.0760  0.9086 -0.2950
 5586SOL    HW128394   0.956   1.824   8.129 -0.0274 -1.6477  0.8638
 5586SOL    HW228395   1.014   1.701   8.080  0.6112  1.9883  1.8295
 5587SOL     OW28396   4.606   0.340   0.936  0.0450  0.2713  0.1140
 5587SOL    HW128397   4.648   0.333   0.850  1.5083  1.5839  0.7207
 5587SOL    HW228398   4.660   0.280   0.987 -0.0894  2.4756  2.8485
 5588SOL     OW28399   0.097   2.297   3.050  0.0262  0.4832 -0.0269
 5588SOL    HW128400   0.008   2.292   3.083 -0.4392  1.5968 -1.1286
 5588SOL    HW228401   0.097   2.210   3.011  0.2944  0.1301  0.7535
 5589SOL     OW28402   3.895   1.968   2.146  0.0083  0.0725  0.1856
 5589SOL    HW128403   3.813   2.014   2.157 -0.6388 -1.2698  1.0227
 5589SOL    HW228404   3.927   2.019   2.071 -1.5114 -0.5903 -0.9191
 5590SOL     OW28405   3.135   4.553   2.593 -0.2634 -0.4477  0.0256
 5590SOL    HW128406   3.091   4.580   2.674  0.0592 -1.1647  0.4359
 5590SOL    HW228407   3.102   4.464   2.580  0.7388 -1.2613  2.9731
 5591SOL     OW28408   0.899   1.399   3.118 -0.8414 -0.0898  0.6575
 5591SOL    HW128409   0.873   1.398   3.025 -1.1550 -0.0347  0.7445
 5591SOL    HW228410   0.989   1.433   3.118 -0.6534 -0.5413 -1.8438
 5592SOL     OW28411   4.370   1.224  15.364  0.6511 -0.3188 -0.3132
 5592SOL    HW128412   4.320   1.195  15.440  0.4338 -1.8720 -1.0546
 5592SOL    HW228413   4.398   1.140  15.328  1.5723  1.2562 -3.2784
 5593SOL     OW28414   2.556   4.054  11.657  0.2266  0.5342 -0.0886
 5593SOL    HW128415   2.543   4.146  11.636  1.4680  0.5976 -0.5866
 5593SOL    HW228416   2.584   4.061  11.748  1.3857 -0.7454 -0.3460
 5594SOL     OW28417   2.599   1.838  10.557  0.3502  0.4697  0.3180
 5594SOL    HW128418   2.639   1.916  10.518  0.2269  0.1562 -0.4295
 5594SOL    HW228419   2.541   1.804  10.489  0.0463  0.8904  0.3621
 5595SOL     OW28420   2.597   3.099   5.339  0.0263  0.2907  0.2335
 5595SOL    HW128421   2.592   3.006   5.361  1.5792  0.1691  0.0541
 5595SOL    HW228422   2.668   3.100   5.276  0.4346  1.0665  0.7068
 5596SOL     OW28423   4.464   3.351  10.480 -0.0271  0.5312  0.0089
 5596SOL    HW128424   4.406   3.412  10.434 -0.1170 -0.8072 -1.6626
 5596SOL    HW228425   4.419   3.269  10.458  0.4940  0.2674 -0.0888
 5597SOL     OW28426   2.678   1.484  16.620  0.0872 -0.3488 -0.0626
 5597SOL    HW128427   2.761   1.447  16.592  0.2799 -0.0229  0.0866
 5597SOL    HW228428   2.698   1.520  16.706 -0.0609  0.4741 -0.3691
 5598SOL     OW28429   4.387   3.687  10.817  0.1533 -0.0781 -0.1622
 5598SOL    HW128430   4.460   3.691  10.756 -0.5739  0.7285 -0.9799
 5598SOL    HW228431   4.312   3.671  10.760 -0.4370 -1.5863  1.0180
 5599SOL     OW28432   1.986   3.296   8.473  0.0910  0.4812  0.1906
 5599SOL    HW128433   2.000   3.373   8.418  0.1022 -0.0804 -0.5819
 5599SOL    HW228434   1.983   3.343   8.557  0.1025  0.5885  0.1316
 5600SOL     OW28435   2.615   2.798   4.131  0.1302  0.2888 -0.0788
 5600SOL    HW128436   2.589   2.706   4.132 -0.3397  0.4229 -0.0138
 5600SOL    HW228437   2.698   2.786   4.084 -0.0968  0.9558 -0.6456
 5601SOL     OW28438   0.423   1.033   5.807  0.5751 -0.3333  0.2686
 5601SOL    HW128439   0.480   1.042   5.731  2.4207 -1.2863  1.5437
 5601SOL    HW228440   0.415   0.938   5.816 -1.9114 -0.1249  0.2590
 5602SOL     OW28441   2.730   2.284   8.223 -0.2751  0.2547  0.0308
 5602SOL    HW128442   2.782   2.205   8.206  0.5079  0.8886 -0.4713
 5602SOL    HW228443   2.684   2.297   8.140  1.7171  2.5461 -0.6932
 5603SOL     OW28444   2.270   1.360   7.119 -0.7851  0.1111  0.2153
 5603SOL    HW128445   2.343   1.399   7.072 -0.0575 -0.5535  0.7865
 5603SOL    HW228446   2.222   1.430   7.162 -2.1952  0.3393 -1.7064
 5604SOL     OW28447   3.017   0.628  15.917  0.2735  0.5173  0.0042
 5604SOL    HW128448   2.982   0.653  16.002 -0.4340 -0.4937  0.0024
 5604SOL    HW228449   3.086   0.573  15.953 -1.0250 -1.5887 -0.7313
 5605SOL     OW28450   3.119   2.723  10.089 -0.0276 -0.1716  0.4232
 5605SOL    HW128451   3.108   2.713  10.183 -0.5646  1.3868  0.5299
 5605SOL    HW228452   3.206   2.764  10.088 -0.3801  0.5669 -0.1141
 5606SOL     OW28453   3.521   0.339   9.663 -0.3984  0.4050  0.0365
 5606SOL    HW128454   3.601   0.379   9.630  1.8424 -2.0013  2.5271
 5606SOL    HW228455   3.457   0.387   9.611 -0.6924  0.0627  0.0824
 5607SOL     OW28456   3.691   1.287   8.167  0.0078 -0.2773  0.0075
 5607SOL    HW128457   3.735   1.371   8.154 -1.8421  0.3318 -2.2389
 5607SOL    HW228458   3.621   1.300   8.103 -0.0084  1.8194  0.4452
 5608SOL     OW28459   3.557   4.204   5.281  0.0622  0.2985  0.7120
 5608SOL    HW128460   3.573   4.273   5.345  0.1255  1.4475 -0.5662
 5608SOL    HW228461   3.512   4.140   5.337  1.0279 -0.1596  0.9737
 5609SOL     OW28462   1.053   0.284   7.038  0.2397  0.0396  0.5442
 5609SOL    HW128463   1.031   0.266   6.947  0.8993  2.4850 -0.1096
 5609SOL    HW228464   1.146   0.296   7.020 -0.2406  4.5424  0.9889
 5610SOL     OW28465   1.424   3.281  13.778  0.1836 -0.4456  0.0060
 5610SOL    HW128466   1.398   3.202  13.825 -0.9560 -1.3625 -2.1978
 5610SOL    HW228467   1.341   3.328  13.782  0.3181 -0.3228  1.4215
 5611SOL     OW28468   1.717   0.818   6.639 -0.1743  0.5846  0.0854
 5611SOL    HW128469   1.727   0.911   6.622 -4.5932  0.6651 -2.0320
 5611SOL    HW228470   1.623   0.800   6.644 -0.6318  2.8722 -0.5068
 5612SOL     OW28471   1.744   2.650   3.954 -0.5215 -0.5661  0.2137
 5612SOL    HW128472   1.667   2.689   3.913  1.7169  2.5324 -0.9766
 5612SOL    HW228473   1.722   2.557   3.955  0.4949 -0.8101 -0.4263
 5613SOL     OW28474   2.177   3.946   3.346 -0.1608  0.3429  0.2079
 5613SOL    HW128475   2.214   3.872   3.299 -0.1099  0.5644 -0.0988
 5613SOL    HW228476   2.231   4.015   3.308  0.8267  0.3807  1.6632
 5614SOL     OW28477   4.423   3.202   1.544 -0.2912 -0.1296 -0.0209
 5614SOL    HW128478   4.399   3.152   1.622  1.2927 -0.9091 -0.0370
 5614SOL    HW228479   4.460   3.284   1.578 -2.8681  0.8998  0.3581
 5615SOL     OW28480   4.089   2.279   2.111  0.2549  0.2754  0.8031
 5615SOL    HW128481   4.180   2.252   2.098 -0.0204 -0.7183  0.9357
 5615SOL    HW228482   4.042   2.217   2.055  0.3269 -0.7738  1.8941
 5616SOL     OW28483   4.730   1.802   9.518 -0.2697  0.1720  0.0059
 5616SOL    HW128484   4.689   1.866   9.576  0.0002  1.7226 -1.5230
 5616SOL    HW228485   4.682   1.823   9.438 -0.4031 -1.7571 -0.4248
 5617SOL     OW28486   1.280   1.488   6.344  0.6497 -0.2115  0.3193
 5617SOL    HW128487   1.371   1.508   6.325  0.3352 -0.3526 -1.3548
 5617SOL    HW228488   1.253   1.431   6.271 -0.8015  3.2034 -1.8077
 5618SOL     OW28489   2.774   1.644  12.333 -0.0188 -0.2634  0.4182
 5618SOL    HW128490   2.814   1.728  12.357  0.7928 -0.1934 -1.2555
 5618SOL    HW228491   2.846   1.582  12.347  0.6665  0.3191 -0.5602
 5619SOL     OW28492   1.311   2.240   6.757  0.7922  0.4809 -0.0312
 5619SOL    HW128493   1.238   2.239   6.695  0.5326  2.8095  0.2137
 5619SOL    HW228494   1.262   2.213   6.835  2.4381 -2.4863 -0.0142
 5620SOL     OW28495   2.827   4.685   8.078  0.0833  0.5136 -0.4106
 5620SOL    HW128496   2.825   4.641   8.163 -0.3893  2.2320  0.4658
 5620SOL    HW228497   2.895   4.631   8.038 -1.7649 -2.2721  0.1831
 5621SOL     OW28498   3.748   0.213   2.863 -0.0026 -0.3591 -0.1355
 5621SOL    HW128499   3.762   0.224   2.957  1.8974 -2.4736 -0.1754
 5621SOL    HW228500   3.687   0.140   2.873  0.0349 -0.2712  0.8229
 5622SOL     OW28501   3.679   0.877   2.956  0.1350  0.4237  0.5193
 5622SOL    HW128502   3.613   0.892   2.888  0.9848 -0.8159 -0.5580
 5622SOL    HW228503   3.631   0.823   3.019 -0.7130  0.5001 -0.0559
 5623SOL     OW28504   2.026   3.418   7.508 -0.8516 -0.0705 -0.0285
 5623SOL    HW128505   1.941   3.408   7.549 -0.8076 -0.5641 -0.0644
 5623SOL    HW228506   2.002   3.495   7.455 -1.0112  0.6022  1.0237
 5624SOL     OW28507   0.194   3.199  17.368  0.2656 -0.1675 -0.4874
 5624SOL    HW128508   0.239   3.186  17.452 -0.2719  0.3097 -0.1178
 5624SOL    HW228509   0.215   3.122  17.317  0.6455 -0.5427  0.2301
 5625SOL     OW28510   1.746   4.378   5.120 -0.2887 -0.1267  0.1237
 5625SOL    HW128511   1.793   4.412   5.197 -2.2592 -0.0273  1.2806
 5625SOL    HW228512   1.802   4.405   5.048 -0.3310  2.1816  0.9379
 5626SOL     OW28513   3.787   0.938   3.597  0.0332  0.3026  0.3659
 5626SOL    HW128514   3.710   0.896   3.634 -0.0929 -1.4173 -1.8447
 5626SOL    HW228515   3.850   0.920   3.668 -0.5443  0.6515  0.9662
 5627SOL     OW28516   2.011   0.191   2.547  0.6751  0.4514 -0.2562
 5627SOL    HW128517   2.099   0.197   2.510 -0.6849 -2.7368 -4.0422
 5627SOL    HW228518   2.037   0.143   2.626  1.1990  1.3141  0.0952
 5628SOL     OW28519   2.972   3.733  11.504 -0.2881 -0.8359  0.5209
 5628SOL    HW128520   3.031   3.765  11.436 -1.4778  1.9705  0.8071
 5628SOL    HW228521   2.931   3.815  11.532 -2.6126 -1.4010 -1.2297
 5629SOL     OW28522   4.412   3.855   1.613 -0.8463  0.4883  0.1397
 5629SOL    HW128523   4.435   3.798   1.686  3.1860  2.3479  0.3293
 5629SOL    HW228524   4.494   3.904   1.621 -1.1802  1.2514 -1.0813
 5630SOL     OW28525   2.451   2.721   3.804 -0.2778  0.9893 -0.0624
 5630SOL    HW128526   2.511   2.661   3.760 -3.1853 -0.7652 -1.5868
 5630SOL    HW228527   2.386   2.673   3.855  1.5711 -0.7650  0.6815
 5631SOL     OW28528   3.579   1.022  11.164  0.1307  0.4182  0.0521
 5631SOL    HW128529   3.520   1.094  11.184 -1.4786 -0.1829 -2.4188
 5631SOL    HW228530   3.648   1.071  11.118  1.4079 -0.3861  1.1138
 5632SOL     OW28531   1.551   3.671  10.281 -0.3492  0.1079 -0.2118
 5632SOL    HW128532   1.647   3.672  10.286 -0.3399  0.9894 -0.6862
 5632SOL    HW228533   1.523   3.638  10.366  4.2611  1.1173  1.7092
 5633SOL     OW28534   2.848   4.577   0.423 -0.4254  0.1679  0.1185
 5633SOL    HW128535   2.802   4.514   0.367  0.8571  0.8964 -1.7264
 5633SOL    HW228536   2.929   4.526   0.429  0.1858  1.1533  0.1111
 5634SOL     OW28537   3.210   0.363  15.109  0.1562  0.2604 -0.1788
 5634SOL    HW128538   3.208   0.450  15.069 -0.6712  0.8275  1.0857
 5634SOL    HW228539   3.145   0.308  15.066  0.8115 -0.4194 -0.3068
 5635SOL     OW28540   4.559   3.405   1.685 -0.2883 -0.7603 -0.0494
 5635SOL    HW128541   4.623   3.414   1.756 -1.0290  0.5559  0.4477
 5635SOL    HW228542   4.615   3.406   1.607 -0.8657  3.1730 -0.4452
 5636SOL     OW28543   2.153   2.119   6.978  0.2920  0.1143 -0.4201
 5636SOL    HW128544   2.069   2.141   6.937 -0.5229 -2.2271  0.0112
 5636SOL    HW228545   2.214   2.145   6.909  2.2045 -1.8672  0.5286
 5637SOL     OW28546   1.056   3.349  13.018 -0.1072 -0.2780 -0.2591
 5637SOL    HW128547   0.978   3.404  13.027  0.2019  0.0177  0.6836
 5637SOL    HW228548   1.043   3.309  12.933  0.8707 -1.9912  0.3868
 5638SOL     OW28549   2.279   3.095   5.834 -0.1822 -0.3716 -0.5742
 5638SOL    HW128550   2.193   3.123   5.803 -1.6432 -0.5806  3.2824
 5638SOL    HW228551   2.269   3.000   5.826  1.1858 -0.5131 -0.5244
 5639SOL     OW28552   1.351   3.972   5.388  0.3963  0.3169 -0.3095
 5639SOL    HW128553   1.279   4.004   5.334  0.7548  1.7068  0.0505
 5639SOL    HW228554   1.354   4.038   5.457  2.5591  1.4485 -1.4538
 5640SOL     OW28555   3.850   2.772  11.257 -0.1637 -0.3627 -0.0444
 5640SOL    HW128556   3.803   2.689  11.265 -0.1892 -0.2518  0.9209
 5640SOL    HW228557   3.803   2.830  11.317 -1.8128 -0.5496 -1.1618
 5641SOL     OW28558   0.372   1.416   1.950 -0.0926  0.0636 -0.5357
 5641SOL    HW128559   0.287   1.394   1.988 -0.9992  1.1888 -1.9005
 5641SOL    HW228560   0.418   1.451   2.026  0.0797 -1.4874  0.0789
 5642SOL     OW28561   3.034   4.532   2.884  0.5853  0.3264  0.0571
 5642SOL    HW128562   3.031   4.601   2.950 -0.4678  0.8602 -0.5450
 5642SOL    HW228563   2.979   4.467   2.926 -1.1599  1.2823 -0.7363
 5643SOL     OW28564   1.126   0.920   8.957  0.2562  0.0686  0.2511
 5643SOL    HW128565   1.069   0.946   9.030 -1.1256  0.2125 -0.8730
 5643SOL    HW228566   1.173   0.848   8.999 -0.7419 -0.9889 -0.4753
 5644SOL     OW28567   1.225   3.771   3.409  0.7325  0.2318  0.4834
 5644SOL    HW128568   1.134   3.778   3.439  0.1816  0.3338 -1.2208
 5644SOL    HW228569   1.223   3.777   3.313 -1.8976  0.8460  0.5824
 5645SOL     OW28570   0.911   0.368   5.336  0.0072 -0.3499  0.4839
 5645SOL    HW128571   0.946   0.376   5.247  1.6559 -1.6419  1.0382
 5645SOL    HW228572   0.908   0.460   5.364  3.2353 -1.0321  3.0214
 5646SOL     OW28573   1.085   4.094   8.661  0.0018  0.3393  0.6641
 5646SOL    HW128574   1.131   4.009   8.660 -0.7995 -0.1023  1.1379
 5646SOL    HW228575   1.078   4.128   8.572 -4.0829 -1.8303  0.1542
 5647SOL     OW28576   2.917   0.950  13.860 -0.4077  0.4950  0.4446
 5647SOL    HW128577   2.963   1.033  13.844  1.2743 -0.3516  0.8454
 5647SOL    HW228578   2.852   0.975  13.925 -0.9038 -0.3830  0.2796
 5648SOL     OW28579   3.790   1.567   6.586  0.0583  0.2316  0.0983
 5648SOL    HW128580   3.777   1.475   6.563  1.4988  0.1295 -0.3334
 5648SOL    HW228581   3.766   1.573   6.678  0.0779  1.9972  0.0059
 5649SOL     OW28582   2.113   2.446   4.094  0.5636  0.0202 -0.5999
 5649SOL    HW128583   2.045   2.503   4.129  1.0851  0.3696 -0.1492
 5649SOL    HW228584   2.166   2.442   4.174  0.1489 -1.1686 -0.3789
 5650SOL     OW28585   2.104   3.862   6.790 -0.7475  0.0140  0.1090
 5650SOL    HW128586   2.131   3.850   6.699 -2.6639  2.1207 -0.7325
 5650SOL    HW228587   2.106   3.770   6.817  3.7053  0.0806 -0.0225
 5651SOL     OW28588   2.406   1.545   6.974 -0.1653 -0.1863 -0.4030
 5651SOL    HW128589   2.363   1.599   6.907 -1.3416 -1.1850 -0.4413
 5651SOL    HW228590   2.473   1.503   6.920 -1.2968  0.7487 -2.5569
 5652SOL     OW28591   2.208   3.045  10.775 -0.0318 -0.0997  0.8016
 5652SOL    HW128592   2.183   2.981  10.842  0.5079 -1.5459 -0.3887
 5652SOL    HW228593   2.301   3.057  10.796  0.2935 -0.1179 -0.6283
 5653SOL     OW28594   0.184   3.478   8.691 -0.8701 -0.1814 -0.3395
 5653SOL    HW128595   0.237   3.400   8.703 -0.8204 -0.2156 -0.8065
 5653SOL    HW228596   0.097   3.445   8.669 -1.6045  1.6911 -0.2485
 5654SOL     OW28597   1.347   0.992  12.692  0.5192 -0.0544  0.2159
 5654SOL    HW128598   1.374   0.970  12.782  0.2401  0.9411  0.5413
 5654SOL    HW228599   1.360   1.087  12.689  1.3019 -0.1353  1.0062
 5655SOL     OW28600   4.476   2.838  13.119  0.3354  0.1553 -0.2144
 5655SOL    HW128601   4.547   2.877  13.068 -2.7562  2.3493 -2.8584
 5655SOL    HW228602   4.511   2.824  13.206 -2.3921  0.0270  0.8584
 5656SOL     OW28603   4.303   2.424   5.115 -0.2851 -0.3147 -0.2680
 5656SOL    HW128604   4.255   2.499   5.149 -0.5846 -0.3632 -0.5955
 5656SOL    HW228605   4.245   2.350   5.130 -0.1098 -0.6816 -1.3985
 5657SOL     OW28606   1.928   0.241  17.626  0.4476 -0.0066 -0.2778
 5657SOL    HW128607   1.887   0.155  17.628  2.1825 -0.8613 -0.8147
 5657SOL    HW228608   2.019   0.211  17.620  0.8611  1.3013 -0.6736
 5658SOL     OW28609   3.739   2.011   4.811  0.0382  0.6513 -0.6279
 5658SOL    HW128610   3.716   2.029   4.720 -1.3085 -1.1876 -0.6483
 5658SOL    HW228611   3.722   2.096   4.852 -0.3339  0.8904 -1.2779
 5659SOL     OW28612   3.451   0.400   7.221 -0.0196 -0.3767  0.1107
 5659SOL    HW128613   3.355   0.405   7.224  0.0446 -0.3566  2.5160
 5659SOL    HW228614   3.477   0.346   7.296 -2.1909 -0.5629  0.7511
 5660SOL     OW28615   2.728   0.416   5.878  0.5260  0.2431  0.2064
 5660SOL    HW128616   2.763   0.398   5.965  0.1797 -2.9107 -0.2845
 5660SOL    HW228617   2.743   0.337   5.826 -1.3059  0.2955 -0.4204
 5661SOL     OW28618   2.990   0.230   7.814  0.8253  0.1622 -0.5814
 5661SOL    HW128619   3.001   0.241   7.720 -0.4176  0.1307 -0.7197
 5661SOL    HW228620   2.976   0.318   7.847 -1.9124 -0.6838  0.4923
 5662SOL     OW28621   0.913   4.582   4.638  0.2619  0.2077 -0.0019
 5662SOL    HW128622   0.844   4.603   4.575  2.1478  4.9382 -0.4748
 5662SOL    HW228623   0.990   4.569   4.583 -1.0144 -0.0812 -1.6970
 5663SOL     OW28624   0.480   3.664   2.283  0.5473 -0.6406 -0.4988
 5663SOL    HW128625   0.427   3.583   2.286 -0.0306 -0.1844  1.2046
 5663SOL    HW228626   0.466   3.678   2.189  3.2460 -1.3419 -0.9941
 5664SOL     OW28627   2.641   1.153   6.792  0.0157 -0.1887  0.0107
 5664SOL    HW128628   2.650   1.179   6.883 -1.4315 -0.2834  0.1901
 5664SOL    HW228629   2.689   1.226   6.753 -0.9801  1.1320  1.2851
 5665SOL     OW28630   4.255   2.806   2.800 -0.0452 -0.3439  0.3373
 5665SOL    HW128631   4.292   2.732   2.751 -1.0952  0.5966 -1.8656
 5665SOL    HW228632   4.233   2.862   2.726  1.5021  2.1257  1.7863
 5666SOL     OW28633   1.828   2.339  16.908  0.2769 -0.1331  0.3802
 5666SOL    HW128634   1.869   2.413  16.863 -2.1375  0.6200 -0.6076
 5666SOL    HW228635   1.875   2.268  16.864 -1.1096 -0.9769  0.2460
 5667SOL     OW28636   1.363   4.620   7.251  0.4058  0.2985 -0.3354
 5667SOL    HW128637   1.283   4.646   7.296 -0.1581  0.3875 -1.3960
 5667SOL    HW228638   1.431   4.662   7.304  1.8191  0.8696 -2.6222
 5668SOL     OW28639   0.581   0.043   7.462 -0.6586  0.2815 -0.6341
 5668SOL    HW128640   0.527   0.112   7.421 -0.6986 -0.3545 -1.6630
 5668SOL    HW228641   0.649   0.034   7.395  0.1593  2.7862 -0.1308
 5669SOL     OW28642   3.952   2.461   2.952 -0.0623 -0.3768  0.2049
 5669SOL    HW128643   3.996   2.540   2.983 -0.6102  0.2335 -0.5359
 5669SOL    HW228644   3.928   2.486   2.862  1.7942  0.9225  0.0898
 5670SOL     OW28645   2.323   2.034   4.701 -0.0290 -0.2856  0.0525
 5670SOL    HW128646   2.238   2.060   4.735  0.8799  0.5686  1.6413
 5670SOL    HW228647   2.329   1.940   4.719 -0.9177  0.2053  2.8954
 5671SOL     OW28648   2.953   3.159  10.539  0.0610 -0.2724  0.2658
 5671SOL    HW128649   2.974   3.192  10.451  1.3435 -0.8120  0.3604
 5671SOL    HW228650   3.026   3.195  10.589 -1.6702  0.1995  2.4205
 5672SOL     OW28651   3.526   4.469  17.031  0.0476 -0.0809 -0.8553
 5672SOL    HW128652   3.568   4.555  17.029  0.6696 -0.3532  0.5047
 5672SOL    HW228653   3.539   4.442  16.940  2.7953 -0.5489 -0.3324
 5673SOL     OW28654   2.239   2.680   9.845 -0.3655  0.0483 -0.4261
 5673SOL    HW128655   2.236   2.699   9.939 -1.8040 -3.3513  0.2171
 5673SOL    HW228656   2.315   2.733   9.822 -1.9098  2.5923  0.4086
 5674SOL     OW28657   3.235   0.608   5.625 -0.5482 -0.0539 -0.2229
 5674SOL    HW128658   3.250   0.567   5.711 -2.2934 -0.8299 -0.2995
 5674SOL    HW228659   3.189   0.688   5.648  0.2448  0.6092 -0.9240
 5675SOL     OW28660   2.496   1.103   2.912 -0.4802  0.6304  0.6707
 5675SOL    HW128661   2.488   1.020   2.959  0.2210 -0.7870 -1.7192
 5675SOL    HW228662   2.512   1.077   2.821 -2.7966  0.2791  0.3604
 5676SOL     OW28663   2.077   0.561  16.929 -0.2467 -0.1517 -0.2598
 5676SOL    HW128664   2.045   0.574  17.019  2.4620  1.2835  0.5000
 5676SOL    HW228665   2.130   0.483  16.944 -1.1387 -0.1308  3.0541
 5677SOL     OW28666   1.218   3.800   9.850 -0.0682  0.7912 -0.1567
 5677SOL    HW128667   1.263   3.780   9.768 -0.8448  0.8302 -0.5893
 5677SOL    HW228668   1.252   3.725   9.899 -2.9944  0.4941  1.4632
 5678SOL     OW28669   2.979   4.606  11.207  0.1130  0.1744 -0.0196
 5678SOL    HW128670   2.888   4.597  11.235 -0.6756  3.6716 -1.3953
 5678SOL    HW228671   2.968   4.684  11.151 -0.5293 -0.0321 -0.1847
 5679SOL     OW28672   3.472   3.405   6.736 -0.2094 -0.1062 -0.3162
 5679SOL    HW128673   3.404   3.463   6.771 -1.3080 -2.2411  1.0503
 5679SOL    HW228674   3.474   3.332   6.798 -0.0980  0.2606  0.1122
 5680SOL     OW28675   2.806   1.586   8.593 -0.8186  0.1194  0.3114
 5680SOL    HW128676   2.804   1.663   8.650 -0.7434  0.8944 -0.7133
 5680SOL    HW228677   2.733   1.607   8.535 -1.2615  1.0106  1.1872
 5681SOL     OW28678   4.194   3.620   9.149  0.2479  0.6960  0.2695
 5681SOL    HW128679   4.207   3.708   9.184 -0.6362  2.0153 -2.7186
 5681SOL    HW228680   4.213   3.644   9.058 -1.0903 -0.2711 -0.2683
 5682SOL     OW28681   4.504   3.981   7.258 -0.1421 -0.3570 -0.3699
 5682SOL    HW128682   4.459   4.013   7.337 -0.5384 -0.3704 -0.5898
 5682SOL    HW228683   4.548   3.907   7.300  1.0138  1.8303  2.2839
 5683SOL     OW28684   2.348   2.375   8.418  0.0354 -0.6049  0.2071
 5683SOL    HW128685   2.338   2.449   8.477 -2.6085  0.1032 -1.1539
 5683SOL    HW228686   2.434   2.341   8.444  0.2510 -0.1158  0.1440
 5684SOL     OW28687   2.861   2.535   5.521  0.1674 -0.5616  0.0615
 5684SOL    HW128688   2.863   2.569   5.432 -0.5947 -4.1270 -1.3241
 5684SOL    HW228689   2.944   2.567   5.556  0.7466  0.3920 -2.2053
 5685SOL     OW28690   2.957   4.695  15.657  0.2870  0.2804 -0.2894
 5685SOL    HW128691   3.049   4.719  15.652  0.5580 -0.3179  1.8238
 5685SOL    HW228692   2.917   0.045  15.658  0.2133  0.2458 -0.2534
 5686SOL     OW28693   3.755   0.567   2.074  0.4846  0.2306  0.1459
 5686SOL    HW128694   3.808   0.488   2.058  0.2345  0.2062 -0.5329
 5686SOL    HW228695   3.669   0.527   2.088  1.6031 -2.4692 -0.6952
 5687SOL     OW28696   3.197   4.725   8.608 -0.1636  0.5277  0.2888
 5687SOL    HW128697   3.184   0.076   8.641  0.8895  1.0726 -0.7925
 5687SOL    HW228698   3.124   4.684   8.656  0.2750 -1.1473 -0.4525
 5688SOL     OW28699   0.102   2.720   6.091 -0.1092 -0.3035 -0.6361
 5688SOL    HW128700   0.128   2.652   6.154  0.7652  1.4619  0.9140
 5688SOL    HW228701   0.191   2.731   6.058 -0.4971  0.9309 -1.2616
 5689SOL     OW28702   1.228   4.446   6.457  0.2750 -0.6434 -0.0727
 5689SOL    HW128703   1.321   4.451   6.436  0.4225  0.8390  0.9162
 5689SOL    HW228704   1.232   4.352   6.477  0.2600 -0.4909  0.6644
 5690SOL     OW28705   2.754   3.780   6.279  0.2781 -0.3453 -0.3230
 5690SOL    HW128706   2.763   3.856   6.337  1.8481 -1.0074  0.3103
 5690SOL    HW228707   2.840   3.775   6.237 -0.4071  1.0690 -1.8976
 5691SOL     OW28708   3.682   4.627   4.514  0.3665  0.4166  0.3813
 5691SOL    HW128709   3.626   4.679   4.457  1.0038  1.0974  0.3811
 5691SOL    HW228710   3.756   4.602   4.458 -0.9424 -2.7101  0.0045
 5692SOL     OW28711   3.177   2.322  12.165  0.3486 -0.6400  0.4402
 5692SOL    HW128712   3.211   2.240  12.200 -2.3673 -1.1675  1.8826
 5692SOL    HW228713   3.260   2.366  12.146  0.4829 -1.3216 -0.5306
 5693SOL     OW28714   1.229   1.758  10.812  0.3727  0.1952 -0.7104
 5693SOL    HW128715   1.184   1.833  10.772 -0.2661  0.2324  0.0811
 5693SOL    HW228716   1.172   1.687  10.783  0.0110 -0.1891  1.0016
 5694SOL     OW28717   2.116   2.760   4.211  0.1617  0.0662 -0.6914
 5694SOL    HW128718   2.074   2.690   4.262 -0.3620  0.2376 -0.8818
 5694SOL    HW228719   2.200   2.766   4.256  0.4805 -1.4702 -1.1003
 5695SOL     OW28720   3.065   3.846   6.126  0.3702  0.5259 -0.4823
 5695SOL    HW128721   3.078   3.807   6.213  0.3053  0.9693 -0.2740
 5695SOL    HW228722   3.032   3.927   6.165  0.2707 -0.0013  0.5340
 5696SOL     OW28723   1.456   4.459   0.869  0.0081 -0.1853 -0.8448
 5696SOL    HW128724   1.383   4.513   0.900  0.2972  0.7947 -1.8993
 5696SOL    HW228725   1.523   4.524   0.848  0.5225 -0.2467  0.5780
 5697SOL     OW28726   1.176   1.754   1.005 -0.5415  0.3061 -0.4403
 5697SOL    HW128727   1.169   1.700   0.927 -1.5460  0.0034 -0.1382
 5697SOL    HW228728   1.253   1.712   1.044  1.2652  2.9919 -1.1206
 5698SOL     OW28729   0.560   4.712  17.358 -0.3627 -0.3031 -0.4778
 5698SOL    HW128730   0.645   4.705  17.401  0.1554 -0.0434 -1.4470
 5698SOL    HW228731   0.517   4.628  17.375 -1.8996  0.0538 -2.5528
 5699SOL     OW28732   2.370   3.055  13.257  0.1297 -0.1407 -0.3454
 5699SOL    HW128733   2.373   3.118  13.186 -0.7023  0.2115 -0.0630
 5699SOL    HW228734   2.328   2.978  13.219  0.4579 -0.1305 -0.7305
 5700SOL     OW28735   3.488   2.697  11.333 -0.4757 -0.1529 -0.0710
 5700SOL    HW128736   3.439   2.710  11.252 -1.9592 -0.7386  0.7410
 5700SOL    HW228737   3.551   2.627  11.314  0.7137  1.5653 -2.3771
 5701SOL     OW28738   4.325   1.245   1.601  0.0915  0.1835  0.0292
 5701SOL    HW128739   4.260   1.213   1.663 -1.7024  0.8596 -1.5407
 5701SOL    HW228740   4.406   1.262   1.650 -0.0745 -0.9234  0.6862
 5702SOL     OW28741   0.772   2.547  10.973  0.2673 -0.3012  0.3695
 5702SOL    HW128742   0.682   2.519  10.953 -0.2092  1.6198 -0.1734
 5702SOL    HW228743   0.792   2.460  11.007  0.3287 -0.2932  0.3540
 5703SOL     OW28744   0.380   2.666   1.768 -0.1388 -0.3648 -0.1825
 5703SOL    HW128745   0.347   2.682   1.856 -1.7047  0.1713 -0.8670
 5703SOL    HW228746   0.433   2.587   1.773 -2.0803 -1.8036 -2.3868
 5704SOL     OW28747   0.967   0.518   4.231  0.9542  0.0113 -0.3653
 5704SOL    HW128748   0.916   0.437   4.233  0.9276  0.0700  1.5382
 5704SOL    HW228749   0.924   0.572   4.298  2.8733  0.2184  0.7079
 5705SOL     OW28750   4.377   3.447   5.266  0.3174  0.5558  0.0531
 5705SOL    HW128751   4.302   3.483   5.217  1.3126  3.6825  0.8072
 5705SOL    HW228752   4.421   3.392   5.202 -0.3856  0.1994 -0.1300
 5706SOL     OW28753   3.146   2.498  17.643 -0.0879 -0.1893 -0.0777
 5706SOL    HW128754   3.168   2.449  17.722  0.6374  1.0923  0.5196
 5706SOL    HW228755   3.123   2.431  17.579  2.1926  0.4791 -1.5645
 5707SOL     OW28756   0.312   4.689   4.715 -0.0550  0.0601  0.1295
 5707SOL    HW128757   0.251   4.656   4.781  0.8523 -0.1036  0.8926
 5707SOL    HW228758   0.256   0.005   4.660  0.7856  0.0295 -0.7516
 5708SOL     OW28759   4.493   3.256   5.064  0.0535  0.5807  0.0649
 5708SOL    HW128760   4.531   3.183   5.113  2.0561  1.8843  0.4944
 5708SOL    HW228761   4.401   3.232   5.060  0.3147 -0.0545 -1.7859
 5709SOL     OW28762   0.348   1.701   3.202 -0.1973 -0.1044 -0.5618
 5709SOL    HW128763   0.339   1.610   3.174  0.1481 -0.1665 -0.4747
 5709SOL    HW228764   0.443   1.711   3.206 -0.4752  1.8763  0.9729
 5710SOL     OW28765   2.514   3.769   6.168  0.2963  0.2595  0.5807
 5710SOL    HW128766   2.437   3.765   6.225  1.8388 -0.8180  2.5903
 5710SOL    HW228767   2.583   3.757   6.233  1.5260 -3.1578 -1.3812
 5711SOL     OW28768   4.038   2.554   1.887 -0.1598  0.4984 -0.1622
 5711SOL    HW128769   4.133   2.546   1.883 -0.1184  0.7751  0.2847
 5711SOL    HW228770   4.006   2.554   1.797 -0.3112  0.5317 -0.1088
 5712SOL     OW28771   0.209   2.522  17.707 -0.3999 -0.0713  0.7066
 5712SOL    HW128772   0.195   2.494  17.617  2.1396  4.0142 -0.9431
 5712SOL    HW228773   0.134   2.493   0.010 -0.7372  0.3907  0.4736
 5713SOL     OW28774   0.689   2.540   8.989 -0.0360  0.4515  0.0444
 5713SOL    HW128775   0.662   2.560   8.900  0.7462  2.0759  0.1846
 5713SOL    HW228776   0.766   2.482   8.985  0.6764  1.5239 -1.8639
 5714SOL     OW28777   3.869   0.114   4.920 -0.4745 -0.3414  0.3220
 5714SOL    HW128778   3.837   0.167   4.993  1.1591  0.5118  0.4198
 5714SOL    HW228779   3.958   0.149   4.922 -0.1332 -1.2127  0.1148
 5715SOL     OW28780   1.873   1.764   6.207 -0.3766 -0.2390 -0.1782
 5715SOL    HW128781   1.935   1.694   6.226 -0.0075 -0.3505 -1.8733
 5715SOL    HW228782   1.843   1.797   6.292 -0.7861 -0.1849 -0.3419
 5716SOL     OW28783   3.656   3.707   6.331  0.4569 -0.1084  0.1375
 5716SOL    HW128784   3.747   3.733   6.343  0.3872  0.1697  0.0830
 5716SOL    HW228785   3.642   3.674   6.420 -2.0777  1.0039  0.1545
 5717SOL     OW28786   0.562   0.329  13.083 -0.5742  0.3909 -0.4622
 5717SOL    HW128787   0.620   0.351  13.010 -0.9756  0.5325 -0.7399
 5717SOL    HW228788   0.635   0.321  13.144 -0.9034 -0.3754 -0.1644
 5718SOL     OW28789   3.017   0.146   6.154  0.1184 -0.1408 -0.0491
 5718SOL    HW128790   3.093   0.202   6.136  0.1314  0.0627  0.6462
 5718SOL    HW228791   3.030   0.114   6.243  2.1401  2.6224  0.6489
 5719SOL     OW28792   2.722   2.412   3.898  0.1080  0.2215  0.6675
 5719SOL    HW128793   2.732   2.317   3.892 -1.7330  0.1410 -1.2297
 5719SOL    HW228794   2.696   2.441   3.811  0.5194 -1.9666 -0.1950
 5720SOL     OW28795   0.860   1.441   3.586 -0.1520 -0.0652  0.5734
 5720SOL    HW128796   0.902   1.380   3.526 -3.1215 -0.1924 -1.3675
 5720SOL    HW228797   0.936   1.478   3.631  1.0535 -1.0003 -0.6933
 5721SOL     OW28798   3.108   0.802  17.476 -0.3182  0.5709 -0.4874
 5721SOL    HW128799   3.065   0.730  17.522 -0.7437  1.4834  0.5492
 5721SOL    HW228800   3.050   0.828  17.404  0.1569  1.0949 -0.6835
 5722SOL     OW28801   2.831   4.137   6.011 -0.4982 -0.0159 -0.1175
 5722SOL    HW128802   2.744   4.170   5.988  0.0859  0.5135 -1.5219
 5722SOL    HW228803   2.888   4.212   5.998 -1.1045  0.5366  0.4407
 5723SOL     OW28804   0.153   1.147   7.061 -0.2292  0.2632 -0.2680
 5723SOL    HW128805   0.137   1.242   7.062  1.6947  0.5502  1.9147
 5723SOL    HW228806   0.246   1.161   7.043  0.4223 -0.2981  2.7148
 5724SOL     OW28807   2.967   1.984   4.550 -0.1054  0.5814 -0.3291
 5724SOL    HW128808   2.883   2.029   4.545 -1.2974 -1.4891  1.1085
 5724SOL    HW228809   2.948   1.908   4.605 -0.3674  0.9705  0.1180
 5725SOL     OW28810   3.937   4.025  17.611  0.3623  0.2189 -0.6875
 5725SOL    HW128811   3.859   4.069  17.644  0.5371  0.9267 -1.2102
 5725SOL    HW228812   3.962   4.076  17.534  0.6650 -1.6716 -1.8600
 5726SOL     OW28813   4.358   4.700   5.112  0.8256 -0.8641 -0.7528
 5726SOL    HW128814   4.386   0.006   5.192 -0.5668  0.1839 -0.8531
 5726SOL    HW228815   4.369   4.609   5.140  0.5600 -0.6900 -0.0861
 5727SOL     OW28816   3.953   2.325  10.356 -0.4225  0.1250 -0.0428
 5727SOL    HW128817   3.999   2.287  10.431 -1.0717 -1.0569 -0.2554
 5727SOL    HW228818   3.890   2.255  10.342 -0.5702  0.0156  1.1193
 5728SOL     OW28819   1.602   1.614   4.216 -0.3699 -0.4271  0.0658
 5728SOL    HW128820   1.572   1.590   4.304  3.0817  1.3543  1.7197
 5728SOL    HW228821   1.527   1.663   4.184  0.6126  1.1964  0.2459
 5729SOL     OW28822   4.100   1.531  11.041  0.0340  0.3053  0.0633
 5729SOL    HW128823   4.131   1.474  10.970 -0.6364  0.5751 -0.4494
 5729SOL    HW228824   4.119   1.473  11.115  1.0054  0.1044 -0.3376
 5730SOL     OW28825   3.759   0.393   8.435 -0.0915  0.4617  0.1675
 5730SOL    HW128826   3.767   0.487   8.418  2.2490  0.3480  0.7291
 5730SOL    HW228827   3.665   0.379   8.421  0.1726  0.6398 -1.9180
 5731SOL     OW28828   0.560   0.141   8.786  0.0835 -0.1938 -0.1027
 5731SOL    HW128829   0.607   0.158   8.868 -1.1544 -0.9456  0.7660
 5731SOL    HW228830   0.628   0.088   8.744  0.5780  0.1858  0.2032
 5732SOL     OW28831   1.946   2.466   6.295  0.5170 -0.1628 -0.1286
 5732SOL    HW128832   1.913   2.433   6.211  1.3681 -0.4350 -0.3550
 5732SOL    HW228833   1.917   2.403   6.360  0.8698 -1.5934 -1.3540
 5733SOL     OW28834   2.349   3.885   8.652  0.1775 -0.5386 -0.0390
 5733SOL    HW128835   2.325   3.852   8.566  0.0726  0.4829 -0.4029
 5733SOL    HW228836   2.326   3.806   8.701  0.7059 -0.0428  0.9988
 5734SOL     OW28837   4.296   4.438   8.837  0.1412  0.4984  0.2569
 5734SOL    HW128838   4.379   4.484   8.820 -1.0323  2.2094 -0.7838
 5734SOL    HW228839   4.233   4.508   8.822  1.7532  2.3482  1.9735
 5735SOL     OW28840   1.435   1.797   2.898 -0.2465  0.5369  0.0544
 5735SOL    HW128841   1.352   1.827   2.862 -1.6345 -1.4004  1.6563
 5735SOL    HW228842   1.461   1.882   2.934 -0.2851  0.2240  0.8313
 5736SOL     OW28843   4.629   4.483  13.378 -0.1367  0.2730 -0.1384
 5736SOL    HW128844   4.586   4.524  13.302 -0.7383 -0.9922 -0.4849
 5736SOL    HW228845   4.555   4.446  13.427  0.2710 -2.1240 -1.3384
 5737SOL     OW28846   0.104   3.011   8.408 -0.3029 -0.1080 -0.5309
 5737SOL    HW128847   0.048   2.982   8.336  0.7617 -2.5900 -0.3435
 5737SOL    HW228848   0.182   2.956   8.409 -2.2640 -2.8724  0.3428
 5738SOL     OW28849   3.276   1.498   9.697 -0.3736 -0.2227  0.0425
 5738SOL    HW128850   3.277   1.522   9.790  0.6945 -0.6657  0.1398
 5738SOL    HW228851   3.253   1.585   9.663 -1.8526 -0.6054  0.0619
 5739SOL     OW28852   4.630   1.784   7.774 -0.2132  0.1037 -0.2174
 5739SOL    HW128853   4.702   1.818   7.721  1.1145 -0.2464  1.3464
 5739SOL    HW228854   4.673   1.774   7.860 -0.7193  0.9362  0.1289
 5740SOL     OW28855   0.221   2.432  14.548 -0.3540 -0.2185  0.2300
 5740SOL    HW128856   0.154   2.491  14.512 -0.2047  0.0962  0.4594
 5740SOL    HW228857   0.169   2.390  14.616  0.5087  1.5468  2.0045
 5741SOL     OW28858   0.097   0.797   7.318 -0.0755 -0.2281  0.1792
 5741SOL    HW128859   0.043   0.790   7.239  1.1277  1.2096 -0.7818
 5741SOL    HW228860   0.172   0.743   7.296  0.9110 -0.0272  3.0021
 5742SOL     OW28861   3.772   0.560   9.547 -1.1096  0.5141  0.1069
 5742SOL    HW128862   3.865   0.537   9.537 -1.3043  0.4369 -1.5782
 5742SOL    HW228863   3.770   0.632   9.484  0.2757 -0.8752 -1.5325
 5743SOL     OW28864   3.707   2.165  14.378 -0.1327 -0.4796 -0.0805
 5743SOL    HW128865   3.711   2.078  14.418  0.1656 -0.9111 -1.0534
 5743SOL    HW228866   3.617   2.180  14.350  0.4053 -2.5599 -2.9211
 5744SOL     OW28867   0.519   2.406   4.617 -0.2531  0.1957 -0.3425
 5744SOL    HW128868   0.604   2.413   4.573 -0.4655  1.5278 -0.5332
 5744SOL    HW228869   0.458   2.446   4.555 -0.6292  1.4518  0.8419
 5745SOL     OW28870   2.591   0.413  16.640  0.0044 -0.0977  0.4694
 5745SOL    HW128871   2.529   0.344  16.614  1.0299 -0.3027 -1.4188
 5745SOL    HW228872   2.592   0.420  16.736 -0.6830 -4.6845  0.7904
 5746SOL     OW28873   2.243   1.693   3.839 -0.1857 -0.4221 -0.2881
 5746SOL    HW128874   2.327   1.651   3.820  0.8478  0.7065  1.8462
 5746SOL    HW228875   2.201   1.628   3.895  1.0482 -2.1440 -1.3576
 5747SOL     OW28876   1.566   1.674   5.380  0.2476  0.1431 -0.3183
 5747SOL    HW128877   1.577   1.728   5.302 -0.3908 -1.5507 -1.5794
 5747SOL    HW228878   1.613   1.722   5.448  0.1923  0.6282 -0.6188
 5748SOL     OW28879   3.642   1.327   2.476  0.1689 -0.4268  0.1704
 5748SOL    HW128880   3.645   1.391   2.546 -0.9325 -0.3449  0.1394
 5748SOL    HW228881   3.580   1.371   2.418  1.2005  1.0162  0.1444
 5749SOL     OW28882   2.671   3.381   0.684  0.7009 -0.3179 -0.1259
 5749SOL    HW128883   2.638   3.462   0.724 -3.7069 -2.0401 -0.2405
 5749SOL    HW228884   2.685   3.323   0.759 -1.4742 -1.8000 -0.8868
 5750SOL     OW28885   2.152   3.744   2.578  0.8687 -0.5652  0.0379
 5750SOL    HW128886   2.107   3.737   2.662  1.0581 -0.1438  0.1737
 5750SOL    HW228887   2.076   3.735   2.521  0.9969  1.5057 -0.4732
 5751SOL     OW28888   4.170   1.237   7.708 -0.0919 -0.3059 -0.4452
 5751SOL    HW128889   4.089   1.220   7.756 -0.6177 -0.1830 -1.2871
 5751SOL    HW228890   4.244   1.215   7.764 -1.2385  0.3034  1.3429
 5752SOL     OW28891   1.458   1.616  10.820  0.2610 -0.1243  0.7615
 5752SOL    HW128892   1.376   1.664  10.806  0.9324  0.8278  0.0137
 5752SOL    HW228893   1.493   1.606  10.731 -0.4472 -2.1137  0.7093
 5753SOL     OW28894   0.853   4.355   4.775 -0.3131  0.5211  0.4387
 5753SOL    HW128895   0.868   4.437   4.727 -0.9687  0.3050 -0.1414
 5753SOL    HW228896   0.759   4.348   4.756 -0.1402 -1.0767  0.2087
 5754SOL     OW28897   1.550   0.446  15.028  0.2023  0.5885 -0.1459
 5754SOL    HW128898   1.640   0.450  14.998  0.0312 -4.6825 -1.4344
 5754SOL    HW228899   1.550   0.385  15.102 -0.0737 -1.1817 -1.6113
 5755SOL     OW28900   1.776   0.058   2.213 -0.5305  0.4722  0.6845
 5755SOL    HW128901   1.729   0.122   2.158  0.2032 -0.6458 -1.2332
 5755SOL    HW228902   1.854   0.038   2.161  0.3769  1.1559  1.7971
 5756SOL     OW28903   3.544   4.519  13.232 -0.0070 -0.1692  0.5313
 5756SOL    HW128904   3.570   4.601  13.275  2.1679 -0.6352  0.0699
 5756SOL    HW228905   3.625   4.471  13.221 -1.0390 -2.0490  1.1601
 5757SOL     OW28906   0.598   1.482   5.538 -0.4550 -0.0585  0.0146
 5757SOL    HW128907   0.513   1.510   5.571 -0.1149  1.3760 -0.3255
 5757SOL    HW228908   0.575   1.438   5.456 -1.9081  1.9971 -0.6869
 5758SOL     OW28909   0.746   4.198   6.683 -0.1200 -0.5065 -0.5371
 5758SOL    HW128910   0.681   4.183   6.752  0.6099  3.7100  1.0766
 5758SOL    HW228911   0.737   4.117   6.633  0.0913 -0.5696 -0.4700
 5759SOL     OW28912   4.144   1.019   9.113 -0.1274 -0.5254  0.1263
 5759SOL    HW128913   4.191   1.102   9.115  0.2015 -0.7523  2.5719
 5759SOL    HW228914   4.092   1.016   9.194 -0.9072 -0.7405 -0.3844
 5760SOL     OW28915   3.871   1.491   8.187 -0.2285  0.0821 -0.4732
 5760SOL    HW128916   3.937   1.455   8.128 -0.2532  1.4494 -1.3388
 5760SOL    HW228917   3.900   1.467   8.275  1.0761 -0.1085 -0.9591
 5761SOL     OW28918   2.637   0.543   3.416 -0.4314 -0.4106 -0.6563
 5761SOL    HW128919   2.564   0.497   3.458 -1.9209  0.1278 -2.6542
 5761SOL    HW228920   2.671   0.595   3.489 -0.4769  0.3139 -1.1572
 5762SOL     OW28921   2.775   3.052   7.275 -0.3718 -0.0657  0.2258
 5762SOL    HW128922   2.732   2.993   7.337  0.3724 -0.0318  0.7774
 5762SOL    HW228923   2.743   3.140   7.293 -0.3228  0.0216 -0.1084
 5763SOL     OW28924   3.618   3.305  14.423 -0.7450  1.0226 -0.4531
 5763SOL    HW128925   3.652   3.220  14.448 -2.3224 -0.3804 -3.0618
 5763SOL    HW228926   3.525   3.295  14.443 -1.0702  0.7181 -2.1311
 5764SOL     OW28927   2.012   0.731   5.261  0.0500 -0.0624 -0.6387
 5764SOL    HW128928   1.959   0.713   5.339  0.4216  0.2501 -0.3214
 5764SOL    HW228929   2.039   0.642   5.238 -1.2804 -0.2841 -1.3468
 5765SOL     OW28930   1.953   0.688   7.715  0.4164 -0.3336 -0.1892
 5765SOL    HW128931   2.005   0.610   7.735  1.2155 -0.1752 -1.6438
 5765SOL    HW228932   1.895   0.654   7.647  1.8830  0.8456 -2.0114
 5766SOL     OW28933   4.415   2.480   4.893  0.3474  0.2754 -0.2019
 5766SOL    HW128934   4.335   2.470   4.841 -0.5557 -1.0358  1.4398
 5766SOL    HW228935   4.376   2.458   4.978  3.2291 -2.2220  0.4813
 5767SOL     OW28936   0.398   4.082  13.203  0.3092 -0.0298 -0.6314
 5767SOL    HW128937   0.424   4.000  13.245 -1.9388 -0.3688  0.0903
 5767SOL    HW228938   0.345   4.044  13.134  1.5421 -0.3011 -1.4315
 5768SOL     OW28939   3.374   3.864  15.092 -0.2496 -0.3618 -0.2322
 5768SOL    HW128940   3.398   3.905  15.009  1.8100 -0.7031  0.1918
 5768SOL    HW228941   3.347   3.780  15.056 -0.2446  0.0554 -1.2000
 5769SOL     OW28942   2.098   0.038   9.018 -0.3954  0.1729  0.5213
 5769SOL    HW128943   2.073   0.131   9.019  1.8962  0.8039 -2.2447
 5769SOL    HW228944   2.014   4.737   8.996  0.2896 -1.5006  0.8701
 5770SOL     OW28945   0.974   4.285  12.949  0.0272 -0.3586 -0.5591
 5770SOL    HW128946   1.055   4.336  12.946 -0.5626  0.5410 -1.0930
 5770SOL    HW228947   0.979   4.240  13.033  1.2290  0.6992 -0.0564
 5771SOL     OW28948   0.280   1.615   3.525 -0.3423 -0.0171 -0.1566
 5771SOL    HW128949   0.339   1.544   3.500 -2.1788 -1.9116  0.9025
 5771SOL    HW228950   0.287   1.671   3.448  1.7917 -0.9593 -0.6573
 5772SOL     OW28951   3.314   3.570   3.402  1.2657  0.2621 -0.1247
 5772SOL    HW128952   3.264   3.623   3.464  3.2063  2.6827 -0.6285
 5772SOL    HW228953   3.241   3.558   3.341  0.8621 -1.4016  0.6891
 5773SOL     OW28954   4.107   3.814   6.169  0.0830 -0.7983 -1.0781
 5773SOL    HW128955   4.127   3.751   6.238  1.2882 -0.6614 -1.3013
 5773SOL    HW228956   4.153   3.891   6.203  0.0537 -2.1507  2.0684
 5774SOL     OW28957   3.202   3.427  15.814 -0.3297 -0.3284  0.3468
 5774SOL    HW128958   3.276   3.478  15.846  0.0608 -0.1822 -0.7957
 5774SOL    HW228959   3.131   3.487  15.840  1.1358  1.3150  0.5233
 5775SOL     OW28960   2.434   1.560   5.382 -1.0167  0.4631  0.4921
 5775SOL    HW128961   2.508   1.506   5.354 -1.8816 -0.2283 -0.4846
 5775SOL    HW228962   2.403   1.515   5.460  1.1554  1.8558  2.1389
 5776SOL     OW28963   2.380   3.301   5.149 -0.1321  0.7377 -0.1910
 5776SOL    HW128964   2.372   3.206   5.142 -0.8814  0.5782  2.8538
 5776SOL    HW228965   2.447   3.321   5.083 -0.3546 -0.5848 -0.8025
 5777SOL     OW28966   3.254   2.022   4.666  0.1907  0.9728 -0.2544
 5777SOL    HW128967   3.316   1.957   4.632  0.7135  1.3012  0.0683
 5777SOL    HW228968   3.167   1.986   4.646  0.6524  0.7121 -1.7801
 5778SOL     OW28969   3.266   0.180   1.483  0.0635  0.3390  0.3230
 5778SOL    HW128970   3.286   0.203   1.393 -0.3479 -0.4825  0.0198
 5778SOL    HW228971   3.249   0.086   1.472  0.7622  0.2808 -0.2482
 5779SOL     OW28972   3.703   2.259  11.329  0.1300  0.3531  0.3921
 5779SOL    HW128973   3.797   2.241  11.334  0.1592 -0.0530 -1.6691
 5779SOL    HW228974   3.672   2.202  11.399 -3.2435  0.4792 -1.0050
 5780SOL     OW28975   0.900   2.633   0.944 -0.0837 -0.3924 -0.3819
 5780SOL    HW128976   0.873   2.581   1.019  0.1954  0.9901  0.6869
 5780SOL    HW228977   0.984   2.664   0.976 -0.9035  0.4028  1.0141
 5781SOL     OW28978   2.975   1.669   1.329  0.6321  0.7968 -0.3175
 5781SOL    HW128979   2.891   1.714   1.335 -0.2630 -0.7221 -1.3097
 5781SOL    HW228980   2.960   1.613   1.252  1.4611 -1.4135  1.1183
 5782SOL     OW28981   0.859   3.503   1.303  0.3806 -0.2915 -0.1349
 5782SOL    HW128982   0.799   3.576   1.292  0.4167 -0.5440 -1.9774
 5782SOL    HW228983   0.941   3.550   1.287 -0.6523  1.1187 -1.1989
 5783SOL     OW28984   4.149   3.394   3.307  0.1153  0.0918  0.3101
 5783SOL    HW128985   4.074   3.453   3.304 -1.0275 -1.1574  3.9601
 5783SOL    HW228986   4.112   3.318   3.262  0.9681  0.1288 -0.4447
 5784SOL     OW28987   0.539   0.218   2.374 -0.0742  0.0498  0.5890
 5784SOL    HW128988   0.620   0.197   2.421  0.9890  2.6808 -0.0796
 5784SOL    HW228989   0.471   0.223   2.441 -0.9179  2.1681 -0.4478
 5785SOL     OW28990   3.468   3.274   5.268 -0.7746  0.6048  0.2347
 5785SOL    HW128991   3.438   3.183   5.278  1.6057 -0.1542  0.6047
 5785SOL    HW228992   3.416   3.316   5.199 -2.0717 -1.3606 -0.0026
 5786SOL     OW28993   3.693   0.758   9.276  0.6575 -0.3136 -0.5693
 5786SOL    HW128994   3.633   0.826   9.308  0.0391 -1.2057  0.1667
 5786SOL    HW228995   3.747   0.814   9.221 -0.2172  0.9640 -0.1302
 5787SOL     OW28996   0.686   1.848   2.842 -0.2088  0.0028  0.8234
 5787SOL    HW128997   0.745   1.784   2.802  0.1189 -0.0688  1.4177
 5787SOL    HW228998   0.738   1.926   2.823  0.5236 -0.8442 -0.6321
 5788SOL     OW28999   1.624   4.087   5.701  0.6563  0.1720  0.2553
 5788SOL    HW129000   1.719   4.095   5.692  0.7684 -0.2723  1.1170
 5788SOL    HW229001   1.603   4.176   5.671  0.6202  0.4229  1.0477
 5789SOL     OW29002   4.227   3.837   3.106  0.0282 -0.3134  0.5681
 5789SOL    HW129003   4.276   3.865   3.029 -1.1268  1.1161  0.3647
 5789SOL    HW229004   4.294   3.814   3.171  0.4288 -1.6544 -0.3098
 5790SOL     OW29005   2.098   4.071   2.980 -0.2056 -0.3411  0.2260
 5790SOL    HW129006   2.072   4.128   3.052  2.1532  0.9152  0.1084
 5790SOL    HW229007   2.158   4.006   3.019  1.8020  2.1928  1.3936
 5791SOL     OW29008   4.025   3.229   5.417 -0.1102  0.1953 -0.5638
 5791SOL    HW129009   4.097   3.234   5.479  0.0339 -1.5998 -0.5795
 5791SOL    HW229010   4.067   3.256   5.335 -0.6793  0.8443 -0.6444
 5792SOL     OW29011   1.590   4.401   3.589  0.3678  0.1204  0.1195
 5792SOL    HW129012   1.547   4.422   3.672  1.8739 -1.2141  1.2328
 5792SOL    HW229013   1.512   4.415   3.536  1.4947  2.0332 -1.0144
 5793SOL     OW29014   1.211   2.165   2.225  0.2859 -0.7160 -0.2160
 5793SOL    HW129015   1.159   2.098   2.181  0.1631 -0.7443 -0.0284
 5793SOL    HW229016   1.297   2.125   2.216 -0.3206 -1.8249 -0.9907
 5794SOL     OW29017   3.729   3.037   9.726  0.3725  0.0147  0.1904
 5794SOL    HW129018   3.822   3.030   9.704 -0.3105  0.8016 -2.8641
 5794SOL    HW229019   3.695   3.089   9.653 -2.0344  0.1040  1.3820
 5795SOL     OW29020   0.563   0.549   2.482  0.0651 -0.1792  0.1734
 5795SOL    HW129021   0.555   0.582   2.571  0.2864  1.0900 -0.2900
 5795SOL    HW229022   0.514   0.466   2.485  2.7348 -1.8495 -2.5355
 5796SOL     OW29023   0.934   1.909   3.596  0.2732 -0.2762 -0.1806
 5796SOL    HW129024   0.852   1.875   3.559  0.6562 -0.8645 -0.4781
 5796SOL    HW229025   0.906   1.990   3.638  0.0962 -0.7911  0.6993
 5797SOL     OW29026   3.020   1.587   1.596 -0.3862 -0.4348  0.6117
 5797SOL    HW129027   3.030   1.636   1.515  2.9025  1.0712  1.9516
 5797SOL    HW229028   2.979   1.503   1.572 -1.9229  1.0361 -1.8821
 5798SOL     OW29029   2.614   2.452   6.951 -0.4069  0.5068  0.4088
 5798SOL    HW129030   2.606   2.360   6.977 -1.0198  0.3800 -0.2310
 5798SOL    HW229031   2.535   2.483   6.996 -2.1784 -1.3315 -1.4433
 5799SOL     OW29032   1.579   3.156   4.140  1.1055  0.7749 -0.2828
 5799SOL    HW129033   1.626   3.086   4.097  1.6418  0.5543  0.6721
 5799SOL    HW229034   1.553   3.209   4.064 -0.4843 -0.4439 -0.5887
 5800SOL     OW29035   1.843   0.357   2.282 -0.2731 -0.1280 -0.0068
 5800SOL    HW129036   1.772   0.330   2.224 -1.3766  1.3109  0.6635
 5800SOL    HW229037   1.895   0.404   2.218  0.3534 -1.1795 -0.2699
 5801SOL     OW29038   2.540   3.749   4.004 -0.0304 -0.0644  0.5017
 5801SOL    HW129039   2.517   3.765   4.096  0.1726 -0.4501  0.6215
 5801SOL    HW229040   2.549   3.654   4.008  1.6130  0.0703 -0.2856
 5802SOL     OW29041   3.115   4.355   1.951 -0.2443 -0.0761 -0.1562
 5802SOL    HW129042   3.126   4.266   1.984  1.9068 -0.1536 -1.0872
 5802SOL    HW229043   3.203   4.390   1.943  0.1008 -1.1227 -0.8862
 5803SOL     OW29044   0.876   2.981   7.018  0.5092 -0.0372  0.6450
 5803SOL    HW129045   0.951   3.001   7.074  1.0682 -1.2135  0.3156
 5803SOL    HW229046   0.916   2.957   6.935 -1.2384  2.2752 -0.8337
 5804SOL     OW29047   0.678   3.971   4.956  0.2262 -0.2360 -0.6628
 5804SOL    HW129048   0.724   3.944   5.036 -1.5074 -2.0938 -0.3096
 5804SOL    HW229049   0.727   3.946   4.878  1.9096 -3.5487  1.4687
 5805SOL     OW29050   0.600   4.248  13.155  0.3422  0.6091  0.1537
 5805SOL    HW129051   0.659   4.192  13.105 -1.1275 -1.7298  1.0187
 5805SOL    HW229052   0.528   4.186  13.165 -0.7243  1.7242 -0.6890
 5806SOL     OW29053   2.315   3.551   4.360 -0.1164 -0.3462 -0.5078
 5806SOL    HW129054   2.244   3.514   4.306 -1.1191 -1.2134  1.3945
 5806SOL    HW229055   2.258   3.601   4.418  2.2729  0.7810  0.8577
 5807SOL     OW29056   1.359   4.709  11.670  0.3431  0.0081 -0.0694
 5807SOL    HW129057   1.320   4.650  11.735  1.8233 -0.7365  0.1254
 5807SOL    HW229058   1.291   0.037  11.656 -0.9284 -0.9640  1.4251
 5808SOL     OW29059   2.618   1.894   3.098 -0.0543 -0.1429 -0.6755
 5808SOL    HW129060   2.661   1.853   3.173 -2.8424  1.2674  1.6471
 5808SOL    HW229061   2.680   1.858   3.034  1.9782 -0.5256  1.4855
 5809SOL     OW29062   0.175   3.919  13.969 -0.4618  0.1524  0.0260
 5809SOL    HW129063   0.181   3.842  14.027  0.0420  0.6419  0.6230
 5809SOL    HW229064   0.134   3.875  13.895  1.1915 -0.7637 -0.3519
 5810SOL     OW29065   4.069   2.467   0.974 -0.5156  0.4546 -0.4294
 5810SOL    HW129066   4.028   2.388   1.009  1.0067 -0.0263  0.3062
 5810SOL    HW229067   4.124   2.505   1.042 -0.1089 -1.4789  0.3166
 5811SOL     OW29068   1.804   0.050   3.058  0.5663  0.0450 -0.6809
 5811SOL    HW129069   1.757   0.116   3.109  2.0867  0.4539  0.1752
 5811SOL    HW229070   1.734   0.032   2.996 -3.1775  0.7372  3.2951
 5812SOL     OW29071   1.179   2.446  16.033 -0.6256 -0.0101 -0.5145
 5812SOL    HW129072   1.190   2.365  15.983 -2.1532  0.0159 -0.8882
 5812SOL    HW229073   1.084   2.448  16.038 -0.6175  1.3589 -0.7340
 5813SOL     OW29074   0.339   1.948   6.732  0.4751 -0.0359 -0.2895
 5813SOL    HW129075   0.285   2.021   6.701  0.2191 -0.1391 -0.0888
 5813SOL    HW229076   0.269   1.893   6.768  2.4164 -3.0296 -1.0200
 5814SOL     OW29077   2.235   1.891   3.269 -0.0258  0.3232  0.3035
 5814SOL    HW129078   2.287   1.926   3.197  0.4955  0.2374  0.6379
 5814SOL    HW229079   2.225   1.797   3.256  3.0658 -0.2149  1.6988
 5815SOL     OW29080   0.002   3.706  10.191  1.2979  0.3736  0.0073
 5815SOL    HW129081   4.671   3.742  10.135  0.3713 -1.4799 -0.0207
 5815SOL    HW229082   4.700   3.626  10.224  1.8604  1.1215  2.4971
 5816SOL     OW29083   2.073   0.496   7.517  0.2445 -0.0263  0.2619
 5816SOL    HW129084   2.116   0.439   7.453 -1.9293  0.7154 -1.8505
 5816SOL    HW229085   2.134   0.490   7.591  0.1054 -2.5012  0.1743
 5817SOL     OW29086   1.970   2.003  16.248 -0.0726  0.8991 -0.4948
 5817SOL    HW129087   1.947   1.913  16.223  0.6000  1.2191 -2.2275
 5817SOL    HW229088   1.907   2.021  16.319  0.2876  0.9590 -0.1920
 5818SOL     OW29089   4.185   2.721   6.079  0.6327  0.5875  0.5329
 5818SOL    HW129090   4.168   2.805   6.036  0.7337 -0.0472 -0.7580
 5818SOL    HW229091   4.132   2.668   6.018 -2.4904  1.7864  2.1996
 5819SOL     OW29092   3.090   1.232   6.838  0.0712  0.1237  0.0641
 5819SOL    HW129093   3.116   1.275   6.920 -1.8221  0.7425  0.3438
 5819SOL    HW229094   3.155   1.251   6.771  1.7713 -1.0378  1.3988
 5820SOL     OW29095   0.180   3.296   1.742 -0.0357  0.0790 -0.4405
 5820SOL    HW129096   0.106   3.326   1.794  0.1037 -0.5287  0.1200
 5820SOL    HW229097   0.202   3.209   1.778 -2.7753 -0.6628 -0.5392
 5821SOL     OW29098   4.643   3.518   6.213 -0.7725  0.4207  0.4121
 5821SOL    HW129099   4.613   3.555   6.130  1.1245  1.7846  0.3210
 5821SOL    HW229100   4.683   3.432   6.198 -2.2506 -0.2668  0.4295
 5822SOL     OW29101   1.572   0.760  11.867  0.2851 -0.1597 -0.3211
 5822SOL    HW129102   1.495   0.764  11.924 -1.0592 -1.1048 -2.0398
 5822SOL    HW229103   1.622   0.837  11.893 -1.2311  0.4859  0.6883
 5823SOL     OW29104   1.425   1.577   4.785 -0.8044  0.9860  0.0909
 5823SOL    HW129105   1.384   1.660   4.813 -0.4779  1.5754 -1.1927
 5823SOL    HW229106   1.365   1.512   4.822  0.2366  1.1487  2.0963
 5824SOL     OW29107   0.893   1.277  14.606 -0.0415  0.1933 -0.0285
 5824SOL    HW129108   0.802   1.287  14.635 -0.4324 -0.8105 -0.9089
 5824SOL    HW229109   0.891   1.190  14.566  1.0099  0.8488 -1.4929
 5825SOL     OW29110   2.430   3.592   3.494 -0.3708 -0.1984  0.2291
 5825SOL    HW129111   2.421   3.603   3.589 -0.2132  0.9983  0.1055
 5825SOL    HW229112   2.437   3.497   3.485  2.1129 -0.0527  0.5001
 5826SOL     OW29113   1.297   0.171  12.521 -0.3841 -0.4362 -0.2033
 5826SOL    HW129114   1.325   0.259  12.547 -1.6290  0.1403 -0.8297
 5826SOL    HW229115   1.223   0.196  12.467  0.1547  1.8078  0.0898
 5827SOL     OW29116   4.699   3.495   7.234  0.3038  0.3145  0.2452
 5827SOL    HW129117   4.692   3.400   7.219 -1.1687  0.5977 -0.9126
 5827SOL    HW229118   4.699   3.522   7.142 -0.1579  2.0766  0.7742
 5828SOL     OW29119   3.703   4.025   6.490  0.4428 -0.3771  0.0016
 5828SOL    HW129120   3.668   4.110   6.465  1.3770  0.4033  1.3191
 5828SOL    HW229121   3.659   4.000   6.571  1.3750  0.2318  0.6991
 5829SOL     OW29122   2.468   0.191   5.645  0.2208  0.1309  0.2213
 5829SOL    HW129123   2.425   0.252   5.706  0.2147  1.2391 -0.8879
 5829SOL    HW229124   2.526   0.142   5.703 -0.9566 -2.4225 -0.7649
 5830SOL     OW29125   3.064   0.196   7.073  0.3802 -0.9451 -0.5522
 5830SOL    HW129126   3.116   0.116   7.081  0.4856 -0.9592 -1.3479
 5830SOL    HW229127   2.974   0.164   7.070 -0.0125  0.0490  0.9912
 5831SOL     OW29128   4.339   3.421   3.782  0.0020 -0.1744  0.1613
 5831SOL    HW129129   4.294   3.470   3.713  1.2120  0.0831 -0.4457
 5831SOL    HW229130   4.271   3.410   3.849 -0.1493  0.5275  0.1254
 5832SOL     OW29131   1.629   2.982   3.466  0.5682 -0.6932  0.0281
 5832SOL    HW129132   1.556   3.020   3.516  2.5881  2.7666  0.3795
 5832SOL    HW229133   1.612   2.888   3.474 -2.1006 -0.3039 -0.8730
 5833SOL     OW29134   3.771   1.429  10.493  0.4802 -0.0686 -0.1516
 5833SOL    HW129135   3.861   1.398  10.503 -0.2837 -2.1787  0.0911
 5833SOL    HW229136   3.731   1.344  10.478 -0.8689  0.7706 -1.3125
 5834SOL     OW29137   2.399   2.499   4.420  0.8046  0.1054 -0.0876
 5834SOL    HW129138   2.457   2.575   4.426  0.0290  0.6911  0.0801
 5834SOL    HW229139   2.372   2.487   4.511  1.7720  0.0648  0.1913
 5835SOL     OW29140   3.471   1.621   6.918  0.3535  0.7354 -0.6008
 5835SOL    HW129141   3.564   1.607   6.899  0.3121  0.1040 -0.3092
 5835SOL    HW229142   3.460   1.576   7.002  1.0428 -1.7046 -1.8176
 5836SOL     OW29143   3.150   3.766   9.470 -0.1662  0.1005  0.1052
 5836SOL    HW129144   3.109   3.853   9.472  0.6069  0.4043  2.6385
 5836SOL    HW229145   3.203   3.781   9.392 -0.8082 -1.3057 -0.6010
 5837SOL     OW29146   2.057   3.711  17.695  0.8238  0.0825  0.2946
 5837SOL    HW129147   2.017   3.624  17.689  0.4871  0.3245 -0.9784
 5837SOL    HW229148   2.149   3.699  17.671  0.2476 -1.4081 -1.1475
 5838SOL     OW29149   3.647   1.459   4.633 -0.0451 -0.5112  0.6985
 5838SOL    HW129150   3.640   1.511   4.713  1.3585 -0.1147  0.5556
 5838SOL    HW229151   3.556   1.469   4.606  0.9972  1.9731 -1.8321
 5839SOL     OW29152   2.306   4.248   6.153 -0.3703  0.3675 -0.3527
 5839SOL    HW129153   2.314   4.341   6.130 -1.4683  0.8423  1.1495
 5839SOL    HW229154   2.385   4.238   6.205 -0.9049  0.0056  0.3912
 5840SOL     OW29155   1.455   0.403   2.069  0.0918  0.1623 -0.2249
 5840SOL    HW129156   1.470   0.471   2.135  1.8300 -0.7746  0.3513
 5840SOL    HW229157   1.452   0.454   1.988 -1.2610  1.6072  0.7369
 5841SOL     OW29158   4.433   2.135   5.393  0.1512 -0.4383  0.6748
 5841SOL    HW129159   4.365   2.071   5.371  0.5445 -0.4127 -0.6018
 5841SOL    HW229160   4.390   2.220   5.402 -0.5940 -0.7716  0.2475
 5842SOL     OW29161   0.732   4.586   3.114 -0.4465 -0.0353  0.2845
 5842SOL    HW129162   0.700   4.661   3.164  0.0209  2.4617 -3.1617
 5842SOL    HW229163   0.726   4.522   3.185 -0.5304  0.4111  0.6821
 5843SOL     OW29164   3.913   1.610  17.247  0.4998  0.4933  0.2647
 5843SOL    HW129165   3.827   1.595  17.207  0.7208  0.0802 -0.0493
 5843SOL    HW229166   3.945   1.677  17.186  1.8898 -0.4093  0.0108
 5844SOL     OW29167   3.739   3.403  11.858  0.5042 -0.1628  0.2549
 5844SOL    HW129168   3.833   3.420  11.845  0.6889  1.1077  3.2644
 5844SOL    HW229169   3.718   3.379  11.768  1.0202 -0.2744  0.1606
 5845SOL     OW29170   4.069   1.256  12.860  0.3419 -0.1012  0.0296
 5845SOL    HW129171   4.112   1.199  12.925 -0.3297  0.5868  1.0861
 5845SOL    HW229172   3.998   1.278  12.921 -0.7940 -0.2844 -1.2473
 5846SOL     OW29173   2.743   4.489   1.857 -0.9082  0.5096 -0.3344
 5846SOL    HW129174   2.703   4.575   1.873  0.3087  0.7420  1.4556
 5846SOL    HW229175   2.834   4.517   1.850 -1.8446  3.1818 -1.9350
 5847SOL     OW29176   3.844   0.978   6.249 -0.1567 -0.0775 -0.1827
 5847SOL    HW129177   3.822   1.062   6.209 -1.2118  0.2164  1.0139
 5847SOL    HW229178   3.845   0.921   6.173  0.5214 -0.2984 -0.0065
 5848SOL     OW29179   3.500   0.916   4.214 -0.2897 -0.2015  0.0097
 5848SOL    HW129180   3.586   0.882   4.240 -0.5344  0.7476  2.0907
 5848SOL    HW229181   3.468   0.830   4.186 -1.3158  0.4058 -0.6550
 5849SOL     OW29182   2.651   4.657  15.125  0.5052  0.4049 -0.9702
 5849SOL    HW129183   2.644   0.010  15.096  0.7930  0.9827  0.7752
 5849SOL    HW229184   2.730   4.634  15.078  0.1503 -0.2734 -1.2312
 5850SOL     OW29185   3.397   2.927  12.597  0.1993  0.0652 -0.0920
 5850SOL    HW129186   3.432   2.955  12.512 -0.1969  0.6483 -0.0615
 5850SOL    HW229187   3.460   2.857  12.614 -0.3682 -0.4323 -0.0436
 5851SOL     OW29188   0.832   0.060   7.662 -0.5502 -0.3294 -0.2979
 5851SOL    HW129189   0.763   0.054   7.596 -1.3948  1.3367  0.4347
 5851SOL    HW229190   0.786   0.105   7.733 -1.5962 -2.4518  0.3582
 5852SOL     OW29191   3.495   4.010   3.208 -0.1872 -0.3581 -0.1609
 5852SOL    HW129192   3.471   4.073   3.276 -0.0144 -0.4509 -0.0132
 5852SOL    HW229193   3.573   4.051   3.171  2.2296 -1.9840  3.1973
 5853SOL     OW29194   3.276   1.289   6.628  0.3191  0.1656  0.7041
 5853SOL    HW129195   3.343   1.358   6.626 -0.0857  0.5220 -0.4629
 5853SOL    HW229196   3.338   1.218   6.612 -1.6215 -0.9779 -1.7988
 5854SOL     OW29197   1.281   2.914   1.011  0.1216 -0.4781 -0.3406
 5854SOL    HW129198   1.256   2.991   1.063  1.1142  0.0053 -0.5645
 5854SOL    HW229199   1.315   2.966   0.939 -0.4439 -0.1329 -0.3605
 5855SOL     OW29200   1.961   3.665   9.045  0.2175 -0.0601  0.4358
 5855SOL    HW129201   1.996   3.663   8.956  1.2216 -0.5610  0.8405
 5855SOL    HW229202   1.880   3.614   9.038  1.1425 -1.9534  3.3013
 5856SOL     OW29203   3.919   4.260   1.716  0.8322 -0.2328 -0.1276
 5856SOL    HW129204   3.907   4.262   1.621  1.9383 -0.9636 -0.2737
 5856SOL    HW229205   3.921   4.356   1.724 -1.1752 -0.3142  1.4351
 5857SOL     OW29206   1.053   3.477   7.146  0.2585 -0.4670 -0.6077
 5857SOL    HW129207   1.004   3.411   7.098  1.2805 -0.7270 -1.2923
 5857SOL    HW229208   1.025   3.475   7.238 -2.2289 -0.4964 -1.3568
 5858SOL     OW29209   0.752   1.168   4.333  0.2616  0.7386  0.4147
 5858SOL    HW129210   0.736   1.233   4.401  1.5322  1.6285 -0.1526
 5858SOL    HW229211   0.678   1.108   4.346  1.0762 -0.1914  0.7427
 5859SOL     OW29212   2.546   0.911  11.363 -0.2758 -0.0192 -0.1800
 5859SOL    HW129213   2.511   0.823  11.359 -0.3768  0.0769 -1.2211
 5859SOL    HW229214   2.520   0.933  11.453 -0.0843 -2.0165  0.3496
 5860SOL     OW29215   2.933   1.286   8.924  0.9206  0.2072 -0.3244
 5860SOL    HW129216   2.869   1.354   8.900  0.7584 -0.1080 -0.7844
 5860SOL    HW229217   2.984   1.277   8.844 -1.8629 -0.6237 -2.0148
 5861SOL     OW29218   2.836   1.392   0.768 -0.0732  0.7082 -0.3173
 5861SOL    HW129219   2.785   1.473   0.766  1.3685  1.5517 -2.4990
 5861SOL    HW229220   2.861   1.371   0.678  1.2146  0.5318  0.0818
 5862SOL     OW29221   3.313   1.473   8.193 -0.5846 -0.0573  0.4029
 5862SOL    HW129222   3.265   1.553   8.215  0.3713  0.7860 -0.5978
 5862SOL    HW229223   3.344   1.451   8.281  1.7280 -2.7086 -1.0802
 5863SOL     OW29224   4.325   1.490   4.945 -0.7260  0.6730  0.9435
 5863SOL    HW129225   4.404   1.511   4.895 -0.6987 -3.1964 -0.6586
 5863SOL    HW229226   4.253   1.515   4.887 -1.0853 -1.5976  0.4036
 5864SOL     OW29227   1.497   3.259   3.895  0.2324 -0.1046  0.5853
 5864SOL    HW129228   1.417   3.207   3.889  0.3706 -0.2843  0.3034
 5864SOL    HW229229   1.482   3.337   3.843  1.1906 -0.1982  0.1554
 5865SOL     OW29230   0.029   0.839   3.481 -0.0037 -0.4030  0.3130
 5865SOL    HW129231   4.717   0.765   3.445  1.3026 -1.4259  0.6107
 5865SOL    HW229232   4.723   0.851   3.565 -0.7120 -0.7473 -0.0028
 5866SOL     OW29233   3.461   3.649  13.494 -0.4498  0.3634  0.2728
 5866SOL    HW129234   3.459   3.745  13.488 -2.6076  0.3110  0.1222
 5866SOL    HW229235   3.386   3.646  13.553 -2.3430  1.6315 -2.0432
 5867SOL     OW29236   3.169   2.589   7.409 -0.3328 -0.6319 -0.3307
 5867SOL    HW129237   3.130   2.525   7.351 -2.8024  0.6585 -0.0619
 5867SOL    HW229238   3.199   2.531   7.480  0.7657  0.5844  0.1946
 5868SOL     OW29239   0.036   2.720   4.207 -0.3579  0.6112  0.3239
 5868SOL    HW129240   0.072   2.718   4.296  0.1280 -1.4763  0.0908
 5868SOL    HW229241   0.031   2.626   4.190  0.0462  0.3727  1.5267
 5869SOL     OW29242   4.337   3.094  16.980  0.3301  0.4815  0.2168
 5869SOL    HW129243   4.330   3.166  16.918  2.3553  1.9668  1.7002
 5869SOL    HW229244   4.341   3.019  16.921  0.9862 -0.0645  0.9493
 5870SOL     OW29245   1.851   0.662   5.007  0.3559  0.0817 -0.3648
 5870SOL    HW129246   1.891   0.721   5.072 -0.3012  0.6060 -0.4360
 5870SOL    HW229247   1.811   0.724   4.946  0.7421  1.6339  0.9635
 5871SOL     OW29248   3.747   3.113  17.125 -0.1956 -0.7095 -0.4559
 5871SOL    HW129249   3.721   3.194  17.082  0.4077 -0.2077  0.1155
 5871SOL    HW229250   3.664   3.064  17.128  0.1016 -1.3996 -4.0178
 5872SOL     OW29251   3.492   4.629   0.408  0.1459  0.6001  0.1377
 5872SOL    HW129252   3.561   4.572   0.373 -0.3151  1.0569 -1.5265
 5872SOL    HW229253   3.552   4.691   0.451  1.6261  0.7551 -2.1400
 5873SOL     OW29254   3.186   3.586  12.164 -0.0823 -0.5878  0.2528
 5873SOL    HW129255   3.092   3.569  12.157  0.1920 -2.4617  1.2293
 5873SOL    HW229256   3.229   3.507  12.130 -1.4824  0.2652 -3.5849
 5874SOL     OW29257   3.158   3.408   9.120  0.1351  0.3756 -0.5370
 5874SOL    HW129258   3.225   3.343   9.138  1.6070  2.2032  0.6395
 5874SOL    HW229259   3.130   3.442   9.205 -0.8829 -2.9966  0.4382
 5875SOL     OW29260   4.554   2.153   9.347 -0.2407 -0.1368  0.2450
 5875SOL    HW129261   4.576   2.060   9.349  2.3954  0.5100  0.8196
 5875SOL    HW229262   4.459   2.140   9.338  0.0769 -0.9170 -2.0134
 5876SOL     OW29263   3.368   1.071  10.120  0.1824 -0.1331  0.4053
 5876SOL    HW129264   3.455   1.087  10.158  0.2307  0.4526  0.0559
 5876SOL    HW229265   3.316   1.086  10.198 -1.4948  0.1795 -0.7774
 5877SOL     OW29266   4.182   3.466   7.029  0.7192 -0.6025 -0.2207
 5877SOL    HW129267   4.104   3.518   7.044  0.8157  0.6264 -4.1111
 5877SOL    HW229268   4.144   3.397   6.975  3.4181 -1.7153 -0.6956
 5878SOL     OW29269   3.789   3.117   6.385 -0.3582 -0.2259  0.5649
 5878SOL    HW129270   3.719   3.150   6.329 -1.1469  0.7358  2.0893
 5878SOL    HW229271   3.859   3.162   6.338  1.0176  0.1212  2.8935
 5879SOL     OW29272   3.107   4.647   6.988  0.0070  0.2427 -0.1658
 5879SOL    HW129273   3.172   4.579   6.969 -0.9756 -0.3657 -1.3983
 5879SOL    HW229274   3.030   4.598   6.958 -0.3704  1.1829 -0.7042
 5880SOL     OW29275   3.025   0.685   2.867  0.0296 -0.1166 -0.1103
 5880SOL    HW129276   3.084   0.724   2.802 -0.3389 -0.4728 -0.6573
 5880SOL    HW229277   3.076   0.615   2.907  0.1370  0.0517  0.0482
 5881SOL     OW29278   4.603   2.644   7.186  0.3099 -0.0832  0.1299
 5881SOL    HW129279   4.685   2.683   7.215  1.1695 -1.7195 -0.1259
 5881SOL    HW229280   4.574   2.587   7.257 -0.9689 -0.8708 -1.0247
 5882SOL     OW29281   3.348   4.643   9.154  0.5064 -0.5009  0.1049
 5882SOL    HW129282   3.305   4.616   9.235 -2.9614 -1.3925 -2.0059
 5882SOL    HW229283   3.426   4.590   9.165  0.4016 -0.3669  1.4836
 5883SOL     OW29284   0.708   3.044   5.846 -0.2611  0.4872  0.5490
 5883SOL    HW129285   0.711   3.089   5.930  1.1098  1.5580 -0.0744
 5883SOL    HW229286   0.673   3.110   5.786 -0.2691 -0.9125 -1.0015
 5884SOL     OW29287   0.152   0.024   8.569  0.2680  0.4016  0.2229
 5884SOL    HW129288   0.164   0.101   8.624  0.4236  0.7984 -0.3657
 5884SOL    HW229289   0.245   0.004   8.552  0.1834  1.0182 -0.9174
 5885SOL     OW29290   2.602   4.088   6.511 -0.2844  0.3084 -0.0240
 5885SOL    HW129291   2.553   4.015   6.474 -0.6439  0.1993  0.6575
 5885SOL    HW229292   2.566   4.097   6.600  0.9094 -1.3598  0.6264
 5886SOL     OW29293   3.597   1.293  10.063  0.5970  0.3502  0.3718
 5886SOL    HW129294   3.515   1.329  10.098 -1.0561 -0.7109 -2.4071
 5886SOL    HW229295   3.578   1.271   9.972 -0.3934 -0.5645  0.8005
 5887SOL     OW29296   4.607   1.410   8.013  0.3838 -0.1858 -0.3186
 5887SOL    HW129297   4.596   1.349   8.086 -0.2755 -0.0480 -0.2969
 5887SOL    HW229298   4.686   1.391   7.962  1.7258  2.9060  0.6226
 5888SOL     OW29299   3.984   2.541   3.629 -0.2638 -0.0698 -0.4125
 5888SOL    HW129300   4.057   2.561   3.688 -0.1930 -2.8509  0.4801
 5888SOL    HW229301   4.009   2.571   3.542 -0.6383 -1.6775 -1.0723
 5889SOL     OW29302   2.078   0.047   8.484 -0.5172  0.5790  0.2064
 5889SOL    HW129303   2.039   0.005   8.561 -3.5691  1.3189 -0.9505
 5889SOL    HW229304   2.022   0.124   8.493  0.5569  1.2623  0.9676
 5890SOL     OW29305   1.999   4.203  13.577  0.6000 -0.3917 -0.5487
 5890SOL    HW129306   1.909   4.208  13.545 -0.2406 -0.9670  1.7376
 5890SOL    HW229307   1.993   4.145  13.652 -2.2696 -0.5166 -0.8909
 5891SOL     OW29308   2.908   0.680   9.568  0.0997 -0.0205 -0.6670
 5891SOL    HW129309   2.874   0.745   9.631  1.3405 -0.6442  0.6298
 5891SOL    HW229310   2.946   0.736   9.501  1.3858 -1.3693 -1.0489
 5892SOL     OW29311   0.174   3.463  17.175 -0.4584 -0.3640  0.1829
 5892SOL    HW129312   0.196   3.377  17.213  0.8940  0.2273  0.7155
 5892SOL    HW229313   0.135   3.509  17.250 -1.6253  1.5290 -1.6062
 5893SOL     OW29314   4.411   0.838   5.245 -0.3365 -0.1070 -0.7130
 5893SOL    HW129315   4.497   0.802   5.223 -0.1377  0.5750 -1.0538
 5893SOL    HW229316   4.374   0.775   5.306  0.4376  0.9479  0.8328
 5894SOL     OW29317   0.675   0.674   5.911  0.2574  0.5169  0.4370
 5894SOL    HW129318   0.681   0.647   6.003  3.2481 -1.7469 -0.4231
 5894SOL    HW229319   0.765   0.661   5.883  0.0726 -0.7633  0.3983
 5895SOL     OW29320   0.404   1.138   0.082 -0.2516  0.2818 -0.2035
 5895SOL    HW129321   0.375   1.186   0.005 -0.4844  2.6661  1.3775
 5895SOL    HW229322   0.416   1.052   0.042 -0.5682  0.2358 -0.1971
 5896SOL     OW29323   3.297   3.815   2.072 -0.1295 -0.2330 -0.2073
 5896SOL    HW129324   3.354   3.738   2.074  0.2258  0.0184 -0.5447
 5896SOL    HW229325   3.309   3.869   2.151  0.7796  1.8709 -1.7696
 5897SOL     OW29326   0.283   1.769  14.195 -0.4945  0.2175  0.3872
 5897SOL    HW129327   0.350   1.836  14.182  0.0236 -0.4608 -0.4026
 5897SOL    HW229328   0.330   1.686  14.187  1.3955  1.3473 -0.1613
 5898SOL     OW29329   3.035   0.721   5.437 -0.2633 -0.0292  0.2187
 5898SOL    HW129330   3.126   0.692   5.431 -0.4694 -0.1630 -1.9692
 5898SOL    HW229331   2.995   0.670   5.367 -0.9911 -1.6518  1.7855
 5899SOL     OW29332   4.376   4.265   5.184  0.1135  0.4245 -0.2914
 5899SOL    HW129333   4.317   4.279   5.110 -0.1932  1.3768  0.1350
 5899SOL    HW229334   4.327   4.213   5.247  1.4168  0.4093  0.7194
 5900SOL     OW29335   0.764   1.180   5.032  0.5618  0.1652 -0.3792
 5900SOL    HW129336   0.687   1.235   5.020  0.1474 -0.9002 -2.5366
 5900SOL    HW229337   0.724   1.094   5.044  0.0583  0.2846 -1.2091
 5901SOL     OW29338   1.155   0.378  12.040  0.3291 -0.1159  0.9833
 5901SOL    HW129339   1.248   0.384  12.059 -0.0069  1.2553  2.2387
 5901SOL    HW229340   1.129   0.356  12.129 -0.2927 -0.9716  0.5905
 5902SOL     OW29341   4.425   1.623   9.565  0.7868  0.2427 -0.7702
 5902SOL    HW129342   4.335   1.630   9.595  0.9342 -1.8663  0.1521
 5902SOL    HW229343   4.459   1.545   9.608  1.6942  0.7406 -0.5774
 5903SOL     OW29344   4.665   1.125  16.585  0.0464  0.2749 -0.5873
 5903SOL    HW129345   4.624   1.153  16.666 -1.1902  0.7025 -1.3576
 5903SOL    HW229346   0.009   1.092  16.622  0.2160  0.7562 -0.5375
 5904SOL     OW29347   4.646   4.527   5.777  0.2886  0.1455  0.4474
 5904SOL    HW129348   4.626   4.620   5.772 -2.3989 -0.4872 -0.6847
 5904SOL    HW229349   4.643   4.508   5.871 -0.5049 -0.0784  0.3734
 5905SOL     OW29350   2.416   1.051   6.667 -0.0451 -0.7762 -0.2301
 5905SOL    HW129351   2.495   1.094   6.702 -1.0158 -0.4746  1.5860
 5905SOL    HW229352   2.365   1.132   6.673  1.1905  0.0414 -0.7120
 5906SOL     OW29353   1.884   3.159   6.256 -0.4652 -0.3491 -0.4554
 5906SOL    HW129354   1.849   3.129   6.340 -0.2616  0.3583 -0.1158
 5906SOL    HW229355   1.818   3.225   6.235  1.4326  1.7803  0.2094
 5907SOL     OW29356   2.847   2.584   7.040  0.4250  0.1463  0.5248
 5907SOL    HW129357   2.757   2.552   7.037  0.2930  0.2142  3.2183
 5907SOL    HW229358   2.859   2.600   6.947 -1.1620 -1.3598  0.0701
 5908SOL     OW29359   0.478   3.515  14.357 -0.7384  0.2574 -0.0853
 5908SOL    HW129360   0.446   3.518  14.267  0.3476 -0.6858 -0.4968
 5908SOL    HW229361   0.405   3.511  14.420 -1.0456  0.2715 -0.4417
 5909SOL     OW29362   0.618   2.317   6.085  0.1101 -0.1726 -0.4451
 5909SOL    HW129363   0.577   2.365   6.014 -1.3790 -0.3782  0.2769
 5909SOL    HW229364   0.684   2.263   6.041 -1.1351 -0.7527 -1.5763
 5910SOL     OW29365   1.910   3.891  17.241 -0.0056 -0.5395  0.4181
 5910SOL    HW129366   1.916   3.799  17.264 -1.8534  0.1055  3.5178
 5910SOL    HW229367   1.996   3.908  17.202 -1.0426 -0.3134 -1.7694
 5911SOL     OW29368   0.974   2.202  14.599  0.4882  0.3225 -0.0081
 5911SOL    HW129369   1.068   2.182  14.604  0.4861  0.7925  1.9830
 5911SOL    HW229370   0.937   2.114  14.594 -1.2918  1.1575 -1.3003
 5912SOL     OW29371   4.716   1.628   6.163  0.0415  0.2323  0.3272
 5912SOL    HW129372   0.042   1.688   6.125 -2.6106  2.1395 -1.1055
 5912SOL    HW229373   4.643   1.681   6.196  1.5644  0.8578  2.7044
 5913SOL     OW29374   4.327   1.062   4.083 -0.0511  0.1955  0.1568
 5913SOL    HW129375   4.273   1.077   4.161  1.2332  2.8462  0.5574
 5913SOL    HW229376   4.288   1.129   4.027  1.8731  0.3585 -0.9795
 5914SOL     OW29377   1.159   1.019   3.310  0.2100  0.1809 -0.2618
 5914SOL    HW129378   1.084   1.023   3.369 -1.5687  0.3683 -2.5737
 5914SOL    HW229379   1.210   1.094   3.342 -1.1330  1.9389 -2.2069
 5915SOL     OW29380   1.471   4.430   6.172 -0.0741  0.5238 -0.5136
 5915SOL    HW129381   1.531   4.483   6.120  1.3101  1.9849  2.5631
 5915SOL    HW229382   1.486   4.468   6.259 -2.0915 -0.4197  0.2472
 5916SOL     OW29383   1.204   3.094   4.356  0.1538  0.0177 -0.2225
 5916SOL    HW129384   1.185   3.046   4.275  2.5527  0.3681 -0.9736
 5916SOL    HW229385   1.165   3.181   4.344 -0.5746 -0.0971  1.2781
 5917SOL     OW29386   2.859   1.068   9.784 -0.2572  0.2591 -0.0675
 5917SOL    HW129387   2.937   1.103   9.740 -0.7633  0.5607 -0.7197
 5917SOL    HW229388   2.815   1.036   9.706 -0.2242 -1.9206  0.8084
 5918SOL     OW29389   2.952   0.173   2.748 -0.3345 -0.3939  0.0671
 5918SOL    HW129390   3.031   0.152   2.697  0.1538  0.8519  0.3163
 5918SOL    HW229391   2.937   0.258   2.707  3.0720  0.6008  0.9120
 5919SOL     OW29392   1.988   4.060  15.714  0.0072  0.2286  0.0246
 5919SOL    HW129393   1.953   3.975  15.685  0.8927 -0.4434  0.9629
 5919SOL    HW229394   2.083   4.050  15.714 -0.1949 -1.6529  0.4617
 5920SOL     OW29395   2.604   3.810   2.246 -0.0592  0.5608 -0.0550
 5920SOL    HW129396   2.558   3.867   2.185  1.3150  0.5616 -1.0876
 5920SOL    HW229397   2.568   3.723   2.227  0.3519  0.3860 -0.0222
 5921SOL     OW29398   1.167   4.273   3.433 -0.0573 -0.1963 -0.5129
 5921SOL    HW129399   1.199   4.194   3.476  3.7589  1.2893 -0.6817
 5921SOL    HW229400   1.135   4.326   3.506  1.8088  0.4214 -0.1410
 5922SOL     OW29401   2.839   2.109   9.168 -0.3095  0.5461  0.4537
 5922SOL    HW129402   2.750   2.143   9.176  0.1901  1.9002  0.1986
 5922SOL    HW229403   2.879   2.182   9.121 -2.0958  0.0883 -1.7672
 5923SOL     OW29404   2.587   4.374   9.541 -0.1719 -0.0502  0.0388
 5923SOL    HW129405   2.604   4.448   9.483 -1.0300  1.1978  1.3607
 5923SOL    HW229406   2.673   4.333   9.547  0.0668  0.6832  1.6676
 5924SOL     OW29407   1.767   4.527   7.388  0.1870 -0.6372 -0.4966
 5924SOL    HW129408   1.823   4.474   7.445 -1.2988 -1.4609  0.2043
 5924SOL    HW229409   1.681   4.508   7.426  1.0513 -0.2529  1.6553
 5925SOL     OW29410   0.901   1.834   5.115  0.0303 -0.3910  0.0823
 5925SOL    HW129411   0.862   1.763   5.166 -0.9888  2.3025  3.0770
 5925SOL    HW229412   0.932   1.901   5.176  1.7781 -0.4136 -0.7958
 5926SOL     OW29413   4.126   3.952  14.410 -0.6585 -0.1840 -0.4202
 5926SOL    HW129414   4.034   3.977  14.399 -0.4306  1.4557  1.4903
 5926SOL    HW229415   4.168   4.017  14.354  1.2184 -1.4625 -0.4906
 5927SOL     OW29416   0.704   2.875   2.939 -0.5986  0.5110  0.5540
 5927SOL    HW129417   0.663   2.789   2.936 -0.4707  0.5159 -1.1892
 5927SOL    HW229418   0.644   2.939   2.900  0.9690  1.0774 -0.9391
 5928SOL     OW29419   4.182   0.537   8.524  0.1507  0.2455  0.3152
 5928SOL    HW129420   4.107   0.576   8.479  0.6734 -0.1520 -0.8972
 5928SOL    HW229421   4.134   0.484   8.588 -1.5537 -0.8854 -1.9073
 5929SOL     OW29422   2.586   1.133   2.212  0.1434  0.2257  0.1077
 5929SOL    HW129423   2.643   1.108   2.140  1.3447  0.6441  0.9258
 5929SOL    HW229424   2.590   1.056   2.268 -0.6918  0.7563  0.8999
 5930SOL     OW29425   1.841   1.185   5.172  0.1707 -0.2288 -0.0337
 5930SOL    HW129426   1.926   1.213   5.205  0.7947 -2.3527  0.1628
 5930SOL    HW229427   1.799   1.154   5.253 -2.1293  1.1256 -0.6940
 5931SOL     OW29428   2.846   1.929   2.113 -0.3427  1.0073  0.5198
 5931SOL    HW129429   2.909   1.861   2.136 -1.8997  0.1977  2.2939
 5931SOL    HW229430   2.797   1.944   2.193  0.6452  1.0486  1.1129
 5932SOL     OW29431   0.497   2.385   9.133 -0.2594 -0.5662  0.1860
 5932SOL    HW129432   0.444   2.464   9.136  0.6829  0.0635  0.2650
 5932SOL    HW229433   0.574   2.417   9.086  0.1574  1.0156  1.9645
 5933SOL     OW29434   0.428   1.944   7.668  0.3433 -0.0187  0.3911
 5933SOL    HW129435   0.410   1.918   7.758  0.7026 -2.7002 -0.3025
 5933SOL    HW229436   0.523   1.950   7.665  0.4234 -0.2495  2.6551
 5934SOL     OW29437   0.387   1.305   8.440 -0.2693  0.5266 -0.3768
 5934SOL    HW129438   0.387   1.297   8.345  0.1919  0.2797 -0.3576
 5934SOL    HW229439   0.344   1.390   8.450  0.8802  0.9098  1.3378
 5935SOL     OW29440   3.281   4.606   8.874  0.1548 -0.4447 -0.6201
 5935SOL    HW129441   3.322   4.616   8.960  3.4847 -1.9871 -2.0090
 5935SOL    HW229442   3.346   4.652   8.820  0.9457 -0.7477  0.0723
 5936SOL     OW29443   3.840   3.722  16.016  0.1364  0.9004  0.2762
 5936SOL    HW129444   3.793   3.739  15.935 -0.8606  1.9858  1.0979
 5936SOL    HW229445   3.917   3.690  15.968 -1.7149 -0.7098 -1.5804
 5937SOL     OW29446   4.421   2.848   5.102 -0.5268  0.2117  0.2178
 5937SOL    HW129447   4.437   2.826   5.010 -2.6433  0.8662 -0.3022
 5937SOL    HW229448   4.480   2.917   5.132 -0.5700  0.2922  0.1167
 5938SOL     OW29449   1.307   3.187   2.337  0.1446  0.8265 -0.2258
 5938SOL    HW129450   1.288   3.165   2.428 -1.6137  0.2616 -0.7288
 5938SOL    HW229451   1.400   3.165   2.326 -0.7293 -2.7816 -0.3582
 5939SOL     OW29452   4.586   1.483   4.843 -0.1644 -0.3341  0.0658
 5939SOL    HW129453   4.640   1.430   4.785 -0.3458  0.2717 -0.6597
 5939SOL    HW229454   4.637   1.494   4.923 -0.9674  0.5103  0.4664
 5940SOL     OW29455   0.069   2.047  16.603 -0.1572 -0.0862 -0.3488
 5940SOL    HW129456   0.081   2.049  16.698  1.3721 -3.5713 -0.4895
 5940SOL    HW229457   0.141   2.089  16.556 -0.4035  0.2291 -0.4470
 5941SOL     OW29458   2.879   0.679   6.094  0.2287  0.3680 -0.1990
 5941SOL    HW129459   2.843   0.687   6.005  2.8240  0.0902 -1.2785
 5941SOL    HW229460   2.951   0.742   6.099  1.0444 -0.5807 -0.0274
 5942SOL     OW29461   1.940   2.874  11.181 -0.2791  0.7958 -0.2659
 5942SOL    HW129462   1.887   2.925  11.242  0.4009 -0.2711  1.2371
 5942SOL    HW229463   1.935   2.787  11.221 -0.2200  1.5648  1.4172
 5943SOL     OW29464   4.192   3.381   0.834 -0.8619 -0.3931 -0.1455
 5943SOL    HW129465   4.190   3.391   0.738  1.4731 -0.0675 -0.1529
 5943SOL    HW229466   4.171   3.289   0.850  2.8375 -1.1519  0.1621
 5944SOL     OW29467   2.931   2.019   3.576  0.3562  0.0978 -0.1711
 5944SOL    HW129468   2.920   1.929   3.608 -0.7190  0.2266 -0.1703
 5944SOL    HW229469   3.014   2.028   3.622 -0.2202  0.2155  0.8557
 5945SOL     OW29470   1.340   0.832   4.286  0.2119  0.1513  0.5437
 5945SOL    HW129471   1.306   0.884   4.213 -1.2488  2.2727  2.7256
 5945SOL    HW229472   1.259   0.832   4.336  0.0023 -2.1513  0.2072
 5946SOL     OW29473   0.655   1.147   8.292  0.4022 -0.2198  0.1158
 5946SOL    HW129474   0.652   1.060   8.332  2.7212 -1.2386 -1.8834
 5946SOL    HW229475   0.579   1.173   8.240  0.4639 -0.4059 -0.0685
 5947SOL     OW29476   3.837   4.010   2.404  0.2973 -0.4731 -0.4038
 5947SOL    HW129477   3.872   3.936   2.454  0.8652  0.4339  0.5303
 5947SOL    HW229478   3.743   3.999   2.418  0.3487  1.3516  1.4260
 5948SOL     OW29479   0.355   2.076   3.585  0.2173  0.0696 -0.1184
 5948SOL    HW129480   0.360   2.025   3.666  2.3657  0.6458  0.1010
 5948SOL    HW229481   0.331   2.007   3.523  0.8449  0.1212 -0.4089
 5949SOL     OW29482   3.852   3.044   2.045  0.4717 -0.0465  0.2420
 5949SOL    HW129483   3.893   3.061   1.960  1.2919 -1.2498  0.4150
 5949SOL    HW229484   3.778   3.105   2.041 -0.0547 -0.7528 -1.0703
 5950SOL     OW29485   3.410   4.039   6.996 -0.0665  0.5031 -0.2257
 5950SOL    HW129486   3.470   4.113   6.991  3.4989 -2.2972  1.6933
 5950SOL    HW229487   3.397   4.034   6.901 -0.8898 -0.0314 -0.0932
 5951SOL     OW29488   1.752   0.272   5.760  0.1142 -0.2272 -0.0038
 5951SOL    HW129489   1.708   0.187   5.765 -0.8001  0.1892 -1.0203
 5951SOL    HW229490   1.841   0.254   5.729 -0.6011  0.5123 -2.5323
 5952SOL     OW29491   0.329   2.781  12.613 -0.5586  0.7121  0.3934
 5952SOL    HW129492   0.347   2.715  12.546  2.3443  0.7061  1.1895
 5952SOL    HW229493   0.236   2.791  12.591 -0.7379 -0.5519  0.5723
 5953SOL     OW29494   2.747   3.978   5.134 -0.3181  0.1609 -0.1164
 5953SOL    HW129495   2.814   3.995   5.200  0.0949 -0.8454 -0.2689
 5953SOL    HW229496   2.672   3.991   5.192  0.8252 -0.1622  1.4265
 5954SOL     OW29497   1.840   1.763   5.926 -0.0658 -0.6467 -0.1397
 5954SOL    HW129498   1.856   1.755   6.020 -0.0792  1.9342  0.0841
 5954SOL    HW229499   1.897   1.696   5.889  0.6951 -0.7686  1.2618
 5955SOL     OW29500   0.507   0.738   0.642 -0.2793 -0.3523 -0.3841
 5955SOL    HW129501   0.428   0.727   0.695 -0.4708  1.2715 -0.3176
 5955SOL    HW229502   0.500   0.824   0.600  1.1181 -0.1314 -0.1831
 5956SOL     OW29503   1.250   4.646  12.741 -0.2793 -0.2142 -0.0500
 5956SOL    HW129504   1.205   4.730  12.755  1.7755  0.9942 -0.6353
 5956SOL    HW229505   1.223   4.631  12.651 -0.7256 -1.0706  0.2220
 5957SOL     OW29506   2.385   4.732   7.137 -0.0771 -0.1636 -0.1548
 5957SOL    HW129507   2.471   0.033   7.117 -0.1684  0.9471  1.5588
 5957SOL    HW229508   2.403   4.672   7.210  0.3654  1.1224  0.8027
 5958SOL     OW29509   0.239   4.640   3.642  0.3156 -0.0567 -0.2551
 5958SOL    HW129510   0.273   4.636   3.553 -0.2205  1.1914 -0.5137
 5958SOL    HW229511   0.248   4.546   3.660 -0.2112  0.2763  1.7201
 5959SOL     OW29512   4.219   1.213   1.866  0.2557 -0.5513  0.1168
 5959SOL    HW129513   4.284   1.182   1.930 -0.0084  0.7355  1.0074
 5959SOL    HW229514   4.149   1.157   1.898  0.2753 -0.9830 -0.5984
 5960SOL     OW29515   1.860   0.327  13.947 -0.3666  0.1521  0.4777
 5960SOL    HW129516   1.891   0.329  14.037  0.1124  0.3174  0.3085
 5960SOL    HW229517   1.897   0.242  13.922 -0.7325 -0.0735  0.6993
 5961SOL     OW29518   0.493   2.480   3.300 -0.2142 -0.1278 -0.1176
 5961SOL    HW129519   0.563   2.479   3.365 -1.5491 -3.0097  1.2528
 5961SOL    HW229520   0.436   2.409   3.331 -1.1129  1.1093  1.0310
 5962SOL     OW29521   0.768   1.099   9.298 -0.6444 -0.2490  1.1090
 5962SOL    HW129522   0.854   1.109   9.257 -0.7577 -1.0597  0.6763
 5962SOL    HW229523   0.743   1.007   9.285  2.3102 -0.8786 -0.2404
 5963SOL     OW29524   4.674   3.698   5.183 -1.1579  0.0810 -0.2195
 5963SOL    HW129525   4.625   3.673   5.261 -0.3870  0.4173  0.3652
 5963SOL    HW229526   4.609   3.708   5.113  0.2537 -0.3977 -1.5977
 5964SOL     OW29527   3.741   0.653   2.764 -0.0150 -0.2042  0.0930
 5964SOL    HW129528   3.784   0.702   2.694  0.0195 -0.5518 -0.1298
 5964SOL    HW229529   3.792   0.671   2.843 -1.1894  2.6458  0.2005
 5965SOL     OW29530   3.255   1.439   7.166 -0.3609  0.4208  0.5034
 5965SOL    HW129531   3.239   1.351   7.132 -1.3571 -0.4114  3.1210
 5965SOL    HW229532   3.203   1.489   7.102  0.6298  0.1939 -0.4783
 5966SOL     OW29533   3.323   1.816  14.420 -0.5259 -0.4346 -0.1130
 5966SOL    HW129534   3.350   1.762  14.495 -1.8749  0.3490  0.9460
 5966SOL    HW229535   3.231   1.794  14.427 -1.2163  4.0218  4.9117
 5967SOL     OW29536   2.630   3.483  13.858  0.0627 -0.2418 -0.5125
 5967SOL    HW129537   2.642   3.578  13.847  0.6143 -0.1298  1.0767
 5967SOL    HW229538   2.689   3.457  13.929  2.3564  1.1498 -1.9158
 5968SOL     OW29539   3.385   3.221   1.863 -0.0424 -0.2600  0.3364
 5968SOL    HW129540   3.387   3.258   1.775 -3.7824 -1.8040 -0.4118
 5968SOL    HW229541   3.308   3.262   1.901 -1.1465  0.0515 -2.2303
 5969SOL     OW29542   1.960   4.418   4.916  0.2167 -0.1933 -0.2063
 5969SOL    HW129543   2.046   4.394   4.950 -0.1251 -0.4432  0.4755
 5969SOL    HW229544   1.959   4.377   4.829  0.1713  0.7807 -0.6692
 5970SOL     OW29545   3.258   2.158   4.908  0.5875  0.7437  0.2650
 5970SOL    HW129546   3.267   2.138   4.815 -1.3153 -2.5421  0.8086
 5970SOL    HW229547   3.262   2.068   4.941 -1.5585  0.2940 -0.7148
 5971SOL     OW29548   2.380   2.499   7.093 -0.2042 -0.3289 -0.3056
 5971SOL    HW129549   2.348   2.410   7.104  0.1025 -0.6221 -1.6919
 5971SOL    HW229550   2.300   2.551   7.085  0.5839  0.8641 -0.3928
 5972SOL     OW29551   4.623   0.733   7.567  0.1566  0.0426  0.3578
 5972SOL    HW129552   4.676   0.714   7.490  1.7135  2.4880  0.8068
 5972SOL    HW229553   4.661   0.817   7.593  0.7388 -0.1842  0.2422
 5973SOL     OW29554   1.825   0.488  14.937  0.5040  0.2041  0.5128
 5973SOL    HW129555   1.898   0.465  14.995 -0.9398 -2.9801  1.0739
 5973SOL    HW229556   1.857   0.569  14.898  1.1835 -1.4830 -2.4580
 5974SOL     OW29557   0.149   4.717   5.008  0.5490 -0.3894 -0.0309
 5974SOL    HW129558   0.071   4.685   4.963 -0.9200  3.2546 -0.0746
 5974SOL    HW229559   0.123   4.701   5.099  0.2197  1.0614  0.1451
 5975SOL     OW29560   1.240   0.242   4.299 -0.0503 -0.1141  0.2861
 5975SOL    HW129561   1.286   0.188   4.235  1.6572 -0.4929  1.8139
 5975SOL    HW229562   1.260   0.334   4.284  3.1698 -0.7056  1.0534
 5976SOL     OW29563   4.145   3.162  15.486  0.2252  0.0036 -0.2252
 5976SOL    HW129564   4.147   3.193  15.577  0.4531 -1.0629  0.1312
 5976SOL    HW229565   4.099   3.234  15.443  1.7227  1.1549  0.1070
 5977SOL     OW29566   3.385   3.636   1.384 -0.3521 -0.1091  0.8137
 5977SOL    HW129567   3.421   3.567   1.327 -1.0792  1.8684 -2.0538
 5977SOL    HW229568   3.310   3.579   1.402 -0.1453 -0.5219  0.3811
 5978SOL     OW29569   4.624   4.354  11.028 -0.6184 -0.2770  0.4242
 5978SOL    HW129570   4.647   4.278  11.081  0.2437 -0.9795 -0.9523
 5978SOL    HW229571   4.616   4.415  11.101  0.4589  1.1929 -0.6711
 5979SOL     OW29572   1.118   3.006   4.031  0.0830 -0.0401 -0.1272
 5979SOL    HW129573   1.059   3.082   4.038 -1.0975 -0.9896  0.2800
 5979SOL    HW229574   1.049   2.944   4.007 -0.2293  0.3569 -0.2769
 5980SOL     OW29575   3.461   3.525   7.993 -0.1313  0.4048  0.1199
 5980SOL    HW129576   3.472   3.449   7.936 -1.1831 -0.2505  0.7798
 5980SOL    HW229577   3.424   3.577   7.922  2.1576  0.7903 -0.7689
 5981SOL     OW29578   0.143   1.401   7.161 -0.1968 -0.3296  0.7263
 5981SOL    HW129579   0.053   1.434   7.158  0.4183  1.5645  2.7325
 5981SOL    HW229580   0.162   1.405   7.255  1.3446 -0.2127  0.3949
 5982SOL     OW29581   3.799   1.949   5.609 -0.8640 -0.0952 -0.7053
 5982SOL    HW129582   3.839   1.993   5.534  2.5006 -1.3301  0.3443
 5982SOL    HW229583   3.762   1.869   5.572  0.5846 -1.7952  1.5171
 5983SOL     OW29584   1.058   2.166   2.645 -0.2995 -0.6493  0.7497
 5983SOL    HW129585   1.005   2.237   2.609  1.3991 -0.4366 -1.3235
 5983SOL    HW229586   1.140   2.217   2.645 -0.8581  0.2328 -1.4709
 5984SOL     OW29587   1.333   3.066   7.750 -0.1844 -0.3934 -0.1168
 5984SOL    HW129588   1.391   3.043   7.823 -1.3802 -3.2819 -0.0666
 5984SOL    HW229589   1.392   3.065   7.675  1.3829 -1.3564  1.1196
 5985SOL     OW29590   0.418   4.667   8.516 -0.3887  0.1532 -0.0152
 5985SOL    HW129591   0.478   4.593   8.508 -1.3080 -0.6885  0.8347
 5985SOL    HW229592   0.474   0.005   8.503 -0.9675  0.9248  2.0116
 5986SOL     OW29593   2.622   3.566   5.384  0.2023  0.3674 -0.3552
 5986SOL    HW129594   2.548   3.532   5.433 -0.7012  1.8074 -0.7233
 5986SOL    HW229595   2.654   3.632   5.445  1.5682 -0.3706 -0.2730
 5987SOL     OW29596   1.412   2.863  13.116 -0.2569 -0.5842 -0.2290
 5987SOL    HW129597   1.383   2.952  13.136  2.7938  0.5144 -0.7255
 5987SOL    HW229598   1.410   2.831  13.206 -1.2284 -2.6583 -0.9759
 5988SOL     OW29599   3.468   3.224   6.951  0.3226  0.4728 -0.4579
 5988SOL    HW129600   3.421   3.248   7.031 -1.7075 -0.5296 -1.3634
 5988SOL    HW229601   3.443   3.132   6.950  0.6884  0.3650 -0.0409
 5989SOL     OW29602   3.719   2.861   6.659 -0.0573  0.3265 -0.3094
 5989SOL    HW129603   3.740   2.774   6.692  2.0527  0.2966 -1.7389
 5989SOL    HW229604   3.756   2.854   6.572 -1.8720 -2.1851 -0.8732
 5990SOL     OW29605   0.424   0.682   4.169  0.2939 -0.1337  0.4798
 5990SOL    HW129606   0.424   0.752   4.103  1.3591  1.1841  1.8664
 5990SOL    HW229607   0.343   0.704   4.217 -0.1777 -1.3346  0.2246
 5991SOL     OW29608   0.895   2.863   3.943 -0.4116 -0.4186  0.3407
 5991SOL    HW129609   0.952   2.788   3.927  0.5058  0.2534  0.4559
 5991SOL    HW229610   0.812   2.828   3.976 -0.3852 -1.0326 -0.2641
 5992SOL     OW29611   0.404   2.663   0.320 -0.3080  0.1813 -0.2005
 5992SOL    HW129612   0.497   2.684   0.310 -0.4977  0.7737 -0.7105
 5992SOL    HW229613   0.386   2.684   0.411 -2.3257  0.4963 -0.6868
 5993SOL     OW29614   3.825   3.848   7.193  0.4713  0.3517 -0.2666
 5993SOL    HW129615   3.731   3.834   7.187  0.1700  1.3432  2.1776
 5993SOL    HW229616   3.835   3.817   7.283  1.7938 -1.2252 -0.9537
 5994SOL     OW29617   3.308   3.868   6.019 -0.1876 -0.2926 -0.3097
 5994SOL    HW129618   3.229   3.866   6.072  1.1529 -0.6208  1.6738
 5994SOL    HW229619   3.291   3.807   5.947  0.8008 -0.4592 -0.4146
 5995SOL     OW29620   2.131   4.191  17.419  0.3488  0.5405  0.4770
 5995SOL    HW129621   2.067   4.249  17.460 -1.0934 -0.5871 -0.1683
 5995SOL    HW229622   2.184   4.250  17.365  0.1270  0.4513  0.1583
 5996SOL     OW29623   1.919   0.354  17.371  0.9410  0.2280 -0.4250
 5996SOL    HW129624   1.827   0.330  17.365  1.0329 -0.9568  2.6795
 5996SOL    HW229625   1.923   0.346  17.466  0.1627  1.9122 -0.2450
 5997SOL     OW29626   0.388   3.029   5.438 -0.2986  0.3869  0.0510
 5997SOL    HW129627   0.426   2.968   5.502  0.6925  0.7460 -0.1975
 5997SOL    HW229628   0.313   3.063   5.486  0.0901  2.0915 -0.5756
 5998SOL     OW29629   4.555   2.164  10.955  0.2489 -0.6073  0.4100
 5998SOL    HW129630   4.650   2.151  10.948  0.7721  3.0744  0.5791
 5998SOL    HW229631   4.518   2.076  10.951 -1.0205  0.0198 -1.4823
 5999SOL     OW29632   0.680   3.390   1.126  0.5219 -0.6257 -0.3328
 5999SOL    HW129633   0.751   3.427   1.179  0.3755 -0.8225  0.0022
 5999SOL    HW229634   0.721   3.372   1.041 -2.0478 -0.0172 -1.6783
 6000SOL     OW29635   1.551   0.516   3.927 -0.2789  0.1471 -0.5660
 6000SOL    HW129636   1.474   0.461   3.941 -1.8263  1.7006 -2.8589
 6000SOL    HW229637   1.584   0.472   3.848  2.1366  1.2729 -0.1817
 6001SOL     OW29638   1.051   0.960   8.068 -0.0857  0.5847  0.6444
 6001SOL    HW129639   1.002   1.040   8.087  0.0967  0.3453  2.0614
 6001SOL    HW229640   1.060   0.921   8.154 -1.2513 -2.4819 -0.6386
 6002SOL     OW29641   3.106   2.485  16.783  1.1969  0.1223  0.2402
 6002SOL    HW129642   3.023   2.532  16.784  0.0454 -1.9455  0.9083
 6002SOL    HW229643   3.111   2.463  16.690  2.3138  0.5038  0.2090
 6003SOL     OW29644   0.596   3.060   7.029 -0.1089 -0.0292  0.2059
 6003SOL    HW129645   0.678   3.012   7.015 -0.1593  0.2658 -1.0533
 6003SOL    HW229646   0.532   3.010   6.980 -0.5258 -0.1301  0.8501
 6004SOL     OW29647   1.725   2.501   5.867 -0.0987  0.1800 -0.5039
 6004SOL    HW129648   1.716   2.499   5.771  2.1159  0.7635 -0.7299
 6004SOL    HW229649   1.756   2.589   5.885 -0.4641  0.6510 -2.1594
 6005SOL     OW29650   0.332   1.098  10.707  0.4703 -0.9669  0.0719
 6005SOL    HW129651   0.378   1.075  10.787 -2.6006  2.0100  2.6826
 6005SOL    HW229652   0.262   1.147  10.750  0.8656  0.3141 -0.7620
 6006SOL     OW29653   3.009   2.137  13.551  0.1487 -0.7296  0.2483
 6006SOL    HW129654   3.004   2.227  13.581 -0.3740 -0.7769  0.2968
 6006SOL    HW229655   3.090   2.153  13.501 -1.2606  1.6018 -1.2838
 6007SOL     OW29656   1.606   3.989   8.274 -0.0188  0.0293  0.2292
 6007SOL    HW129657   1.522   4.015   8.312  0.6304  1.2154  0.8516
 6007SOL    HW229658   1.638   4.077   8.259 -0.4047  0.2625  0.7815
 6008SOL     OW29659   1.944   0.902   1.375 -0.0280 -0.6341  0.0637
 6008SOL    HW129660   2.034   0.932   1.389  0.5978 -1.9608 -1.0020
 6008SOL    HW229661   1.972   0.811   1.363  0.2991 -0.4780 -0.3498
 6009SOL     OW29662   0.583   2.173  10.060  0.0115 -0.5949  0.2745
 6009SOL    HW129663   0.663   2.133  10.025  0.4544  0.0339  0.5758
 6009SOL    HW229664   0.519   2.102  10.046 -0.0982 -0.3243 -0.6122
 6010SOL     OW29665   4.166   3.968  14.694  0.6242  0.9523 -0.0587
 6010SOL    HW129666   4.087   3.927  14.729 -0.5756  2.4776 -0.9836
 6010SOL    HW229667   4.161   3.951  14.600 -2.1961 -0.2919  0.3417
 6011SOL     OW29668   0.816   2.946   9.206 -0.3496  0.6175  0.5882
 6011SOL    HW129669   0.803   2.979   9.117 -0.4246  0.7885  0.6637
 6011SOL    HW229670   0.739   2.983   9.249 -1.0132  1.5926 -1.4118
 6012SOL     OW29671   0.784   1.732   9.946 -0.5982 -0.2768 -0.0828
 6012SOL    HW129672   0.818   1.693   9.866 -1.8071  0.6218 -1.0157
 6012SOL    HW229673   0.802   1.825   9.934 -0.8526 -0.3101 -0.6856
 6013SOL     OW29674   0.949   0.797   3.286  0.2993  0.3736 -0.7512
 6013SOL    HW129675   0.993   0.850   3.220  3.1548 -2.2360 -0.9731
 6013SOL    HW229676   0.875   0.760   3.238  1.8581 -0.2190 -2.6939
 6014SOL     OW29677   4.448   0.611   7.281  0.0121  0.2927  0.0901
 6014SOL    HW129678   4.492   0.527   7.265  1.7379  1.2999 -0.5011
 6014SOL    HW229679   4.362   0.587   7.245  0.3213  1.4697 -1.4543
 6015SOL     OW29680   3.139   0.192   4.400  0.0028  0.0259  0.1930
 6015SOL    HW129681   3.089   0.156   4.473  1.1663 -2.5098 -0.2508
 6015SOL    HW229682   3.074   0.199   4.330  1.1937 -1.5398 -1.0382
 6016SOL     OW29683   0.522   3.149   6.271 -0.0137 -0.9786 -0.9006
 6016SOL    HW129684   0.552   3.083   6.333  1.9029  1.8490  1.1515
 6016SOL    HW229685   0.496   3.216   6.334  0.6042 -1.1585 -0.4515
 6017SOL     OW29686   4.269   2.704   5.484  0.5856 -0.4642  0.4824
 6017SOL    HW129687   4.274   2.608   5.481  2.2347 -0.3330 -1.1352
 6017SOL    HW229688   4.256   2.719   5.390 -2.3320  0.4942  1.0296
 6018SOL     OW29689   2.573   2.652   7.245  0.0288 -0.3062 -0.0694
 6018SOL    HW129690   2.553   2.684   7.156  0.7378  1.3878  0.3936
 6018SOL    HW229691   2.521   2.572   7.237  0.9577 -1.1799  2.8447
 6019SOL     OW29692   3.398   3.894   4.935 -0.4634  0.5687  0.1078
 6019SOL    HW129693   3.387   3.836   5.010 -2.3418 -0.1282 -0.7016
 6019SOL    HW229694   3.472   3.952   4.954  2.6313 -3.1681 -0.4670
 6020SOL     OW29695   4.420   0.488   8.973  0.4499  0.8121 -0.4734
 6020SOL    HW129696   4.359   0.423   9.007 -0.8066  3.3070  2.0077
 6020SOL    HW229697   4.372   0.571   8.981 -0.4040  0.2976 -0.3618
 6021SOL     OW29698   2.870   2.606  16.821  0.0118 -0.3125 -0.1672
 6021SOL    HW129699   2.801   2.565  16.768 -0.8156  0.1816  0.5212
 6021SOL    HW229700   2.866   2.698  16.793 -2.8061 -0.4413 -0.1817
 6022SOL     OW29701   3.596   1.193   0.157  0.7792  0.5733  0.0717
 6022SOL    HW129702   3.536   1.144   0.101  1.9610 -0.9232  0.1202
 6022SOL    HW229703   3.621   1.263   0.096 -2.0953 -0.6089 -2.5140
 6023SOL     OW29704   4.133   3.822   5.043  0.0991  0.0389  0.8157
 6023SOL    HW129705   4.206   3.824   5.105 -0.2770  0.2844  1.2484
 6023SOL    HW229706   4.074   3.889   5.075 -0.9137 -0.2429 -0.4604
 6024SOL     OW29707   3.577   0.758   1.943  0.1320 -0.1194  0.3009
 6024SOL    HW129708   3.514   0.707   1.994  1.3887 -1.9202  0.0298
 6024SOL    HW229709   3.654   0.705   1.965 -0.2197 -0.0145  1.7738
 6025SOL     OW29710   1.025   1.397   5.333 -0.1735  0.3960  0.3999
 6025SOL    HW129711   0.997   1.384   5.423 -0.3679  1.1406  0.4425
 6025SOL    HW229712   1.114   1.431   5.342  0.7508 -1.2115 -2.6490
 6026SOL     OW29713   3.838   4.147  16.983 -0.5168  0.2419  0.2188
 6026SOL    HW129714   3.865   4.238  16.995 -1.4606  0.2866  2.0025
 6026SOL    HW229715   3.911   4.091  17.009 -1.1671 -0.5052  0.4568
 6027SOL     OW29716   2.727   0.445   7.574 -0.1333 -0.4475  0.2140
 6027SOL    HW129717   2.667   0.455   7.648  0.2940  0.4763  0.4403
 6027SOL    HW229718   2.724   0.533   7.536 -1.0851 -0.7762 -0.4730
 6028SOL     OW29719   0.217   1.556   5.023  0.1465  0.3645  0.3948
 6028SOL    HW129720   0.256   1.555   4.935  1.0255 -1.0883  0.8122
 6028SOL    HW229721   0.165   1.636   5.015 -1.2657 -0.4259  1.5510
 6029SOL     OW29722   4.523   1.633  14.046 -0.0995 -0.1750 -0.1205
 6029SOL    HW129723   4.603   1.685  14.056 -0.5444  0.9156 -2.2328
 6029SOL    HW229724   4.522   1.576  14.122 -0.2520  0.7059  0.5332
 6030SOL     OW29725   0.302   3.184   6.840 -0.1553  0.3054  0.4693
 6030SOL    HW129726   0.394   3.207   6.837  0.3896 -1.9721 -0.1894
 6030SOL    HW229727   0.302   3.096   6.802 -1.5300  0.1730  0.7645
 6031SOL     OW29728   3.227   0.873   2.741 -0.2587  0.6808  0.0488
 6031SOL    HW129729   3.139   0.905   2.760 -1.6440 -2.9774 -0.2926
 6031SOL    HW229730   3.227   0.868   2.645  0.8918 -0.2362  0.0949
 6032SOL     OW29731   2.221   3.196  14.339 -0.0771 -0.0220 -0.0770
 6032SOL    HW129732   2.249   3.246  14.416 -0.8211  0.5543 -0.1740
 6032SOL    HW229733   2.289   3.209  14.274 -2.5868  2.1229 -2.2721
 6033SOL     OW29734   0.601   1.611  16.458  0.1405  0.0729 -0.3835
 6033SOL    HW129735   0.664   1.663  16.508  0.9113  1.1019 -2.4022
 6033SOL    HW229736   0.658   1.536  16.438  0.4574  0.6962 -1.8768
 6034SOL     OW29737   4.114   1.860  13.653  0.0765 -0.2157 -0.4047
 6034SOL    HW129738   4.125   1.776  13.698  1.1438  0.4922  0.6480
 6034SOL    HW229739   4.134   1.817  13.570  1.7759  0.3517 -0.3068
 6035SOL     OW29740   2.186   2.742   6.155  0.1515 -0.1267  0.3142
 6035SOL    HW129741   2.126   2.807   6.193  1.4994  0.7837  0.8792
 6035SOL    HW229742   2.143   2.694   6.085 -3.5853  1.8679  1.2360
 6036SOL     OW29743   1.280   2.101   7.396  0.1995  0.2027 -1.5947
 6036SOL    HW129744   1.364   2.054   7.391  1.2492  1.9314 -0.2562
 6036SOL    HW229745   1.248   2.093   7.486  0.4717  0.8316 -1.4411
 6037SOL     OW29746   3.225   0.070   5.663  0.1061 -0.2266  0.6775
 6037SOL    HW129747   3.233   0.086   5.757  1.7043  0.0408  0.5067
 6037SOL    HW229748   3.215   4.713   5.656  2.4544 -0.4374  0.1122
 6038SOL     OW29749   4.076   2.571   2.488  0.0792 -0.2434  0.6155
 6038SOL    HW129750   4.097   2.493   2.437  1.4304  0.6889 -0.2434
 6038SOL    HW229751   4.024   2.622   2.425 -0.0240 -2.4772 -1.0855
 6039SOL     OW29752   2.294   0.680   8.655  0.3580  0.0373  0.0183
 6039SOL    HW129753   2.258   0.680   8.743 -0.8304  0.1988 -0.4701
 6039SOL    HW229754   2.385   0.707   8.667  0.1538  2.4799 -3.6982
 6040SOL     OW29755   0.498   3.649   2.784 -0.1331 -0.2165 -0.9950
 6040SOL    HW129756   0.503   3.554   2.774  1.1922 -0.1553 -0.8581
 6040SOL    HW229757   0.575   3.661   2.840  0.6311 -0.8981 -1.8985
 6041SOL     OW29758   3.873   3.913   0.720 -0.5290 -0.4362  0.3784
 6041SOL    HW129759   3.942   3.922   0.786  2.7993 -0.4618 -3.0871
 6041SOL    HW229760   3.871   3.819   0.703 -2.3397 -0.6263  1.7131
 6042SOL     OW29761   4.180   1.725   3.282  0.2771 -0.4880  0.0332
 6042SOL    HW129762   4.245   1.655   3.288  1.3592  0.4555 -0.7802
 6042SOL    HW229763   4.220   1.783   3.217 -2.4390 -1.7488 -2.8006
 6043SOL     OW29764   3.941   3.587   6.134  0.9658  0.3920 -0.1429
 6043SOL    HW129765   3.983   3.671   6.156  2.5156 -0.6732  0.9445
 6043SOL    HW229766   3.887   3.616   6.061  1.4910  1.2353 -0.1984
 6044SOL     OW29767   0.680   0.625  14.822 -0.1990  0.3289 -0.2615
 6044SOL    HW129768   0.682   0.568  14.745 -0.0771 -1.3834  1.0273
 6044SOL    HW229769   0.768   0.659  14.804 -0.8432  1.7273 -0.7608
 6045SOL     OW29770   1.589   3.693  11.159  0.5396  0.0536  0.0883
 6045SOL    HW129771   1.519   3.752  11.132  0.4627 -1.8147 -3.7867
 6045SOL    HW229772   1.650   3.703  11.085 -0.3149 -1.1174 -0.7923
 6046SOL     OW29773   0.171   0.601  14.660  0.3962  1.0330 -0.1009
 6046SOL    HW129774   0.105   0.657  14.702  1.2437  2.7859 -1.1265
 6046SOL    HW229775   0.255   0.631  14.694  0.7365  1.5537 -1.4026
 6047SOL     OW29776   2.472   0.137   2.004  0.3628  0.0806 -0.6322
 6047SOL    HW129777   2.429   0.052   1.994 -1.5281  0.9415 -0.0418
 6047SOL    HW229778   2.468   0.138   2.100 -1.9505 -1.0672 -0.6997
 6048SOL     OW29779   0.531   0.529   4.863  0.0687 -0.2193 -0.2928
 6048SOL    HW129780   0.541   0.436   4.841 -0.8469 -0.3946  0.0618
 6048SOL    HW229781   0.478   0.508   4.940  0.5322 -2.9856 -0.7324
 6049SOL     OW29782   1.015   1.133   4.447 -0.1274 -0.3274 -0.3877
 6049SOL    HW129783   0.941   1.136   4.387 -0.9167  2.1716  0.6956
 6049SOL    HW229784   1.080   1.084   4.397  0.9088  0.5227  0.1186
 6050SOL     OW29785   3.480   2.184   2.390  0.0642  0.3060  0.0962
 6050SOL    HW129786   3.574   2.175   2.373 -0.5448 -0.8063 -2.5432
 6050SOL    HW229787   3.463   2.278   2.384 -0.9929  0.1371  0.4888
 6051SOL     OW29788   2.158   2.863   1.869  0.0647 -0.2555  0.3367
 6051SOL    HW129789   2.190   2.953   1.866  0.6291 -0.4435  0.6085
 6051SOL    HW229790   2.217   2.813   1.812  0.0046 -0.5152  0.5021
 6052SOL     OW29791   2.088   2.413   1.154 -0.0063  0.3102  0.8837
 6052SOL    HW129792   2.119   2.324   1.142  0.6135  0.5070  1.0152
 6052SOL    HW229793   2.129   2.451   1.076 -0.6722  0.8764  0.8082
 6053SOL     OW29794   3.320   0.821   6.805  0.1504 -0.0493 -0.2506
 6053SOL    HW129795   3.232   0.858   6.794  0.2658  0.9499  2.3398
 6053SOL    HW229796   3.359   0.872   6.876  1.6260 -0.4796 -0.7409
 6054SOL     OW29797   3.553   3.914   7.179 -0.5372  0.3695 -0.2549
 6054SOL    HW129798   3.506   3.960   7.110  0.5361 -1.1783 -2.0286
 6054SOL    HW229799   3.538   3.972   7.253 -1.3872  1.2075 -1.0877
 6055SOL     OW29800   2.471   3.772  13.588  0.4454 -0.1200  0.2174
 6055SOL    HW129801   2.498   3.756  13.498  1.8778  2.3453  0.2202
 6055SOL    HW229802   2.398   3.712  13.599  0.4096  0.2378  1.9163
 6056SOL     OW29803   2.537   2.642   0.317 -0.0025  0.4357 -0.5250
 6056SOL    HW129804   2.594   2.577   0.276 -2.8114 -2.6784  0.4796
 6056SOL    HW229805   2.572   2.717   0.269 -0.7355  0.7699 -0.5404
 6057SOL     OW29806   1.864   3.835  14.097 -0.5129 -0.5120 -0.0744
 6057SOL    HW129807   1.859   3.760  14.038 -1.0088 -1.3439  1.0249
 6057SOL    HW229808   1.921   3.896  14.051 -0.4301 -0.7788 -0.3278
 6058SOL     OW29809   0.803   4.310   8.801 -0.0208  0.1131 -0.2095
 6058SOL    HW129810   0.796   4.318   8.706  1.7657  0.0088 -0.3412
 6058SOL    HW229811   0.712   4.330   8.826  0.1438 -0.2546  0.6741
 6059SOL     OW29812   3.115   4.034  15.032  0.3498 -0.1733  0.1650
 6059SOL    HW129813   3.066   3.988  14.964 -0.3205 -2.4481  2.1411
 6059SOL    HW229814   3.136   4.118  14.992  2.1084 -0.5134  0.3643
 6060SOL     OW29815   1.599   1.251   7.100 -1.2763 -0.6632 -0.1333
 6060SOL    HW129816   1.651   1.171   7.095  0.2498  0.0396  4.3325
 6060SOL    HW229817   1.520   1.217   7.059 -1.1892 -1.3610  0.2842
 6061SOL     OW29818   2.101   1.526   2.466  0.1057 -0.0974 -0.0869
 6061SOL    HW129819   2.164   1.570   2.523 -1.1032  2.3520 -0.6260
 6061SOL    HW229820   2.027   1.587   2.472 -0.3175 -0.5122 -1.1908
 6062SOL     OW29821   3.543   2.544   4.244 -0.0976 -0.3108  0.7163
 6062SOL    HW129822   3.610   2.581   4.187 -0.0372  0.0585  1.0235
 6062SOL    HW229823   3.535   2.460   4.200  0.7733  0.8493 -1.6760
 6063SOL     OW29824   0.009   0.004   2.451  0.2767 -0.5400 -0.0724
 6063SOL    HW129825   0.065   0.074   2.416 -0.1774 -0.2125 -0.1408
 6063SOL    HW229826   0.076   4.676   2.468 -2.0717 -2.6813  0.8476
 6064SOL     OW29827   0.166   2.165  17.740  0.6088  0.0082 -0.7920
 6064SOL    HW129828   0.079   2.197  17.716  0.3997 -0.0199 -0.0745
 6064SOL    HW229829   0.224   2.222  17.689 -0.0265  1.3477 -0.0271
 6065SOL     OW29830   1.945   4.505  12.623  0.2546  0.1739  0.0319
 6065SOL    HW129831   1.867   4.462  12.660 -0.8569  3.9776  2.1155
 6065SOL    HW229832   1.992   4.427  12.594 -0.7967 -0.1256 -0.8797
 6066SOL     OW29833   3.036   4.151   0.885  0.2360 -0.3266 -0.6958
 6066SOL    HW129834   2.984   4.226   0.858 -0.6970 -1.4750 -2.0683
 6066SOL    HW229835   3.119   4.197   0.896 -0.5537  0.5288  1.9066
 6067SOL     OW29836   0.046   1.075  11.485 -0.0709 -0.1124  0.0923
 6067SOL    HW129837   4.698   1.115  11.469 -0.2240  0.9512  3.6034
 6067SOL    HW229838   0.096   1.156  11.478 -1.9413  0.8340 -2.4234
 6068SOL     OW29839   0.055   0.914   6.219  0.5198  0.0897 -0.6187
 6068SOL    HW129840   0.122   0.982   6.219 -1.1533  1.7395  2.6976
 6068SOL    HW229841   0.098   0.846   6.167 -0.1360  0.8747 -2.1918
 6069SOL     OW29842   0.388   1.371   6.230 -0.2331  0.3159  0.3924
 6069SOL    HW129843   0.331   1.441   6.262  0.3274  0.5985  0.7892
 6069SOL    HW229844   0.371   1.384   6.136 -0.0556  1.4787  0.5154
 6070SOL     OW29845   2.117   2.590   7.056 -0.1405 -0.4330 -0.0442
 6070SOL    HW129846   2.099   2.683   7.061  2.7643  0.1674 -0.5639
 6070SOL    HW229847   2.081   2.575   6.969  0.2496 -0.8564 -0.1353
 6071SOL     OW29848   3.693   3.252   8.929 -0.2656  0.3183  0.0302
 6071SOL    HW129849   3.609   3.299   8.930  0.4117  1.5315  0.3707
 6071SOL    HW229850   3.657   3.163   8.925  1.2855 -0.2445 -1.3431
 6072SOL     OW29851   2.941   3.922   5.658  0.1201  0.4447 -0.4653
 6072SOL    HW129852   3.032   3.951   5.659  0.7746 -1.5764 -0.0348
 6072SOL    HW229853   2.928   3.907   5.752 -0.4663 -1.1838 -0.8013
 6073SOL     OW29854   4.204   0.049   2.361  0.2203  0.3358  0.4965
 6073SOL    HW129855   4.120   0.096   2.363  2.5887  4.7339 -2.8162
 6073SOL    HW229856   4.228   0.071   2.271 -0.4593 -0.8697  0.0233
 6074SOL     OW29857   3.748   3.787  15.347 -0.2134  0.1889 -0.0288
 6074SOL    HW129858   3.712   3.748  15.427 -1.4114  2.4440  0.5098
 6074SOL    HW229859   3.689   3.750  15.281  0.7763 -0.8316 -0.3481
 6075SOL     OW29860   0.802   3.872  12.442 -0.1922  0.2529  0.5692
 6075SOL    HW129861   0.850   3.949  12.474 -1.1819  1.4764 -0.8851
 6075SOL    HW229862   0.771   3.845  12.528 -0.6734  1.0132  0.6241
 6076SOL     OW29863   1.050   3.385   1.613 -0.1883 -0.3875 -0.0298
 6076SOL    HW129864   1.136   3.398   1.654  0.6091 -1.1721 -1.4914
 6076SOL    HW229865   1.027   3.471   1.576  1.4613  0.3508  0.6216
 6077SOL     OW29866   0.739   3.901  10.352 -0.1685  0.2223  0.1822
 6077SOL    HW129867   0.678   3.878  10.283 -0.3372  0.3802  0.2799
 6077SOL    HW229868   0.706   3.851  10.427  1.3680  0.1122  0.8002
 6078SOL     OW29869   3.145   4.235   8.221 -0.5369  1.0149 -0.5065
 6078SOL    HW129870   3.114   4.229   8.311  0.9875  4.3227  0.2322
 6078SOL    HW229871   3.166   4.326   8.202  3.2983  0.1541 -0.3565
 6079SOL     OW29872   1.801   2.663   7.064  0.1627  0.0361  0.0583
 6079SOL    HW129873   1.885   2.690   7.101  0.1368  0.8062 -0.4457
 6079SOL    HW229874   1.747   2.738   7.089  0.2615  0.2860 -0.4690
 6080SOL     OW29875   1.572   0.113  17.644  0.0484 -0.3855 -0.3363
 6080SOL    HW129876   1.642   0.068  17.597 -1.2005  0.7529 -3.3374
 6080SOL    HW229877   1.507   0.042  17.648 -0.3814  0.0007 -0.4712
 6081SOL     OW29878   0.251   1.152   4.473  0.2773  0.0855  0.4489
 6081SOL    HW129879   0.172   1.204   4.487 -0.2926 -0.5251 -0.5318
 6081SOL    HW229880   0.233   1.063   4.504 -2.3646  0.6519  0.5573
 6082SOL     OW29881   3.382   3.834  13.198 -0.1754 -0.1894  0.2492
 6082SOL    HW129882   3.364   3.758  13.142  0.8395 -0.6399  0.5419
 6082SOL    HW229883   3.306   3.834  13.257 -0.0425  0.0920  0.4214
 6083SOL     OW29884   0.545   4.175   3.246  0.1168  0.5478 -0.0230
 6083SOL    HW129885   0.570   4.251   3.194  3.0964 -0.5342 -0.2257
 6083SOL    HW229886   0.635   4.141   3.251 -1.5691 -4.2477 -2.4218
 6084SOL     OW29887   4.638   1.018  13.966 -0.1228  0.0689 -0.1340
 6084SOL    HW129888   4.670   1.076  14.036 -1.2846  1.5525 -0.8328
 6084SOL    HW229889   4.635   1.075  13.889  0.3857  0.9279  0.4691
 6085SOL     OW29890   0.769   4.286   6.284 -0.1978 -0.1195 -0.2750
 6085SOL    HW129891   0.800   4.196   6.293  0.7447  0.3264  0.8852
 6085SOL    HW229892   0.850   4.337   6.285 -0.0904 -0.2871 -0.5122
 6086SOL     OW29893   1.269   4.713   3.845  0.3965 -0.7614  0.4250
 6086SOL    HW129894   1.220   0.038   3.791 -0.1849 -1.0717  0.5895
 6086SOL    HW229895   1.205   4.689   3.912  1.9309  2.5420  3.0223
 6087SOL     OW29896   2.941   1.391   9.160 -0.0405  0.4858  0.2559
 6087SOL    HW129897   2.940   1.353   9.072 -0.8060 -0.2097  0.5620
 6087SOL    HW229898   2.871   1.454   9.149  0.3534  0.7562 -0.7251
 6088SOL     OW29899   2.002   3.007   2.624 -0.2925 -0.1854 -0.5207
 6088SOL    HW129900   1.992   2.933   2.684  0.1526  1.4288  1.5367
 6088SOL    HW229901   2.048   3.066   2.683 -1.3625  1.9354 -1.7979
 6089SOL     OW29902   2.010   1.169   7.552 -0.1754  0.7098  0.4955
 6089SOL    HW129903   2.048   1.210   7.630  0.8079  0.9537 -0.1089
 6089SOL    HW229904   1.993   1.244   7.495  0.0319  1.0461  0.8822
 6090SOL     OW29905   0.710   1.215   9.545 -0.6490  0.2301  0.2107
 6090SOL    HW129906   0.730   1.161   9.468 -0.1034 -0.5393  0.8905
 6090SOL    HW229907   0.662   1.155   9.602  1.5546 -0.9795  0.7781
 6091SOL     OW29908   1.737   0.991  15.532  0.8778  0.4894  0.1629
 6091SOL    HW129909   1.773   0.921  15.586 -2.8089  0.0507  2.0569
 6091SOL    HW229910   1.697   1.053  15.594 -1.7906 -0.3091 -0.7729
 6092SOL     OW29911   3.050   1.713   0.871  0.7198 -0.1716 -0.2688
 6092SOL    HW129912   2.964   1.752   0.853  0.1707 -1.5148 -0.4978
 6092SOL    HW229913   3.076   1.661   0.795 -2.1030 -2.3166  0.2691
 6093SOL     OW29914   3.225   2.226   0.707 -0.1401  0.2235 -0.5757
 6093SOL    HW129915   3.228   2.321   0.699 -1.0132  0.1586 -1.7121
 6093SOL    HW229916   3.175   2.200   0.630 -3.7413  0.3344  1.6942
 6094SOL     OW29917   2.463   1.887   4.257 -0.0313 -0.1977  0.2985
 6094SOL    HW129918   2.393   1.836   4.216  1.8875 -3.5712  1.2882
 6094SOL    HW229919   2.490   1.932   4.177  1.7907  0.9711  1.5872
 6095SOL     OW29920   4.720   3.429   1.464  0.1067 -0.1248  0.6853
 6095SOL    HW129921   4.669   3.457   1.388  1.2894 -1.6493 -0.6579
 6095SOL    HW229922   0.010   3.340   1.443  1.4341  0.4761 -0.0867
 6096SOL     OW29923   0.481   1.580   7.469 -0.6770 -0.0940  0.3473
 6096SOL    HW129924   0.528   1.544   7.545 -0.0710  0.7750  0.3781
 6096SOL    HW229925   0.514   1.669   7.464  0.4514 -0.5928 -1.0520
 6097SOL     OW29926   0.268   2.703   4.707  0.3268 -0.6154  0.3745
 6097SOL    HW129927   0.358   2.727   4.686 -0.0874 -0.1239 -0.8625
 6097SOL    HW229928   0.276   2.607   4.713  0.3608 -0.4826  2.1818
 6098SOL     OW29929   2.741   1.764   3.293  0.1128 -0.1136  0.3131
 6098SOL    HW129930   2.682   1.694   3.322  1.1696 -1.6431 -1.2448
 6098SOL    HW229931   2.833   1.739   3.292  0.0990 -0.1845  0.8202
 6099SOL     OW29932   4.445   0.583   8.585  0.1843  0.2857  0.3020
 6099SOL    HW129933   4.408   0.636   8.655  0.0489  0.2804  0.2333
 6099SOL    HW229934   4.365   0.573   8.535 -0.7915 -0.0100  1.9070
 6100SOL     OW29935   1.546   3.895  12.639 -0.2289 -0.1560  0.2848
 6100SOL    HW129936   1.542   3.924  12.730 -0.6725  0.0330  0.2058
 6100SOL    HW229937   1.514   3.806  12.652 -0.4229 -0.3292 -1.2757
 6101SOL     OW29938   2.557   0.208  10.381 -0.0500 -0.4485  0.1991
 6101SOL    HW129939   2.542   0.185  10.289 -1.3993 -1.2570  0.6375
 6101SOL    HW229940   2.475   0.250  10.407  0.4830 -0.4126  1.8025
 6102SOL     OW29941   3.177   0.224  14.352  0.0846 -0.4769  0.0756
 6102SOL    HW129942   3.120   0.274  14.293  0.2591  0.9391  1.1036
 6102SOL    HW229943   3.146   0.136  14.333 -1.7606 -0.3207  2.4938
 6103SOL     OW29944   1.959   2.393   5.678 -0.5153 -0.1276 -0.0011
 6103SOL    HW129945   1.942   2.453   5.606 -1.0051 -0.1785  0.0723
 6103SOL    HW229946   1.907   2.317   5.650 -1.0883  0.3830 -0.3257
 6104SOL     OW29947   3.528   0.194  12.334  0.2164  0.2799 -0.2861
 6104SOL    HW129948   3.521   0.289  12.339 -0.3605  0.2577 -0.6546
 6104SOL    HW229949   3.481   0.181  12.251  1.7180 -0.4475 -1.0309
 6105SOL     OW29950   2.220   3.909   4.134 -0.0640  0.1244  0.1943
 6105SOL    HW129951   2.302   3.886   4.178 -1.6020 -1.5252  2.1942
 6105SOL    HW229952   2.196   3.826   4.093  0.2663  1.3812 -2.5787
 6106SOL     OW29953   1.209   2.644   6.954 -0.6352  0.3421  0.1999
 6106SOL    HW129954   1.219   2.710   6.885  0.6048  0.6835  0.6878
 6106SOL    HW229955   1.122   2.609   6.937 -0.9291  0.9421  0.4481
 6107SOL     OW29956   0.871   0.492   6.705  0.5964  0.4925  0.8036
 6107SOL    HW129957   0.829   0.514   6.622  0.5965  0.4585  0.7946
 6107SOL    HW229958   0.884   0.579   6.742  2.1761  0.4536  0.3775
 6108SOL     OW29959   3.931   3.137   7.810 -0.0783 -0.0033 -0.2274
 6108SOL    HW129960   3.864   3.183   7.860  1.0801  0.2704  1.0895
 6108SOL    HW229961   3.927   3.182   7.726 -0.8997  0.0753 -0.1426
 6109SOL     OW29962   3.296   0.354   5.846 -0.3187  0.1878  0.4039
 6109SOL    HW129963   3.337   0.286   5.899 -0.0371 -0.1553 -0.2513
 6109SOL    HW229964   3.342   0.335   5.764 -0.8313 -0.3582  0.2409
 6110SOL     OW29965   2.279   3.980   2.445 -0.2150  0.5141 -0.8804
 6110SOL    HW129966   2.252   3.914   2.509  1.1474  0.4867 -0.3292
 6110SOL    HW229967   2.215   4.049   2.458  0.8302  1.4060 -0.4683
 6111SOL     OW29968   1.559   1.060  16.621 -0.3402 -0.2091  0.0587
 6111SOL    HW129969   1.515   1.016  16.548  0.1606  2.4388 -1.8476
 6111SOL    HW229970   1.547   1.152  16.597  0.6749  0.1887  1.1003
 6112SOL     OW29971   0.114   0.712  15.274  0.4356 -0.2627  0.5101
 6112SOL    HW129972   0.191   0.769  15.269 -1.3105  1.9728 -1.0435
 6112SOL    HW229973   0.154   0.632  15.241 -0.0991 -0.1559 -0.3925
 6113SOL     OW29974   4.361   3.134   1.942 -0.5933 -0.5806  0.1814
 6113SOL    HW129975   4.433   3.140   1.880 -1.0774  0.6148 -0.2599
 6113SOL    HW229976   4.290   3.099   1.889 -0.2984  0.0172 -0.6151
 6114SOL     OW29977   3.464   2.022   1.837 -0.4099 -0.5730  0.0089
 6114SOL    HW129978   3.476   1.927   1.828 -1.4005 -0.7553  0.5997
 6114SOL    HW229979   3.455   2.024   1.933  3.3722  1.9908  0.3133
 6115SOL     OW29980   0.993   0.236  10.505 -0.1284  0.1521 -0.0362
 6115SOL    HW129981   1.082   0.220  10.536 -0.9313 -2.0350  1.1709
 6115SOL    HW229982   0.949   0.253  10.588 -1.2586  1.0218 -0.8075
 6116SOL     OW29983   4.555   4.463   6.760 -0.2756 -0.4237  0.0919
 6116SOL    HW129984   4.607   4.383   6.759  0.6779  0.2031 -0.5872
 6116SOL    HW229985   4.493   4.447   6.689  0.1647 -1.6632 -0.0027
 6117SOL     OW29986   4.677   0.100   8.435  0.2122 -0.1502 -0.2398
 6117SOL    HW129987   4.659   0.166   8.502  0.1523  0.0844 -0.4853
 6117SOL    HW229988   0.020   0.066   8.473  0.8382  0.4764 -0.9951
 6118SOL     OW29989   2.877   4.341   7.189  0.1791 -0.1769 -0.3630
 6118SOL    HW129990   2.913   4.395   7.259  0.7484  0.4813 -1.1643
 6118SOL    HW229991   2.955   4.315   7.140  0.6112 -2.1337  1.3782
 6119SOL     OW29992   0.386   1.988  10.058  0.0364  0.1819  0.4237
 6119SOL    HW129993   0.303   1.973  10.013  0.0609  0.6606  0.2207
 6119SOL    HW229994   0.430   1.907  10.032  2.0897  2.1801 -2.4319
 6120SOL     OW29995   0.525   2.942   1.806 -0.1670 -0.3636  0.2338
 6120SOL    HW129996   0.492   2.971   1.721 -0.8606 -1.5519  0.0872
 6120SOL    HW229997   0.534   2.850   1.780 -0.9026  0.5177 -3.1164
 6121SOL     OW29998   3.464   4.227   8.764 -0.2492 -0.4889 -0.0477
 6121SOL    HW129999   3.544   4.268   8.797 -0.8475  1.3057 -0.8479
 6121SOL    HW230000   3.485   4.134   8.777  1.9808 -0.2379 -1.8295
 6122SOL     OW30001   4.677   1.561   8.254  0.2616 -0.5255 -0.0606
 6122SOL    HW130002   4.707   1.475   8.225  3.6250  1.0621 -1.3400
 6122SOL    HW230003   0.013   1.599   8.302  1.2504 -0.0720 -1.9274
 6123SOL     OW30004   0.114   2.273  17.090  0.2128 -0.1774 -0.3442
 6123SOL    HW130005   0.103   2.359  17.131 -2.1607 -0.6986  0.0641
 6123SOL    HW230006   0.109   2.207  17.160  0.8595 -0.3229 -0.4342
 6124SOL     OW30007   3.517   1.468   1.702 -0.1435  0.2229 -0.1516
 6124SOL    HW130008   3.571   1.526   1.648 -0.7465 -0.1209 -1.1284
 6124SOL    HW230009   3.435   1.478   1.653 -0.5222 -1.0880  0.2089
 6125SOL     OW30010   1.370   2.833  12.845 -0.3783 -0.1312 -0.2681
 6125SOL    HW130011   1.340   2.921  12.823 -2.2626 -0.1500  2.3095
 6125SOL    HW230012   1.362   2.837  12.940  0.4985  1.7523 -0.2661
 6126SOL     OW30013   2.753   1.108  11.832 -0.5966 -0.7719  0.5671
 6126SOL    HW130014   2.799   1.106  11.748 -0.8979  0.7908  0.3616
 6126SOL    HW230015   2.671   1.062  11.812 -0.0696 -1.1171 -0.8063
 6127SOL     OW30016   0.194   1.461   3.004 -0.4098 -0.4992  0.1427
 6127SOL    HW130017   0.274   1.465   3.056  0.0426 -0.9487 -0.5218
 6127SOL    HW230018   0.169   1.370   3.020  1.4649 -0.7657  1.6579
 6128SOL     OW30019   3.807   1.486   7.625  0.0238  0.0311  0.3742
 6128SOL    HW130020   3.823   1.407   7.677  0.2699  1.9549  3.2445
 6128SOL    HW230021   3.898   1.516   7.620  0.4662 -1.3535  0.0615
 6129SOL     OW30022   3.593   4.189  11.974  0.4630 -0.0154  0.2982
 6129SOL    HW130023   3.562   4.204  12.064  0.6530  0.1104  0.3428
 6129SOL    HW230024   3.685   4.199  11.997  0.0440  0.8480  1.6283
 6130SOL     OW30025   2.115   2.870   7.365  0.0083 -0.0801 -0.6478
 6130SOL    HW130026   2.201   2.831   7.373 -0.1990 -0.6108 -1.0583
 6130SOL    HW230027   2.145   2.961   7.368 -0.6224  0.0690  1.2204
 6131SOL     OW30028   3.064   3.479   2.652 -0.6588  0.2275  0.4413
 6131SOL    HW130029   3.135   3.437   2.701 -0.1087  1.3895  0.6421
 6131SOL    HW230030   3.086   3.572   2.659  0.1615 -0.0552  1.4716
 6132SOL     OW30031   3.340   2.675   5.054  0.2143 -0.2080  1.0426
 6132SOL    HW130032   3.288   2.708   4.980 -0.2154  1.3706  2.0475
 6132SOL    HW230033   3.337   2.580   5.052  1.8878 -0.2426 -0.2846
 6133SOL     OW30034   2.763   0.429   5.031  0.1741  0.1838 -0.4844
 6133SOL    HW130035   2.752   0.338   5.006 -0.1562 -1.0512  4.0833
 6133SOL    HW230036   2.675   0.464   5.018 -0.2657 -0.7657 -0.0765
 6134SOL     OW30037   1.364   1.629   7.807  0.1462  0.4838 -0.1239
 6134SOL    HW130038   1.323   1.715   7.823 -0.8548  0.0010 -0.0810
 6134SOL    HW230039   1.419   1.614   7.884 -0.8029 -0.0928  0.4470
 6135SOL     OW30040   3.941   0.746  10.405  0.0029 -0.1065 -0.3003
 6135SOL    HW130041   3.875   0.678  10.416  1.4663 -1.6618 -1.2267
 6135SOL    HW230042   4.000   0.692  10.354  0.7110 -1.5314  2.0343
 6136SOL     OW30043   3.549   1.489   5.253  0.0040 -0.0965  0.2189
 6136SOL    HW130044   3.473   1.546   5.258  1.1000  1.2484  1.5262
 6136SOL    HW230045   3.529   1.457   5.165  0.6287 -1.2989  0.5109
 6137SOL     OW30046   1.515   0.434   9.840  0.0348 -0.0683 -0.0016
 6137SOL    HW130047   1.483   0.361   9.893  0.1487  0.4761  0.8099
 6137SOL    HW230048   1.589   0.460   9.895 -1.9191  1.5380  1.7873
 6138SOL     OW30049   4.545   3.033  17.593 -0.1256  0.3592  0.2286
 6138SOL    HW130050   4.557   3.012  17.500 -0.2207  0.5604  0.1692
 6138SOL    HW230051   4.599   2.969  17.637  0.9084  1.5565  0.7082
 6139SOL     OW30052   4.122   3.918   7.237 -0.3508 -0.1150  0.1532
 6139SOL    HW130053   4.165   3.939   7.320 -0.3922 -0.1504  0.1837
 6139SOL    HW230054   4.029   3.933   7.253 -0.0730  0.5973  1.1148
 6140SOL     OW30055   3.574   0.329   7.687  0.3318  0.7136  0.4158
 6140SOL    HW130056   3.640   0.397   7.703  1.7069 -0.6372  0.5486
 6140SOL    HW230057   3.564   0.293   7.776  0.7485  0.6296  0.4270
 6141SOL     OW30058   4.255   2.562   7.164 -0.4414 -0.3193  0.6028
 6141SOL    HW130059   4.164   2.573   7.192  0.0300  1.6565  1.3404
 6141SOL    HW230060   4.254   2.478   7.118  0.6565  0.1514 -0.2764
 6142SOL     OW30061   4.529   4.547   4.442  0.4907 -0.0821  0.3395
 6142SOL    HW130062   4.469   4.620   4.460  0.3453 -0.6019  1.9655
 6142SOL    HW230063   4.486   4.474   4.486 -0.0626  0.5378  0.8290
 6143SOL     OW30064   3.817   4.418   7.751 -0.3648  0.0483  0.4335
 6143SOL    HW130065   3.762   4.497   7.755  0.4322  0.5859  0.7280
 6143SOL    HW230066   3.853   4.424   7.839  0.8545  0.1080 -0.0721
 6144SOL     OW30067   4.160   3.746  11.073  0.0840  0.4520 -0.1690
 6144SOL    HW130068   4.141   3.783  11.159 -0.7431 -0.8219  0.2013
 6144SOL    HW230069   4.097   3.789  11.016 -3.2709 -4.2726  0.0188
 6145SOL     OW30070   2.526   1.443  12.804 -0.2063 -0.2489 -0.2140
 6145SOL    HW130071   2.498   1.503  12.873 -0.5367 -0.9542  0.2583
 6145SOL    HW230072   2.585   1.383  12.850 -1.2499 -2.4730 -1.7866
 6146SOL     OW30073   3.562   4.487   4.080  0.3640 -0.0569 -0.2276
 6146SOL    HW130074   3.527   4.566   4.122  2.3100  0.0336  1.2103
 6146SOL    HW230075   3.637   4.531   4.041  1.2234 -0.3908  1.0330
 6147SOL     OW30076   4.655   2.405   5.918 -0.2964  0.0085  0.9691
 6147SOL    HW130077   4.659   2.342   5.990 -0.1636 -0.7228  0.3312
 6147SOL    HW230078   4.600   2.475   5.953  1.7198  2.3000 -0.4603
 6148SOL     OW30079   3.939   2.319   6.409  0.6537 -0.3145  0.1434
 6148SOL    HW130080   3.864   2.358   6.364  0.0748 -0.9091  0.5878
 6148SOL    HW230081   3.955   2.258   6.338  3.0131  2.2260 -1.4775
 6149SOL     OW30082   3.133   0.862   6.146  0.6566  0.3389  0.5542
 6149SOL    HW130083   3.122   0.853   6.241  1.1952  0.4349  0.6234
 6149SOL    HW230084   3.186   0.942   6.140  0.5228  0.4284  0.5452
 6150SOL     OW30085   2.135   4.086   8.110 -0.2536 -0.2758  0.6587
 6150SOL    HW130086   2.079   4.010   8.124  0.5610 -0.7023  1.6036
 6150SOL    HW230087   2.175   4.049   8.031  0.3378  0.0646  0.7954
 6151SOL     OW30088   1.673   1.229   5.891 -0.2214  0.3290 -0.5349
 6151SOL    HW130089   1.707   1.283   5.819  0.3226  1.2708  0.4322
 6151SOL    HW230090   1.749   1.176   5.913 -0.5544  0.5643  1.1866
 6152SOL     OW30091   4.230   3.039   3.972 -0.2848 -0.0503  0.2643
 6152SOL    HW130092   4.158   3.085   3.931 -0.8222 -0.3016  0.9352
 6152SOL    HW230093   4.220   3.073   4.060 -1.4721 -0.0513  0.1300
 6153SOL     OW30094   2.409   3.729   8.024  0.2977  0.1316  0.0039
 6153SOL    HW130095   2.429   3.636   8.039  2.1580  0.4022 -0.9290
 6153SOL    HW230096   2.456   3.753   8.104  1.5752  1.3092 -1.1145
 6154SOL     OW30097   0.468   1.248   1.769  0.2462  0.2214 -0.0237
 6154SOL    HW130098   0.437   1.311   1.834 -0.8281 -2.0600  1.6747
 6154SOL    HW230099   0.437   1.165   1.807  1.0660 -1.0723 -2.1979
 6155SOL     OW30100   1.976   3.671   7.849  0.4058  0.1947  0.7440
 6155SOL    HW130101   2.007   3.602   7.908  1.0562  0.1513  0.3455
 6155SOL    HW230102   2.039   3.672   7.778 -1.2702  1.7196 -0.7147
 6156SOL     OW30103   4.275   0.998   6.689 -0.3564  0.0123 -0.1417
 6156SOL    HW130104   4.201   0.982   6.631  0.4229  2.0735 -1.7163
 6156SOL    HW230105   4.254   0.968   6.777  0.0377 -1.1010 -0.4208
 6157SOL     OW30106   1.001   2.955  13.126  0.0037 -0.2603 -1.1037
 6157SOL    HW130107   1.000   2.899  13.204  0.5417  2.3986  0.7712
 6157SOL    HW230108   0.982   3.041  13.163  0.1093 -0.0042 -1.6456
 6158SOL     OW30109   0.301   4.683  12.951 -0.0982 -0.0673  0.1434
 6158SOL    HW130110   0.268   0.022  12.998 -1.8282 -1.7635  1.7416
 6158SOL    HW230111   0.391   4.696  12.981  0.2395  1.8502 -1.7611
 6159SOL     OW30112   3.894   2.917   8.737 -0.3402 -0.3007 -0.1398
 6159SOL    HW130113   3.982   2.953   8.746 -0.5869  0.6008 -1.2871
 6159SOL    HW230114   3.865   2.907   8.827 -0.7396 -0.1604 -0.2531
 6160SOL     OW30115   3.864   0.073   3.634  0.5290  0.2004 -0.4173
 6160SOL    HW130116   3.889   0.097   3.545 -1.8213  0.3752 -1.0292
 6160SOL    HW230117   3.788   0.015   3.624  0.6723  0.2227 -1.6627
 6161SOL     OW30118   0.239   1.180  10.437  0.2674 -0.2429  0.9335
 6161SOL    HW130119   0.238   1.269  10.403 -1.9221 -0.1240  1.3469
 6161SOL    HW230120   0.277   1.190  10.524 -0.3486 -0.5465  1.2340
 6162SOL     OW30121   3.129   1.308  10.274 -0.2206  0.1353  0.8302
 6162SOL    HW130122   3.061   1.351  10.222 -0.1104 -0.8846 -0.1544
 6162SOL    HW230123   3.097   1.219  10.257 -1.7364  1.0429 -1.1649
 6163SOL     OW30124   1.313   0.917   1.858  0.4635  0.0010 -0.1490
 6163SOL    HW130125   1.282   0.846   1.915  0.3981  0.7322  0.7290
 6163SOL    HW230126   1.404   0.913   1.886 -0.3001  1.7582  2.6000
 6164SOL     OW30127   0.403   2.947   5.175 -0.3377 -0.7310 -0.0319
 6164SOL    HW130128   0.329   2.888   5.189  0.7192 -2.2508 -0.8565
 6164SOL    HW230129   0.428   2.967   5.265  0.4738 -2.4369  0.1269
 6165SOL     OW30130   3.928   4.726  12.671 -0.0312  0.5051 -0.3088
 6165SOL    HW130131   3.984   4.699  12.744 -0.7003 -0.8232 -0.2859
 6165SOL    HW230132   3.850   4.672  12.687 -0.3157  0.8585 -0.5171
 6166SOL     OW30133   1.967   3.807  12.728 -0.2998 -0.3827  0.8214
 6166SOL    HW130134   1.915   3.822  12.807 -3.0686  0.4782 -1.1572
 6166SOL    HW230135   1.915   3.736  12.691  0.8178 -0.2763 -0.9500
 6167SOL     OW30136   2.714   1.632   0.346  0.0509 -0.1794 -0.1157
 6167SOL    HW130137   2.794   1.684   0.342  1.1909 -2.0476 -2.0786
 6167SOL    HW230138   2.740   1.545   0.316  1.9446  0.8324 -1.4012
 6168SOL     OW30139   2.526   1.885  13.454  0.1607 -0.1105  0.5745
 6168SOL    HW130140   2.602   1.918  13.501  1.3491 -0.1179 -1.3576
 6168SOL    HW230141   2.529   1.927  13.368  1.7731 -1.4314  0.0126
 6169SOL     OW30142   4.322   1.009   8.362  0.0468 -0.5515 -0.0453
 6169SOL    HW130143   4.392   0.992   8.299 -1.5270 -0.3132 -1.8540
 6169SOL    HW230144   4.371   1.036   8.440  0.8531 -0.3068 -0.6331
 6170SOL     OW30145   1.741   2.014  16.393  0.0722 -0.4016 -0.0392
 6170SOL    HW130146   1.739   1.949  16.463  1.7850 -1.0679 -0.6104
 6170SOL    HW230147   1.753   2.099  16.436  0.5215 -0.2942 -0.3743
 6171SOL     OW30148   1.027   0.385   1.804  0.0207 -0.1105 -0.3503
 6171SOL    HW130149   0.973   0.365   1.727 -1.2698 -0.3317  0.6195
 6171SOL    HW230150   1.013   0.477   1.826  0.2283 -0.5627  1.6092
 6172SOL     OW30151   3.597   2.187   5.763  0.2404 -0.1896 -0.0850
 6172SOL    HW130152   3.584   2.113   5.822  1.3190  0.7222  1.3412
 6172SOL    HW230153   3.550   2.147   5.690 -0.1980 -0.2951  0.2561
 6173SOL     OW30154   3.858   0.710   8.613 -0.2921 -1.1543 -0.1131
 6173SOL    HW130155   3.843   0.804   8.602 -2.3106 -1.6943 -1.9723
 6173SOL    HW230156   3.912   0.683   8.539  2.9759  0.3667  1.6818
 6174SOL     OW30157   0.569   3.504   5.559  0.0437 -0.2107 -0.3134
 6174SOL    HW130158   0.532   3.508   5.471  0.0401 -1.4627 -0.3757
 6174SOL    HW230159   0.656   3.540   5.539 -1.1068  0.8119 -3.3669
 6175SOL     OW30160   2.624   1.491   3.020 -0.5068  0.7447 -0.5020
 6175SOL    HW130161   2.707   1.453   2.992 -0.4488  1.1221 -0.8451
 6175SOL    HW230162   2.634   1.500   3.115 -0.7361  0.8157 -0.4835
 6176SOL     OW30163   1.416   1.254  12.679 -0.2758 -0.2456 -0.3538
 6176SOL    HW130164   1.377   1.307  12.748  0.1384 -0.4140  0.0054
 6176SOL    HW230165   1.469   1.321  12.637  1.4023  0.5148  3.0189
 6177SOL     OW30166   1.540   3.241  17.254 -0.4379 -0.3189  0.5115
 6177SOL    HW130167   1.624   3.230  17.298  0.4306 -0.8020 -1.2941
 6177SOL    HW230168   1.495   3.165  17.293  0.7610  0.5228  3.5883
 6178SOL     OW30169   1.522   3.158  14.513  0.4208 -0.5627  0.0042
 6178SOL    HW130170   1.442   3.210  14.506  0.0134 -0.9857  1.5284
 6178SOL    HW230171   1.579   3.224  14.474  1.4094 -0.8869  0.9117
 6179SOL     OW30172   2.652   3.997   4.269  0.3039  0.3297 -0.3153
 6179SOL    HW130173   2.571   4.025   4.312  0.1056 -1.4923  0.5308
 6179SOL    HW230174   2.717   4.055   4.308 -0.2510  0.1934  0.8221
 6180SOL     OW30175   1.591   0.890  14.211 -0.4234  0.1934  0.0623
 6180SOL    HW130176   1.537   0.969  14.221  0.5062  0.9078 -0.5971
 6180SOL    HW230177   1.535   0.848  14.145 -2.7240 -1.2533  2.9408
 6181SOL     OW30178   2.174   4.534   3.645  0.1846  0.2966 -0.0881
 6181SOL    HW130179   2.097   4.493   3.684 -0.7109  1.0178 -1.1182
 6181SOL    HW230180   2.146   4.518   3.555 -0.9306 -1.4697  0.5732
 6182SOL     OW30181   4.427   0.485   1.154  0.1476 -0.9183 -0.4996
 6182SOL    HW130182   4.392   0.454   1.070 -1.1478  0.4259 -0.4592
 6182SOL    HW230183   4.353   0.542   1.175  1.3697  0.4515  0.0209
 6183SOL     OW30184   0.414   2.887   0.134  0.1723 -0.0455 -0.1636
 6183SOL    HW130185   0.354   2.955   0.165  0.3559 -0.1647  0.4566
 6183SOL    HW230186   0.407   2.815   0.196  0.1907  0.4662  0.4426
 6184SOL     OW30187   3.145   0.299   3.003 -0.9819 -0.3808 -0.3077
 6184SOL    HW130188   3.145   0.220   2.948  4.6622 -0.4116 -0.2629
 6184SOL    HW230189   3.064   0.283   3.053  0.4218 -1.2052  1.7104
 6185SOL     OW30190   2.069   4.184  13.326  0.1861  0.4963 -0.0458
 6185SOL    HW130191   2.061   4.201  13.420  1.4268  0.2421  0.0936
 6185SOL    HW230192   2.122   4.262  13.311  1.7631 -0.3662  1.1131
 6186SOL     OW30193   1.736   4.488   2.187 -0.8215 -0.4674 -0.2585
 6186SOL    HW130194   1.775   4.545   2.121 -3.2094  0.4870 -0.8427
 6186SOL    HW230195   1.728   4.408   2.136  0.6722 -0.9380  0.2331
 6187SOL     OW30196   1.564   0.315  10.468  0.0621 -0.4023 -0.2803
 6187SOL    HW130197   1.574   0.226  10.500  1.5864 -0.0076  0.3380
 6187SOL    HW230198   1.490   0.304  10.408 -0.2893  0.9472 -0.1154
 6188SOL     OW30199   2.799   3.155  13.566 -0.3725  0.1418 -0.1786
 6188SOL    HW130200   2.728   3.091  13.553 -0.8061  0.5173  0.3497
 6188SOL    HW230201   2.735   3.226  13.568  1.2109  1.5595 -0.5391
 6189SOL     OW30202   3.812   3.206   6.627  0.1773 -0.1777 -0.1620
 6189SOL    HW130203   3.801   3.165   6.540  2.3093  0.5795 -0.7886
 6189SOL    HW230204   3.861   3.278   6.588  0.5220 -0.7949 -0.8849
 6190SOL     OW30205   0.150   0.680   2.159  0.5323  0.2496 -0.0877
 6190SOL    HW130206   0.094   0.679   2.081  0.6235 -1.0296 -0.1353
 6190SOL    HW230207   0.194   0.765   2.161  0.2271  0.4742 -2.7584
 6191SOL     OW30208   2.796   1.675   6.472 -0.0074 -0.1755 -0.4046
 6191SOL    HW130209   2.862   1.647   6.536 -1.1758 -1.6329  0.1733
 6191SOL    HW230210   2.719   1.688   6.528 -1.0989 -0.7957 -1.7418
 6192SOL     OW30211   0.627   2.996  13.383  0.3685 -0.0428  0.5924
 6192SOL    HW130212   0.551   2.962  13.429  0.8919  0.2505  1.6762
 6192SOL    HW230213   0.689   3.017  13.454 -1.1608  0.6698  1.7043
 6193SOL     OW30214   4.014   1.362   3.837 -0.3111  0.5588 -0.2092
 6193SOL    HW130215   4.040   1.381   3.747 -1.9072 -0.3029 -0.8630
 6193SOL    HW230216   4.095   1.322   3.871  0.3303  1.4754 -0.6607
 6194SOL     OW30217   0.210   0.924  15.021 -0.6495 -0.3654  0.3323
 6194SOL    HW130218   0.274   0.862  14.987  2.6354  2.4144  1.3926
 6194SOL    HW230219   0.133   0.873  14.995 -0.9181  0.5452 -0.6366
 6195SOL     OW30220   2.026   1.876  12.379  1.0687 -0.0079 -0.4941
 6195SOL    HW130221   2.067   1.961  12.363  0.7939  0.2365  0.0879
 6195SOL    HW230222   2.106   1.825  12.395 -0.9504 -3.0092  0.0997
 6196SOL     OW30223   0.260   3.360   7.086 -1.0312 -0.4930  0.6667
 6196SOL    HW130224   0.280   3.287   7.028 -2.1875  0.0576 -0.4340
 6196SOL    HW230225   0.245   3.326   7.174  1.7419  1.0952  1.7398
 6197SOL     OW30226   2.845   2.277   2.545 -0.3078  0.2608  0.3290
 6197SOL    HW130227   2.911   2.286   2.613  0.6102  0.6476 -0.6038
 6197SOL    HW230228   2.767   2.266   2.599 -0.6068 -0.6724 -0.2973
 6198SOL     OW30229   4.368   0.155  17.101  0.0951  0.2942  0.1466
 6198SOL    HW130230   4.304   0.145  17.031  0.7171  2.4887 -0.7360
 6198SOL    HW230231   4.416   0.072  17.102 -0.6870 -0.1546  1.0847
 6199SOL     OW30232   3.451   2.792   4.088  0.6823  0.2377  0.3587
 6199SOL    HW130233   3.482   2.706   4.113 -0.6636 -0.6940 -1.1307
 6199SOL    HW230234   3.528   2.845   4.107  2.0787 -2.0590  1.0586
 6200SOL     OW30235   2.252   2.102  16.377 -0.1930 -0.1392  0.0231
 6200SOL    HW130236   2.225   2.016  16.410 -1.0876  0.4488  0.8297
 6200SOL    HW230237   2.223   2.095  16.286 -0.3513  2.2449 -0.0981
 6201SOL     OW30238   1.322   1.400   4.531  0.2020 -1.1125 -0.4961
 6201SOL    HW130239   1.387   1.469   4.518 -0.4471 -0.4797 -0.3916
 6201SOL    HW230240   1.277   1.402   4.447  0.2050  2.6540 -0.4258
 6202SOL     OW30241   4.393   1.933   4.756  0.1379  0.1972  0.1788
 6202SOL    HW130242   4.375   1.942   4.850 -2.2405  1.5644 -0.4138
 6202SOL    HW230243   4.382   2.024   4.726 -0.8985 -0.4106 -1.2437
 6203SOL     OW30244   0.295   1.520   5.592 -0.1259 -0.2226 -0.3972
 6203SOL    HW130245   0.299   1.452   5.525  1.3647  0.8272 -1.3641
 6203SOL    HW230246   0.221   1.568   5.554 -0.0428 -0.1192 -0.4261
 6204SOL     OW30247   2.841   2.183   5.209 -0.3384  0.1054  0.2902
 6204SOL    HW130248   2.793   2.260   5.238 -2.8628 -0.8155 -1.4037
 6204SOL    HW230249   2.774   2.122   5.176 -0.4748  0.6716 -0.4802
 6205SOL     OW30250   4.311   4.138   8.183  0.7616 -0.0298  0.2637
 6205SOL    HW130251   4.336   4.164   8.271  1.1361 -0.5129  0.3045
 6205SOL    HW230252   4.221   4.168   8.185  0.5268 -0.5684 -1.7160
 6206SOL     OW30253   0.784   4.180   7.740 -0.1943  0.1976 -0.3100
 6206SOL    HW130254   0.793   4.272   7.714 -1.7487  0.6317  0.7190
 6206SOL    HW230255   0.869   4.145   7.714  0.5705 -1.1222  3.9571
 6207SOL     OW30256   3.589   3.488   6.195  0.2771 -0.0408  0.1715
 6207SOL    HW130257   3.682   3.491   6.175  0.2524  0.3848  0.1104
 6207SOL    HW230258   3.586   3.574   6.237 -0.2112  0.0026  0.0486
 6208SOL     OW30259   2.850   4.439   6.638  0.2605 -0.0322  0.0083
 6208SOL    HW130260   2.767   4.422   6.593  0.3769 -0.9150  0.1257
 6208SOL    HW230261   2.822   4.483   6.718  0.4391  0.8903 -0.4483
 6209SOL     OW30262   2.574   1.927   3.974 -0.2107  0.0584 -0.0774
 6209SOL    HW130263   2.585   1.832   3.979  2.1930  0.4468  2.5827
 6209SOL    HW230264   2.505   1.931   3.909 -1.0586 -0.7946  0.7767
 6210SOL     OW30265   0.075   1.900   7.626 -0.3562 -0.2584 -0.0337
 6210SOL    HW130266   0.069   1.877   7.533  0.1023  1.1746 -0.4224
 6210SOL    HW230267   0.169   1.894   7.642 -0.1695 -1.3480 -1.4614
 6211SOL     OW30268   4.234   4.008   1.128 -0.0825  0.3895  0.0279
 6211SOL    HW130269   4.248   4.091   1.174 -0.4195  1.2651 -1.4464
 6211SOL    HW230270   4.240   3.952   1.205  0.2040 -1.3824 -1.3032
 6212SOL     OW30271   3.763   2.717   5.835 -0.0108  0.2138 -0.5669
 6212SOL    HW130272   3.697   2.753   5.776 -0.8468 -0.5103 -0.0856
 6212SOL    HW230273   3.768   2.626   5.804 -1.6914 -0.4042  1.0057
 6213SOL     OW30274   3.656   2.636   8.223  0.1530  0.1421  0.0620
 6213SOL    HW130275   3.661   2.647   8.128 -2.8317 -3.0114 -0.4824
 6213SOL    HW230276   3.749   2.626   8.245  0.7194  0.9129 -1.9335
 6214SOL     OW30277   2.086   1.303   5.196  0.1566  0.5551 -0.0891
 6214SOL    HW130278   2.115   1.392   5.175  1.2655 -0.3527 -2.3849
 6214SOL    HW230279   2.165   1.261   5.230 -0.0560  0.6294  0.4898
 6215SOL     OW30280   2.660   1.874   8.073  0.1277  0.6209 -0.4115
 6215SOL    HW130281   2.624   1.900   7.988 -0.3206 -1.4114 -0.8474
 6215SOL    HW230282   2.581   1.829   8.104 -0.2671  0.9916 -0.8776
 6216SOL     OW30283   0.999   3.397   7.669  0.2226  0.6125 -0.3041
 6216SOL    HW130284   0.959   3.437   7.746  0.6397 -0.2104  0.3345
 6216SOL    HW230285   0.975   3.304   7.667  3.0837 -0.1252  0.2305
 6217SOL     OW30286   1.750   0.474  10.341 -0.1153  0.0697 -0.0997
 6217SOL    HW130287   1.688   0.422  10.391  0.5075 -0.5536  0.0238
 6217SOL    HW230288   1.776   0.415  10.271  0.3019 -0.4998  0.5331
 6218SOL     OW30289   1.578   3.061   7.027  0.3734  0.5491  0.3454
 6218SOL    HW130290   1.533   3.005   6.964  0.0431  2.1963 -0.8613
 6218SOL    HW230291   1.656   3.092   6.982 -0.6562  0.6778 -1.3280
 6219SOL     OW30292   0.998   0.242   6.763 -0.1884  0.1117 -0.7110
 6219SOL    HW130293   0.960   0.329   6.762  1.9208  1.0494  0.1547
 6219SOL    HW230294   0.922   0.187   6.745 -0.3750  0.6300 -1.4646
 6220SOL     OW30295   3.188   0.311  12.528 -0.2516  0.0464 -0.0320
 6220SOL    HW130296   3.200   0.377  12.460  0.3559 -1.0399 -0.9793
 6220SOL    HW230297   3.253   0.337  12.593 -0.4749 -0.8383  0.5422
 6221SOL     OW30298   2.923   1.010   7.577 -0.1953  0.8104 -0.8259
 6221SOL    HW130299   2.942   1.018   7.484 -1.8242 -0.6807 -1.2732
 6221SOL    HW230300   2.828   1.004   7.580  0.1020 -2.9793 -0.0458
 6222SOL     OW30301   4.398   3.790  12.812 -0.0416 -0.1612 -0.5657
 6222SOL    HW130302   4.416   3.797  12.718  0.9821  0.1799 -0.3419
 6222SOL    HW230303   4.451   3.716  12.841 -0.1729  0.8614  2.2722
 6223SOL     OW30304   1.674   3.607   2.781 -0.0181  0.1335 -0.5256
 6223SOL    HW130305   1.741   3.658   2.736  1.0154  0.1583  1.0245
 6223SOL    HW230306   1.718   3.612   2.866 -0.3913  0.7051 -0.3624
 6224SOL     OW30307   0.079   3.004   6.047 -0.4478  0.8327  0.5433
 6224SOL    HW130308   0.078   2.911   6.067  0.6773  0.9926  1.3910
 6224SOL    HW230309   0.167   3.018   6.082  0.0537  0.0577 -0.3956
 6225SOL     OW30310   1.923   4.513   5.700 -0.0105  0.7413  0.4410
 6225SOL    HW130311   2.003   4.461   5.689 -0.3989  0.3672 -0.5911
 6225SOL    HW230312   1.894   4.473   5.782  1.4561 -1.4692 -0.1355
 6226SOL     OW30313   1.037   2.709   8.154  0.6774  0.2992  0.0965
 6226SOL    HW130314   0.998   2.784   8.199 -1.0313 -1.5981  1.8186
 6226SOL    HW230315   0.961   2.653   8.135  0.2655  0.1961  1.9548
 6227SOL     OW30316   2.571   4.342  11.585 -0.1739 -0.4524 -0.2081
 6227SOL    HW130317   2.522   4.405  11.638  1.9313  1.2163 -0.2480
 6227SOL    HW230318   2.662   4.362  11.605 -0.7517 -1.1906  3.0793
 6228SOL     OW30319   1.183   1.358   8.308 -0.0466 -0.1591  0.4928
 6228SOL    HW130320   1.122   1.371   8.381 -0.5064  0.9122 -0.0848
 6228SOL    HW230321   1.256   1.314   8.351 -0.0253 -1.1905 -0.6035
 6229SOL     OW30322   0.088   4.512   1.019  0.5124  0.0225 -0.1884
 6229SOL    HW130323   0.061   4.497   0.929  0.8249 -1.0403 -0.1043
 6229SOL    HW230324   0.180   4.537   1.010  0.0766  1.8107  0.3389
 6230SOL     OW30325   3.905   4.303   3.309 -0.0757  0.3164 -0.1717
 6230SOL    HW130326   3.927   4.372   3.371  0.9791 -0.0111 -0.1797
 6230SOL    HW230327   3.966   4.320   3.237  1.4333  1.2816  1.3343
 6231SOL     OW30328   0.099   1.168  15.038  0.1207  0.1783  0.2268
 6231SOL    HW130329   0.157   1.093  15.024 -0.9935 -0.4747 -0.8398
 6231SOL    HW230330   0.064   1.173  14.949 -0.2189  0.8410  0.3932
 6232SOL     OW30331   0.153   3.728  15.887 -0.4091 -0.1144  0.3194
 6232SOL    HW130332   0.132   3.803  15.941  1.2489 -0.5925  1.6262
 6232SOL    HW230333   0.176   3.769  15.804  0.9529 -1.5324 -0.0073
 6233SOL     OW30334   0.329   3.173  13.861  0.1801  0.3387  0.2864
 6233SOL    HW130335   0.358   3.231  13.931  1.8440 -2.1799  1.6817
 6233SOL    HW230336   0.251   3.223  13.837 -0.6831 -1.6623 -1.1001
 6234SOL     OW30337   1.680   2.520   1.478  0.1845  0.2580  0.6053
 6234SOL    HW130338   1.767   2.526   1.438  0.5951 -1.8705  1.1891
 6234SOL    HW230339   1.700   2.476   1.560  0.9031 -0.4156  0.0663
 6235SOL     OW30340   2.206   1.852   7.070 -0.0834  0.2082 -0.0913
 6235SOL    HW130341   2.258   1.839   7.149 -0.9436 -1.4424  0.2006
 6235SOL    HW230342   2.178   1.942   7.089  0.7548  0.8109 -1.7278
 6236SOL     OW30343   1.579   0.412   0.810  0.1858 -0.0264  0.1665
 6236SOL    HW130344   1.584   0.323   0.774  3.2158  0.8956 -1.6511
 6236SOL    HW230345   1.508   0.452   0.760 -1.3114  0.5946  2.7728
 6237SOL     OW30346   2.762   2.364   7.640 -0.5324 -0.2044  0.2415
 6237SOL    HW130347   2.839   2.324   7.681 -2.7866 -2.7530  2.0114
 6237SOL    HW230348   2.766   2.457   7.663  1.8109 -0.1183 -0.6196
 6238SOL     OW30349   2.816   0.462   6.840  0.1401  0.0942 -0.0462
 6238SOL    HW130350   2.783   0.443   6.752 -1.6971 -1.5070  0.9932
 6238SOL    HW230351   2.884   0.523   6.812 -0.8350  1.1985 -0.0373
 6239SOL     OW30352   0.462   1.239   6.471 -0.4035 -0.0785  0.5119
 6239SOL    HW130353   0.473   1.317   6.527 -0.7008  0.2190  0.1611
 6239SOL    HW230354   0.452   1.276   6.383  0.2338 -1.4815 -0.1369
 6240SOL     OW30355   3.744   1.841   4.149 -0.6258  0.3800  0.6389
 6240SOL    HW130356   3.809   1.834   4.079 -0.7090 -1.1409  0.7141
 6240SOL    HW230357   3.738   1.936   4.142  0.1377  0.4294  0.6506
 6241SOL     OW30358   2.400   0.900   5.751 -0.0376 -0.2375 -0.0981
 6241SOL    HW130359   2.487   0.860   5.750  0.2732  0.4220  0.1766
 6241SOL    HW230360   2.337   0.846   5.704  0.1291 -0.7678  0.2945
 6242SOL     OW30361   0.148   1.737   2.746 -0.6178 -0.0359 -0.0784
 6242SOL    HW130362   0.190   1.751   2.831  1.0492  0.8513 -1.0653
 6242SOL    HW230363   0.165   1.817   2.697 -0.9372 -1.3930 -2.4123
 6243SOL     OW30364   2.353   2.180   5.816 -0.2150 -0.0398  0.0483
 6243SOL    HW130365   2.406   2.260   5.822  0.0407 -0.2260  0.2718
 6243SOL    HW230366   2.308   2.206   5.736 -0.1828 -1.9071 -0.5682
 6244SOL     OW30367   1.790   0.634   2.885 -0.0667 -0.3288  0.3060
 6244SOL    HW130368   1.881   0.606   2.885  0.8172  2.5325  0.5569
 6244SOL    HW230369   1.774   0.640   2.979 -1.2596  0.4215  0.0640
 6245SOL     OW30370   1.706   4.309   7.697  0.1302 -0.2291  0.6835
 6245SOL    HW130371   1.644   4.364   7.649 -0.5811 -1.6464 -0.0266
 6245SOL    HW230372   1.677   4.324   7.786  4.1186 -0.3701  2.0267
 6246SOL     OW30373   1.397   3.483   3.760 -0.2264  0.8098 -0.0865
 6246SOL    HW130374   1.353   3.448   3.683  1.6455 -2.4835  0.3385
 6246SOL    HW230375   1.352   3.562   3.790  0.9621  0.4025  2.7134
 6247SOL     OW30376   2.753   1.817   5.332  0.4779  0.4708  0.0501
 6247SOL    HW130377   2.709   1.889   5.287 -0.6398  0.5850  1.3347
 6247SOL    HW230378   2.684   1.791   5.393  0.3335 -1.5930 -0.9988
 6248SOL     OW30379   0.429   4.042  14.955 -0.3440  0.2380  0.6205
 6248SOL    HW130380   0.521   4.065  14.963 -0.0503 -0.5544 -0.4808
 6248SOL    HW230381   0.429   3.947  14.942  0.1701  0.3655 -0.3392
 6249SOL     OW30382   4.221   0.273   6.640  0.0026 -0.2120  0.3216
 6249SOL    HW130383   4.128   0.284   6.621  0.3838  0.5593 -1.0342
 6249SOL    HW230384   4.266   0.294   6.558 -2.1287 -1.5688 -1.1805
 6250SOL     OW30385   1.686   4.163   4.488 -0.3393 -0.2643  0.1162
 6250SOL    HW130386   1.656   4.194   4.574 -0.6103  0.0547 -0.0930
 6250SOL    HW230387   1.745   4.089   4.501 -0.4589 -0.8755 -2.9667
 6251SOL     OW30388   1.907   0.957   4.243  0.8156  0.3582  0.4431
 6251SOL    HW130389   1.921   0.922   4.331 -2.8540  1.9672  1.6310
 6251SOL    HW230390   1.969   0.902   4.194 -1.7517 -3.0062  0.9534
 6252SOL     OW30391   1.006   3.949   4.108 -0.2171 -0.8630 -0.1169
 6252SOL    HW130392   1.096   3.945   4.140  0.4333 -1.3141 -2.0096
 6252SOL    HW230393   0.961   4.004   4.172  2.1953 -0.6693  1.3974
 6253SOL     OW30394   1.028   0.962   9.590  0.4099 -0.4649 -0.4115
 6253SOL    HW130395   1.063   0.897   9.529 -1.8180 -0.0423 -2.1128
 6253SOL    HW230396   1.098   1.006   9.640  0.0834  0.3328 -0.6538
 6254SOL     OW30397   3.366   0.651   8.300 -0.2157  0.3425  0.0673
 6254SOL    HW130398   3.363   0.684   8.210 -0.0434  1.0232  0.3160
 6254SOL    HW230399   3.273   0.627   8.306  0.1402 -0.3828  2.7835
 6255SOL     OW30400   0.069   1.889  15.395 -0.3835 -0.0410  0.4762
 6255SOL    HW130401   0.034   1.936  15.470  0.5285 -0.5057  1.1924
 6255SOL    HW230402   4.735   1.882  15.332  0.4321  0.0453 -0.4633
 6256SOL     OW30403   2.320   3.671   5.010 -0.3618 -0.4338  0.6259
 6256SOL    HW130404   2.241   3.630   5.045  1.0567 -1.1164  3.0842
 6256SOL    HW230405   2.381   3.662   5.084  0.3150  1.5697  0.3165
 6257SOL     OW30406   0.777   3.247  17.515  0.0810  0.4403 -0.0076
 6257SOL    HW130407   0.744   3.235  17.604  0.9009 -0.5093  0.1737
 6257SOL    HW230408   0.857   3.195  17.523  0.0004  0.6620  2.4632
 6258SOL     OW30409   1.775   3.732  10.066  0.2281 -0.3300 -0.1726
 6258SOL    HW130410   1.821   3.671  10.008  0.4277 -1.7751  1.5042
 6258SOL    HW230411   1.686   3.748  10.034 -0.3011  0.5025  1.7233
 6259SOL     OW30412   2.949   2.909  17.376 -0.0557 -0.6894 -0.2980
 6259SOL    HW130413   3.042   2.927  17.361  0.1748 -1.6350 -0.0106
 6259SOL    HW230414   2.954   2.851  17.452  0.3852 -1.4171 -0.8705
 6260SOL     OW30415   4.005   0.261  14.417  0.0595 -0.6454 -0.5363
 6260SOL    HW130416   3.949   0.311  14.476  1.0486 -2.6922  2.1043
 6260SOL    HW230417   4.094   0.268  14.449  0.3124 -0.7520 -1.2121
 6261SOL     OW30418   0.563   0.918  12.872 -0.3941 -0.0932  0.2372
 6261SOL    HW130419   0.568   0.872  12.956  0.0151  0.7577  0.6726
 6261SOL    HW230420   0.651   0.898  12.840 -0.2280  2.3709 -0.8473
 6262SOL     OW30421   0.489   0.981   3.424  0.2355  0.3136  0.1021
 6262SOL    HW130422   0.542   0.950   3.351  1.6925  0.1549  1.2421
 6262SOL    HW230423   0.413   0.923   3.424  0.3491  0.1688  1.3746
 6263SOL     OW30424   4.307   3.517  10.335  0.5509 -0.0172 -0.0685
 6263SOL    HW130425   4.284   3.546  10.247  0.6133  1.2940  0.3581
 6263SOL    HW230426   4.269   3.588  10.387  1.1449 -0.9228  1.6188
 6264SOL     OW30427   1.575   1.956  16.190 -0.0603 -0.3905 -0.6029
 6264SOL    HW130428   1.526   2.037  16.202  1.4577  0.5386 -0.5695
 6264SOL    HW230429   1.646   1.975  16.252 -0.8064  1.0827 -0.2081
 6265SOL     OW30430   3.298   4.222  11.050  0.3670 -0.0896 -0.0306
 6265SOL    HW130431   3.257   4.289  11.105  0.7917  0.6996 -0.6686
 6265SOL    HW230432   3.229   4.211  10.985 -0.2402 -1.3624  0.8303
 6266SOL     OW30433   2.813   4.166   4.910 -0.2817 -0.2438 -0.2497
 6266SOL    HW130434   2.723   4.193   4.888 -0.9052 -1.6986  0.5098
 6266SOL    HW230435   2.800   4.096   4.973  0.6189 -0.8741 -0.7584
 6267SOL     OW30436   1.058   0.454   5.108 -0.1285 -0.2296 -0.0189
 6267SOL    HW130437   1.106   0.517   5.161 -0.9029 -1.1948  1.8428
 6267SOL    HW230438   1.039   0.506   5.029 -1.4257 -0.6604  0.0097
 6268SOL     OW30439   4.470   2.406   2.897  0.6050  0.3702 -1.1826
 6268SOL    HW130440   4.536   2.367   2.841  1.0246 -1.3012  0.4948
 6268SOL    HW230441   4.415   2.452   2.834 -0.5845  0.2912 -0.2171
 6269SOL     OW30442   0.108   3.317   6.176 -0.1167  0.0071 -0.8097
 6269SOL    HW130443   0.161   3.240   6.157  1.5262  0.7714  0.6456
 6269SOL    HW230444   0.131   3.327   6.268 -0.4184  0.3432 -0.7714
 6270SOL     OW30445   1.847   3.185   9.202 -0.0827 -0.1004  0.5650
 6270SOL    HW130446   1.789   3.110   9.215 -0.6451  0.0089 -1.3760
 6270SOL    HW230447   1.798   3.259   9.237 -1.3495 -0.3415 -0.7277
 6271SOL     OW30448   3.427   3.414   6.407  0.0952 -0.4413  0.6103
 6271SOL    HW130449   3.439   3.330   6.450 -0.4187 -0.0061  1.5868
 6271SOL    HW230450   3.517   3.435   6.382 -0.4616  0.3465 -0.7223
 6272SOL     OW30451   4.071   1.477   7.999  0.4841 -0.0960 -0.3332
 6272SOL    HW130452   4.135   1.478   8.071  1.4138  0.7782 -1.1645
 6272SOL    HW230453   4.124   1.484   7.920  1.0274 -0.0039  0.0338
 6273SOL     OW30454   4.333   0.941   5.973  0.5095  0.3485 -0.1213
 6273SOL    HW130455   4.406   0.899   6.017  0.5694 -1.0986 -1.5767
 6273SOL    HW230456   4.320   1.021   6.024 -0.2260 -0.1462  0.4754
 6274SOL     OW30457   1.169   3.657   4.846  0.4300  0.1105  0.3120
 6274SOL    HW130458   1.076   3.669   4.826 -0.0795 -1.4218  1.8087
 6274SOL    HW230459   1.210   3.717   4.784  0.0667 -0.2086 -0.2422
 6275SOL     OW30460   0.118   1.678  17.147  0.1699  0.0950 -0.1245
 6275SOL    HW130461   0.082   1.601  17.191 -1.4093  1.7682  1.4796
 6275SOL    HW230462   0.117   1.649  17.056  1.8927  0.0719 -0.1462
 6276SOL     OW30463   4.411   1.889  11.482  0.5178  0.2112  0.3382
 6276SOL    HW130464   4.371   1.884  11.569 -1.7810 -0.2968 -0.7587
 6276SOL    HW230465   4.505   1.890  11.502  0.4809  0.1429  0.5214
 6277SOL     OW30466   1.860   2.718   4.741  0.8096 -0.2946  0.4392
 6277SOL    HW130467   1.934   2.658   4.748  1.7146  0.7688  0.0786
 6277SOL    HW230468   1.884   2.776   4.669  4.1517 -2.4197 -0.1607
 6278SOL     OW30469   3.504   3.413   4.221  0.4552 -0.6631  0.0904
 6278SOL    HW130470   3.424   3.464   4.227  1.1355  0.6775 -2.0754
 6278SOL    HW230471   3.568   3.476   4.188 -0.5272 -0.1603 -0.8292
 6279SOL     OW30472   4.580   3.752   7.380 -0.6342  0.7591  0.6451
 6279SOL    HW130473   4.577   3.659   7.356 -1.0740  0.5442  1.5440
 6279SOL    HW230474   4.500   3.762   7.431 -0.6975  1.6816  0.3753
 6280SOL     OW30475   0.671   0.966   2.427  0.1540 -0.0633 -0.7528
 6280SOL    HW130476   0.607   0.905   2.389  1.0803 -0.0802 -2.2822
 6280SOL    HW230477   0.614   1.023   2.478 -1.2450 -1.6501 -0.5519
 6281SOL     OW30478   0.540   2.629  14.389  0.7742 -0.3987  0.0068
 6281SOL    HW130479   0.504   2.579  14.462 -2.6380  3.6190  1.0888
 6281SOL    HW230480   0.576   2.566  14.327 -0.2705 -1.6966  0.7183
 6282SOL     OW30481   3.080   0.966   6.758  0.3314  0.3185 -0.4961
 6282SOL    HW130482   3.073   1.055   6.793 -0.9418 -0.4054  1.1136
 6282SOL    HW230483   2.998   0.960   6.709 -0.8389 -1.4572  1.6632
 6283SOL     OW30484   0.282   4.297   5.658  0.1646 -0.1435 -0.2951
 6283SOL    HW130485   0.356   4.310   5.718 -1.6282 -0.4026  1.9822
 6283SOL    HW230486   0.203   4.293   5.712 -0.0207 -1.5119 -0.6787
 6284SOL     OW30487   3.934   0.290   7.179 -0.6669 -0.4023 -0.2227
 6284SOL    HW130488   3.983   0.303   7.098 -0.5248 -0.1533 -0.0965
 6284SOL    HW230489   3.995   0.224   7.214 -0.4184 -0.9310 -1.6477
 6285SOL     OW30490   2.226   4.139   3.889  0.2276 -0.4062 -0.3797
 6285SOL    HW130491   2.241   4.046   3.871 -0.0635 -0.4690 -0.2944
 6285SOL    HW230492   2.214   4.146   3.983 -0.3069 -1.1705 -0.3964
 6286SOL     OW30493   2.654   3.127  16.508  0.2256 -0.1984  0.2221
 6286SOL    HW130494   2.559   3.134  16.492  0.3824  0.2084 -0.5147
 6286SOL    HW230495   2.669   3.061  16.441 -0.8616  1.4366 -1.6303
 6287SOL     OW30496   1.825   0.108   5.071 -0.3959 -0.2489 -0.3885
 6287SOL    HW130497   1.743   0.157   5.076  1.6481  2.8682  2.6176
 6287SOL    HW230498   1.816   0.067   4.985 -0.4900  1.8857 -1.3908
 6288SOL     OW30499   1.749   0.954   8.971  0.1448 -0.0435  0.6263
 6288SOL    HW130500   1.783   0.866   8.952 -0.1896 -0.4174  1.7156
 6288SOL    HW230501   1.715   0.992   8.890  0.5644 -0.7047  0.1395
 6289SOL     OW30502   2.871   1.576  11.668  0.1547 -0.0323 -0.2194
 6289SOL    HW130503   2.823   1.520  11.728 -1.0229  0.2759 -0.8782
 6289SOL    HW230504   2.837   1.664  11.684 -1.4754 -0.4136 -1.5508
 6290SOL     OW30505   1.695   2.568   5.577 -0.2097 -0.0355  0.4236
 6290SOL    HW130506   1.752   2.606   5.511 -1.0798 -0.5303 -0.6107
 6290SOL    HW230507   1.646   2.646   5.602 -0.6898  0.0047 -0.6334
 6291SOL     OW30508   3.799   0.765   6.744 -0.6133 -0.2128 -0.2425
 6291SOL    HW130509   3.762   0.740   6.828  0.7026 -0.1776  0.3470
 6291SOL    HW230510   3.867   0.700   6.728 -2.1739 -1.6409 -1.1099
 6292SOL     OW30511   3.030   1.672   2.118 -0.0019 -0.4166  0.3023
 6292SOL    HW130512   3.115   1.702   2.086 -0.8049  2.0710  0.5115
 6292SOL    HW230513   3.010   1.627   2.035  0.1470  0.0259  0.0314
 6293SOL     OW30514   2.053   4.654   5.044  0.1597 -0.2964  0.1491
 6293SOL    HW130515   2.115   4.668   4.973 -1.2318  1.7002 -0.6876
 6293SOL    HW230516   1.974   4.626   4.996 -0.5991  1.1706  0.5566
 6294SOL     OW30517   2.718   1.056   9.529  0.1262 -0.4443 -0.0280
 6294SOL    HW130518   2.750   1.094   9.447  2.5742 -0.2357  0.9994
 6294SOL    HW230519   2.655   0.994   9.492  0.4199 -1.1349  0.6303
 6295SOL     OW30520   1.950   3.660   7.435 -0.5742 -0.1771  0.3151
 6295SOL    HW130521   1.995   3.741   7.458 -2.7981  0.3317  3.0115
 6295SOL    HW230522   1.861   3.674   7.468 -0.1934  1.8399  0.4717
 6296SOL     OW30523   4.375   1.722   8.809 -0.4533  0.1772 -0.4771
 6296SOL    HW130524   4.392   1.643   8.860 -0.5805 -0.6785 -1.7804
 6296SOL    HW230525   4.284   1.737   8.836  0.0167 -0.5818  1.5389
 6297SOL     OW30526   2.102   4.008   9.730 -0.0650 -0.2782  0.1879
 6297SOL    HW130527   2.041   4.052   9.789  1.8843 -0.7955  2.6044
 6297SOL    HW230528   2.183   4.021   9.780  0.2551  0.6312 -0.5816
 6298SOL     OW30529   1.685   3.396   2.308 -0.6516  0.1863  0.9099
 6298SOL    HW130530   1.664   3.358   2.222 -1.1385  0.7249  0.7949
 6298SOL    HW230531   1.666   3.324   2.369 -1.6623  1.3800  1.9979
 6299SOL     OW30532   0.968   2.903   3.665 -0.0282 -0.3610 -0.0086
 6299SOL    HW130533   0.922   2.987   3.657 -1.2219 -0.9193  1.0529
 6299SOL    HW230534   0.913   2.862   3.731 -1.6423 -0.1670 -1.2324
 6300SOL     OW30535   2.157   3.946   7.139  0.0943  0.2784 -0.1976
 6300SOL    HW130536   2.149   3.918   7.047  0.0032  0.3330 -0.2058
 6300SOL    HW230537   2.074   3.991   7.149  0.5342  0.7403  1.3320
 6301SOL     OW30538   3.079   0.821   4.402  0.4409 -0.1095  0.2050
 6301SOL    HW130539   3.092   0.860   4.488 -2.4343  0.8138  0.2175
 6301SOL    HW230540   3.140   0.867   4.344 -1.0619  0.1417 -1.1830
 6302SOL     OW30541   1.598   2.340   2.390  0.6506  0.2954  0.1526
 6302SOL    HW130542   1.595   2.436   2.387  2.4098  0.3630  0.5882
 6302SOL    HW230543   1.584   2.327   2.296 -0.1956 -0.0932  0.3320
 6303SOL     OW30544   1.128   0.286   8.094  0.1721  0.2459 -0.4318
 6303SOL    HW130545   1.046   0.325   8.066  0.5150  1.7322  0.6579
 6303SOL    HW230546   1.097   0.196   8.106  0.2230 -0.0421 -2.4256
 6304SOL     OW30547   0.520   3.264   8.821  0.3083  0.1137 -0.8050
 6304SOL    HW130548   0.532   3.359   8.833 -0.5178 -0.0094  0.9508
 6304SOL    HW230549   0.431   3.266   8.788  0.7909  2.0720 -2.0279
 6305SOL     OW30550   1.405   1.585   9.159 -0.6167  0.0007 -0.4294
 6305SOL    HW130551   1.453   1.611   9.080  0.0199 -1.1536 -0.4166
 6305SOL    HW230552   1.391   1.492   9.144 -0.9433 -0.2500  1.4946
 6306SOL     OW30553   0.598   2.926   8.719  0.4365  0.5902  0.0463
 6306SOL    HW130554   0.510   2.936   8.681  0.2444 -0.7483  0.1529
 6306SOL    HW230555   0.648   3.000   8.685 -0.3123  0.6686 -0.8753
 6307SOL     OW30556   0.098   0.597   1.181  0.2707 -0.2156  0.5082
 6307SOL    HW130557   0.058   0.515   1.210 -0.1442  1.0790  3.6898
 6307SOL    HW230558   0.129   0.566   1.097  1.7517 -2.2819  1.8240
 6308SOL     OW30559   2.147   4.720   6.102  0.0418 -0.4266 -0.5544
 6308SOL    HW130560   2.222   0.038   6.122  0.9206 -1.6631 -0.4054
 6308SOL    HW230561   2.087   0.054   6.085  0.5421 -0.1207 -1.0204
 6309SOL     OW30562   1.428   4.175   1.360  0.3549  0.1073  0.2138
 6309SOL    HW130563   1.448   4.241   1.426  0.7916 -0.1917  0.3776
 6309SOL    HW230564   1.508   4.158   1.311 -1.0808  1.0948 -2.5066
 6310SOL     OW30565   1.769   2.745   2.618  0.6558 -0.2273  0.5449
 6310SOL    HW130566   1.690   2.795   2.635 -0.0384 -0.7464 -1.1869
 6310SOL    HW230567   1.812   2.766   2.701 -2.8142  1.8179  1.7875
 6311SOL     OW30568   2.110   3.627   4.082  0.0778  0.2484 -0.0397
 6311SOL    HW130569   2.136   3.571   4.155 -0.5624 -0.9550 -0.7327
 6311SOL    HW230570   2.016   3.615   4.076  0.5109 -3.3088  0.3681
 6312SOL     OW30571   3.766   1.638   6.860 -0.1125  0.3411 -0.5478
 6312SOL    HW130572   3.853   1.665   6.830  0.0542  0.3716 -0.0418
 6312SOL    HW230573   3.776   1.658   6.953 -1.1500 -2.3331  0.1468
 6313SOL     OW30574   3.782   4.471   6.785  0.1316  0.3615  0.6116
 6313SOL    HW130575   3.784   4.458   6.880 -2.8342 -0.9184  0.4976
 6313SOL    HW230576   3.712   4.534   6.770  0.3273  0.6679  0.9723
 6314SOL     OW30577   4.015   1.622   7.535  0.7011 -0.6205 -0.0904
 6314SOL    HW130578   4.061   1.608   7.453  1.7890 -2.0048  0.7504
 6314SOL    HW230579   3.940   1.671   7.501  0.7797  1.5555  2.8756
 6315SOL     OW30580   0.958   3.014   2.865 -0.0153  0.2746  0.4068
 6315SOL    HW130581   0.987   3.018   2.956  0.0864  1.6916  0.3048
 6315SOL    HW230582   0.865   2.993   2.876  0.6345 -2.4184  0.9069
 6316SOL     OW30583   1.562   3.612   4.087 -0.3148 -0.5736  0.1122
 6316SOL    HW130584   1.496   3.666   4.045  1.0494 -0.1892 -1.5274
 6316SOL    HW230585   1.520   3.573   4.164  0.5802 -0.0488  0.8662
 6317SOL     OW30586   2.956   1.880  17.611  0.2976  0.1332  0.2731
 6317SOL    HW130587   3.034   1.845  17.654 -0.1174  0.5340  1.3607
 6317SOL    HW230588   2.969   1.832  17.530 -0.7455  0.4672 -0.0892
 6318SOL     OW30589   0.790   0.785   8.076 -0.3239  0.2793 -0.0886
 6318SOL    HW130590   0.836   0.860   8.038 -1.8574  0.2240 -2.0406
 6318SOL    HW230591   0.765   0.735   7.998  1.8633  0.7824 -1.1074
 6319SOL     OW30592   4.430   4.206  17.525 -0.0577 -0.2797 -0.5535
 6319SOL    HW130593   4.370   4.265  17.478  0.4083  0.3267 -0.3811
 6319SOL    HW230594   4.370   4.140  17.560  1.7806 -1.6900 -0.0698
 6320SOL     OW30595   2.306   4.221  16.429 -0.1301 -0.2791 -0.3942
 6320SOL    HW130596   2.364   4.149  16.405  0.5017  0.2018 -0.2971
 6320SOL    HW230597   2.357   4.297  16.401 -1.9031  0.0502 -2.7021
 6321SOL     OW30598   4.646   3.311   4.838 -0.0317  0.5130  0.4975
 6321SOL    HW130599   4.602   3.290   4.921  0.1541  0.6906  0.6429
 6321SOL    HW230600   4.649   3.221   4.806 -0.5844  1.1332 -1.3060
 6322SOL     OW30601   2.476   2.563  17.647 -0.3357 -0.0827 -0.5337
 6322SOL    HW130602   2.485   2.500  17.576  0.3246 -0.3812 -0.1901
 6322SOL    HW230603   2.490   2.505  17.722  0.8370 -0.4270 -1.0145
 6323SOL     OW30604   1.659   4.588   6.025 -0.4642 -0.9968  0.1573
 6323SOL    HW130605   1.619   4.648   5.961  0.2997 -0.6357  0.0127
 6323SOL    HW230606   1.720   4.645   6.073  0.7118 -2.7337  0.7031
 6324SOL     OW30607   2.999   2.646   2.511 -0.2269 -0.4041  0.4218
 6324SOL    HW130608   3.078   2.631   2.459  0.5791 -2.0537  2.1186
 6324SOL    HW230609   3.034   2.662   2.599  0.9687  2.0549 -0.5083
 6325SOL     OW30610   3.449   2.104   7.197  0.2140  0.0947 -0.0213
 6325SOL    HW130611   3.392   2.175   7.168 -0.6932  0.0247  1.5465
 6325SOL    HW230612   3.433   2.109   7.292 -1.3173  0.0465 -0.2832
 6326SOL     OW30613   0.340   2.457   5.216 -0.4755 -0.3511 -0.1934
 6326SOL    HW130614   0.262   2.502   5.183  0.2982  1.4431  0.4193
 6326SOL    HW230615   0.344   2.383   5.155  1.6400 -0.2494 -0.2011
 6327SOL     OW30616   0.054   2.811   7.270  0.1968 -0.4846 -0.0181
 6327SOL    HW130617   0.076   2.866   7.195  0.5395  1.6682  1.6758
 6327SOL    HW230618   0.124   2.823   7.333 -2.0051  3.3841  1.7075
 6328SOL     OW30619   2.997   2.390   2.076 -0.0262  0.4855 -0.3230
 6328SOL    HW130620   3.087   2.414   2.052  0.0396  0.8202  0.2533
 6328SOL    HW230621   2.984   2.308   2.028 -0.3515  0.5212 -0.2923
 6329SOL     OW30622   1.499   4.290   4.320  0.7015 -0.3120  0.5721
 6329SOL    HW130623   1.461   4.292   4.232  0.9304  0.1063  0.4854
 6329SOL    HW230624   1.547   4.208   4.333 -0.0873 -1.2862 -2.5329
 6330SOL     OW30625   0.012   1.975  13.744  0.2258  0.1096 -0.1929
 6330SOL    HW130626   0.029   2.069  13.740  0.4439  0.2104  3.4542
 6330SOL    HW230627   4.676   1.961  13.684 -0.2900 -1.3418  0.7779
 6331SOL     OW30628   2.465   1.959   7.885 -0.2462  0.3859  0.2061
 6331SOL    HW130629   2.429   2.024   7.946 -0.5084 -0.6261  1.1338
 6331SOL    HW230630   2.401   1.888   7.886 -0.8856  0.9449 -1.4838
 6332SOL     OW30631   0.450   2.816   9.472  0.0913  0.6063  0.2900
 6332SOL    HW130632   0.431   2.820   9.378  0.0948  0.5460  0.2872
 6332SOL    HW230633   0.450   2.721   9.479 -2.2919  0.6438  0.9947
 6333SOL     OW30634   2.029   0.897  16.305  0.2533  0.1445  0.7061
 6333SOL    HW130635   2.032   0.842  16.384 -0.4975 -1.5640 -0.4488
 6333SOL    HW230636   2.118   0.872  16.279 -0.1890  0.9703 -1.5239
 6334SOL     OW30637   3.396   0.666   4.495 -0.2357 -0.1821 -0.0805
 6334SOL    HW130638   3.445   0.584   4.481  1.2891  1.0214 -1.7153
 6334SOL    HW230639   3.355   0.691   4.412 -1.5148  2.2159  1.2838
 6335SOL     OW30640   0.909   3.894   7.257  0.3994 -0.3590  0.2662
 6335SOL    HW130641   0.908   3.973   7.203 -1.0660  0.8375  2.0309
 6335SOL    HW230642   0.822   3.900   7.297 -1.8345 -2.8243 -4.2600
 6336SOL     OW30643   2.212   0.108   4.242 -0.4492 -0.3677 -0.0667
 6336SOL    HW130644   2.287   0.167   4.239  0.2665 -1.3398 -0.9082
 6336SOL    HW230645   2.136   0.163   4.221  0.0857  0.4526  0.1303
 6337SOL     OW30646   2.046   2.150  10.959  0.4535  0.0377 -0.0637
 6337SOL    HW130647   2.128   2.195  10.980 -0.1846 -0.6646  3.8295
 6337SOL    HW230648   2.009   2.160  11.047 -0.9368 -1.4907 -0.4833
 6338SOL     OW30649   3.259   3.826   8.473  0.2897  0.0576  0.6185
 6338SOL    HW130650   3.324   3.795   8.411 -1.3511 -0.3965 -0.8968
 6338SOL    HW230651   3.283   3.917   8.486 -0.0498  0.0507  1.2966
 6339SOL     OW30652   4.218   3.375   0.567  0.2222  0.2242 -1.0487
 6339SOL    HW130653   4.203   3.403   0.476  1.4917  2.2273 -0.6554
 6339SOL    HW230654   4.309   3.347   0.558  0.0719 -1.1868  1.9446
 6340SOL     OW30655   3.620   3.396  12.104 -0.1417  0.1820 -0.6963
 6340SOL    HW130656   3.709   3.369  12.127 -0.7808 -1.3411  0.0084
 6340SOL    HW230657   3.635   3.380  12.011  2.1480  4.3257 -1.0103
 6341SOL     OW30658   2.740   1.464   7.094  0.3527 -0.0505 -0.5198
 6341SOL    HW130659   2.748   1.529   7.024  0.6211  0.3872 -0.0834
 6341SOL    HW230660   2.782   1.512   7.165  0.0921  0.2659 -0.5840
 6342SOL     OW30661   2.555   2.969   7.849 -0.2036  0.4505  0.1830
 6342SOL    HW130662   2.525   2.887   7.811  2.0345  1.0686 -2.9020
 6342SOL    HW230663   2.547   2.944   7.941  0.8572 -1.0087 -0.1186
 6343SOL     OW30664   1.433   0.687   2.166 -0.1749 -0.1693 -0.1115
 6343SOL    HW130665   1.371   0.749   2.206 -0.5506 -0.6727  0.0856
 6343SOL    HW230666   1.495   0.659   2.233  0.1073 -0.5185 -0.5199
 6344SOL     OW30667   4.491   4.310   0.742  0.3746  1.2375 -0.2478
 6344SOL    HW130668   4.401   4.281   0.727  0.0694  1.5034  1.0406
 6344SOL    HW230669   4.513   4.335   0.653  1.4655  3.4825  0.6261
 6345SOL     OW30670   3.920   3.571   2.588  0.4058 -0.0877 -0.1883
 6345SOL    HW130671   3.857   3.598   2.656  2.2388  0.7059  1.1977
 6345SOL    HW230672   3.997   3.623   2.611 -0.3647  1.1483 -0.4027
 6346SOL     OW30673   3.279   4.403  13.302  0.0659  0.4950  0.2102
 6346SOL    HW130674   3.341   4.476  13.313 -1.1926  1.4020  1.2899
 6346SOL    HW230675   3.243   4.423  13.216 -0.1167  1.6847  0.5623
 6347SOL     OW30676   4.184   1.872   8.319 -0.0230  0.1462  0.7855
 6347SOL    HW130677   4.229   1.912   8.393 -1.3514  0.2020  1.5646
 6347SOL    HW230678   4.252   1.815   8.285  0.6803  1.2952  0.2329
 6348SOL     OW30679   3.930   4.235   1.462  0.2408  0.1631  0.2620
 6348SOL    HW130680   3.982   4.192   1.394  2.0127  2.0773  0.4000
 6348SOL    HW230681   3.967   4.323   1.459  1.9610 -0.4500  3.4608
 6349SOL     OW30682   2.635   2.552  11.718 -0.0615  0.3866  1.4671
 6349SOL    HW130683   2.586   2.630  11.693 -0.1121  0.1489  0.8314
 6349SOL    HW230684   2.683   2.571  11.799  0.8488  2.6529  0.3831
 6350SOL     OW30685   4.308   4.167  11.584 -0.0571  0.1264  0.1374
 6350SOL    HW130686   4.312   4.173  11.680  0.3436  0.3036  0.1106
 6350SOL    HW230687   4.375   4.231  11.558 -0.7152  1.3315  1.4074
 6351SOL     OW30688   0.040   4.300   5.177 -0.6071 -0.1326 -0.0433
 6351SOL    HW130689   0.083   4.313   5.093  1.0724 -0.4349  0.7598
 6351SOL    HW230690   0.081   4.374   5.224 -0.5702 -1.4587  2.0256
 6352SOL     OW30691   0.099   4.725  15.341  0.7113  0.3699 -0.4480
 6352SOL    HW130692   0.107   4.630  15.333  0.9662  0.2407  1.2623
 6352SOL    HW230693   0.164   0.023  15.281 -0.0960  2.5378 -0.0249
 6353SOL     OW30694   4.261   2.435   7.721  0.0400  0.7771 -0.2443
 6353SOL    HW130695   4.189   2.374   7.739  0.0304  0.9199  0.1993
 6353SOL    HW230696   4.322   2.378   7.675  0.4702  0.5546  0.6086
 6354SOL     OW30697   0.064   3.885   3.485  0.2924 -0.1207 -0.7758
 6354SOL    HW130698   0.074   3.871   3.580  3.4834 -0.4349 -1.1563
 6354SOL    HW230699   0.141   3.845   3.444  1.3078  1.8370 -0.7535
 6355SOL     OW30700   0.386   0.715   1.115  0.7254  0.0332 -0.7856
 6355SOL    HW130701   0.467   0.763   1.100  0.0343  0.9339 -1.6230
 6355SOL    HW230702   0.417   0.647   1.176  1.2787  1.6879  0.7630
 6356SOL     OW30703   4.562   2.492   6.311 -1.0744  0.3990  0.0053
 6356SOL    HW130704   4.474   2.473   6.277 -0.4259 -1.9349 -0.3849
 6356SOL    HW230705   4.592   2.568   6.262  1.1733  0.3006  1.2555
 6357SOL     OW30706   3.750   3.828   5.245  0.3133  0.5937  0.6921
 6357SOL    HW130707   3.757   3.739   5.279  1.2069  0.1396 -0.6604
 6357SOL    HW230708   3.827   3.839   5.188  1.6515  0.2218  2.4431
 6358SOL     OW30709   0.701   1.866   8.178 -0.0314 -0.3923 -0.0165
 6358SOL    HW130710   0.642   1.877   8.253 -1.0898 -0.4091 -0.8469
 6358SOL    HW230711   0.696   1.951   8.134  0.1253  0.6134  1.8944
 6359SOL     OW30712   0.150   0.838   1.124  0.1235 -0.3448 -0.6652
 6359SOL    HW130713   0.239   0.812   1.099 -0.2580 -1.0129 -1.3251
 6359SOL    HW230714   0.104   0.758   1.150 -1.9742  1.3699  0.8901
 6360SOL     OW30715   4.657   2.902   8.796  0.7987 -0.2496  0.5092
 6360SOL    HW130716   4.615   2.846   8.732  1.6621 -1.5558  1.0832
 6360SOL    HW230717   4.688   2.838   8.860  0.5905  1.3065  2.1566
 6361SOL     OW30718   3.389   0.468   3.892 -0.4052 -0.2381 -0.1139
 6361SOL    HW130719   3.416   0.494   3.804 -0.8060 -0.0743 -0.1896
 6361SOL    HW230720   3.443   0.533   3.938  1.7120 -1.1344 -1.3188
 6362SOL     OW30721   1.303   0.071  10.574  0.5821 -0.0519  0.4228
 6362SOL    HW130722   1.317   0.155  10.617 -0.6792 -0.6558  2.0082
 6362SOL    HW230723   1.390   0.031  10.580 -0.9405 -3.3163  0.2371
 6363SOL     OW30724   3.199   3.708   6.978 -0.1477 -0.1728  0.1027
 6363SOL    HW130725   3.200   3.628   7.029 -0.2822  0.3800  0.9789
 6363SOL    HW230726   3.218   3.770   7.049  0.8724 -1.5115  0.9805
 6364SOL     OW30727   1.736   2.460  11.623 -0.0119 -0.3918 -0.1345
 6364SOL    HW130728   1.764   2.423  11.706  0.2085  0.5493  0.2174
 6364SOL    HW230729   1.642   2.451  11.635 -0.2131  0.5226 -0.9245
 6365SOL     OW30730   1.772   2.574   2.955 -0.9970  0.7867  0.4618
 6365SOL    HW130731   1.806   2.502   3.008  1.7112  1.5876 -0.1677
 6365SOL    HW230732   1.821   2.646   2.995 -0.3434  1.0426 -0.7874
 6366SOL     OW30733   4.114   1.739   8.840 -0.7834 -0.0104  0.3127
 6366SOL    HW130734   4.057   1.769   8.911 -1.7915  2.8204 -1.6673
 6366SOL    HW230735   4.080   1.653   8.818 -1.1347 -0.6296  3.2205
 6367SOL     OW30736   3.028   3.155   4.627  0.0773 -0.4932  0.3535
 6367SOL    HW130737   3.105   3.212   4.626  0.1678 -0.6196  0.2760
 6367SOL    HW230738   2.981   3.195   4.554  0.2059  0.0857  0.5823
 6368SOL     OW30739   3.855   2.758  14.382 -0.0821  0.3271  0.3888
 6368SOL    HW130740   3.893   2.838  14.419 -0.1786  1.1447 -1.2702
 6368SOL    HW230741   3.901   2.756  14.298 -0.5318  0.2105  0.1495
 6369SOL     OW30742   4.558   3.799   6.292 -0.3911  1.0203  0.3685
 6369SOL    HW130743   4.571   3.704   6.281 -1.3095  0.9534 -0.1325
 6369SOL    HW230744   4.613   3.827   6.218  1.4255 -1.9144  0.5859
 6370SOL     OW30745   1.427   2.734   8.029 -0.2125 -0.1302 -0.1562
 6370SOL    HW130746   1.499   2.741   7.966  0.4190  0.5851  0.6426
 6370SOL    HW230747   1.403   2.826   8.029  1.9289  0.4266  2.8543
 6371SOL     OW30748   4.569   3.605   2.045 -0.2505  0.2962  0.0690
 6371SOL    HW130749   4.521   3.618   2.127  1.6097  2.9166  0.7181
 6371SOL    HW230750   4.654   3.635   2.077  0.2843 -0.9728 -0.1489
 6372SOL     OW30751   0.426   2.679   5.342  0.4702  0.3987  0.5589
 6372SOL    HW130752   0.413   2.584   5.334 -1.2330  0.8591 -1.8714
 6372SOL    HW230753   0.341   2.710   5.310  0.3229  0.0805  0.6402
 6373SOL     OW30754   4.273   2.418   5.972  0.4493 -0.2133 -0.0193
 6373SOL    HW130755   4.317   2.337   5.945 -3.5941 -2.5482  0.3695
 6373SOL    HW230756   4.342   2.483   5.987  1.8675 -1.4746 -1.0069
 6374SOL     OW30757   3.856   2.305   8.362 -0.5230  0.1106  0.6255
 6374SOL    HW130758   3.816   2.362   8.428 -0.0074  1.4649 -0.2321
 6374SOL    HW230759   3.871   2.228   8.417  1.0211  0.1312  0.2406
 6375SOL     OW30760   4.133   2.166   7.797 -0.5638  0.5189  0.7454
 6375SOL    HW130761   4.106   2.149   7.888 -1.4149 -0.0182  0.3900
 6375SOL    HW230762   4.189   2.090   7.781  0.0291  1.3657 -1.1463
 6376SOL     OW30763   1.543   4.232   2.721 -0.5635 -0.0265  0.2301
 6376SOL    HW130764   1.501   4.269   2.643  0.6764  0.3588 -0.2520
 6376SOL    HW230765   1.470   4.217   2.780 -0.9748 -2.7128 -0.9773
 6377SOL     OW30766   2.561   4.170   8.806 -0.5505  0.3022 -0.1760
 6377SOL    HW130767   2.565   4.145   8.714  0.8890  1.7493 -0.5255
 6377SOL    HW230768   2.563   4.082   8.843  0.8110  0.0428 -0.8526
 6378SOL     OW30769   0.650   3.454   0.249 -0.4966 -0.4260 -0.4865
 6378SOL    HW130770   0.619   3.499   0.170  3.1453 -0.3795 -1.8852
 6378SOL    HW230771   0.578   3.392   0.263 -0.0875 -0.0895  3.1564
 6379SOL     OW30772   3.016   3.331   3.369 -0.2631 -0.6416  0.1802
 6379SOL    HW130773   3.084   3.312   3.433  0.7162  0.7450 -0.4462
 6379SOL    HW230774   3.060   3.335   3.284  2.2415 -1.3381  1.4470
 6380SOL     OW30775   4.564   2.615   3.527 -0.3235  0.2777 -0.3341
 6380SOL    HW130776   4.638   2.632   3.584  1.5593  2.3673 -3.4381
 6380SOL    HW230777   4.533   2.534   3.568  0.4487 -0.0326 -0.3683
 6381SOL     OW30778   3.666   4.701   5.886 -0.4191 -0.2049  0.0969
 6381SOL    HW130779   3.703   4.636   5.946 -0.6362 -0.9239 -0.5359
 6381SOL    HW230780   3.747   4.737   5.848 -0.4683 -0.9712 -0.7439
 6382SOL     OW30781   0.940   3.018   6.484  0.0889  0.0312 -0.1578
 6382SOL    HW130782   1.033   3.001   6.475  0.3199  1.0487  0.3520
 6382SOL    HW230783   0.950   3.113   6.492 -1.5966  0.2248 -0.2538
 6383SOL     OW30784   0.147   2.617   3.101 -0.5534  0.0157 -0.4063
 6383SOL    HW130785   0.123   2.528   3.075  0.1665 -0.1341 -0.5824
 6383SOL    HW230786   0.086   2.674   3.055 -0.7084  0.0146 -0.1981
 6384SOL     OW30787   2.586   3.879   5.927 -0.4585 -0.7014 -0.0684
 6384SOL    HW130788   2.668   3.836   5.904 -0.9599 -1.9450  0.4331
 6384SOL    HW230789   2.570   3.863   6.020 -1.4550  1.4265  0.1228
 6385SOL     OW30790   2.736   0.669   7.434 -0.1582 -0.3416  0.5075
 6385SOL    HW130791   2.661   0.707   7.388  2.1067  0.7896 -2.2488
 6385SOL    HW230792   2.778   0.628   7.359  0.9518 -0.6759  1.3070
 6386SOL     OW30793   3.808   4.531   7.303  0.3193  1.0289  0.4122
 6386SOL    HW130794   3.777   4.459   7.358 -0.9604  0.6277 -0.8219
 6386SOL    HW230795   3.783   4.612   7.347 -2.8397  0.1136  0.2733
 6387SOL     OW30796   3.447   1.505   0.088  0.0766 -0.4478 -0.0658
 6387SOL    HW130797   3.481   1.594   0.086  1.7163 -1.1413 -2.6895
 6387SOL    HW230798   3.374   1.513   0.150 -1.2336 -2.4211 -1.3626
 6388SOL     OW30799   4.576   2.362   9.508  0.6612  0.2825 -0.0224
 6388SOL    HW130800   4.566   2.303   9.433  0.2301  0.0973  0.1856
 6388SOL    HW230801   4.592   2.304   9.582 -0.7306  1.1883  0.9719
 6389SOL     OW30802   1.223   1.595  15.035 -1.1346  0.0421 -0.5009
 6389SOL    HW130803   1.205   1.685  15.010 -0.7111  0.2328 -0.1226
 6389SOL    HW230804   1.174   1.532  14.981 -0.4407  0.5556 -1.7407
 6390SOL     OW30805   1.284   0.044   4.893 -0.6564  0.3259  0.3225
 6390SOL    HW130806   1.271   4.695   4.930 -0.9270  1.4367  2.8161
 6390SOL    HW230807   1.249   0.099   4.963  1.1317 -0.2986  1.6834
 6391SOL     OW30808   3.820   3.757  17.321  0.0882  0.2720  0.1727
 6391SOL    HW130809   3.749   3.694  17.306  1.6893 -1.2637 -0.9726
 6391SOL    HW230810   3.786   3.844  17.299  1.3216  0.4660 -0.9555
 6392SOL     OW30811   2.965   0.927   5.586  0.4590 -0.4267 -0.3789
 6392SOL    HW130812   2.983   0.851   5.531  1.4556 -0.5023  0.0423
 6392SOL    HW230813   3.040   0.939   5.646 -0.4159  0.5287  0.5224
 6393SOL     OW30814   0.060   1.719   5.822 -0.2824 -0.6893 -0.2609
 6393SOL    HW130815   0.154   1.717   5.839 -0.1080 -1.4832 -1.3090
 6393SOL    HW230816   0.051   1.634   5.779  0.2064 -1.6519  1.5359
 6394SOL     OW30817   3.503   1.505  10.365  0.1326  0.3187 -0.3037
 6394SOL    HW130818   3.503   1.598  10.389  0.7313  1.0499 -3.0440
 6394SOL    HW230819   3.573   1.477  10.424 -0.4720 -0.4392  0.0434
 6395SOL     OW30820   1.315   2.710  12.081 -0.0163  0.2965  0.0666
 6395SOL    HW130821   1.292   2.796  12.045  0.4649 -0.0514 -1.0514
 6395SOL    HW230822   1.230   2.672  12.105 -0.5863  0.2763 -2.0046
 6396SOL     OW30823   2.659   3.600   7.275  0.5304 -0.1507  0.0262
 6396SOL    HW130824   2.651   3.679   7.329 -0.1862 -0.3661  0.2408
 6396SOL    HW230825   2.690   3.629   7.190 -0.4837  0.3392 -0.1723
 6397SOL     OW30826   2.694   1.722   1.313  0.8529 -0.3594  0.2243
 6397SOL    HW130827   2.699   1.656   1.243  0.3278  0.7465 -0.8729
 6397SOL    HW230828   2.606   1.707   1.347  1.1254 -0.0806  1.0314
 6398SOL     OW30829   0.001   4.594  12.679 -0.4009  0.3204  0.0478
 6398SOL    HW130830   0.095   4.613  12.679 -0.2586 -0.3956 -1.8065
 6398SOL    HW230831   4.712   4.606  12.770 -1.2688  0.1207 -0.1826
 6399SOL     OW30832   2.777   3.153   3.344 -0.2108  0.5256 -0.3208
 6399SOL    HW130833   2.844   3.221   3.342  0.5363 -0.2626 -1.5681
 6399SOL    HW230834   2.710   3.202   3.393  0.5257  1.8178 -0.5892
 6400SOL     OW30835   1.491   3.375   6.553 -0.5069  0.4178  0.7138
 6400SOL    HW130836   1.432   3.445   6.523 -0.2892  0.2893 -0.0288
 6400SOL    HW230837   1.487   3.317   6.477  1.0761 -1.7940  2.3275
 6401SOL     OW30838   1.182   2.955   6.340 -0.1018 -0.0569  0.2149
 6401SOL    HW130839   1.148   2.896   6.272 -0.4946 -0.5314  0.8193
 6401SOL    HW230840   1.272   2.947   6.311 -0.1597 -2.3460  0.6841
 6402SOL     OW30841   2.210   4.443   1.717  0.8176 -0.4723  0.1187
 6402SOL    HW130842   2.290   4.412   1.760  1.4763 -0.7934 -1.3418
 6402SOL    HW230843   2.223   4.400   1.633 -0.8815  2.9009 -1.8638
 6403SOL     OW30844   3.716   4.705   6.941 -0.0285  0.0465 -0.6914
 6403SOL    HW130845   3.715   0.051   6.987 -1.0815 -0.1896 -0.2806
 6403SOL    HW230846   3.648   4.661   6.991  1.6218  0.4188  1.9144
 6404SOL     OW30847   1.008   4.472   7.387 -0.3275  0.0361 -0.0938
 6404SOL    HW130848   1.022   4.401   7.324  0.6447 -0.0720  0.2583
 6404SOL    HW230849   1.029   4.543   7.326  2.1146  2.3980  3.5366
 6405SOL     OW30850   3.490   3.486   1.182  0.3206 -0.0133  0.0197
 6405SOL    HW130851   3.468   3.511   1.092  0.4289 -0.9714 -0.2739
 6405SOL    HW230852   3.586   3.487   1.175  0.4381  2.7151  1.9843
 6406SOL     OW30853   3.720   4.161   3.155  0.0630 -0.0743 -0.1580
 6406SOL    HW130854   3.776   4.205   3.219 -0.6950 -0.5513  0.8183
 6406SOL    HW230855   3.764   4.173   3.071 -0.4098 -1.8971 -0.6683
 6407SOL     OW30856   1.640   1.575   4.984 -0.5033 -0.4538 -0.0410
 6407SOL    HW130857   1.557   1.598   4.942  0.0506 -0.7715 -1.3081
 6407SOL    HW230858   1.661   1.489   4.948 -0.1874 -0.8817  1.1984
 6408SOL     OW30859   0.906   4.573   9.861  0.0551 -0.1670  1.0207
 6408SOL    HW130860   0.916   4.559   9.955 -2.0765 -2.9944  0.8681
 6408SOL    HW230861   0.843   4.645   9.861  0.2392  0.0240 -2.5469
 6409SOL     OW30862   3.995   0.020   0.965 -0.0520  0.4147 -0.1422
 6409SOL    HW130863   3.921   0.020   0.905 -1.3344  0.9487  1.4271
 6409SOL    HW230864   4.006   0.107   1.004  1.5052  1.2083 -2.4120
 6410SOL     OW30865   4.463   0.092   3.195 -0.4788  0.0856  0.1925
 6410SOL    HW130866   4.442   0.019   3.136 -4.1308 -0.0885  1.7204
 6410SOL    HW230867   4.558   0.095   3.191 -0.5292  2.4244  0.7801
 6411SOL     OW30868   2.645   3.679   6.952  0.1419  0.3583  0.0519
 6411SOL    HW130869   2.714   3.631   6.906  1.4009  2.3512 -0.1280
 6411SOL    HW230870   2.683   3.767   6.956 -0.6927  0.7730 -1.0059
 6412SOL     OW30871   0.027   4.381  12.495 -0.6490 -0.2463  0.2378
 6412SOL    HW130872   0.122   4.388  12.489 -0.5109 -3.0282 -0.6000
 6412SOL    HW230873   0.009   4.456  12.551 -2.5229  1.0024 -2.0290
 6413SOL     OW30874   1.477   4.712   5.123 -0.2861  0.2393 -0.0002
 6413SOL    HW130875   1.545   4.692   5.058 -1.5251 -1.6146 -0.7239
 6413SOL    HW230876   1.499   0.067   5.134 -1.4267  0.6474 -1.0812
 6414SOL     OW30877   1.446   2.192  16.215  0.1376 -0.1668  0.4663
 6414SOL    HW130878   1.448   2.235  16.130 -0.2040 -2.6109 -0.8054
 6414SOL    HW230879   1.354   2.196  16.242 -0.0063 -1.1172  0.1476
 6415SOL     OW30880   2.984   2.662  10.341  0.0327 -0.3295 -0.2170
 6415SOL    HW130881   2.928   2.594  10.378 -2.4330  0.9880 -1.5011
 6415SOL    HW230882   2.966   2.716  10.418 -0.6398 -0.5310 -0.2270
 6416SOL     OW30883   3.895   1.292  13.067 -0.6216  0.2202  0.0742
 6416SOL    HW130884   3.824   1.238  13.102  0.2182 -1.0904 -0.2361
 6416SOL    HW230885   3.948   1.317  13.143 -0.9628  1.2799 -0.0384
 6417SOL     OW30886   4.008   2.663   7.207 -0.2911 -0.0291  0.1480
 6417SOL    HW130887   3.932   2.716   7.185 -0.8424 -1.2867 -0.9717
 6417SOL    HW230888   3.981   2.609   7.282  0.9042  0.5195  0.9688
 6418SOL     OW30889   3.541   2.785  17.368 -0.3180  0.0347  0.2856
 6418SOL    HW130890   3.523   2.869  17.326  0.5234  0.1636  0.1963
 6418SOL    HW230891   3.634   2.772  17.348 -0.2273  0.2140  0.5955
 6419SOL     OW30892   0.693   0.528  10.307 -0.1320 -0.2164  0.0981
 6419SOL    HW130893   0.649   0.499  10.386  2.2891  1.7787  2.2008
 6419SOL    HW230894   0.760   0.591  10.335  1.1548 -0.6433 -2.0188
 6420SOL     OW30895   3.388   3.037  12.331  0.0772  0.4102 -0.8041
 6420SOL    HW130896   3.450   3.037  12.258  1.4203  0.7044  0.3342
 6420SOL    HW230897   3.321   2.984  12.288  0.2038 -0.5411  0.1688
 6421SOL     OW30898   4.194   0.500   5.355 -0.0359  0.4824  0.0498
 6421SOL    HW130899   4.238   0.526   5.436 -0.6976 -0.2372  0.6423
 6421SOL    HW230900   4.252   0.438   5.310  0.9408  1.1615  0.3581
 6422SOL     OW30901   0.622   3.585   5.165 -0.0085 -0.0113 -0.3455
 6422SOL    HW130902   0.556   3.516   5.171  1.5969 -1.3139  2.1714
 6422SOL    HW230903   0.562   3.655   5.140 -0.0861  0.3489  0.8625
 6423SOL     OW30904   2.391   0.763   6.647  0.4094 -0.1362  0.2806
 6423SOL    HW130905   2.473   0.781   6.602  0.0008  1.3106  0.1280
 6423SOL    HW230906   2.383   0.850   6.685  2.8985  0.6211 -0.9348
 6424SOL     OW30907   1.366   2.414   8.799 -0.1412 -0.1454  0.5639
 6424SOL    HW130908   1.392   2.419   8.891  2.8673 -2.8120 -0.1509
 6424SOL    HW230909   1.282   2.369   8.795 -0.2265 -0.1337  1.9856
 6425SOL     OW30910   1.166   4.004   6.963  0.4876  0.2817  0.1923
 6425SOL    HW130911   1.075   4.002   6.933  0.5766  0.1493 -0.0686
 6425SOL    HW230912   1.197   3.920   6.930  3.3708  0.4226  2.5540
 6426SOL     OW30913   2.007   3.571   3.698 -0.1212  0.0626  0.1837
 6426SOL    HW130914   1.925   3.532   3.730 -0.2130 -0.6190 -0.9007
 6426SOL    HW230915   2.073   3.503   3.711 -0.0314  0.2844  0.8842
 6427SOL     OW30916   2.695   0.906   2.790  0.1643 -0.0499  0.0772
 6427SOL    HW130917   2.727   0.980   2.840 -0.2225  1.3264 -1.7062
 6427SOL    HW230918   2.751   0.905   2.712  1.5661 -0.5587  1.0950
 6428SOL     OW30919   3.136   1.627   4.813 -0.2226 -0.0936 -0.0035
 6428SOL    HW130920   3.181   1.543   4.821  0.8438  0.4022 -0.9142
 6428SOL    HW230921   3.096   1.639   4.899  3.4259 -1.4086  1.8611
 6429SOL     OW30922   1.222   0.089   7.678 -0.1041 -0.1545 -0.1379
 6429SOL    HW130923   1.159   0.158   7.657  1.0485  0.2208 -2.4180
 6429SOL    HW230924   1.294   0.120   7.624 -0.3026  1.7061  0.6556
 6430SOL     OW30925   4.251   3.145   1.105 -0.9682 -0.1155 -0.1830
 6430SOL    HW130926   4.206   3.221   1.143 -1.0523 -1.3776  2.2938
 6430SOL    HW230927   4.318   3.130   1.172 -1.2306 -0.9588 -0.1085
 6431SOL     OW30928   3.902   0.162   9.645 -0.0314  0.3992 -0.4647
 6431SOL    HW130929   3.845   0.148   9.721  1.4655  1.1175  0.8048
 6431SOL    HW230930   3.834   0.171   9.579 -0.4379 -2.8706 -0.4841
 6432SOL     OW30931   0.278   0.357  16.137  0.3033  0.3224  0.6158
 6432SOL    HW130932   0.307   0.404  16.215  0.8563 -1.5763  1.5515
 6432SOL    HW230933   0.185   0.358  16.159  0.7877 -0.8503  2.7173
 6433SOL     OW30934   4.143   2.872   3.567 -0.2000  0.9946 -0.0064
 6433SOL    HW130935   4.207   2.815   3.611 -0.6033  0.7186  0.2204
 6433SOL    HW230936   4.099   2.920   3.637 -1.3260 -0.6583  0.4140
 6434SOL     OW30937   1.980   2.549   4.309  0.2636 -0.1491  0.4143
 6434SOL    HW130938   2.010   2.471   4.355  1.2608  0.7577  1.2940
 6434SOL    HW230939   1.896   2.559   4.354  0.1240  0.4767  0.0243
 6435SOL     OW30940   2.891   1.256   3.703  0.2482  0.5054  0.2410
 6435SOL    HW130941   2.933   1.244   3.788 -2.7403 -1.6096  1.4333
 6435SOL    HW230942   2.798   1.266   3.723  0.3405 -0.4385  1.1584
 6436SOL     OW30943   0.998   4.476   8.926  0.7671  0.3436  0.1501
 6436SOL    HW130944   0.929   4.424   8.884  0.1164  1.6025 -0.3297
 6436SOL    HW230945   1.073   4.425   8.895  0.1753 -1.6998  2.1175
 6437SOL     OW30946   2.222   2.996   7.115 -0.2878  0.4785 -0.4078
 6437SOL    HW130947   2.298   3.033   7.160 -1.1883  1.4353  0.3228
 6437SOL    HW230948   2.261   2.944   7.044 -1.0594  0.0094 -0.4995
 6438SOL     OW30949   1.396   0.441   5.266  0.0059  0.0254 -0.1163
 6438SOL    HW130950   1.385   0.375   5.334  1.1599 -0.0405  0.0094
 6438SOL    HW230951   1.469   0.493   5.301 -0.5028 -0.6874  2.0313
 6439SOL     OW30952   0.199   3.609   5.247  0.0861 -0.2814 -0.1239
 6439SOL    HW130953   0.108   3.634   5.229  0.4998  1.2171 -0.1437
 6439SOL    HW230954   0.214   3.529   5.197  0.3931  0.4813 -1.2505
 6440SOL     OW30955   4.360   2.991   3.238  0.1650 -0.1438  0.3045
 6440SOL    HW130956   4.292   2.923   3.236  0.8406 -0.8577  1.6527
 6440SOL    HW230957   4.436   2.934   3.233 -0.3928 -0.9704  1.3672
 6441SOL     OW30958   2.085   2.143   4.785  0.9050  0.4652 -0.5994
 6441SOL    HW130959   2.003   2.123   4.740  1.8451 -1.2781 -1.5681
 6441SOL    HW230960   2.054   2.199   4.855  0.4919 -0.5677  0.0432
 6442SOL     OW30961   0.931   0.589   3.746  0.6839 -0.0854 -1.0813
 6442SOL    HW130962   0.914   0.677   3.714  2.4228  0.8524  0.5311
 6442SOL    HW230963   0.989   0.597   3.822 -0.0224 -1.6615 -0.3796
 6443SOL     OW30964   0.674   3.991  15.270 -0.6495 -0.0659  0.2180
 6443SOL    HW130965   0.685   4.061  15.205 -1.7228 -0.8108 -0.7707
 6443SOL    HW230966   0.598   4.023  15.319 -0.2791 -0.3026  0.9438
 6444SOL     OW30967   1.345   1.720   8.774  0.0268 -0.1818  0.4020
 6444SOL    HW130968   1.404   1.688   8.705  0.9480  2.9571 -0.2742
 6444SOL    HW230969   1.293   1.642   8.794 -0.6712  0.0079 -0.6519
 6445SOL     OW30970   0.377   4.519   3.419 -0.2203  0.6401  0.4557
 6445SOL    HW130971   0.463   4.527   3.378  0.4753  0.1207  1.8246
 6445SOL    HW230972   0.348   4.436   3.380 -1.9047  1.1604  0.5914
 6446SOL     OW30973   2.376   2.306   6.231  0.1486  0.3550 -0.5584
 6446SOL    HW130974   2.457   2.293   6.280 -0.4891 -1.2825  0.0341
 6446SOL    HW230975   2.422   2.309   6.146  0.1914 -0.5852 -0.5636
 6447SOL     OW30976   4.635   4.351   1.285  0.2317 -0.5027  0.2765
 6447SOL    HW130977   4.581   4.273   1.294 -1.1243  0.6727  2.3653
 6447SOL    HW230978   4.611   4.375   1.196  0.0450 -2.3949 -0.1753
 6448SOL     OW30979   0.053   3.483   8.269 -0.9360  0.2890 -0.4386
 6448SOL    HW130980   0.091   3.558   8.312 -0.9121 -0.8526  1.5105
 6448SOL    HW230981   4.705   3.480   8.312  0.7254 -0.8893  2.7739
 6449SOL     OW30982   0.615   0.163  12.205  0.1267 -0.0137 -0.1162
 6449SOL    HW130983   0.636   0.071  12.220  0.4717 -0.0580 -0.8700
 6449SOL    HW230984   0.616   0.208  12.289  0.4474  2.6181 -1.5198
 6450SOL     OW30985   0.809   0.965   6.152 -0.2305 -0.1902 -1.1528
 6450SOL    HW130986   0.745   0.899   6.180  2.9428 -2.8606 -0.1628
 6450SOL    HW230987   0.756   1.029   6.105 -1.3953 -0.6050 -0.3917
 6451SOL     OW30988   3.781   3.128   3.395  0.0938 -0.3828 -0.1022
 6451SOL    HW130989   3.815   3.136   3.484 -0.3204 -0.3932  0.0564
 6451SOL    HW230990   3.821   3.044   3.373  0.8379 -0.2021  0.5462
 6452SOL     OW30991   4.468   1.688   6.588  0.0582  0.4285 -0.8227
 6452SOL    HW130992   4.379   1.658   6.607 -0.4683  2.0567 -0.7352
 6452SOL    HW230993   4.462   1.781   6.610 -0.6860  0.3221 -0.5887
 6453SOL     OW30994   0.398   0.418   5.097  0.2270  0.0530 -0.0909
 6453SOL    HW130995   0.346   0.340   5.078  1.1394 -0.8309  1.0107
 6453SOL    HW230996   0.467   0.400   5.161  0.2726 -1.4570 -0.5636
 6454SOL     OW30997   2.569   2.521   4.091  0.0609 -0.5855 -0.0590
 6454SOL    HW130998   2.484   2.512   4.050  0.3217 -0.4770 -0.6144
 6454SOL    HW230999   2.617   2.478   4.021 -1.1208  0.1799 -1.3251
 6455SOL     OW31000   2.754   2.490   1.763  0.3149 -0.1850 -0.5200
 6455SOL    HW131001   2.696   2.479   1.688 -2.2171 -0.1491  1.4184
 6455SOL    HW231002   2.827   2.432   1.739 -0.0133 -0.9016  0.1995
 6456SOL     OW31003   4.682   0.725  14.505 -0.3311 -0.0680 -0.0617
 6456SOL    HW131004   4.724   0.700  14.423 -0.8269 -1.9292  0.2652
 6456SOL    HW231005   0.011   0.782  14.544  1.5357 -2.4187  0.1292
 6457SOL     OW31006   4.599   3.236   1.168 -0.4878 -0.3254  0.4820
 6457SOL    HW131007   4.682   3.224   1.215 -0.9604 -0.7864  1.2036
 6457SOL    HW231008   4.540   3.187   1.225 -0.1816 -2.6508 -1.2170
 6458SOL     OW31009   1.241   4.589   5.191 -0.2466  0.2351 -0.0831
 6458SOL    HW131010   1.314   4.638   5.151  0.0274 -0.6348 -0.6458
 6458SOL    HW231011   1.167   4.634   5.149 -0.7948 -1.7278 -1.2430
 6459SOL     OW31012   0.919   1.156   2.793  0.0164  0.5146 -0.5408
 6459SOL    HW131013   0.921   1.095   2.719 -2.1070 -1.6762  1.1852
 6459SOL    HW231014   1.003   1.199   2.780  0.3398  0.2367  0.7046
 6460SOL     OW31015   3.229   2.640  15.205  0.1215 -0.4893 -0.0652
 6460SOL    HW131016   3.157   2.682  15.159 -0.4549 -3.5335 -1.9461
 6460SOL    HW231017   3.187   2.554  15.205 -0.1482 -0.3521 -0.9048
 6461SOL     OW31018   2.697   2.138   0.691 -0.0447  0.6059  0.1913
 6461SOL    HW131019   2.685   2.164   0.782 -0.7045  0.5529  0.1246
 6461SOL    HW231020   2.788   2.109   0.695  0.4088  1.8408 -1.2317
 6462SOL     OW31021   0.674   1.949   5.025 -0.0768  0.2793 -0.0935
 6462SOL    HW131022   0.749   1.894   5.049  1.4918  1.7041 -1.7915
 6462SOL    HW231023   0.715   2.034   5.013 -0.7076  0.1690 -3.0403
 6463SOL     OW31024   2.491   0.786   2.643 -0.5865  0.3154  0.0793
 6463SOL    HW131025   2.572   0.743   2.614 -0.9817 -0.4446  0.1008
 6463SOL    HW231026   2.531   0.853   2.699 -0.6593 -0.2903  0.8632
 6464SOL     OW31027   0.345   0.712   7.202  0.2554  0.2914  0.2219
 6464SOL    HW131028   0.334   0.630   7.154  0.5629  0.3844 -0.0129
 6464SOL    HW231029   0.357   0.772   7.128  0.5639 -2.9984 -2.3897
 6465SOL     OW31030   3.935   0.276   8.914  0.0946  0.3868 -0.1474
 6465SOL    HW131031   3.881   0.198   8.926 -0.4184  0.5762 -1.2908
 6465SOL    HW231032   3.913   0.303   8.825  0.8370 -1.9864 -1.0254
 6466SOL     OW31033   4.195   1.559   1.856  0.0332  0.2657  0.1912
 6466SOL    HW131034   4.287   1.552   1.832 -0.1309  0.1142 -0.3834
 6466SOL    HW231035   4.190   1.482   1.913  2.4424  1.7082  2.3339
 6467SOL     OW31036   0.564   2.302   5.333  0.3638  0.2864  0.3892
 6467SOL    HW131037   0.645   2.349   5.314  1.8213 -1.8075  1.3426
 6467SOL    HW231038   0.516   2.313   5.251  3.0460  0.5235 -1.1619
 6468SOL     OW31039   4.078   0.985  10.469 -0.1752 -0.1636  0.0007
 6468SOL    HW131040   4.045   0.897  10.448  0.6533 -0.3792 -0.3987
 6468SOL    HW231041   4.171   0.961  10.473  0.0913  1.1272  1.2755
 6469SOL     OW31042   2.791   0.431   7.124 -0.0335  0.1773  0.8383
 6469SOL    HW131043   2.700   0.460   7.117 -1.4606 -4.0751  1.5872
 6469SOL    HW231044   2.810   0.429   7.030  0.5059 -2.6097  1.0185
 6470SOL     OW31045   0.627   1.099  13.427  0.6153  0.5756  0.9023
 6470SOL    HW131046   0.583   1.136  13.350 -0.4820 -0.2896  1.1155
 6470SOL    HW231047   0.556   1.086  13.489 -1.6587  1.8798 -1.4189
 6471SOL     OW31048   2.068   1.263   5.703 -0.4133 -0.0330 -0.7271
 6471SOL    HW131049   2.125   1.315   5.646  0.0141 -0.1729 -0.4303
 6471SOL    HW231050   2.126   1.218   5.765 -2.1224  0.3013  1.1150
 6472SOL     OW31051   4.115   2.279   1.260  1.0593 -0.1939  0.5455
 6472SOL    HW131052   4.141   2.370   1.253  0.4871  0.0108  0.9910
 6472SOL    HW231053   4.174   2.251   1.330  1.6679  1.5470  0.7293
 6473SOL     OW31054   2.109   1.789  10.001 -0.4125  0.3968  0.5762
 6473SOL    HW131055   2.192   1.835  10.014 -0.8230  0.3969  3.0346
 6473SOL    HW231056   2.128   1.696  10.012  1.6715  0.9321  1.5640
 6474SOL     OW31057   0.595   1.864   9.444  0.0218  0.7230 -0.1254
 6474SOL    HW131058   0.506   1.850   9.476 -0.0341  1.2571 -0.0406
 6474SOL    HW231059   0.565   1.913   9.367  0.5785  0.8997 -0.2323
 6475SOL     OW31060   0.757   0.190   9.675 -0.2866 -0.4318  0.2437
 6475SOL    HW131061   0.738   0.282   9.690  0.8253 -0.1150 -0.3339
 6475SOL    HW231062   0.812   0.208   9.600 -0.2462 -0.4439  0.2704
 6476SOL     OW31063   4.194   0.633   9.893  0.5253 -0.0302  0.1119
 6476SOL    HW131064   4.176   0.703   9.955 -1.4833 -0.7354  0.3472
 6476SOL    HW231065   4.111   0.586   9.883  0.2838  0.4301 -0.0260
 6477SOL     OW31066   4.618   0.800   6.864 -0.3012 -0.6734 -0.6458
 6477SOL    HW131067   4.647   0.709   6.859  2.2357  0.2163 -2.2864
 6477SOL    HW231068   4.702   0.846   6.869 -0.7313  0.1294 -0.8734
 6478SOL     OW31069   1.834   4.662   4.846  0.2626  0.2329  0.0272
 6478SOL    HW131070   1.836   4.569   4.824 -0.6475  0.2850 -0.2937
 6478SOL    HW231071   1.815   4.698   4.760 -1.1893 -0.1749  0.1620
 6479SOL     OW31072   4.510   1.835  13.608 -0.3803  0.1208 -0.0543
 6479SOL    HW131073   4.543   1.794  13.688  1.6459 -0.8220 -1.3741
 6479SOL    HW231074   4.437   1.774  13.599  1.8948 -2.4153 -1.1330
 6480SOL     OW31075   2.680   3.330   5.074 -0.7270 -0.0277  0.1465
 6480SOL    HW131076   2.749   3.288   5.125 -0.4645  1.4778  1.0387
 6480SOL    HW231077   2.698   3.313   4.981 -0.5739  0.4682  0.0839
 6481SOL     OW31078   0.287   3.209   8.669 -0.0368 -0.7252  0.0560
 6481SOL    HW131079   0.202   3.183   8.634 -0.3711 -0.7383  0.8798
 6481SOL    HW231080   0.340   3.131   8.655  1.0409 -0.2756  1.5618
 6482SOL     OW31081   2.899   4.687   4.821 -0.1572 -0.3267 -0.0308
 6482SOL    HW131082   2.888   4.606   4.871  1.9849 -0.4655  0.1782
 6482SOL    HW231083   2.888   4.655   4.731  1.1683  0.2300 -0.3786
 6483SOL     OW31084   2.235   4.458   7.032 -0.2855 -0.0684 -0.9288
 6483SOL    HW131085   2.302   4.523   7.050 -0.7622 -0.0871  1.0020
 6483SOL    HW231086   2.289   4.379   7.023  1.9115  1.4362 -0.7378
 6484SOL     OW31087   0.093   0.334   7.234  0.0746 -0.6350 -0.0681
 6484SOL    HW131088   0.170   0.389   7.226 -2.3393  2.9234  1.2748
 6484SOL    HW231089   0.078   0.346   7.327 -0.0486 -1.0741 -0.0288
 6485SOL     OW31090   0.681   3.621   7.509 -0.0634  0.1478  0.3921
 6485SOL    HW131091   0.686   3.527   7.527  0.8297  0.4727  1.8844
 6485SOL    HW231092   0.671   3.623   7.414  0.6413 -1.5068  0.2920
 6486SOL     OW31093   0.129   0.262  14.401 -0.4008  0.1038 -0.5388
 6486SOL    HW131094   0.222   0.281  14.409  0.0858 -1.9514 -1.5727
 6486SOL    HW231095   0.102   0.325  14.334 -0.2098  0.6235 -0.1318
 6487SOL     OW31096   1.370   1.074   7.169 -0.1434 -0.3399  0.3056
 6487SOL    HW131097   1.307   1.038   7.106 -0.9375 -0.0084  0.8982
 6487SOL    HW231098   1.417   0.991   7.174 -0.6523 -0.6409  0.2073
 6488SOL     OW31099   1.016   2.581   1.743  0.1544 -0.0814  0.7427
 6488SOL    HW131100   1.088   2.628   1.785 -1.4378  0.9525  2.3071
 6488SOL    HW231101   1.054   2.573   1.656  0.5980 -0.1191  0.9444
 6489SOL     OW31102   3.933   4.319   9.336  0.6581 -0.1343  0.4144
 6489SOL    HW131103   3.973   4.233   9.326 -0.7707 -0.5639 -1.6956
 6489SOL    HW231104   3.975   4.344   9.418  2.0001 -2.6352  0.4655
 6490SOL     OW31105   3.014   2.714  10.779  0.2842  0.3213 -0.4145
 6490SOL    HW131106   3.014   2.798  10.825  0.5887  0.0038  0.1669
 6490SOL    HW231107   2.993   2.746  10.691 -2.6388  1.4954  0.7140
 6491SOL     OW31108   1.935   3.829   3.625  0.0157 -0.0883 -0.2121
 6491SOL    HW131109   1.961   3.737   3.632 -1.3308 -0.4249  0.2695
 6491SOL    HW231110   1.849   3.822   3.584 -1.2716  2.6223  2.0932
 6492SOL     OW31111   0.390   2.351  14.368  0.0822 -0.1837 -0.0664
 6492SOL    HW131112   0.468   2.347  14.423 -0.6810 -0.5935  0.9875
 6492SOL    HW231113   0.328   2.376  14.436 -0.2468 -2.1152  0.3302
 6493SOL     OW31114   2.270   0.141   2.411 -0.3974  0.2784 -0.4986
 6493SOL    HW131115   2.232   0.053   2.410  0.2272 -0.0079  0.5693
 6493SOL    HW231116   2.311   0.148   2.497  1.1373  2.2621 -1.3984
 6494SOL     OW31117   2.869   0.006  10.446  0.6245  0.2923  0.2460
 6494SOL    HW131118   2.816   4.664  10.439  0.9084  0.2443 -1.3037
 6494SOL    HW231119   2.955   4.708  10.467  0.2414 -0.0802  1.1575
 6495SOL     OW31120   0.395   1.244   8.186  0.6735  0.2857 -0.3565
 6495SOL    HW131121   0.310   1.218   8.149  0.2133  0.1896  0.7690
 6495SOL    HW231122   0.424   1.293   8.109  0.8614  0.7380 -0.0036
 6496SOL     OW31123   0.654   4.469   8.066  0.1969 -0.4693 -0.2743
 6496SOL    HW131124   0.680   4.396   8.009  2.1839  0.8344 -1.0599
 6496SOL    HW231125   0.558   4.470   8.061  0.3198  1.5923 -2.1265
 6497SOL     OW31126   1.039   4.163   4.580 -0.1619 -0.1469 -0.1884
 6497SOL    HW131127   0.980   4.188   4.651 -1.0799 -0.6390 -0.7832
 6497SOL    HW231128   1.101   4.237   4.580 -0.3213 -0.0066 -2.7661
 6498SOL     OW31129   4.018   1.898   7.063  0.2407 -0.2203 -0.1631
 6498SOL    HW131130   3.952   1.839   7.100 -0.1773 -0.3934 -1.1792
 6498SOL    HW231131   4.015   1.873   6.971  2.0846  2.6060 -1.0022
 6499SOL     OW31132   0.051   1.639   7.991 -0.0601  0.0490  0.5986
 6499SOL    HW131133   0.081   1.563   7.942  1.0776 -0.2933  1.8166
 6499SOL    HW231134   4.703   1.603   8.016 -0.0119  1.0482  2.1994
 6500SOL     OW31135   2.227   2.347   5.651 -0.1327  0.5388 -0.5456
 6500SOL    HW131136   2.133   2.350   5.673  0.1498 -2.9841  1.1168
 6500SOL    HW231137   2.263   2.420   5.701 -0.8018  0.2646  0.3318
 6501SOL     OW31138   2.306   0.081   4.957  0.2139 -0.0690 -0.1172
 6501SOL    HW131139   2.359   0.129   5.021 -0.7435  1.0029 -0.1410
 6501SOL    HW231140   2.355   0.104   4.878  0.9166 -0.1058  0.3046
 6502SOL     OW31141   2.814   0.514   1.365 -0.1815  0.6695 -0.5156
 6502SOL    HW131142   2.894   0.473   1.398 -0.8147 -0.5523 -0.4758
 6502SOL    HW231143   2.835   0.517   1.272  1.7616 -0.1408 -0.1032
 6503SOL     OW31144   1.146   1.742   5.951  0.1143  0.3172  0.0492
 6503SOL    HW131145   1.112   1.655   5.974  1.2454 -0.3264 -0.6901
 6503SOL    HW231146   1.192   1.725   5.869 -0.5983  0.3942 -0.3676
 6504SOL     OW31147   1.551   4.542   9.303  0.1103 -0.5114  0.9271
 6504SOL    HW131148   1.628   4.573   9.351 -0.2178 -0.2004  1.2454
 6504SOL    HW231149   1.584   4.541   9.213 -1.7025 -0.4436  0.2546
 6505SOL     OW31150   3.922   1.412   9.469  0.0679  0.0936 -0.5800
 6505SOL    HW131151   3.985   1.466   9.420  1.0236  0.7300  1.3146
 6505SOL    HW231152   3.849   1.392   9.411 -0.5471 -1.5770  0.7781
 6506SOL     OW31153   2.948   3.594  11.928  0.6072  0.2690  0.1345
 6506SOL    HW131154   3.033   3.559  11.900  0.4758 -0.4800  0.6609
 6506SOL    HW231155   2.951   3.606  12.022 -0.4219  0.5327  0.1372
 6507SOL     OW31156   0.105   0.865  13.299 -0.2519  0.2489  0.2540
 6507SOL    HW131157   0.199   0.862  13.280 -0.5868 -0.1195 -1.3718
 6507SOL    HW231158   0.090   0.959  13.307 -0.7063  0.1931  0.1013
 6508SOL     OW31159   4.365   2.906   8.121 -0.5924  0.2756  0.0542
 6508SOL    HW131160   4.350   2.811   8.118 -0.5180  0.3084 -1.3947
 6508SOL    HW231161   4.345   2.927   8.030  1.3834 -0.6533 -0.6012
 6509SOL     OW31162   1.935   0.693   0.512  0.3879  0.0422  0.3412
 6509SOL    HW131163   2.008   0.664   0.458  0.2683  0.8608 -0.2615
 6509SOL    HW231164   1.884   0.615   0.533  0.8656  0.2096  2.1585
 6510SOL     OW31165   1.316   3.792   5.845 -0.1713 -0.0916 -0.3057
 6510SOL    HW131166   1.269   3.790   5.929 -0.3127 -1.8798 -0.4134
 6510SOL    HW231167   1.293   3.879   5.814  1.8671  0.5546  0.0149
 6511SOL     OW31168   3.912   3.519   9.225 -0.4269 -0.8473  0.4858
 6511SOL    HW131169   4.007   3.526   9.215 -0.8049  2.4249 -0.7662
 6511SOL    HW231170   3.896   3.505   9.131 -2.1910 -2.0095  0.9662
 6512SOL     OW31171   1.167   4.541   8.633  0.9320 -0.2625 -0.1184
 6512SOL    HW131172   1.175   4.472   8.698 -1.7564 -1.1627 -0.7406
 6512SOL    HW231173   1.258   4.562   8.614  0.2562  1.7301 -1.1704
 6513SOL     OW31174   2.372   1.155   3.566  0.0964  0.1511 -0.9769
 6513SOL    HW131175   2.441   1.139   3.630  0.6785 -1.3527 -1.9792
 6513SOL    HW231176   2.320   1.076   3.576  0.4980  0.1856  1.4680
 6514SOL     OW31177   3.436   0.844   3.447  0.0196  0.4716  0.5710
 6514SOL    HW131178   3.472   0.827   3.533  0.2961 -0.6828  0.2225
 6514SOL    HW231179   3.344   0.828   3.468  0.1140 -0.7685  0.0026
 6515SOL     OW31180   2.987   2.881   8.641 -0.3019  0.5103  0.3427
 6515SOL    HW131181   2.892   2.875   8.627 -0.1213 -1.1011 -0.1759
 6515SOL    HW231182   3.012   2.790   8.631  1.1609  1.1131 -1.5686
 6516SOL     OW31183   2.479   0.267   2.983  0.3466 -1.0049  0.0309
 6516SOL    HW131184   2.543   0.260   3.054  0.6931 -1.2015 -0.3033
 6516SOL    HW231185   2.499   0.178   2.955 -1.1796 -1.7632  1.3472
 6517SOL     OW31186   0.282   2.785   8.909  0.0192 -0.2963  0.3124
 6517SOL    HW131187   0.192   2.802   8.937 -0.4863 -0.1360 -1.3678
 6517SOL    HW231188   0.328   2.762   8.989 -0.1149 -1.4741  0.0588
 6518SOL     OW31189   1.621   0.315  11.798  0.3542 -0.2278  0.2107
 6518SOL    HW131190   1.592   0.345  11.712 -2.3812  1.2192  1.6405
 6518SOL    HW231191   1.674   0.390  11.826  2.2743 -1.0530 -1.1365
 6519SOL     OW31192   4.053   1.765   5.743 -0.6434 -0.1680  0.1079
 6519SOL    HW131193   4.081   1.772   5.835  3.2800 -1.4782 -0.9553
 6519SOL    HW231194   3.977   1.822   5.742 -0.1148  0.5669  1.1268
 6520SOL     OW31195   3.261   2.805   6.589 -0.0787 -0.0121  0.0029
 6520SOL    HW131196   3.337   2.757   6.558 -0.3840  0.3476 -1.2974
 6520SOL    HW231197   3.266   2.792   6.684 -2.9881  0.5864  0.2347
 6521SOL     OW31198   3.069   4.454  17.323  0.6672  0.1559  0.0323
 6521SOL    HW131199   3.128   4.464  17.249  0.0970  0.1163 -0.4297
 6521SOL    HW231200   3.131   4.422  17.388  0.5844 -1.2855 -0.6164
 6522SOL     OW31201   0.050   0.929   7.693 -0.7872  0.4034 -0.5558
 6522SOL    HW131202   0.022   0.927   7.784 -2.5481  3.3179 -1.0373
 6522SOL    HW231203   0.042   1.021   7.669 -2.3979  0.7340  1.3178
 6523SOL     OW31204   0.605   0.966   5.142  0.1534 -0.3590  0.2429
 6523SOL    HW131205   0.535   0.938   5.084  1.2379 -0.9941 -0.7573
 6523SOL    HW231206   0.561   1.006   5.217 -0.7091 -3.6339  1.4495
 6524SOL     OW31207   4.642   3.467   5.485  0.0902 -0.2851 -0.1413
 6524SOL    HW131208   4.664   3.424   5.567  1.2026  1.3558  0.4155
 6524SOL    HW231209   4.654   3.398   5.419  2.6302 -0.6467  0.7111
 6525SOL     OW31210   1.600   2.071   8.928 -0.0622 -1.0979 -0.1054
 6525SOL    HW131211   1.633   2.156   8.957  0.6797 -0.5176 -2.6791
 6525SOL    HW231212   1.684   2.026   8.931  0.4906  0.1072  2.2894
 6526SOL     OW31213   4.660   4.278   4.601  0.1669  0.2101  0.2712
 6526SOL    HW131214   4.577   4.288   4.554 -0.5167 -1.6047  1.1259
 6526SOL    HW231215   4.664   4.183   4.595 -1.1289  0.0843  1.2828
 6527SOL     OW31216   3.824   2.682   7.690  0.2798 -0.4544  0.4058
 6527SOL    HW131217   3.885   2.750   7.662 -0.6964 -1.1725 -3.3975
 6527SOL    HW231218   3.741   2.718   7.658  0.5034 -1.0075 -0.7896
 6528SOL     OW31219   0.371   0.528  13.025 -0.0472 -0.2243  0.2006
 6528SOL    HW131220   0.316   0.519  13.103 -0.5008  0.3363 -0.0532
 6528SOL    HW231221   0.443   0.466  13.041  0.5584  0.4143 -0.0399
 6529SOL     OW31222   2.429   3.347   3.204 -0.1525 -0.0403 -0.2525
 6529SOL    HW131223   2.426   3.363   3.299  1.1252  1.2382 -0.4410
 6529SOL    HW231224   2.429   3.251   3.198  0.1037 -0.0132 -0.6537
 6530SOL     OW31225   2.876   3.327  14.834 -0.2212 -0.5001 -0.1015
 6530SOL    HW131226   2.913   3.407  14.795 -0.1642  0.0093  0.9892
 6530SOL    HW231227   2.955   3.287  14.870  0.2482 -0.0286 -0.6024
 6531SOL     OW31228   2.270   4.604  12.383 -0.4525  0.0784  0.4108
 6531SOL    HW131229   2.361   4.577  12.397  0.0140  0.6989 -1.4598
 6531SOL    HW231230   2.278   4.667  12.311 -1.8515 -0.9751 -0.6565
 6532SOL     OW31231   1.194   3.222  12.662  0.7407 -0.1978 -0.4737
 6532SOL    HW131232   1.275   3.195  12.706  1.2044  1.4444 -0.2958
 6532SOL    HW231233   1.240   3.306  12.651 -1.1300  0.8206 -0.4021
 6533SOL     OW31234   3.971   3.435   6.566 -0.7287  0.1681  0.9323
 6533SOL    HW131235   3.975   3.530   6.566 -1.0978  0.1708 -1.2622
 6533SOL    HW231236   3.975   3.422   6.471 -2.9696  0.9057  0.7356
 6534SOL     OW31237   3.273   3.321   5.088  0.1460  0.6768 -0.3789
 6534SOL    HW131238   3.218   3.398   5.102 -0.7147  0.0456 -0.2888
 6534SOL    HW231239   3.279   3.328   4.993  2.1659  1.8510 -0.1632
 6535SOL     OW31240   4.409   1.381   9.723 -0.0232 -0.3487  0.1553
 6535SOL    HW131241   4.390   1.374   9.817 -1.1987  0.9624  0.0309
 6535SOL    HW231242   4.352   1.308   9.699  1.5708 -1.1044 -1.2663
 6536SOL     OW31243   2.286   0.400  15.264  0.2527  0.3721  0.4952
 6536SOL    HW131244   2.318   0.466  15.203 -2.9527  1.0191 -0.4877
 6536SOL    HW231245   2.325   0.427  15.348  0.7468 -0.0166  0.3856
 6537SOL     OW31246   4.732   2.497   7.910 -0.2929  0.1702 -0.6257
 6537SOL    HW131247   4.692   2.575   7.950 -0.3762 -0.1913  0.0013
 6537SOL    HW231248   4.686   2.428   7.957  2.7867 -3.3958 -2.8464
 6538SOL     OW31249   2.538   2.311   3.331  0.4731 -0.7524 -0.4823
 6538SOL    HW131250   2.445   2.290   3.335 -0.0271  1.1200 -2.5243
 6538SOL    HW231251   2.539   2.406   3.336  3.3405 -0.7504 -1.0834
 6539SOL     OW31252   1.473   2.045  13.562  0.5724 -0.4357  0.1230
 6539SOL    HW131253   1.457   1.967  13.508 -0.7067 -1.0750  1.4279
 6539SOL    HW231254   1.419   2.110  13.518  1.3243 -0.5631 -0.9807
 6540SOL     OW31255   1.708   0.491  10.021 -0.0967  0.5318 -0.1871
 6540SOL    HW131256   1.742   0.410  10.057 -2.8114 -1.2936 -1.7053
 6540SOL    HW231257   1.777   0.512   9.958 -0.1027  1.9457  0.2783
 6541SOL     OW31258   2.040   4.129   4.746  0.0309  0.8349  0.7495
 6541SOL    HW131259   2.012   4.043   4.717 -0.2881  0.9031  0.8540
 6541SOL    HW231260   1.963   4.184   4.730 -0.6490 -0.8294 -1.6193
 6542SOL     OW31261   4.209   4.498  13.325  0.6361  0.3886  0.6768
 6542SOL    HW131262   4.299   4.525  13.342  1.4357 -2.3092  0.6007
 6542SOL    HW231263   4.178   4.515  13.414  1.8050  0.4618  1.0759
 6543SOL     OW31264   0.740   2.803  13.074  0.1363 -0.3457  0.2264
 6543SOL    HW131265   0.818   2.830  13.123  0.3507  0.8817 -0.8009
 6543SOL    HW231266   0.733   2.868  13.004  1.7281  0.4273  0.7936
 6544SOL     OW31267   0.208   1.151   6.259  0.2007 -0.3231 -0.1061
 6544SOL    HW131268   0.288   1.193   6.229  0.7620 -1.8637 -0.7609
 6544SOL    HW231269   0.150   1.227   6.265  0.2824 -0.1288 -1.8365
 6545SOL     OW31270   3.232   3.623   6.724 -0.7142 -0.6378 -0.0302
 6545SOL    HW131271   3.217   3.645   6.816 -1.4727 -0.8675 -0.1045
 6545SOL    HW231272   3.204   3.532   6.713 -0.7823 -0.8678  1.9991
 6546SOL     OW31273   3.830   0.761   2.236 -0.4188  0.3688  0.1746
 6546SOL    HW131274   3.803   0.704   2.164  0.4975 -1.2871  1.1163
 6546SOL    HW231275   3.886   0.693   2.273  0.1537  0.5470 -0.3712
 6547SOL     OW31276   1.543   1.425   5.346  0.5485 -0.4846 -0.1932
 6547SOL    HW131277   1.537   1.520   5.360  1.2089 -0.2863 -1.2547
 6547SOL    HW231278   1.517   1.423   5.254 -0.9384 -1.6567  0.2428
 6548SOL     OW31279   3.702   3.614   8.058 -0.3353  0.3120  0.0695
 6548SOL    HW131280   3.607   3.609   8.046 -0.6669 -0.3032  2.9369
 6548SOL    HW231281   3.727   3.522   8.061 -0.4638  0.1730 -3.1333
 6549SOL     OW31282   2.971   1.158   1.631 -1.0325 -0.6997 -0.4611
 6549SOL    HW131283   2.883   1.123   1.644 -1.4543  0.3142 -0.5441
 6549SOL    HW231284   3.002   1.176   1.720  3.2586  0.1027 -2.1111
 6550SOL     OW31285   4.368   2.189   4.400  0.0716  0.2288  0.3627
 6550SOL    HW131286   4.388   2.161   4.489  0.9308  1.3778  0.5393
 6550SOL    HW231287   4.435   2.258   4.394  0.4321 -0.2252 -0.8321
 6551SOL     OW31288   3.803   2.841   8.977  1.1533 -0.3506  0.0988
 6551SOL    HW131289   3.721   2.889   8.965  1.8178  1.2405  1.9089
 6551SOL    HW231290   3.787   2.746   8.973 -1.2104  0.1582 -2.0991
 6552SOL     OW31291   2.744   2.142   3.748  0.6050  0.1623 -0.3241
 6552SOL    HW131292   2.808   2.084   3.791  0.8957 -1.2455 -2.6935
 6552SOL    HW231293   2.774   2.152   3.658 -0.4236  1.2345 -0.5463
 6553SOL     OW31294   3.294   3.343   2.763  0.4481 -0.0882  0.5244
 6553SOL    HW131295   3.336   3.257   2.761 -1.8532 -1.2200  0.6340
 6553SOL    HW231296   3.226   3.337   2.830 -0.5295 -0.5082 -0.5163
 6554SOL     OW31297   1.104   2.290   8.790  0.2506  0.5092 -0.4570
 6554SOL    HW131298   1.052   2.303   8.711  1.3272  0.1510 -1.2328
 6554SOL    HW231299   1.061   2.215   8.831 -2.1182  0.4666 -3.1024
 6555SOL     OW31300   4.005   1.451   3.075  0.3648 -0.1418  0.4661
 6555SOL    HW131301   3.945   1.472   3.003  1.2877 -1.3501 -0.6561
 6555SOL    HW231302   4.072   1.518   3.062 -0.5338  0.1285 -2.9124
 6556SOL     OW31303   4.440   3.466   7.703 -0.0144 -0.1647  0.4820
 6556SOL    HW131304   4.528   3.483   7.668  0.3023 -0.7844  0.9751
 6556SOL    HW231305   4.390   3.531   7.653 -0.6264  0.5443  1.9883
 6557SOL     OW31306   0.259   1.215   8.681 -0.4905  0.1939 -0.2103
 6557SOL    HW131307   0.305   1.249   8.604 -1.2291  0.1702 -0.6612
 6557SOL    HW231308   0.335   1.175   8.723 -0.1843  0.6204 -0.3558
 6558SOL     OW31309   1.078   1.726   4.798  0.6004 -0.0716  0.1109
 6558SOL    HW131310   1.085   1.644   4.847 -0.2988  0.3452  0.9291
 6558SOL    HW231311   1.080   1.691   4.709 -0.9175  1.4351 -0.5132
 6559SOL     OW31312   3.429   4.415   5.107  0.3632 -0.4736  0.1799
 6559SOL    HW131313   3.410   4.388   5.197 -0.1299 -0.3315  0.1185
 6559SOL    HW231314   3.519   4.384   5.102 -0.3743 -2.6179 -0.0123
 6560SOL     OW31315   0.290   0.532  14.412 -0.3509  0.2343  0.8554
 6560SOL    HW131316   0.363   0.592  14.421 -2.4019  3.7057 -5.1275
 6560SOL    HW231317   0.239   0.539  14.493 -3.8263  0.4874 -1.3300
 6561SOL     OW31318   2.904   1.060   0.926  0.2042 -0.0668 -0.3095
 6561SOL    HW131319   2.969   0.993   0.945 -0.2287 -0.3571  0.1598
 6561SOL    HW231320   2.838   1.012   0.877 -0.3630  0.6877 -0.3041
 6562SOL     OW31321   3.266   1.769   1.655 -0.3160  0.1256 -0.3573
 6562SOL    HW131322   3.206   1.698   1.677  0.3006 -0.5247 -0.7588
 6562SOL    HW231323   3.338   1.716   1.621  0.1059 -0.0958  0.8847
 6563SOL     OW31324   0.045   3.672   6.458  0.0312  0.4276 -0.1437
 6563SOL    HW131325   0.008   3.612   6.393  0.8822  1.0751 -1.2150
 6563SOL    HW231326   0.102   3.608   6.502  0.4158  2.3881  2.2182
 6564SOL     OW31327   4.554   4.383  17.667  0.2292 -0.7300 -0.4959
 6564SOL    HW131328   4.514   4.317  17.610 -1.4274 -0.2407  0.0847
 6564SOL    HW231329   4.622   4.344  17.721 -1.1846 -1.4785  0.7623
 6565SOL     OW31330   1.119   2.371   2.908 -0.1981 -0.1233  0.7174
 6565SOL    HW131331   1.087   2.281   2.914  1.8494 -1.1187 -3.4073
 6565SOL    HW231332   1.214   2.368   2.915 -0.2995 -2.7731  1.0790
 6566SOL     OW31333   4.318   3.256   2.168 -0.0067  0.7290 -0.0735
 6566SOL    HW131334   4.224   3.242   2.166  0.2497 -1.2875  1.8244
 6566SOL    HW231335   4.341   3.228   2.079  1.4940 -1.2024  0.9167
 6567SOL     OW31336   1.805   1.463  10.921  0.3323 -0.7284 -0.2689
 6567SOL    HW131337   1.710   1.451  10.930  0.1604  1.0229  0.3483
 6567SOL    HW231338   1.812   1.526  10.993  1.8679  0.3702 -1.4014
 6568SOL     OW31339   1.354   2.378   5.342 -0.0656 -0.3796  0.5781
 6568SOL    HW131340   1.406   2.340   5.412 -1.3627 -1.4108  0.9908
 6568SOL    HW231341   1.323   2.459   5.383  0.3112 -0.5734  1.2403
 6569SOL     OW31342   2.166   3.946   5.881  0.6027 -0.4719  0.0913
 6569SOL    HW131343   2.249   3.971   5.920  0.5954 -1.7246  0.9220
 6569SOL    HW231344   2.113   3.931   5.959  2.5162  0.1909  1.5167
 6570SOL     OW31345   0.386   1.754  17.197  0.4871  0.1419  0.1508
 6570SOL    HW131346   0.381   1.834  17.145 -0.6733  3.1303  4.8320
 6570SOL    HW231347   0.300   1.732  17.235  0.3182  2.9310  1.3252
 6571SOL     OW31348   1.078   2.198  15.411 -0.6435 -0.4159 -0.3520
 6571SOL    HW131349   1.075   2.293  15.404 -1.6623 -0.4963 -0.9930
 6571SOL    HW231350   1.095   2.186  15.505 -0.6431  1.3589 -0.1212
 6572SOL     OW31351   0.506   3.027  17.663 -0.0396  0.4405 -0.5919
 6572SOL    HW131352   0.585   3.050  17.713 -0.4783  2.4396 -0.8154
 6572SOL    HW231353   0.470   2.951  17.708  2.1402 -0.4365 -0.3556
 6573SOL     OW31354   2.497   2.634  10.857  0.5627 -0.0062  0.2962
 6573SOL    HW131355   2.542   2.718  10.867  1.7770 -0.5223 -0.7941
 6573SOL    HW231356   2.461   2.641  10.769 -0.8839 -1.2311  0.7815
 6574SOL     OW31357   4.188   1.065   5.765 -0.2721  0.2060 -0.6384
 6574SOL    HW131358   4.094   1.073   5.780  0.0095  0.5222  0.9816
 6574SOL    HW231359   4.216   1.017   5.843  1.2988 -0.1078 -1.3914
 6575SOL     OW31360   4.643   2.905  17.025 -0.3794 -0.1448 -0.1052
 6575SOL    HW131361   4.602   2.990  17.037  0.8154  0.5528 -0.9894
 6575SOL    HW231362   4.733   2.921  17.054  0.0293 -2.2445 -0.1663
 6576SOL     OW31363   0.985   1.872  14.776  0.2075 -0.3334 -0.0272
 6576SOL    HW131364   1.068   1.874  14.728  0.6671 -2.4292  0.6499
 6576SOL    HW231365   0.925   1.917  14.716  0.2897 -0.2490 -0.0455
 6577SOL     OW31366   4.258   3.521   4.837 -0.2597 -0.1470 -0.3101
 6577SOL    HW131367   4.350   3.544   4.826  0.4096 -2.5038  0.4037
 6577SOL    HW231368   4.235   3.484   4.752 -0.1218  0.9806 -0.8349
 6578SOL     OW31369   1.505   0.054   7.414  0.2623 -0.3588 -0.1793
 6578SOL    HW131370   1.510   0.048   7.509 -1.2251 -0.4102 -0.0947
 6578SOL    HW231371   1.598   0.063   7.394  0.3831  0.2403  0.6425
 6579SOL     OW31372   0.899   0.366  10.274  0.2743  0.4614 -0.7680
 6579SOL    HW131373   0.817   0.406  10.304 -0.0102 -1.3386  0.9013
 6579SOL    HW231374   0.943   0.339  10.355  0.4699 -0.4927 -1.1944
 6580SOL     OW31375   1.817   3.705   6.163  0.5539 -0.4288  0.2990
 6580SOL    HW131376   1.753   3.634   6.163  1.9464 -1.6640 -1.8971
 6580SOL    HW231377   1.797   3.752   6.082  0.7403  1.5437  1.3873
 6581SOL     OW31378   2.132   2.750  14.012  0.1753 -0.1883 -0.5380
 6581SOL    HW131379   2.154   2.824  13.955 -3.9866 -0.4101 -2.4607
 6581SOL    HW231380   2.170   2.784  14.093  0.4265 -0.2281 -0.6382
 6582SOL     OW31381   1.171   3.380   1.928  0.5402 -0.4189  0.0820
 6582SOL    HW131382   1.211   3.364   2.014  0.8111 -0.8759 -0.1307
 6582SOL    HW231383   1.170   3.285   1.917 -0.2362 -0.1833 -1.8791
 6583SOL     OW31384   2.898   1.067  13.546  0.0815  0.1306  0.0316
 6583SOL    HW131385   2.829   1.004  13.525 -2.2496  1.8509  2.4359
 6583SOL    HW231386   2.846   1.146  13.564 -1.1843 -1.0998  1.7289
 6584SOL     OW31387   3.904   0.676  12.386  0.2887 -0.6068  0.1668
 6584SOL    HW131388   3.839   0.664  12.316  1.0105 -2.0991 -0.2398
 6584SOL    HW231389   3.961   0.601  12.370  1.0147  0.4803 -2.4463
 6585SOL     OW31390   2.673   2.126  12.703  0.3685  0.0210  0.3530
 6585SOL    HW131391   2.699   2.038  12.674 -2.2546 -0.3769 -0.8228
 6585SOL    HW231392   2.744   2.173  12.661  1.8902 -3.0959 -0.5631
 6586SOL     OW31393   1.362   1.921   5.390 -0.0607 -0.0439  0.6503
 6586SOL    HW131394   1.279   1.887   5.358 -1.1428  1.5342  1.7585
 6586SOL    HW231395   1.342   1.941   5.482  0.5383  1.2833  0.4998
 6587SOL     OW31396   2.628   0.458   6.303  0.1307 -0.5000  0.0895
 6587SOL    HW131397   2.676   0.399   6.245 -2.3919 -2.0681 -0.3997
 6587SOL    HW231398   2.602   0.536   6.255 -0.3888 -1.1716 -0.7228
 6588SOL     OW31399   2.101   1.519   6.580 -0.0197 -0.4821 -0.5866
 6588SOL    HW131400   2.111   1.424   6.588  0.4268 -0.4313 -0.5500
 6588SOL    HW231401   2.006   1.524   6.583  0.1454  3.4791 -2.5035
 6589SOL     OW31402   3.328   2.835   3.841  0.3296 -0.5982  0.0701
 6589SOL    HW131403   3.373   2.810   3.922  0.5630 -2.0043 -0.4986
 6589SOL    HW231404   3.348   2.764   3.780  0.7215 -0.5662  0.1628
 6590SOL     OW31405   1.623   4.611   4.506 -0.3349 -0.2617  0.2955
 6590SOL    HW131406   1.707   4.657   4.507 -1.2269  1.4568 -2.0977
 6590SOL    HW231407   1.606   4.592   4.598  1.3848 -0.6011  0.5340
 6591SOL     OW31408   3.387   3.903   7.925  0.0768  0.0238 -0.1950
 6591SOL    HW131409   3.315   3.917   7.986  1.8114  0.1721  1.8216
 6591SOL    HW231410   3.345   3.942   7.849  0.5092  0.7438 -0.0645
 6592SOL     OW31411   1.211   1.646   0.730  0.2210  0.0931 -0.3809
 6592SOL    HW131412   1.234   1.553   0.730 -1.6859 -0.3776  1.1450
 6592SOL    HW231413   1.117   1.630   0.728  0.5347 -1.9134  0.4183
 6593SOL     OW31414   3.866   0.471   7.533 -0.2505 -0.6247  0.3198
 6593SOL    HW131415   3.834   0.497   7.447  0.9819 -1.6330 -0.4428
 6593SOL    HW231416   3.818   0.533   7.588  0.8112  0.9259 -0.5043
 6594SOL     OW31417   2.295   0.441   2.797 -0.0075 -0.5478 -0.0218
 6594SOL    HW131418   2.388   0.446   2.774  0.3119 -2.7900  0.8130
 6594SOL    HW231419   2.301   0.450   2.892 -1.0948  0.8093 -0.0863
 6595SOL     OW31420   0.999   2.618   2.312 -0.2844  0.3735  0.5708
 6595SOL    HW131421   0.927   2.602   2.251  1.6683  1.9898 -2.1987
 6595SOL    HW231422   1.059   2.545   2.301  0.9265  1.7085 -1.6750
 6596SOL     OW31423   2.115   4.512   3.012 -0.2962 -0.2777  0.1119
 6596SOL    HW131424   2.203   4.541   3.036  0.4181 -0.1203 -2.6245
 6596SOL    HW231425   2.129   4.483   2.921  0.3899  1.9111 -0.4729
 6597SOL     OW31426   4.015   4.358  11.423 -0.1511  0.0824 -0.4846
 6597SOL    HW131427   4.010   4.296  11.350  2.1405  0.4909 -0.9881
 6597SOL    HW231428   4.110   4.369  11.435 -0.5263 -0.3230  2.7331
 6598SOL     OW31429   1.937   1.348   1.534  0.2648  0.3459  0.3385
 6598SOL    HW131430   1.919   1.420   1.594 -0.5357  0.7714 -0.4228
 6598SOL    HW231431   2.032   1.334   1.531  0.0910 -0.8566  0.1476
 6599SOL     OW31432   3.581   0.572   5.588 -0.4441  0.3932  0.7720
 6599SOL    HW131433   3.537   0.656   5.570 -2.5552 -0.8979 -0.1198
 6599SOL    HW231434   3.571   0.567   5.683  0.9751 -1.6848  0.7994
 6600SOL     OW31435   1.812   0.102   8.199  0.3655 -0.2405 -0.2214
 6600SOL    HW131436   1.802   0.035   8.132 -0.6686  0.6622 -0.9752
 6600SOL    HW231437   1.883   0.064   8.249  1.1027  1.6535  0.1964
 6601SOL     OW31438   0.297   1.618  10.155 -0.0464 -1.1342 -0.2850
 6601SOL    HW131439   0.254   1.695  10.192  0.5372 -1.7558  1.6787
 6601SOL    HW231440   0.366   1.663  10.107 -1.1738 -0.5010 -1.3443
 6602SOL     OW31441   0.813   2.084  15.040 -0.3377 -0.1286  0.2077
 6602SOL    HW131442   0.750   2.021  15.004 -0.9293  0.7582 -0.3072
 6602SOL    HW231443   0.867   2.017  15.083 -0.0287 -0.5498 -0.8208
 6603SOL     OW31444   4.049   2.289   7.552 -0.2702 -0.1386 -0.0306
 6603SOL    HW131445   4.102   2.236   7.493  0.3925 -1.8252  2.0770
 6603SOL    HW231446   4.070   2.238   7.630  1.5329  1.4585  0.5388
 6604SOL     OW31447   3.914   1.382   5.890  0.1287  0.7857  0.5249
 6604SOL    HW131448   3.987   1.386   5.952  1.7968 -0.3309 -1.3524
 6604SOL    HW231449   3.900   1.287   5.881  1.0532  0.8165 -1.1986
 6605SOL     OW31450   2.238   4.543   4.746 -0.2054  1.1965 -0.1458
 6605SOL    HW131451   2.219   4.454   4.713  1.2831  0.3576  1.2784
 6605SOL    HW231452   2.287   4.577   4.671  0.7666  0.1608  0.0195
 6606SOL     OW31453   1.785   1.462   3.433 -0.0499  0.4401 -0.0504
 6606SOL    HW131454   1.861   1.492   3.483 -0.1074  0.2121  0.1728
 6606SOL    HW231455   1.821   1.383   3.393  2.1427  2.3801 -1.9223
 6607SOL     OW31456   2.726   4.589   2.928  0.0284 -0.4864 -0.3806
 6607SOL    HW131457   2.637   4.562   2.950 -0.2888 -1.0592 -2.3907
 6607SOL    HW231458   2.785   4.554   2.995  1.6292 -0.5721 -1.8149
 6608SOL     OW31459   3.877   1.756   1.577 -0.5865 -0.4600 -0.3588
 6608SOL    HW131460   3.902   1.748   1.485 -1.1028  0.3289 -0.5665
 6608SOL    HW231461   3.876   1.851   1.586  0.2212 -0.4625 -0.2720
 6609SOL     OW31462   3.738   0.802  11.177  0.3460 -0.7750 -0.1925
 6609SOL    HW131463   3.683   0.880  11.170 -0.7003 -1.5352 -0.5267
 6609SOL    HW231464   3.823   0.841  11.160 -0.8736  0.9769 -2.2843
 6610SOL     OW31465   4.599   3.288   4.059  0.0138  0.2962 -0.0427
 6610SOL    HW131466   4.544   3.274   3.982 -0.4794 -0.4755  0.4526
 6610SOL    HW231467   4.542   3.305   4.134  0.3228 -1.1750  0.5226
 6611SOL     OW31468   1.323   4.166   6.632  0.3460 -0.1660  0.0713
 6611SOL    HW131469   1.391   4.100   6.644  0.7358  0.3054  0.4053
 6611SOL    HW231470   1.246   4.108   6.624  0.1236  0.1344  0.0434
 6612SOL     OW31471   1.184   1.748   8.304 -0.3468 -0.2102 -0.2003
 6612SOL    HW131472   1.139   1.831   8.289 -1.5290 -0.9307 -0.6290
 6612SOL    HW231473   1.106   1.693   8.296 -1.3451  0.8357  2.3020
 6613SOL     OW31474   0.075   4.290   5.850  0.2892  0.0579  0.4338
 6613SOL    HW131475   0.099   4.332   5.933  0.9666  0.9576 -0.2240
 6613SOL    HW231476   4.736   4.346   5.834  0.4366 -0.5015 -2.1368
 6614SOL     OW31477   2.788   0.947  14.447 -0.4988 -0.3452 -0.0584
 6614SOL    HW131478   2.729   0.973  14.377 -0.5466  0.7041  0.3648
 6614SOL    HW231479   2.841   0.878  14.407 -0.0242 -1.2705  2.1634
 6615SOL     OW31480   4.696   0.575  17.440 -0.1748  0.2377  0.0376
 6615SOL    HW131481   4.667   0.533  17.359  0.9321  0.5596 -0.5268
 6615SOL    HW231482   4.685   0.506  17.506 -0.1119  1.4173  1.2762
 6616SOL     OW31483   1.914   4.210   5.633 -0.2220  0.0043 -0.0725
 6616SOL    HW131484   1.942   4.202   5.542  1.6099 -2.4680  0.7066
 6616SOL    HW231485   1.839   4.270   5.626  1.2539  2.1086  2.1359
 6617SOL     OW31486   2.340   4.121   3.235  0.3699 -0.1873  0.2747
 6617SOL    HW131487   2.361   4.198   3.288  0.6243  1.3673 -2.0712
 6617SOL    HW231488   2.422   4.081   3.208 -0.2885 -1.0658 -0.4303
 6618SOL     OW31489   1.813   0.008   6.588  0.0543  0.1571  0.0540
 6618SOL    HW131490   1.770   0.093   6.586 -0.8595 -0.2995  0.2818
 6618SOL    HW231491   1.758   4.707   6.655 -1.8810  0.2635 -1.4710
 6619SOL     OW31492   4.334   2.770   1.767  0.7844 -0.4954 -0.0244
 6619SOL    HW131493   4.266   2.794   1.705 -1.1981  1.1505  2.7963
 6619SOL    HW231494   4.290   2.786   1.850  0.5931  1.3622 -0.4943
 6620SOL     OW31495   4.327   4.565  15.181  0.9257  0.6200 -0.1015
 6620SOL    HW131496   4.399   4.624  15.202  1.4100 -0.6721  1.8110
 6620SOL    HW231497   4.337   4.487  15.235 -0.2229  1.8508  1.8475
 6621SOL     OW31498   1.100   0.132   3.704  0.3820  0.4511 -0.2845
 6621SOL    HW131499   1.048   0.052   3.715 -0.6476  1.3374  1.4179
 6621SOL    HW231500   1.031   0.181   3.660 -2.4731 -1.9349  1.5050
 6622SOL     OW31501   4.145   4.411   4.954  0.4369 -0.4826  0.3773
 6622SOL    HW131502   4.214   4.372   4.900 -0.5085 -0.8946 -0.5354
 6622SOL    HW231503   4.158   4.499   4.921  1.8888 -0.5221  0.7989
 6623SOL     OW31504   0.202   2.875   7.505  0.2042  0.2327  0.0859
 6623SOL    HW131505   0.123   2.929   7.507 -0.0261 -0.1157  0.4701
 6623SOL    HW231506   0.202   2.840   7.595  0.7604  3.8831  1.4841
 6624SOL     OW31507   0.246   3.690  13.345 -0.2484 -0.2547  0.0577
 6624SOL    HW131508   0.281   3.726  13.426  1.3725 -2.3836  0.2920
 6624SOL    HW231509   0.224   3.602  13.374  1.3411 -1.2716 -1.7696
 6625SOL     OW31510   0.046   3.558   3.405  0.3273 -0.0522  0.4376
 6625SOL    HW131511   0.058   3.488   3.340 -0.5051  2.0956 -2.0298
 6625SOL    HW231512   0.109   3.624   3.377  0.8124 -0.6121  0.2032
 6626SOL     OW31513   2.092   4.529   1.987 -0.4519  0.0211  0.0970
 6626SOL    HW131514   2.130   4.467   1.925  0.1546 -1.3420  1.8445
 6626SOL    HW231515   2.002   4.544   1.960 -0.7339 -2.6613 -0.4402
 6627SOL     OW31516   2.540   3.005   2.274 -0.7510  0.1873 -0.2491
 6627SOL    HW131517   2.520   2.912   2.270  0.9559 -0.1214 -1.4188
 6627SOL    HW231518   2.520   3.030   2.364  1.6612  2.5806 -0.3723
 6628SOL     OW31519   3.076   2.034   4.288  0.4484 -0.3339  0.3294
 6628SOL    HW131520   3.048   1.948   4.259 -0.4484 -0.4442  1.5104
 6628SOL    HW231521   3.022   2.047   4.366 -2.2759  1.3951 -1.8943
 6629SOL     OW31522   1.151   3.362   4.230 -0.2189  0.0898 -0.1081
 6629SOL    HW131523   1.224   3.342   4.172  0.0886 -0.8173  0.5933
 6629SOL    HW231524   1.078   3.323   4.181 -0.8857 -1.4632  2.1366
 6630SOL     OW31525   1.924   0.216  16.694 -0.3760  0.5112  0.1857
 6630SOL    HW131526   1.925   0.129  16.734  0.5820  0.4146 -0.0363
 6630SOL    HW231527   1.881   0.275  16.756  0.5976  0.3724  0.9869
 6631SOL     OW31528   2.422   1.602   8.941 -0.3546 -0.6971  0.2030
 6631SOL    HW131529   2.435   1.697   8.945  0.8185 -0.7672 -2.0378
 6631SOL    HW231530   2.340   1.609   8.891 -0.0755 -1.1840 -0.3269
 6632SOL     OW31531   1.933   1.214   5.469  0.5305  0.7999  0.1655
 6632SOL    HW131532   1.975   1.147   5.414  2.5890  0.7437  1.8195
 6632SOL    HW231533   1.963   1.208   5.559  0.6250 -3.1293 -0.1211
 6633SOL     OW31534   3.088   3.444   7.385 -0.1455  0.0102  0.0499
 6633SOL    HW131535   3.179   3.418   7.370 -0.0456  0.6771 -0.4938
 6633SOL    HW231536   3.065   3.386   7.458  2.5919  0.0190  0.9104
 6634SOL     OW31537   3.784   1.645   3.236  0.1675  0.1738  0.7584
 6634SOL    HW131538   3.695   1.668   3.212  0.6965  0.0667 -1.3092
 6634SOL    HW231539   3.823   1.726   3.203 -0.7658 -0.0895 -0.9371
 6635SOL     OW31540   1.886   4.147   3.595  0.1240  0.3043  0.4113
 6635SOL    HW131541   1.835   4.181   3.521 -1.2738  0.9211  1.6655
 6635SOL    HW231542   1.895   4.053   3.575  0.5049  0.9990 -2.6816
 6636SOL     OW31543   0.340   3.127   4.429 -0.3862 -0.4001 -0.6957
 6636SOL    HW131544   0.313   3.117   4.338  1.6110 -0.4037 -1.2769
 6636SOL    HW231545   0.400   3.053   4.437 -0.4095 -0.4513 -0.9925
 6637SOL     OW31546   2.968   4.647  12.201  0.7009  0.0141 -0.5265
 6637SOL    HW131547   3.048   4.699  12.207  0.4654  0.7440 -3.6423
 6637SOL    HW231548   2.994   4.598  12.280  1.9190  0.4529 -0.6519
 6638SOL     OW31549   4.552   4.073  13.748 -0.6749  0.5305 -0.1816
 6638SOL    HW131550   4.622   4.137  13.755  0.9735 -1.1443 -1.4737
 6638SOL    HW231551   4.580   3.998  13.695 -0.2695 -1.1382  2.4148
 6639SOL     OW31552   1.592   1.288   3.583 -0.1991 -0.0775  0.1243
 6639SOL    HW131553   1.626   1.366   3.539 -0.6155 -0.2286 -0.4745
 6639SOL    HW231554   1.603   1.320   3.672  0.3007 -1.3770  0.5177
 6640SOL     OW31555   3.253   0.143   7.429  0.0229  0.3908 -0.1428
 6640SOL    HW131556   3.172   0.158   7.478 -1.2360  1.7216 -2.6706
 6640SOL    HW231557   3.317   0.156   7.499  1.2999  0.3007 -1.2959
 6641SOL     OW31558   2.613   0.419  15.170 -0.2646 -0.0848 -0.4376
 6641SOL    HW131559   2.530   0.460  15.146 -0.2774  0.4845  0.5687
 6641SOL    HW231560   2.628   0.444  15.261 -2.1396 -1.0024  0.1394
 6642SOL     OW31561   4.466   3.221   6.311 -0.4194 -0.5858 -0.3946
 6642SOL    HW131562   4.422   3.136   6.307 -1.5708  0.0068 -0.3612
 6642SOL    HW231563   4.479   3.231   6.217  2.1310 -1.5113 -0.1319
 6643SOL     OW31564   3.953   1.828   4.485  0.2525 -0.0296  0.6021
 6643SOL    HW131565   3.889   1.880   4.435 -1.0053 -2.6967 -0.5844
 6643SOL    HW231566   3.948   1.746   4.437  0.2249  1.2952 -1.6889
 6644SOL     OW31567   4.662   3.017   3.897  0.0513 -0.0390 -0.8354
 6644SOL    HW131568   4.702   2.984   3.816 -1.9998 -1.4039 -1.2926
 6644SOL    HW231569   4.569   3.022   3.873  0.5934  1.2009 -2.6925
 6645SOL     OW31570   0.908   2.169  12.620 -0.0017 -0.3919  0.0956
 6645SOL    HW131571   0.964   2.215  12.682  0.3233  0.7375 -1.0399
 6645SOL    HW231572   0.939   2.080  12.634  0.4491 -0.3827 -0.9030
 6646SOL     OW31573   4.308   2.396   1.558  0.1302  0.2017 -0.1045
 6646SOL    HW131574   4.309   2.301   1.569  4.1427  0.4971  1.9377
 6646SOL    HW231575   4.361   2.416   1.481 -1.3486 -0.3709 -1.2536
 6647SOL     OW31576   0.164   1.048   3.365  0.0594 -0.1305  0.1321
 6647SOL    HW131577   0.144   1.122   3.422 -3.1064 -0.4132 -0.5958
 6647SOL    HW231578   0.103   0.989   3.410 -0.8015  0.7254  0.0829
 6648SOL     OW31579   0.105   3.484   7.978 -0.5237  0.0691  0.2499
 6648SOL    HW131580   0.125   3.474   8.071  0.5079  0.9518  0.1241
 6648SOL    HW231581   0.157   3.560   7.953 -1.2193  1.3252  2.6328
 6649SOL     OW31582   1.656   2.625   4.904  0.4966  0.1239  0.1248
 6649SOL    HW131583   1.693   2.600   4.988  1.3407 -2.0188 -0.8760
 6649SOL    HW231584   1.736   2.640   4.852  1.4394  2.0355  2.1583
 6650SOL     OW31585   4.112   1.907   1.669 -0.6487 -0.7668  0.0123
 6650SOL    HW131586   4.054   1.959   1.614 -0.9105 -0.4611  0.5824
 6650SOL    HW231587   4.141   1.853   1.595 -1.5664  1.0258 -1.6532
 6651SOL     OW31588   1.457   0.956   4.979  0.3271 -0.0314 -0.0019
 6651SOL    HW131589   1.472   1.035   4.927 -0.9123  0.2453  0.0376
 6651SOL    HW231590   1.362   0.942   4.977 -0.0673  1.9849  2.8933
 6652SOL     OW31591   1.496   3.401   5.426  0.0848 -0.2364  0.1218
 6652SOL    HW131592   1.482   3.494   5.446  0.1908 -0.3616  0.7501
 6652SOL    HW231593   1.434   3.385   5.354 -0.0797  0.4820  0.1032
 6653SOL     OW31594   4.146   1.061   3.638 -0.0858 -0.7670 -0.7398
 6653SOL    HW131595   4.109   1.032   3.721 -0.1961 -1.8552 -1.1588
 6653SOL    HW231596   4.073   1.110   3.599 -0.9033  0.2662  2.1072
 6654SOL     OW31597   0.176   0.906   4.536 -0.4589 -0.0234 -0.6079
 6654SOL    HW131598   0.211   0.849   4.467  0.9316 -0.8444  0.7894
 6654SOL    HW231599   0.143   0.843   4.600  0.0299  2.1110  1.7230
 6655SOL     OW31600   1.810   2.005   7.734  0.5155  0.0744 -0.4946
 6655SOL    HW131601   1.833   1.966   7.819  1.6141 -0.4536 -1.0286
 6655SOL    HW231602   1.726   2.049   7.750 -0.6507 -2.5208  0.5475
 6656SOL     OW31603   3.595   2.786   6.337 -0.3094  0.1306 -0.5770
 6656SOL    HW131604   3.617   2.755   6.250 -3.0176 -2.1591 -0.4474
 6656SOL    HW231605   3.680   2.795   6.380 -0.4784  0.6865 -0.3612
 6657SOL     OW31606   3.554   3.239   8.587 -0.1849 -0.3985  0.7727
 6657SOL    HW131607   3.529   3.204   8.501  0.0796  1.2125  0.0509
 6657SOL    HW231608   3.644   3.271   8.575 -0.0307 -2.1315 -2.7360
 6658SOL     OW31609   3.185   3.352   4.523  0.1659  0.1079 -0.1074
 6658SOL    HW131610   3.183   3.444   4.550 -1.1615 -0.0883  0.4451
 6658SOL    HW231611   3.144   3.349   4.436 -0.2559 -0.8187  0.1205
 6659SOL     OW31612   1.894   0.538  15.760  0.2498 -0.5753  0.7461
 6659SOL    HW131613   1.908   0.454  15.803 -2.8310 -1.6457 -0.3698
 6659SOL    HW231614   1.923   0.513  15.672 -0.4147  2.3807 -0.3253
 6660SOL     OW31615   4.423   4.330   2.956  0.2240  0.6904 -0.2344
 6660SOL    HW131616   4.487   4.356   3.022  2.1174 -3.5620 -0.3857
 6660SOL    HW231617   4.387   4.258   3.009 -0.3527  1.8577  0.9549
 6661SOL     OW31618   1.202   2.411   3.337 -0.9027  0.3687  0.4272
 6661SOL    HW131619   1.297   2.403   3.327 -0.8446  2.0540 -0.3617
 6661SOL    HW231620   1.175   2.433   3.248 -0.5024  1.3693  0.5533
 6662SOL     OW31621   1.820   3.351   3.013  0.2900  0.2036 -0.3967
 6662SOL    HW131622   1.895   3.399   2.977  2.3482 -1.6323  1.4105
 6662SOL    HW231623   1.780   3.426   3.057 -0.1472 -0.9588  1.1905
 6663SOL     OW31624   3.363   0.696   8.965 -0.0769 -0.0811 -0.4411
 6663SOL    HW131625   3.380   0.602   8.965 -0.3961 -0.1416 -1.3859
 6663SOL    HW231626   3.309   0.701   8.886 -2.0310  1.3544  0.9728
 6664SOL     OW31627   3.981   3.569   5.738 -0.0938 -0.7115  0.5701
 6664SOL    HW131628   4.068   3.602   5.762 -0.1453 -1.0745  1.2402
 6664SOL    HW231629   3.989   3.475   5.753  0.3244 -0.5093  1.6118
 6665SOL     OW31630   3.510   4.103   4.100  0.0570 -0.1244 -0.0665
 6665SOL    HW131631   3.574   4.142   4.160 -0.7776  1.2100 -0.0461
 6665SOL    HW231632   3.422   4.111   4.138  0.0146 -2.2447  0.3000
 6666SOL     OW31633   3.998   3.665  15.338 -0.0701  0.3309 -0.2066
 6666SOL    HW131634   3.919   3.718  15.349 -0.0482  0.1558  0.8080
 6666SOL    HW231635   4.051   3.716  15.278 -0.6193  2.1751  0.8706
 6667SOL     OW31636   1.125   0.648   2.414 -0.3495 -0.4000  0.6550
 6667SOL    HW131637   1.116   0.612   2.325  0.5068 -0.4432  0.5806
 6667SOL    HW231638   1.107   0.741   2.401  0.5984 -0.3616 -0.5066
 6668SOL     OW31639   0.021   1.099   5.196 -0.1989 -0.2026 -0.2080
 6668SOL    HW131640   4.687   1.039   5.219 -0.1814 -0.4457 -0.7804
 6668SOL    HW231641   0.002   1.134   5.109  3.0448  0.4322 -0.6232
 6669SOL     OW31642   1.123   0.852   8.315 -0.2280  0.5608  0.0237
 6669SOL    HW131643   1.211   0.816   8.305  1.5432  4.6019  0.8855
 6669SOL    HW231644   1.093   0.795   8.386  2.5778 -1.2254 -0.2381
 6670SOL     OW31645   0.463   2.466  14.663  0.2761  0.7316  0.3195
 6670SOL    HW131646   0.463   2.386  14.716 -1.6319  0.5161 -0.0130
 6670SOL    HW231647   0.373   2.456  14.631  0.3552  0.7083  0.1056
 6671SOL     OW31648   4.589   2.791   1.884 -0.1734  0.7373 -0.2428
 6671SOL    HW131649   4.637   2.830   1.811  0.3338 -2.3465 -1.5948
 6671SOL    HW231650   4.497   2.806   1.862 -0.0492 -0.0257 -1.2889
 6672SOL     OW31651   0.682   3.959   2.580 -0.1383 -0.6791 -0.8751
 6672SOL    HW131652   0.758   4.010   2.551  0.0406 -1.1657 -1.2489
 6672SOL    HW231653   0.723   3.903   2.646 -1.6456 -1.5856 -0.7313
 6673SOL     OW31654   2.420   4.405  10.061  0.4815  0.0083  0.3726
 6673SOL    HW131655   2.400   4.488  10.017  0.7652 -0.6487 -1.0193
 6673SOL    HW231656   2.490   4.433  10.119 -0.4537 -1.2010  2.0652
 6674SOL     OW31657   0.894   4.311   5.421 -0.1450  0.3962 -0.4530
 6674SOL    HW131658   0.801   4.305   5.444  0.0491 -1.2027 -0.0824
 6674SOL    HW231659   0.889   4.338   5.330 -1.4960 -1.5755 -0.9501
 6675SOL     OW31660   0.810   3.376  11.749  0.6927  0.0516  0.2625
 6675SOL    HW131661   0.818   3.312  11.679  1.0573  0.9153 -0.4881
 6675SOL    HW231662   0.726   3.368  11.795 -0.5011  0.6967 -1.8283
 6676SOL     OW31663   1.299   1.897   0.450 -0.0671 -0.7469  0.2972
 6676SOL    HW131664   1.284   1.823   0.509  0.5637 -0.7135  0.5079
 6676SOL    HW231665   1.392   1.914   0.469 -0.5523  1.6945  0.5024
 6677SOL     OW31666   3.763   3.425   3.822  0.0784 -0.3837 -0.7280
 6677SOL    HW131667   3.688   3.368   3.803 -0.7314 -0.6325  3.1921
 6677SOL    HW231668   3.739   3.434   3.915 -0.8077 -0.3404 -0.9582
 6678SOL     OW31669   0.186   3.412  17.671  0.4261 -0.7692  0.3337
 6678SOL    HW131670   0.263   3.458  17.637 -1.4094  0.5346 -2.0689
 6678SOL    HW231671   0.217   3.324  17.650  5.3054  0.9425  0.2145
 6679SOL     OW31672   4.318   4.394   1.751 -0.0102 -0.5707 -0.7240
 6679SOL    HW131673   4.310   4.390   1.846 -1.8109  0.6518 -0.8250
 6679SOL    HW231674   4.353   4.307   1.735  0.7118 -0.4488  0.2363
 6680SOL     OW31675   4.583   3.566   8.002  0.1553  0.4037  0.3092
 6680SOL    HW131676   4.671   3.534   7.981 -0.5693 -0.6853 -1.0113
 6680SOL    HW231677   4.565   3.611   7.919 -1.8989  0.6413  0.8856
 6681SOL     OW31678   3.542   0.200   4.566 -0.2757  0.2838  0.3244
 6681SOL    HW131679   3.495   0.143   4.506  0.6350 -2.1190  1.8645
 6681SOL    HW231680   3.501   0.284   4.544 -1.7673 -0.6078 -0.2723
 6682SOL     OW31681   0.544   0.990  17.095 -0.0167  0.3807 -0.0638
 6682SOL    HW131682   0.517   1.018  17.183  0.2266  2.1040 -0.5447
 6682SOL    HW231683   0.536   1.074  17.052 -1.5841  0.4554  0.3557
 6683SOL     OW31684   2.661   4.549   8.842 -0.0374 -0.2189 -0.3352
 6683SOL    HW131685   2.654   4.643   8.856 -2.3877 -0.2481 -1.3001
 6683SOL    HW231686   2.683   4.518   8.930 -0.1043  2.6384  0.6796
 6684SOL     OW31687   4.403   2.991   3.758  0.6333  0.0162  0.3148
 6684SOL    HW131688   4.377   3.053   3.690 -0.3090  0.1396  0.7723
 6684SOL    HW231689   4.355   3.028   3.833 -2.4982 -0.7111 -1.3370
 6685SOL     OW31690   1.793   3.874   8.751  0.2403 -0.6014  0.0253
 6685SOL    HW131691   1.782   3.891   8.657  0.1196 -1.1508 -0.0656
 6685SOL    HW231692   1.863   3.809   8.746 -0.9507 -2.0399  2.3758
 6686SOL     OW31693   1.242   3.827   3.124 -0.5028 -0.2537  0.3144
 6686SOL    HW131694   1.254   3.920   3.104  0.8002 -0.2950  0.9424
 6686SOL    HW231695   1.331   3.802   3.100  0.0739  0.5723  1.5568
 6687SOL     OW31696   2.547   2.928   1.575 -0.4486  0.2346  0.3401
 6687SOL    HW131697   2.542   2.926   1.670 -1.1553  1.8265  0.3457
 6687SOL    HW231698   2.641   2.944   1.566  0.0836 -4.6723 -3.0513
 6688SOL     OW31699   2.698   2.413   2.020 -0.6913  0.2489  0.5527
 6688SOL    HW131700   2.700   2.468   1.942  0.3860 -0.4641  0.0834
 6688SOL    HW231701   2.790   2.390   2.032  0.5787  4.4601 -1.0263
 6689SOL     OW31702   0.619   3.573   1.753  0.5430  0.2960 -0.5347
 6689SOL    HW131703   0.693   3.573   1.813  0.8958  0.8869 -0.9679
 6689SOL    HW231704   0.650   3.611   1.671  0.8749  1.0175 -0.0647
 6690SOL     OW31705   2.706   4.661   5.949  0.4142 -0.0791 -0.6624
 6690SOL    HW131706   2.757   4.582   5.933  2.7442  1.6709 -1.8925
 6690SOL    HW231707   2.643   4.667   5.877 -1.3153  0.7027  0.9228
 6691SOL     OW31708   3.779   2.934   9.311 -0.0473 -0.2096  0.2743
 6691SOL    HW131709   3.700   2.948   9.364  0.6407  1.4484  0.8426
 6691SOL    HW231710   3.793   3.018   9.269 -2.0019  0.6808  1.4055
 6692SOL     OW31711   1.097   0.531  14.827 -0.1058  0.0319 -0.0057
 6692SOL    HW131712   1.184   0.495  14.843 -0.2842  0.9546  3.1329
 6692SOL    HW231713   1.043   0.475  14.883  0.0448 -0.6244 -0.5166
 6693SOL     OW31714   1.421   0.616   5.549 -0.4163 -0.4349  0.1706
 6693SOL    HW131715   1.383   0.531   5.527  0.8381 -0.5546 -1.5882
 6693SOL    HW231716   1.508   0.591   5.581  0.0713  3.3093  1.6585
 6694SOL     OW31717   0.421   2.237   6.745 -0.0212 -0.0101 -0.6415
 6694SOL    HW131718   0.379   2.170   6.690 -0.8700 -0.6487  0.7726
 6694SOL    HW231719   0.505   2.247   6.701 -0.9239 -1.9314 -2.8519
 6695SOL     OW31720   2.543   3.456   4.072  0.1223  0.0665 -0.1224
 6695SOL    HW131721   2.605   3.386   4.050  0.3541  0.3958 -0.5247
 6695SOL    HW231722   2.461   3.408   4.063  1.0226 -1.1836 -1.7401
 6696SOL     OW31723   0.031   1.845  11.551  0.5792 -0.0416 -0.3493
 6696SOL    HW131724   0.048   1.874  11.640 -1.9732 -0.1879  0.1843
 6696SOL    HW231725   0.036   1.927  11.502 -3.2182  0.6859  0.4396
 6697SOL     OW31726   1.692   2.926   7.682  0.5683  0.4893 -0.3460
 6697SOL    HW131727   1.755   2.973   7.628  0.4243 -0.0145 -0.9433
 6697SOL    HW231728   1.613   2.969   7.648  0.5521  0.4055 -0.4131
 6698SOL     OW31729   2.147   1.231   4.184 -0.6105 -0.2313 -0.1913
 6698SOL    HW131730   2.149   1.171   4.259  1.8354  1.9495  1.4986
 6698SOL    HW231731   2.107   1.308   4.224  1.2921 -0.3461  1.9467
 6699SOL     OW31732   3.738   4.355   5.091 -0.1817  0.3872  0.6681
 6699SOL    HW131733   3.832   4.343   5.076 -0.1610 -0.2705  1.3213
 6699SOL    HW231734   3.738   4.310   5.175 -0.6015  0.7155  0.8401
 6700SOL     OW31735   2.256   1.972   3.816  0.1323  0.3015  0.1218
 6700SOL    HW131736   2.252   1.985   3.721 -0.0042 -0.0368  0.0786
 6700SOL    HW231737   2.257   1.876   3.813  1.9136  0.2524  3.2290
 6701SOL     OW31738   4.719   2.249   5.569  0.0190  0.1221  0.0457
 6701SOL    HW131739   4.676   2.223   5.651 -0.7037 -0.9141 -0.6571
 6701SOL    HW231740   0.073   2.266   5.588 -0.1886 -0.6734  1.7158
 6702SOL     OW31741   1.478   2.467   7.820  0.1139  0.3889 -0.2531
 6702SOL    HW131742   1.535   2.490   7.746 -0.1729 -2.8303 -1.4364
 6702SOL    HW231743   1.410   2.531   7.796 -0.2052  0.4602  0.8521
 6703SOL     OW31744   1.558   3.910   2.281  0.2640  0.0257 -0.0474
 6703SOL    HW131745   1.653   3.898   2.272  0.5149  2.4168 -0.3993
 6703SOL    HW231746   1.525   3.868   2.361 -2.5733  0.1493 -1.1679
 6704SOL     OW31747   1.457   0.823   6.662  0.2897  0.3219  0.1381
 6704SOL    HW131748   1.365   0.823   6.689  0.5286 -3.8320  0.9031
 6704SOL    HW231749   1.437   0.790   6.575 -0.1644  0.2786  0.2578
 6705SOL     OW31750   4.655   3.975  15.329 -0.5400  0.1687  0.1327
 6705SOL    HW131751   4.566   4.010  15.337 -0.6115  0.4016 -1.6014
 6705SOL    HW231752   4.676   3.954  15.420  0.6735 -1.8363 -0.6167
 6706SOL     OW31753   1.725   3.064   7.968 -0.1765  0.0242 -0.1771
 6706SOL    HW131754   1.674   2.999   7.920  2.2043 -0.6428 -1.7801
 6706SOL    HW231755   1.782   3.099   7.899 -0.8571 -1.5035 -1.5217
 6707SOL     OW31756   3.254   2.675   5.984 -0.3255 -0.3813 -0.3645
 6707SOL    HW131757   3.262   2.665   6.079 -0.2617 -0.9790 -0.4321
 6707SOL    HW231758   3.288   2.592   5.950  0.2192  0.2231 -1.3144
 6708SOL     OW31759   0.627   3.523   7.953  0.3083 -0.0956 -1.1213
 6708SOL    HW131760   0.576   3.544   7.874 -0.7158 -0.2500 -0.4956
 6708SOL    HW231761   0.621   3.595   8.016  0.9899 -0.9578 -0.0733
 6709SOL     OW31762   1.623   4.032   4.925 -0.3236 -0.0327 -0.1055
 6709SOL    HW131763   1.582   3.950   4.896 -0.5587  0.6210 -1.6443
 6709SOL    HW231764   1.582   4.032   5.011  1.3452 -0.8678  0.6800
 6710SOL     OW31765   2.647   2.285   7.901  0.2849  0.3228  0.0687
 6710SOL    HW131766   2.717   2.223   7.922 -0.1636 -0.1068  0.2910
 6710SOL    HW231767   2.679   2.299   7.812 -2.5223  0.9404 -0.8448
 6711SOL     OW31768   3.456   0.484   5.076  0.3035  0.2547 -0.5996
 6711SOL    HW131769   3.428   0.494   5.167  0.0349 -1.3178 -0.5013
 6711SOL    HW231770   3.388   0.421   5.052 -1.7258  2.7645 -1.3424
 6712SOL     OW31771   4.006   2.479   6.610 -0.6646  0.0704 -0.2242
 6712SOL    HW131772   3.987   2.420   6.538  1.8845  0.2040 -1.0006
 6712SOL    HW231773   4.086   2.440   6.645  0.9579  0.8402 -3.0890
 6713SOL     OW31774   2.294   1.937   3.566  0.3025  0.9613 -0.0721
 6713SOL    HW131775   2.270   1.905   3.479 -1.1731  1.2882  0.2114
 6713SOL    HW231776   2.386   1.910   3.569 -0.5719 -2.0115 -0.1700
 6714SOL     OW31777   1.697   4.151   2.413 -0.3157 -0.0145 -0.1951
 6714SOL    HW131778   1.620   4.119   2.460 -1.1622  1.1052 -0.8211
 6714SOL    HW231779   1.679   4.245   2.418  0.7892  0.1627  0.3355
 6715SOL     OW31780   4.456   1.715   5.153  0.3023 -0.0785 -0.4706
 6715SOL    HW131781   4.393   1.688   5.220 -0.7021 -1.2105 -1.8705
 6715SOL    HW231782   4.458   1.636   5.099  2.0536  0.5645 -1.3551
 6716SOL     OW31783   1.820   2.321   8.403  0.6023 -0.1291 -0.0247
 6716SOL    HW131784   1.755   2.385   8.431 -0.3258  0.1848 -2.9187
 6716SOL    HW231785   1.820   2.327   8.308  2.9391 -1.3734 -0.1305
 6717SOL     OW31786   1.965   1.320  17.106 -0.0838  0.2981 -0.1417
 6717SOL    HW131787   1.959   1.366  17.189 -0.8315 -1.7174  0.9217
 6717SOL    HW231788   1.959   1.228  17.133 -0.5216  0.1256 -0.8357
 6718SOL     OW31789   0.508   4.017  13.876  0.0214 -0.3105  0.6323
 6718SOL    HW131790   0.498   3.958  13.801 -1.0001 -1.0708  1.3769
 6718SOL    HW231791   0.474   4.100  13.841  2.5072  0.8563  0.9382
 6719SOL     OW31792   0.952   2.857   8.410  0.3013 -0.1203 -0.0396
 6719SOL    HW131793   0.993   2.770   8.409  0.0613 -0.2206 -1.4652
 6719SOL    HW231794   1.006   2.887   8.484  1.3732 -1.4528 -0.2775
 6720SOL     OW31795   4.469   2.471   0.303  0.1703 -0.3575  0.4021
 6720SOL    HW131796   4.546   2.414   0.316  0.2240 -0.0307  1.5075
 6720SOL    HW231797   4.468   2.486   0.209  0.1963 -2.2823  0.0809
 6721SOL     OW31798   2.212   3.153  15.257  0.3136  0.2216 -0.4178
 6721SOL    HW131799   2.169   3.221  15.308  0.9828 -0.6237  1.2708
 6721SOL    HW231800   2.304   3.164  15.282  0.0917  1.6041 -0.2154
 6722SOL     OW31801   1.399   0.460   0.586 -0.4795  0.3709 -0.0023
 6722SOL    HW131802   1.385   0.552   0.564 -0.4063  0.4305  0.1984
 6722SOL    HW231803   1.445   0.435   0.506 -0.8440  1.6832 -0.6172
 6723SOL     OW31804   2.872   1.827   9.113 -0.6809  0.1499  0.2400
 6723SOL    HW131805   2.880   1.922   9.119  1.1996 -0.0531  0.8163
 6723SOL    HW231806   2.797   1.808   9.170  0.5112  1.4238  2.1862
 6724SOL     OW31807   2.239   3.060   7.538  0.7359 -0.2512  0.2735
 6724SOL    HW131808   2.302   3.009   7.488  0.4182 -0.1198 -0.2542
 6724SOL    HW231809   2.292   3.127   7.580 -0.6475  1.6931 -1.0673
 6725SOL     OW31810   2.785   3.984   4.569  0.4681 -0.3611 -0.0240
 6725SOL    HW131811   2.819   3.949   4.651 -1.7694  0.2813  1.1851
 6725SOL    HW231812   2.813   3.912   4.512 -1.9031 -0.6380 -0.8413
 6726SOL     OW31813   3.104   0.304   8.271 -0.1073 -0.5663  0.1406
 6726SOL    HW131814   3.104   0.380   8.213 -0.0749 -1.2194 -0.7243
 6726SOL    HW231815   3.029   0.324   8.327  1.1927 -0.1366  1.6972
 6727SOL     OW31816   1.965   4.255   7.234  0.5831  0.1419  0.8495
 6727SOL    HW131817   2.032   4.227   7.297  1.0447  2.2947  1.2960
 6727SOL    HW231818   1.931   4.174   7.195  1.9118 -0.1916  0.3967
 6728SOL     OW31819   4.360   4.049   1.881  0.1342 -0.0033  0.3181
 6728SOL    HW131820   4.275   4.091   1.867  0.2162 -0.0546 -0.3376
 6728SOL    HW231821   4.317   3.966   1.904  1.0291 -0.0142  1.9746
 6729SOL     OW31822   0.616   4.359   5.370  0.5415  0.2116  0.5214
 6729SOL    HW131823   0.580   4.271   5.371  0.2202  0.3457  1.0805
 6729SOL    HW231824   0.587   4.399   5.452  0.4060  1.2580 -0.0297
 6730SOL     OW31825   2.229   0.988   7.452  0.8346  0.6074  0.2682
 6730SOL    HW131826   2.304   1.044   7.431  1.3949 -0.7455 -1.3130
 6730SOL    HW231827   2.153   1.047   7.453 -0.5531 -1.1702 -1.1454
 6731SOL     OW31828   1.458   0.101  10.860  0.1717  0.1688  0.2856
 6731SOL    HW131829   1.443   0.020  10.811 -2.5348  0.8761 -0.0576
 6731SOL    HW231830   1.459   0.166  10.789 -1.7059  0.3725  0.4534
 6732SOL     OW31831   0.909   1.984   2.758  0.0624 -0.3658  0.5028
 6732SOL    HW131832   0.965   2.058   2.733 -0.4172  0.5692  2.1649
 6732SOL    HW231833   0.892   1.945   2.673 -2.6869  0.8630  0.4582
 6733SOL     OW31834   1.350   2.867   4.034 -0.4082  0.2361  0.8377
 6733SOL    HW131835   1.277   2.928   4.024 -0.0146  0.5558 -0.0605
 6733SOL    HW231836   1.305   2.783   4.039 -0.5669  0.1860 -1.1830
 6734SOL     OW31837   0.617   1.163   3.995 -0.1085 -0.3013  0.0002
 6734SOL    HW131838   0.621   1.080   4.043 -0.1310  0.1510  0.7860
 6734SOL    HW231839   0.553   1.138   3.927  2.5191  0.7948 -2.8695
 6735SOL     OW31840   4.588   1.669  10.884 -0.4066 -0.0160 -0.1355
 6735SOL    HW131841   4.683   1.664  10.872 -0.2694  0.4754  0.6999
 6735SOL    HW231842   4.567   1.599  10.946  2.3376  0.3553  1.2107
 6736SOL     OW31843   1.175   1.177  11.786  0.1486 -0.2768  0.6802
 6736SOL    HW131844   1.190   1.087  11.812  0.6686  0.0192  1.3934
 6736SOL    HW231845   1.091   1.199  11.827 -1.3324  1.0032 -2.9954
 6737SOL     OW31846   4.642   1.238   8.281 -0.1768  0.4282  0.2867
 6737SOL    HW131847   4.668   1.183   8.354 -0.1110  0.3576  0.2094
 6737SOL    HW231848   4.598   1.170   8.229  2.9655  0.1257 -1.9430
 6738SOL     OW31849   2.538   1.346   8.956 -0.4024 -0.1035 -0.4147
 6738SOL    HW131850   2.620   1.385   8.928 -0.7804  1.1685  0.2692
 6738SOL    HW231851   2.489   1.422   8.988 -1.1630 -0.6048 -0.3832
 6739SOL     OW31852   0.499   2.625   2.173  0.1148 -0.5211 -0.3683
 6739SOL    HW131853   0.576   2.677   2.150 -0.2999 -0.3802 -1.4651
 6739SOL    HW231854   0.532   2.574   2.247  1.6704  1.0049 -0.0136
 6740SOL     OW31855   2.280   0.438  14.102 -0.0786  0.1845  0.2438
 6740SOL    HW131856   2.289   0.494  14.179  0.5753 -0.9834  1.0054
 6740SOL    HW231857   2.368   0.401  14.097  0.2885  1.0611  0.1503
 6741SOL     OW31858   0.867   0.772   6.785  0.0275  0.0614 -0.2357
 6741SOL    HW131859   0.857   0.828   6.707 -1.8385 -2.5208 -1.8553
 6741SOL    HW231860   0.784   0.791   6.830 -0.1344 -1.2948  0.0245
 6742SOL     OW31861   0.432   0.556   9.300 -0.3240  0.5509  0.1407
 6742SOL    HW131862   0.515   0.519   9.269  0.2793  0.6859  1.5926
 6742SOL    HW231863   0.389   0.477   9.331  2.9085 -1.7049 -1.1244
 6743SOL     OW31864   2.345   1.414   4.742 -0.1399 -0.7719  0.0991
 6743SOL    HW131865   2.333   1.319   4.747 -0.3871 -0.7999 -0.8507
 6743SOL    HW231866   2.252   1.436   4.730  0.2423 -0.1620 -1.7305
 6744SOL     OW31867   1.916   1.604   3.778  0.0887  0.6220 -0.3667
 6744SOL    HW131868   1.834   1.645   3.806 -0.5129  0.8947 -2.4670
 6744SOL    HW231869   1.933   1.546   3.851 -1.8738  1.9792  1.1510
 6745SOL     OW31870   0.974   3.567   5.786 -0.2012  0.4824 -0.4640
 6745SOL    HW131871   1.061   3.536   5.762  1.1237  2.8512  1.3612
 6745SOL    HW231872   0.924   3.516   5.721  0.0130  0.4926 -0.6348
 6746SOL     OW31873   3.080   2.535   8.313  0.9006 -0.4569 -0.4041
 6746SOL    HW131874   3.117   2.480   8.244  2.9053  1.1386 -0.6275
 6746SOL    HW231875   3.125   2.619   8.300 -0.5219  0.0276 -2.1799
 6747SOL     OW31876   2.873   1.498   3.998  0.1347  0.1570  0.2535
 6747SOL    HW131877   2.910   1.585   4.010  0.3939  0.1818 -0.7617
 6747SOL    HW231878   2.948   1.447   4.031 -0.7697  0.2056  2.4202
 6748SOL     OW31879   2.891   0.613   3.211  0.4047 -0.3532  0.2819
 6748SOL    HW131880   2.864   0.562   3.287 -3.4154  1.2372  0.0224
 6748SOL    HW231881   2.885   0.705   3.238 -2.2064  0.1462 -1.9852
 6749SOL     OW31882   1.842   2.940   4.905  0.1920  0.5938 -0.9444
 6749SOL    HW131883   1.750   2.918   4.923  0.4498  0.5800  0.3437
 6749SOL    HW231884   1.866   2.853   4.873  0.2486  0.2716 -0.0212
 6750SOL     OW31885   2.735   3.978   3.664  1.0434 -0.2412  0.2246
 6750SOL    HW131886   2.658   3.992   3.720 -0.9280 -0.8132 -2.3614
 6750SOL    HW231887   2.750   3.884   3.679  1.0898  0.1596  2.7199
 6751SOL     OW31888   0.401   2.941   3.240 -0.5779  0.5071 -0.2880
 6751SOL    HW131889   0.494   2.944   3.218 -0.6186  2.6422 -0.2582
 6751SOL    HW231890   0.373   2.950   3.149  0.9814  1.0080 -0.7206
 6752SOL     OW31891   3.672   1.145  12.834 -0.0395 -0.6678  0.4414
 6752SOL    HW131892   3.719   1.127  12.752 -0.4271  2.5940 -0.4896
 6752SOL    HW231893   3.692   1.237  12.850  2.4212 -0.8290 -1.5584
 6753SOL     OW31894   0.454   3.000   2.628 -0.6020  0.0492 -0.8476
 6753SOL    HW131895   0.368   2.987   2.669  0.1257 -0.2250  0.6058
 6753SOL    HW231896   0.495   2.914   2.631 -1.0046 -0.0275  2.3316
 6754SOL     OW31897   2.257   1.712   6.762 -0.4492 -0.1185 -0.5676
 6754SOL    HW131898   2.229   1.646   6.699 -0.8652  0.9654 -1.5148
 6754SOL    HW231899   2.185   1.713   6.825 -0.9014  1.7496 -1.1209
 6755SOL     OW31900   2.388   4.642  15.243 -0.1083 -0.3865  0.0117
 6755SOL    HW131901   2.469   4.621  15.198 -0.0594 -0.0039 -0.0796
 6755SOL    HW231902   2.417   4.641  15.335 -2.0628 -0.2528  0.6294
 6756SOL     OW31903   2.322   1.765  12.676 -0.7722  0.0078 -0.5597
 6756SOL    HW131904   2.301   1.830  12.742  0.0989 -0.5027  0.2248
 6756SOL    HW231905   2.415   1.755  12.695 -0.6384  0.2559 -1.0761
 6757SOL     OW31906   2.858   1.530  17.547 -0.2164  0.2386 -0.0151
 6757SOL    HW131907   2.851   1.586  17.469  0.3324  1.2058  0.6341
 6757SOL    HW231908   2.810   1.584  17.610 -0.6528  0.0670 -0.1979
 6758SOL     OW31909   3.304   1.805   6.480 -0.0431 -0.2010  0.3422
 6758SOL    HW131910   3.309   1.788   6.575  3.0681 -1.4137 -0.0227
 6758SOL    HW231911   3.269   1.720   6.452  0.5104  0.2026 -1.5717
 6759SOL     OW31912   1.313   2.154   3.046 -0.1191  0.2298 -0.2892
 6759SOL    HW131913   1.332   2.247   3.033 -0.5399  0.7731  3.0781
 6759SOL    HW231914   1.391   2.116   3.004 -0.8666 -1.3201 -0.2859
 6760SOL     OW31915   4.466   1.256   8.681 -0.3372 -0.0750  0.2249
 6760SOL    HW131916   4.445   1.187   8.744 -0.0433 -0.9446 -0.6182
 6760SOL    HW231917   4.508   1.324   8.733  2.4153 -2.3210  0.9784
 6761SOL     OW31918   4.113   0.090   0.262  0.2575  0.1503 -0.5842
 6761SOL    HW131919   4.175   0.123   0.326 -0.6943 -1.6086  1.2378
 6761SOL    HW231920   4.149   0.001   0.254  3.2700  1.2240  1.0574
 6762SOL     OW31921   2.688   0.136  10.613  1.1633  0.3710 -0.1268
 6762SOL    HW131922   2.746   0.075  10.566  1.5800  1.1653 -0.6366
 6762SOL    HW231923   2.647   0.191  10.546  1.6495 -0.0533 -0.7767
 6763SOL     OW31924   4.087   1.966  16.291  0.0669 -0.3073 -0.1746
 6763SOL    HW131925   4.031   2.033  16.330  0.1411 -0.0596 -0.4893
 6763SOL    HW231926   4.147   1.932  16.356 -1.1229  1.3966  1.8088
 6764SOL     OW31927   0.111   1.585  10.890 -0.3384  0.2059 -0.0282
 6764SOL    HW131928   0.194   1.572  10.935 -1.5281 -0.9528  1.8082
 6764SOL    HW231929   0.127   1.541  10.806  1.3833  0.8148 -0.0151
 6765SOL     OW31930   4.734   0.368  13.451 -0.6647  0.3352 -0.0409
 6765SOL    HW131931   4.659   0.417  13.484  0.2355  0.6207  1.5813
 6765SOL    HW231932   4.704   0.277  13.452 -1.6382  0.6523 -0.8933
 6766SOL     OW31933   3.287   3.117  10.867 -0.4845 -0.5805  0.1322
 6766SOL    HW131934   3.320   3.184  10.926  1.5402 -1.1046 -0.4074
 6766SOL    HW231935   3.366   3.070  10.840 -1.4811 -2.3651  0.3220
 6767SOL     OW31936   4.506   1.881   0.364  0.4590 -0.0693 -0.8533
 6767SOL    HW131937   4.499   1.803   0.419  0.2856  2.1806  2.3411
 6767SOL    HW231938   4.417   1.873   0.330  0.1738  0.9480 -0.3449
 6768SOL     OW31939   1.887   3.372  15.586  0.0547  0.1577 -0.4765
 6768SOL    HW131940   1.814   3.429  15.563 -0.2224 -0.0465 -0.0996
 6768SOL    HW231941   1.851   3.324  15.660  0.6441 -1.4683 -1.2524
 6769SOL     OW31942   3.192   2.169   5.779 -0.9435  0.1505  0.0598
 6769SOL    HW131943   3.107   2.170   5.735 -1.6775  1.1672  1.5056
 6769SOL    HW231944   3.167   2.143   5.868 -0.6698  1.0459  0.3910
 6770SOL     OW31945   0.048   0.923  11.269 -0.2111 -0.3676 -0.6288
 6770SOL    HW131946   0.060   1.002  11.216 -1.3367  0.2799  0.0914
 6770SOL    HW231947   0.058   0.957  11.358 -0.0638  0.0435 -0.8004
 6771SOL     OW31948   3.400   1.701   4.710 -0.3222  0.0353  0.0147
 6771SOL    HW131949   3.462   1.752   4.658 -0.6218  0.3565 -0.0318
 6771SOL    HW231950   3.384   1.625   4.653  0.4012  0.4009 -0.6714
 6772SOL     OW31951   4.736   1.502   5.401 -0.1476 -0.4788 -0.2069
 6772SOL    HW131952   4.712   1.594   5.388  0.5617  0.0281  2.0718
 6772SOL    HW231953   4.659   1.458   5.364 -0.3934 -1.3538  1.3378
 6773SOL     OW31954   4.371   4.621   3.066 -0.5211  0.0295  0.0105
 6773SOL    HW131955   4.331   4.656   2.986  1.6211  1.1255 -0.5583
 6773SOL    HW231956   4.445   4.570   3.033 -2.0122 -1.3530 -1.1861
 6774SOL     OW31957   4.255   3.269   5.964  0.4009 -0.0887  0.2578
 6774SOL    HW131958   4.230   3.350   6.008  0.7116 -0.8453  1.8190
 6774SOL    HW231959   4.338   3.246   6.006  0.8163 -0.4007 -0.7443
 6775SOL     OW31960   4.333   3.862   8.015 -0.4188  0.0339 -0.1328
 6775SOL    HW131961   4.323   3.957   8.024 -1.8135 -0.2051  0.9482
 6775SOL    HW231962   4.379   3.852   7.932  1.9006  1.5693  0.9562
 6776SOL     OW31963   3.227   0.005  15.621 -0.1831 -0.2081 -0.2512
 6776SOL    HW131964   3.283   0.077  15.593 -0.2902 -0.0633 -0.0927
 6776SOL    HW231965   3.254   4.681  15.553 -0.3703  0.8454 -1.2630
 6777SOL     OW31966   3.307   3.598  15.022 -0.3148 -0.4596 -0.3787
 6777SOL    HW131967   3.262   3.552  15.092 -1.0449 -1.3546 -1.4432
 6777SOL    HW231968   3.334   3.526  14.965 -0.5107 -0.7809 -0.0586
 6778SOL     OW31969   4.268   1.316   3.897  0.0162  0.3870 -0.4369
 6778SOL    HW131970   4.323   1.289   3.824  0.2735 -0.4482  0.0633
 6778SOL    HW231971   4.320   1.386   3.938  0.6162  0.4505 -1.2908
 6779SOL     OW31972   1.064   2.772  12.509  0.1918  0.0300 -0.1668
 6779SOL    HW131973   1.075   2.867  12.508  0.4191 -0.0057 -0.8622
 6779SOL    HW231974   0.979   2.776  12.553  0.4513 -1.3857  0.4631
 6780SOL     OW31975   2.736   1.955   1.504 -0.0196  0.3829 -0.2166
 6780SOL    HW131976   2.790   1.877   1.519 -1.2534 -0.7011 -1.4744
 6780SOL    HW231977   2.650   1.915   1.512 -0.2580  0.8660 -0.3659
 6781SOL     OW31978   1.828   3.324   4.176  0.2809 -0.1545  0.0802
 6781SOL    HW131979   1.871   3.288   4.099  0.5171  1.1066 -0.3829
 6781SOL    HW231980   1.756   3.261   4.178  0.0457  0.0868 -1.1686
 6782SOL     OW31981   3.325   4.101   1.257 -0.3338 -0.4737 -0.4572
 6782SOL    HW131982   3.312   4.012   1.289 -1.0507 -0.2141 -0.0220
 6782SOL    HW231983   3.360   4.083   1.170 -1.6543  0.0070 -1.0977
 6783SOL     OW31984   4.125   2.124   6.825 -0.5436 -0.0823  0.0719
 6783SOL    HW131985   4.169   2.098   6.744 -1.3250 -1.2513  0.0149
 6783SOL    HW231986   4.107   2.034   6.854  1.0208 -0.7627 -1.0237
 6784SOL     OW31987   1.076   3.941   4.978 -0.3014 -0.2722  0.1950
 6784SOL    HW131988   1.131   3.957   5.055 -1.5849 -0.1597  1.0783
 6784SOL    HW231989   1.143   3.964   4.913 -0.8505  1.4813  0.2658
 6785SOL     OW31990   4.680   3.485  17.681 -0.0838 -0.4371 -1.0454
 6785SOL    HW131991   4.669   3.533  17.600  0.8592  0.2497 -0.7646
 6785SOL    HW231992   0.032   3.451  17.672  1.0371  2.4658 -1.0051
 6786SOL     OW31993   1.015   3.421   2.486  0.7044  0.0134 -0.0256
 6786SOL    HW131994   1.005   3.333   2.450 -1.3374 -0.1442  0.9453
 6786SOL    HW231995   0.937   3.455   2.443  0.7474 -0.1176 -0.2079
 6787SOL     OW31996   0.283   1.940   6.331 -0.0307  0.0964  0.2728
 6787SOL    HW131997   0.315   2.027   6.306 -1.8347  0.9718  1.0477
 6787SOL    HW231998   0.328   1.885   6.266  0.9360  0.4723  0.6258
 6788SOL     OW31999   0.434   0.122   2.998 -0.0066 -0.0463 -0.1824
 6788SOL    HW132000   0.453   0.202   3.045  1.3745 -2.5499  3.4973
 6788SOL    HW232001   0.520   0.095   2.965 -0.4394  0.0161 -1.3630
 6789SOL     OW32002   1.103   3.270   8.299 -0.1060  0.0489 -0.4862
 6789SOL    HW132003   1.163   3.279   8.225  0.6687 -1.3236 -0.0289
 6789SOL    HW232004   1.049   3.197   8.269  0.0990 -0.9662  1.5561
 6790SOL     OW32005   1.828   2.621   6.651  0.5574 -0.3925  0.2781
 6790SOL    HW132006   1.800   2.534   6.620  0.0417 -0.1639  0.1087
 6790SOL    HW232007   1.749   2.635   6.702  0.5222  1.7024 -0.3393
 6791SOL     OW32008   1.639   0.191  12.562  0.3037  0.2421 -0.2516
 6791SOL    HW132009   1.636   0.122  12.628 -0.5297  0.0963 -0.4401
 6791SOL    HW232010   1.730   0.218  12.573  0.3887 -0.2377  0.2236
 6792SOL     OW32011   2.108   3.908   7.487  0.2682  0.4020 -0.2743
 6792SOL    HW132012   2.181   3.936   7.433  0.1699  0.4326 -0.3901
 6792SOL    HW232013   2.033   3.953   7.448  0.7153  1.0803 -0.3508
 6793SOL     OW32014   4.645   2.473   8.309 -0.4883 -0.5588  0.7822
 6793SOL    HW132015   4.686   2.387   8.295  1.1687  0.2138  1.0337
 6793SOL    HW232016   4.556   2.463   8.274 -0.7118  1.0589  0.8876
 6794SOL     OW32017   4.563   1.981   1.990  0.2778 -0.0190 -0.0514
 6794SOL    HW132018   4.610   2.062   2.011 -1.0174  0.5319  0.6861
 6794SOL    HW232019   4.594   1.918   2.056 -0.1315 -1.1815 -0.9611
 6795SOL     OW32020   2.188   3.453   5.741  0.6362  0.1556  0.0485
 6795SOL    HW132021   2.175   3.536   5.786  3.5773  1.2162 -1.0922
 6795SOL    HW232022   2.096   3.432   5.723  1.4903 -0.4689 -3.5481
 6796SOL     OW32023   3.627   4.059   5.642  0.1511 -0.2189 -0.6154
 6796SOL    HW132024   3.710   4.012   5.650 -1.3406 -2.3513  2.0854
 6796SOL    HW232025   3.651   4.147   5.668  2.0663 -0.5448 -1.2629
 6797SOL     OW32026   3.831   3.343   5.550  0.4437  0.4938  0.0389
 6797SOL    HW132027   3.873   3.339   5.636  0.6080 -0.6569 -0.1016
 6797SOL    HW232028   3.887   3.303   5.484  0.8312  0.4694  0.3853
 6798SOL     OW32029   4.549   2.575  11.564 -0.0723  0.0764 -0.5908
 6798SOL    HW132030   4.526   2.610  11.478  2.1462 -0.7371 -1.5071
 6798SOL    HW232031   4.584   2.654  11.605  0.3660 -0.9729  1.0676
 6799SOL     OW32032   1.972   0.341  17.068  0.2485 -0.1943 -0.1264
 6799SOL    HW132033   1.888   0.355  17.024 -0.5407 -3.9489  0.2365
 6799SOL    HW232034   1.943   0.372  17.154 -0.8769  1.1500 -0.9843
 6800SOL     OW32035   0.448   0.784   2.400  0.1462 -0.0470 -0.8733
 6800SOL    HW132036   0.364   0.772   2.445  0.8803  1.9647  1.0365
 6800SOL    HW232037   0.498   0.708   2.429  0.5040  0.3755 -0.3784
 6801SOL     OW32038   1.660   2.391   3.888  0.3414  0.1714  0.4892
 6801SOL    HW132039   1.590   2.437   3.841 -0.8803 -2.9633 -0.7671
 6801SOL    HW232040   1.709   2.353   3.815  0.5759  0.0094  0.7294
 6802SOL     OW32041   0.785   3.137   8.711 -0.0847  0.2603 -0.0738
 6802SOL    HW132042   0.873   3.159   8.744 -0.3264  0.4839  0.4208
 6802SOL    HW232043   0.736   3.207   8.755  1.1046  0.6406  0.6560
 6803SOL     OW32044   2.642   3.303   5.998  0.8740  0.5657 -0.3271
 6803SOL    HW132045   2.646   3.396   6.020 -0.9355  0.6005 -0.1480
 6803SOL    HW232046   2.566   3.299   5.940  1.4321 -2.3700 -0.8657
 6804SOL     OW32047   1.156   4.065  12.891 -0.5825 -0.0364 -0.0488
 6804SOL    HW132048   1.196   4.141  12.849  0.9107 -1.4883 -1.2791
 6804SOL    HW232049   1.066   4.098  12.897  0.1638  1.2980  3.1794
 6805SOL     OW32050   4.666   3.412   6.663 -0.1564  0.4151  0.1405
 6805SOL    HW132051   0.002   3.397   6.723  0.2152  0.2565 -0.3588
 6805SOL    HW232052   4.632   3.497   6.690  0.8969  0.3609  1.6756
 6806SOL     OW32053   4.635   2.184   9.676  0.5098  0.4459 -0.4085
 6806SOL    HW132054   4.712   2.134   9.704  0.2664  0.0357 -0.4644
 6806SOL    HW232055   4.589   2.197   9.759  0.0228 -0.4811 -0.5299
 6807SOL     OW32056   2.694   0.761   7.720 -0.3841  0.0789 -0.1112
 6807SOL    HW132057   2.728   0.776   7.632 -0.9956  1.5106 -0.1008
 6807SOL    HW232058   2.746   0.697   7.769  1.3263  0.4569 -1.4426
 6808SOL     OW32059   2.379   0.568   5.692 -0.1410  0.0537  0.2635
 6808SOL    HW132060   2.336   0.551   5.776  0.2747  0.9219  0.6543
 6808SOL    HW232061   2.449   0.623   5.727  2.1533 -1.0892 -2.5372
 6809SOL     OW32062   1.461   2.912  17.131 -0.0018  0.0361  0.3127
 6809SOL    HW132063   1.410   2.859  17.192 -1.7908  1.0766 -0.2824
 6809SOL    HW232064   1.406   2.990  17.122  0.3134  0.1684 -0.4743
 6810SOL     OW32065   0.344   4.144   2.525  0.4182  0.6750  0.0276
 6810SOL    HW132066   0.277   4.191   2.474 -0.3396 -0.4685 -0.0228
 6810SOL    HW232067   0.361   4.061   2.481  0.0506 -0.0007  1.1701
 6811SOL     OW32068   4.366   0.698   3.753  0.2704  0.4908 -0.0588
 6811SOL    HW132069   4.308   0.755   3.702 -0.0076  0.0880 -0.1953
 6811SOL    HW232070   4.383   0.640   3.679  0.6647  1.3892 -0.6693
 6812SOL     OW32071   3.312   3.015   8.104  0.1698 -0.4050  0.4204
 6812SOL    HW132072   3.337   2.960   8.179  1.5064  0.7939  0.8496
 6812SOL    HW232073   3.368   2.967   8.043  0.3916 -1.6451  1.5928
 6813SOL     OW32074   3.303   2.982   0.841  0.4106 -0.0800  0.2779
 6813SOL    HW132075   3.381   3.026   0.807  0.6231 -0.6910 -0.0278
 6813SOL    HW232076   3.336   2.911   0.897 -1.9292 -0.9025  0.5783
 6814SOL     OW32077   2.518   1.207   8.633 -0.3792  0.0854  0.9169
 6814SOL    HW132078   2.510   1.145   8.561  0.9698  2.1028 -0.9510
 6814SOL    HW232079   2.562   1.156   8.700  0.3251 -0.3918  0.0908
 6815SOL     OW32080   2.880   0.864  12.025  0.0091 -0.2567 -0.2415
 6815SOL    HW132081   2.896   0.947  11.979  0.5927 -0.6057 -0.6643
 6815SOL    HW232082   2.870   0.885  12.118 -2.8681 -2.3689 -0.0901
 6816SOL     OW32083   3.501   2.617   0.099 -0.9596 -0.8461 -0.0449
 6816SOL    HW132084   3.486   2.664   0.017 -1.3710 -1.6707 -0.4447
 6816SOL    HW232085   3.593   2.593   0.102 -1.0729 -1.4054 -0.8595
 6817SOL     OW32086   0.429   0.772   7.734 -0.4721  0.2382 -0.7226
 6817SOL    HW132087   0.391   0.824   7.663 -1.9861  0.8433  0.5249
 6817SOL    HW232088   0.362   0.706   7.753 -0.7496  0.8908  0.6245
 6818SOL     OW32089   1.786   4.255   2.846 -0.1208 -0.4436  0.4921
 6818SOL    HW132090   1.755   4.307   2.921  0.0078  2.0567 -1.1916
 6818SOL    HW232091   1.705   4.251   2.796 -0.9575  0.9189  1.7179
 6819SOL     OW32092   2.456   0.586   1.282 -0.4680  0.0798 -0.1895
 6819SOL    HW132093   2.540   0.622   1.311 -0.4535 -0.3185  0.2588
 6819SOL    HW232094   2.482   0.523   1.215 -1.6580 -1.9016  1.2300
 6820SOL     OW32095   1.287   0.389   8.816  0.2363  0.3210  0.7691
 6820SOL    HW132096   1.265   0.298   8.795 -0.4739  0.8154 -0.6231
 6820SOL    HW232097   1.318   0.380   8.906  2.2793  0.8902  0.1228
 6821SOL     OW32098   3.405   0.346  14.382 -0.4610 -0.2682 -0.0035
 6821SOL    HW132099   3.463   0.281  14.344  1.0403  1.9351 -1.4622
 6821SOL    HW232100   3.317   0.317  14.358  0.3546 -2.3523 -0.4344
 6822SOL     OW32101   4.698   0.764   2.634  0.0384  0.2173 -0.2255
 6822SOL    HW132102   4.603   0.774   2.633  0.2031  1.8050 -0.5959
 6822SOL    HW232103   4.715   0.855   2.660  0.9163 -0.6024  1.9620
 6823SOL     OW32104   1.731   4.660  12.441 -0.3128 -0.0358 -0.4169
 6823SOL    HW132105   1.770   4.583  12.481  0.0149 -0.1580 -0.9811
 6823SOL    HW232106   1.797   4.675  12.374  3.4454 -1.7183  2.9554
 6824SOL     OW32107   1.271   1.666  11.100 -0.6350 -0.0785 -0.0783
 6824SOL    HW132108   1.258   1.575  11.071 -0.9351  0.0630 -0.3724
 6824SOL    HW232109   1.310   1.716  11.029 -2.0639 -0.4913 -1.1687
 6825SOL     OW32110   0.416   1.167   0.378 -0.1963  0.0730 -0.3658
 6825SOL    HW132111   0.432   1.160   0.284 -0.1412  3.0199 -0.5814
 6825SOL    HW232112   0.321   1.178   0.371 -0.0205  1.3874 -0.6455
 6826SOL     OW32113   1.638   3.580   5.643  0.1198  0.1490  0.0446
 6826SOL    HW132114   1.618   3.657   5.590 -0.6096  0.9017  1.4021
 6826SOL    HW232115   1.732   3.590   5.630  0.3703 -1.6574  0.5435
 6827SOL     OW32116   0.808   2.092  14.065  0.4326 -0.3708 -0.5505
 6827SOL    HW132117   0.737   2.030  14.081  1.2242 -1.7126 -2.2750
 6827SOL    HW232118   0.786   2.165  14.123  3.1664  0.3789 -0.4417
 6828SOL     OW32119   2.617   1.340   5.372  0.1460 -0.4161  0.4907
 6828SOL    HW132120   2.692   1.280   5.375 -0.1908 -0.9849 -2.1411
 6828SOL    HW232121   2.541   1.281   5.364 -1.2180  0.9642  3.3980
 6829SOL     OW32122   0.711   4.699   8.210 -0.4940 -0.4364 -0.3508
 6829SOL    HW132123   0.728   4.614   8.168  3.4498  0.4154 -0.5037
 6829SOL    HW232124   0.655   0.006   8.146  0.0729 -0.1164 -0.6287
 6830SOL     OW32125   1.922   1.388   6.105 -0.1860 -0.3124  0.1622
 6830SOL    HW132126   1.975   1.437   6.167  0.1894  1.7194 -1.7290
 6830SOL    HW232127   1.985   1.339   6.052  1.7107  2.9138 -0.5574
 6831SOL     OW32128   3.277   3.352   3.786  0.2062 -0.8575  0.1143
 6831SOL    HW132129   3.187   3.349   3.754  0.5484 -1.5895 -0.7833
 6831SOL    HW232130   3.291   3.262   3.814 -0.7003 -0.1424  2.7719
 6832SOL     OW32131   2.664   1.885   8.619  0.1244 -0.0909 -0.5661
 6832SOL    HW132132   2.596   1.952   8.629  1.7728  1.8990 -2.5766
 6832SOL    HW232133   2.745   1.930   8.645 -0.7351  0.0700  1.8520
 6833SOL     OW32134   3.826   4.517  17.048 -0.2443 -0.2840 -0.0634
 6833SOL    HW132135   3.848   4.478  16.964  0.0307  1.9923 -1.0417
 6833SOL    HW232136   3.770   4.592  17.028  1.1994  0.5586 -0.9268
 6834SOL     OW32137   4.377   2.409   7.994 -0.6229 -0.4728  0.5522
 6834SOL    HW132138   4.326   2.459   7.931 -1.1688 -0.7185  0.7939
 6834SOL    HW232139   4.429   2.355   7.934 -0.2383  1.1756 -0.5877
 6835SOL     OW32140   1.852   3.962  16.959 -0.2649  0.0306 -0.3199
 6835SOL    HW132141   1.861   3.927  17.048 -0.2560 -1.0265 -0.7449
 6835SOL    HW232142   1.929   4.018  16.949 -1.7079  1.8624 -1.1265
 6836SOL     OW32143   3.547   3.090   1.446 -0.3513 -0.3962 -0.4975
 6836SOL    HW132144   3.476   3.091   1.381  0.7844 -1.0665 -1.7315
 6836SOL    HW232145   3.500   3.124   1.523 -0.5955  0.6958 -1.1333
 6837SOL     OW32146   0.939   1.162   7.705 -0.3073 -0.1968  0.2659
 6837SOL    HW132147   0.887   1.198   7.776 -0.1889  0.1666  0.1681
 6837SOL    HW232148   0.872   1.140   7.640 -0.5623  0.6843  0.2348
 6838SOL     OW32149   1.228   0.336   2.811  0.0388 -0.3753 -0.8908
 6838SOL    HW132150   1.153   0.360   2.865  0.1636  1.2661 -1.4625
 6838SOL    HW232151   1.190   0.350   2.724 -2.0772  0.5193  0.1982
 6839SOL     OW32152   0.604   0.667   7.366 -0.6850  0.5074 -0.4175
 6839SOL    HW132153   0.581   0.589   7.315 -0.5914  1.4361 -1.8871
 6839SOL    HW232154   0.638   0.637   7.450 -0.2714 -2.5485 -1.6828
 6840SOL     OW32155   1.864   3.399   5.941  0.5447 -0.4063  0.4564
 6840SOL    HW132156   1.808   3.366   5.870  2.0177 -2.2390  0.1458
 6840SOL    HW232157   1.911   3.467   5.892  0.0985 -1.6105 -1.6875
 6841SOL     OW32158   2.566   4.102  13.570 -0.5844  0.2182 -0.8208
 6841SOL    HW132159   2.547   4.009  13.579  1.2822 -0.3935 -3.2707
 6841SOL    HW232160   2.577   4.121  13.664 -0.8983 -1.3073 -0.4847
 6842SOL     OW32161   0.845   2.270  10.714  0.1914 -0.4342  0.0643
 6842SOL    HW132162   0.841   2.365  10.716 -0.1385 -0.3839 -2.2401
 6842SOL    HW232163   0.776   2.247  10.651  1.0429 -1.7380 -0.3997
 6843SOL     OW32164   3.614   4.378   9.760  0.5093  0.6809 -0.0874
 6843SOL    HW132165   3.689   4.319   9.769 -0.3056 -0.5650 -1.3799
 6843SOL    HW232166   3.640   4.465   9.790 -0.9247  0.6606  1.1976
 6844SOL     OW32167   4.091   0.207   4.644  0.0974 -0.8775  0.1083
 6844SOL    HW132168   4.117   0.277   4.702 -2.8347 -1.1932  1.7877
 6844SOL    HW232169   3.997   0.197   4.659  0.3716 -2.6754  0.6016
 6845SOL     OW32170   1.140   0.186   5.069  0.4023  0.3147  0.1527
 6845SOL    HW132171   1.123   0.279   5.080  1.3940  0.5650 -0.4178
 6845SOL    HW232172   1.053   0.149   5.088  0.0394  0.4877 -1.1783
 6846SOL     OW32173   2.094   3.210   7.341  0.2494 -0.2965 -0.4465
 6846SOL    HW132174   2.158   3.185   7.408 -0.1835 -1.1579 -0.3561
 6846SOL    HW232175   2.076   3.300   7.370  3.5256  0.2197 -0.0481
 6847SOL     OW32176   2.849   0.540  10.536 -0.4834  0.3576  0.4167
 6847SOL    HW132177   2.885   0.628  10.542  1.5255 -0.5830  1.9685
 6847SOL    HW232178   2.871   0.516  10.446 -0.4819 -1.3700  0.8681
 6848SOL     OW32179   1.317   2.530   9.284 -0.2284  0.3123  0.1402
 6848SOL    HW132180   1.254   2.498   9.349 -1.8274 -0.1364 -1.6048
 6848SOL    HW232181   1.308   2.625   9.291  4.2316  0.6381  1.4207
 6849SOL     OW32182   0.752   4.676   5.974  0.2470 -0.1843 -0.0121
 6849SOL    HW132183   0.771   4.681   6.067  1.9717 -3.7170 -0.1722
 6849SOL    HW232184   0.700   0.018   5.959  2.0538  0.5057 -2.6432
 6850SOL     OW32185   1.956   3.152  17.685 -0.2438  0.4174 -0.5267
 6850SOL    HW132186   1.990   3.071  17.724 -0.0455  1.4281  1.3977
 6850SOL    HW232187   1.886   3.182  17.742  0.1203 -0.2293  0.2514
 6851SOL     OW32188   4.433   2.162   0.485 -0.2699  0.7131  0.2187
 6851SOL    HW132189   4.416   2.075   0.449  0.5270  1.8061 -2.8254
 6851SOL    HW232190   4.482   2.137   0.563 -1.7473  0.4422  1.0653
 6852SOL     OW32191   3.166   0.731   2.498 -0.4090 -0.2860  0.3183
 6852SOL    HW132192   3.248   0.777   2.481 -0.7432  0.7918  1.6166
 6852SOL    HW232193   3.180   0.655   2.442  0.4761  0.1857 -0.0986
 6853SOL     OW32194   4.653   1.485   5.103  0.6174  0.0241 -0.0607
 6853SOL    HW132195   4.698   1.546   5.162  2.3621 -1.9482  0.6388
 6853SOL    HW232196   4.611   1.423   5.163  0.5286 -0.7216 -0.9019
 6854SOL     OW32197   2.113   1.964   8.643  0.3470 -0.6907  0.3733
 6854SOL    HW132198   2.060   2.043   8.628 -1.3206 -1.9543 -0.3828
 6854SOL    HW232199   2.171   1.953   8.568  0.6349 -4.0368  1.0922
 6855SOL     OW32200   3.422   4.191   3.417 -0.2423  0.4711 -0.9825
 6855SOL    HW132201   3.397   4.283   3.423 -2.4330 -0.1905  0.1197
 6855SOL    HW232202   3.411   4.165   3.509  0.3097  1.7010 -0.5720
 6856SOL     OW32203   0.094   4.164   1.390  0.1129  0.2292  0.0540
 6856SOL    HW132204   0.128   4.188   1.477 -1.0273  0.1391  0.5263
 6856SOL    HW232205   0.018   4.222   1.395  1.5854  2.1146  0.8499
 6857SOL     OW32206   1.409   1.378   2.528  0.1640  0.2447  0.0321
 6857SOL    HW132207   1.318   1.385   2.497  0.1192 -0.0956  0.0880
 6857SOL    HW232208   1.442   1.467   2.513 -1.0019  0.8650  1.1394
 6858SOL     OW32209   0.723   3.291   5.204 -0.2415  0.0506 -0.0033
 6858SOL    HW132210   0.728   3.230   5.131 -2.0325 -1.1317  0.8662
 6858SOL    HW232211   0.637   3.330   5.183 -0.4757 -0.7147 -0.4741
 6859SOL     OW32212   0.890   1.842   2.512  0.2035 -0.2512 -0.2057
 6859SOL    HW132213   0.965   1.806   2.465  1.7300  1.9589  0.5010
 6859SOL    HW232214   0.878   1.775   2.580 -1.4058 -1.5996 -1.8189
 6860SOL     OW32215   3.114   2.286  17.497  0.2773 -0.3319  0.0700
 6860SOL    HW132216   3.068   2.302  17.415  2.1558  1.7892 -0.5670
 6860SOL    HW232217   3.049   2.236  17.546 -0.5124 -0.3170 -0.9459
 6861SOL     OW32218   3.338   0.626   9.759 -0.1126  0.2118  0.3757
 6861SOL    HW132219   3.266   0.689   9.755  1.3133  1.8048  0.3339
 6861SOL    HW232220   3.343   0.632   9.854 -0.3920 -2.0464  0.5337
 6862SOL     OW32221   2.283   0.488   2.535 -1.1144  0.7945 -0.1119
 6862SOL    HW132222   2.379   0.493   2.531 -1.0132 -2.0088 -0.7007
 6862SOL    HW232223   2.269   0.484   2.630  0.3323 -3.5187 -0.0731
 6863SOL     OW32224   0.582   3.704   6.699 -0.3417  0.3283 -0.0085
 6863SOL    HW132225   0.512   3.743   6.752 -0.8871  1.0203 -1.2571
 6863SOL    HW232226   0.531   3.674   6.625 -2.3931 -0.2814  1.6439
 6864SOL     OW32227   4.586   2.539  15.257  0.2552  0.0258 -0.0436
 6864SOL    HW132228   4.515   2.475  15.265 -0.9342  1.2043 -1.1960
 6864SOL    HW232229   4.631   2.510  15.178 -0.1050 -1.2484  0.2235
 6865SOL     OW32230   0.868   3.172   7.615  0.2280 -0.0225 -0.3442
 6865SOL    HW132231   0.777   3.198   7.632 -0.1802 -0.4440 -1.9124
 6865SOL    HW232232   0.866   3.142   7.525 -1.2952  0.7671 -0.5741
 6866SOL     OW32233   0.286   4.186   4.123  0.0671  0.0652 -0.3509
 6866SOL    HW132234   0.194   4.200   4.142 -0.1558 -0.6922 -0.8682
 6866SOL    HW232235   0.277   4.093   4.100  0.0109  0.4135 -1.7419
 6867SOL     OW32236   2.632   1.428   5.916  0.1650 -0.0476  0.2211
 6867SOL    HW132237   2.723   1.451   5.933 -0.6097  2.4711  0.9391
 6867SOL    HW232238   2.599   1.508   5.875 -0.2519 -0.6842 -0.6927
 6868SOL     OW32239   2.413   0.336   7.968  0.8522  0.1605  0.5431
 6868SOL    HW132240   2.382   0.250   7.997  2.4406 -0.3336  0.8094
 6868SOL    HW232241   2.337   0.358   7.914  0.8283  0.3037  0.6362
 6869SOL     OW32242   3.814   1.390   9.079 -0.1227  0.1393 -0.1261
 6869SOL    HW132243   3.749   1.384   9.149 -0.8909 -2.5095 -1.0867
 6869SOL    HW232244   3.758   1.429   9.012 -1.2580  0.5914  1.0843
 6870SOL     OW32245   3.011   1.680   2.433 -0.4849  0.1434  0.0189
 6870SOL    HW132246   2.998   1.697   2.340  1.8280 -0.8866 -0.5139
 6870SOL    HW232247   2.954   1.745   2.473 -0.2547  0.5952 -0.3825
 6871SOL     OW32248   0.275   1.873   1.266 -0.2031  0.3034  0.4125
 6871SOL    HW132249   0.336   1.934   1.307  1.1322 -1.5745  1.1999
 6871SOL    HW232250   0.316   1.867   1.180 -0.3713 -0.3829  0.3792
 6872SOL     OW32251   3.779   3.350   7.919 -0.4001 -0.4191  0.3247
 6872SOL    HW132252   3.742   3.339   8.007  1.0382  1.8942  1.1999
 6872SOL    HW232253   3.701   3.358   7.864 -0.2950 -2.5264 -0.1271
 6873SOL     OW32254   1.374   2.332   3.709  0.4380  0.3739 -0.0795
 6873SOL    HW132255   1.409   2.412   3.749  2.0445  1.7227 -4.1686
 6873SOL    HW232256   1.426   2.334   3.628 -1.4432 -2.9123 -1.3580
 6874SOL     OW32257   2.685   1.665   6.096  0.0662  0.6895 -0.1132
 6874SOL    HW132258   2.633   1.733   6.140  1.6483  1.0706  1.1742
 6874SOL    HW232259   2.734   1.719   6.034 -1.1365  0.6702 -1.0780
 6875SOL     OW32260   3.074   3.732   2.776  0.2651  0.5359  0.2365
 6875SOL    HW132261   3.140   3.741   2.845  0.6212  1.1746 -0.1883
 6875SOL    HW232262   3.019   3.679   2.833  1.9870 -0.2421  1.1630
 6876SOL     OW32263   4.263   4.503  10.491  0.3026 -0.0067  0.4629
 6876SOL    HW132264   4.261   4.452  10.410 -2.5699 -0.3583  0.7625
 6876SOL    HW232265   4.173   4.499  10.524  0.1615 -1.0215 -0.0389
 6877SOL     OW32266   1.107   0.352   8.457  0.1107 -0.4855  0.0502
 6877SOL    HW132267   1.119   0.439   8.419 -1.8800 -0.3091 -0.1841
 6877SOL    HW232268   1.050   0.373   8.531  0.8505  2.5947 -0.2596
 6878SOL     OW32269   1.414   2.607  12.372  0.0194 -0.2677  0.6213
 6878SOL    HW132270   1.344   2.594  12.436 -0.8553 -1.9995 -0.6683
 6878SOL    HW232271   1.359   2.648  12.304 -1.3129  1.2390  2.6067
 6879SOL     OW32272   1.083   3.522   0.818  0.3442 -0.5397 -0.4306
 6879SOL    HW132273   1.077   3.461   0.745  0.9318 -1.2761  0.1458
 6879SOL    HW232274   1.173   3.549   0.802  1.2097 -2.0907  1.7795
 6880SOL     OW32275   1.052   1.273   3.474  0.0713 -0.2201  0.5827
 6880SOL    HW132276   1.097   1.357   3.466  0.2586 -0.3006  0.7980
 6880SOL    HW232277   1.098   1.237   3.549  0.3415  0.6787  0.8556
 6881SOL     OW32278   3.561   1.141   5.811  0.0475  0.1971  0.3455
 6881SOL    HW132279   3.489   1.183   5.763 -0.7033  0.8273  2.0254
 6881SOL    HW232280   3.587   1.206   5.877  0.8567  0.9651 -0.7251
 6882SOL     OW32281   2.484   0.079   2.276  0.0025 -0.6607 -0.2095
 6882SOL    HW132282   2.518   0.021   2.343  1.1246 -0.9055 -0.9997
 6882SOL    HW232283   2.396   0.101   2.308  0.6456  0.7951  0.5477
 6883SOL     OW32284   3.135   3.712   3.554  0.6975 -0.1305 -0.0728
 6883SOL    HW132285   3.119   3.806   3.558 -0.7118 -0.4613  2.0313
 6883SOL    HW232286   3.097   3.678   3.635 -1.1052 -0.9334 -1.2613
 6884SOL     OW32287   2.880   4.597  14.995 -0.2402  0.0980  0.4661
 6884SOL    HW132288   2.945   4.637  15.053 -0.5883  0.4850  0.5877
 6884SOL    HW232289   2.879   4.507  15.028  0.7922 -0.3922 -0.8151
 6885SOL     OW32290   1.613   2.617  13.919 -0.4048  0.4119 -0.3233
 6885SOL    HW132291   1.608   2.673  13.842  1.2981  2.1651  0.8343
 6885SOL    HW232292   1.704   2.628  13.946 -0.2834  0.4194 -0.7353
 6886SOL     OW32293   1.022   4.356   7.977  0.4214 -0.7097 -0.4033
 6886SOL    HW132294   1.107   4.378   7.938  0.2328  0.4884 -0.1428
 6886SOL    HW232295   0.955   4.379   7.912  0.2893  3.1114  1.0754
 6887SOL     OW32296   3.577   3.108   0.543 -0.6640  0.9751  0.3258
 6887SOL    HW132297   3.631   3.121   0.466 -2.1095 -1.4846 -1.0845
 6887SOL    HW232298   3.495   3.145   0.509 -0.4469  1.5258  0.4101
 6888SOL     OW32299   4.653   3.309  17.301 -0.3450  0.1588  0.3143
 6888SOL    HW132300   4.733   3.259  17.316 -1.0590 -1.5674 -1.8161
 6888SOL    HW232301   4.608   3.243  17.249 -0.2585 -0.4057  0.9611
 6889SOL     OW32302   3.357   0.121   9.614  0.2201  0.3890 -0.0694
 6889SOL    HW132303   3.428   0.185   9.611 -0.0170  0.5593 -2.1320
 6889SOL    HW232304   3.296   0.163   9.554  0.5403  0.6698 -0.1959
 6890SOL     OW32305   4.320   1.695   7.645 -0.3033  0.9083 -0.0455
 6890SOL    HW132306   4.410   1.698   7.612 -0.7727  0.0765 -1.3704
 6890SOL    HW232307   4.267   1.707   7.566 -2.0497 -0.7587  0.8651
 6891SOL     OW32308   1.521   1.789   3.632  0.0919  0.4515 -0.1845
 6891SOL    HW132309   1.565   1.872   3.611 -1.6265  1.7703  1.4559
 6891SOL    HW232310   1.471   1.761   3.555 -0.9398 -1.0315  1.0451
 6892SOL     OW32311   2.327   3.526  15.396  0.2076  0.4107 -0.3811
 6892SOL    HW132312   2.373   3.515  15.479 -1.6026 -1.8462  0.3051
 6892SOL    HW232313   2.396   3.502  15.333 -0.8436  1.0033 -1.7565
 6893SOL     OW32314   0.035   1.897   3.314 -0.3487  0.7070  0.5427
 6893SOL    HW132315   4.705   1.919   3.251 -0.5254  0.6562  0.7145
 6893SOL    HW232316   0.020   1.804   3.328 -1.0464  0.9925  1.7068
 6894SOL     OW32317   0.447   0.352  11.662 -0.2905 -0.2378  0.0319
 6894SOL    HW132318   0.390   0.301  11.719 -0.3907  0.5910  0.6697
 6894SOL    HW232319   0.388   0.417  11.623  0.4595  1.6001  1.9415
 6895SOL     OW32320   3.424   3.015   5.294  0.5566 -0.1625 -0.1665
 6895SOL    HW132321   3.381   2.935   5.323  0.3454  1.1544  3.2557
 6895SOL    HW232322   3.505   2.979   5.259  0.7618  0.9357 -0.8373
 6896SOL     OW32323   3.676   4.303   4.537  0.1920 -0.1504 -0.3034
 6896SOL    HW132324   3.732   4.377   4.512 -0.3688  1.1297  2.2889
 6896SOL    HW232325   3.729   4.252   4.598  0.3716 -0.2691 -0.5561
 6897SOL     OW32326   0.483   1.973  13.588  0.0580  0.1319 -0.6162
 6897SOL    HW132327   0.561   1.958  13.640 -0.6292  2.6455  1.1309
 6897SOL    HW232328   0.514   2.029  13.516  0.8838  0.6994  0.1898
 6898SOL     OW32329   2.655   1.791   9.952 -0.1568  0.3265 -0.3294
 6898SOL    HW132330   2.601   1.869   9.937 -0.1771  0.3932  0.1001
 6898SOL    HW232331   2.596   1.717   9.962  0.3696 -0.2333 -1.3596
 6899SOL     OW32332   3.168   2.356   0.121 -0.4771  0.0162  0.0038
 6899SOL    HW132333   3.102   2.289   0.141 -0.5424  1.2017  3.6730
 6899SOL    HW232334   3.243   2.314   0.161 -0.1287  0.3378 -0.3126
 6900SOL     OW32335   4.035   2.647  17.565 -0.1794  0.0181 -0.1902
 6900SOL    HW132336   3.987   2.703  17.627 -0.2643 -2.6550  2.1553
 6900SOL    HW232337   4.118   2.626  17.607 -1.3542 -0.8856  1.6773
 6901SOL     OW32338   2.078   4.506  13.389 -0.1683  0.3508  0.2238
 6901SOL    HW132339   2.162   4.496  13.433  0.2392  0.9545 -0.4203
 6901SOL    HW232340   2.110   4.482  13.301 -0.7888  0.4281 -0.0234
 6902SOL     OW32341   0.542   0.155   5.643  0.4049  0.0453 -0.3975
 6902SOL    HW132342   0.535   0.166   5.548 -2.6071  2.8282  0.1420
 6902SOL    HW232343   0.517   0.239   5.682 -0.1283 -0.1630 -0.2872
 6903SOL     OW32344   1.877   4.460  10.378 -0.2969 -0.2559 -0.1459
 6903SOL    HW132345   1.824   4.384  10.353  0.0280 -0.2226 -0.9347
 6903SOL    HW232346   1.969   4.445  10.356  0.1055  0.2336  1.2774
 6904SOL     OW32347   3.502   3.983  14.851  0.4026  0.0806 -0.0161
 6904SOL    HW132348   3.420   3.975  14.802  0.7776  1.0093 -0.8264
 6904SOL    HW232349   3.570   4.006  14.786 -2.5093  3.4656 -1.8718
 6905SOL     OW32350   0.317   3.538  15.991  0.1623 -0.5428  0.6137
 6905SOL    HW132351   0.250   3.604  15.972  1.2854 -0.1941 -2.0924
 6905SOL    HW232352   0.386   3.592  16.027 -1.1521  1.1301  0.6186
 6906SOL     OW32353   1.321   1.483   3.255  0.2875 -1.1706  0.2577
 6906SOL    HW132354   1.380   1.510   3.185 -0.6442  1.2165  0.3922
 6906SOL    HW232355   1.347   1.393   3.273  2.4390 -0.5161  0.4269
 6907SOL     OW32356   2.222   1.834  16.520  0.0726  0.7444  0.4787
 6907SOL    HW132357   2.225   1.808  16.428  2.1216  0.1840  0.7040
 6907SOL    HW232358   2.215   1.743  16.548  0.4649  0.7000  0.4331
 6908SOL     OW32359   3.230   3.600   4.634  0.1987  0.2671  0.0015
 6908SOL    HW132360   3.165   3.582   4.702  0.1317 -1.3706 -0.5108
 6908SOL    HW232361   3.258   3.688   4.662 -0.8528  0.2065  1.2377
 6909SOL     OW32362   4.233   2.277   7.127 -0.2818  0.5028 -0.0981
 6909SOL    HW132363   4.171   2.279   7.054  0.9402 -0.5815 -1.1586
 6909SOL    HW232364   4.200   2.194   7.161 -1.0872  0.9882  0.3281
 6910SOL     OW32365   0.685   2.730   5.753 -0.5093 -0.0905  0.4862
 6910SOL    HW132366   0.734   2.677   5.691 -1.3796  0.6994 -0.8680
 6910SOL    HW232367   0.705   2.686   5.836  0.9257 -0.7078 -0.2002
 6911SOL     OW32368   2.544   0.889   9.419  0.5727  0.1180  0.0706
 6911SOL    HW132369   2.475   0.947   9.388  0.1220 -1.2631 -1.5389
 6911SOL    HW232370   2.484   0.824   9.455  0.1488 -0.3316 -1.4371
 6912SOL     OW32371   3.943   3.426   0.557  0.2684  0.2973 -0.4242
 6912SOL    HW132372   3.947   3.492   0.487 -1.9554 -0.1291 -0.9526
 6912SOL    HW232373   4.034   3.396   0.554 -0.2739 -1.0932 -3.3087
 6913SOL     OW32374   2.812   3.809   9.023 -0.0867  0.0591 -0.0342
 6913SOL    HW132375   2.887   3.761   9.058 -0.0143  0.0993 -0.1334
 6913SOL    HW232376   2.848   3.872   8.960  0.2370 -0.9872 -0.8942
 6914SOL     OW32377   2.627   4.463  15.304 -0.0060  0.1327  0.1322
 6914SOL    HW132378   2.614   4.385  15.249 -0.5926  0.2173  0.1503
 6914SOL    HW232379   2.650   4.527  15.237 -2.1714  0.0946 -0.6578
 6915SOL     OW32380   2.688   2.574   3.400 -0.6557  0.3900  0.0010
 6915SOL    HW132381   2.753   2.580   3.330 -2.0951  0.8527 -1.2849
 6915SOL    HW232382   2.603   2.593   3.360 -0.8930  1.2476  0.9026
 6916SOL     OW32383   2.083   3.768   8.163  0.0416  0.2240 -0.0818
 6916SOL    HW132384   2.055   3.686   8.203  0.7066 -0.2841 -0.6574
 6916SOL    HW232385   2.134   3.725   8.095 -1.1876  1.6218 -1.8726
 6917SOL     OW32386   2.533   1.241   9.622 -0.0252  0.1713 -0.7460
 6917SOL    HW132387   2.610   1.198   9.585 -0.2150  0.4441 -1.4647
 6917SOL    HW232388   2.569   1.316   9.671  0.1834  0.8025 -1.8619
 6918SOL     OW32389   2.947   1.092   0.486  0.6119  0.0055 -0.1273
 6918SOL    HW132390   2.989   1.052   0.562 -0.6644  0.9558  1.0935
 6918SOL    HW232391   2.964   1.184   0.506 -0.9029  0.5985 -1.6098
 6919SOL     OW32392   1.279   2.072   4.990 -0.7184  0.4817 -0.2001
 6919SOL    HW132393   1.263   2.085   5.083  3.3762 -1.4572  0.7919
 6919SOL    HW232394   1.330   2.150   4.967 -0.3815 -0.0307 -1.2013
 6920SOL     OW32395   2.607   1.613   0.586 -0.7267 -0.1832  0.0276
 6920SOL    HW132396   2.512   1.620   0.575 -0.6506  1.1782  0.2963
 6920SOL    HW232397   2.637   1.645   0.501 -0.2444 -1.0075 -0.1082
 6921SOL     OW32398   4.157   2.443  11.910 -0.0209 -0.4916  0.1729
 6921SOL    HW132399   4.222   2.373  11.907  2.4518  1.8788 -1.1769
 6921SOL    HW232400   4.093   2.404  11.970  0.5725  0.7117  1.5901
 6922SOL     OW32401   3.928   2.890  15.658  0.4867  0.0938 -0.1574
 6922SOL    HW132402   3.920   2.798  15.685 -2.1696 -0.1766 -1.8920
 6922SOL    HW232403   4.021   2.908  15.671  0.7161 -1.1637 -0.0435
 6923SOL     OW32404   0.342   0.124   6.190 -0.0598  0.1456  0.4025
 6923SOL    HW132405   0.429   0.162   6.202  0.4323 -0.2852 -1.8541
 6923SOL    HW232406   0.314   0.128   6.281  0.5289  1.5894  0.5256
 6924SOL     OW32407   1.208   0.839   6.803 -0.3652 -0.6739  0.3088
 6924SOL    HW132408   1.169   0.754   6.823 -0.8652 -0.8563 -1.4836
 6924SOL    HW232409   1.163   0.853   6.720 -0.7904 -2.1117  0.2937
 6925SOL     OW32410   1.178   2.680   5.195 -0.0210  0.1834 -0.6206
 6925SOL    HW132411   1.176   2.738   5.119  1.5608  1.9165  0.6576
 6925SOL    HW232412   1.087   2.652   5.187 -0.2590  0.9772 -0.7620
 6926SOL     OW32413   1.460   0.880  12.921 -0.1868 -0.1091  0.1712
 6926SOL    HW132414   1.487   0.948  12.981  0.3270  0.6047 -0.8647
 6926SOL    HW232415   1.445   0.813  12.987 -1.3285 -0.5289 -0.5060
 6927SOL     OW32416   3.558   3.599  17.377 -0.4631 -0.1888  0.3162
 6927SOL    HW132417   3.560   3.527  17.441 -0.4573 -0.0792  0.4387
 6927SOL    HW232418   3.542   3.676  17.431 -1.0141 -0.4415  0.5116
 6928SOL     OW32419   0.782   0.472   9.670  0.2146 -0.1028  0.2930
 6928SOL    HW132420   0.749   0.559   9.649 -1.1815 -0.7385 -0.1308
 6928SOL    HW232421   0.833   0.443   9.594 -0.2690 -0.0699 -0.0422
 6929SOL     OW32422   1.108   2.621   8.472  0.0714 -0.5393  0.4933
 6929SOL    HW132423   1.183   2.642   8.527 -0.7283  2.1787  0.5414
 6929SOL    HW232424   1.138   2.535   8.444 -0.6619 -1.1641  1.6283
 6930SOL     OW32425   1.468   3.472   8.266 -0.4798 -0.4202 -0.2236
 6930SOL    HW132426   1.510   3.549   8.228 -1.9905  1.3224  1.6307
 6930SOL    HW232427   1.386   3.518   8.288  0.2950  2.3306 -3.0877
 6931SOL     OW32428   0.916   1.813   6.477 -0.1100  0.0689  0.0382
 6931SOL    HW132429   0.961   1.894   6.500 -0.9897  0.2445  1.1615
 6931SOL    HW232430   0.979   1.743   6.495 -0.1409  0.4023  1.4669
 6932SOL     OW32431   2.423   4.267   7.004  0.5203  0.2674 -0.8601
 6932SOL    HW132432   2.412   4.184   6.960  0.3955  0.1811 -0.6671
 6932SOL    HW232433   2.449   4.325   6.933  1.8294  0.1835 -0.4553
 6933SOL     OW32434   1.745   0.854   5.961 -0.0496 -0.2336 -0.2758
 6933SOL    HW132435   1.657   0.820   5.946 -0.2138  0.0375  0.0670
 6933SOL    HW232436   1.749   0.855   6.056 -0.4014  0.7915 -0.2767
 6934SOL     OW32437   3.930   0.804   5.177 -0.1963 -0.4198  0.2794
 6934SOL    HW132438   3.948   0.867   5.246  0.6860 -0.9396  0.5294
 6934SOL    HW232439   3.838   0.829   5.173  0.3313  1.8107  2.3114
 6935SOL     OW32440   3.958   0.001   5.206 -0.3779 -0.1806  0.2500
 6935SOL    HW132441   3.921   0.067   5.264  0.9110  0.1995  0.6182
 6935SOL    HW232442   3.965   0.055   5.127  0.3543  0.0238  0.4609
 6936SOL     OW32443   4.361   2.235   6.441 -0.1766 -0.1532  0.3823
 6936SOL    HW132444   4.303   2.283   6.382  1.0040  0.6717 -0.1189
 6936SOL    HW232445   4.386   2.312   6.493 -1.6875  0.1961  0.5939
 6937SOL     OW32446   1.379   4.229   7.816  0.4725 -0.3379 -0.4674
 6937SOL    HW132447   1.357   4.189   7.900 -0.4053  3.0056  0.8710
 6937SOL    HW232448   1.341   4.316   7.821  2.4382  0.6407 -2.3193
 6938SOL     OW32449   3.723   1.546  14.467 -0.1943  0.2578  0.1545
 6938SOL    HW132450   3.710   1.457  14.501 -1.6249  0.4802  0.1695
 6938SOL    HW232451   3.631   1.571  14.462 -0.0847  0.7569  0.7380
 6939SOL     OW32452   0.450   1.244   3.642 -0.2382 -0.2285 -0.6615
 6939SOL    HW132453   0.422   1.245   3.733 -0.5797 -2.2689 -0.7303
 6939SOL    HW232454   0.407   1.167   3.603 -0.5879  0.6581 -2.0247
 6940SOL     OW32455   0.355   3.418   2.274 -0.0547  0.0251 -0.5664
 6940SOL    HW132456   0.294   3.429   2.201 -0.9233 -0.3545  0.1018
 6940SOL    HW232457   0.333   3.328   2.299  0.8931 -0.2993 -0.8837
 6941SOL     OW32458   0.530   1.755   9.992  0.6361 -0.3819  0.0662
 6941SOL    HW132459   0.508   1.750   9.899  5.7863 -1.8602 -1.0518
 6941SOL    HW232460   0.625   1.758   9.988  0.5468  1.7420 -0.8781
 6942SOL     OW32461   2.953   4.190   1.779  0.0662  0.6499  0.8792
 6942SOL    HW132462   3.011   4.117   1.759 -1.8828 -0.4331 -0.7863
 6942SOL    HW232463   2.999   4.230   1.853 -0.5324 -1.0008  2.1493
 6943SOL     OW32464   3.641   0.124   9.798  0.4637 -0.2110 -0.0996
 6943SOL    HW132465   3.596   0.107   9.880 -1.5542  0.6368 -1.0244
 6943SOL    HW232466   3.589   0.194   9.758 -1.2481 -1.9393 -0.9409
 6944SOL     OW32467   0.706   1.955  16.304 -0.1859  0.3394  0.5184
 6944SOL    HW132468   0.628   2.011  16.296 -0.2682 -0.0013 -0.9864
 6944SOL    HW232469   0.673   1.866  16.298 -2.1037  0.9749  1.4402
 6945SOL     OW32470   4.579   2.665   8.064  0.4340  0.0579 -0.4088
 6945SOL    HW132471   4.541   2.646   8.150 -1.1008 -0.7194 -1.2573
 6945SOL    HW232472   4.499   2.666   8.012  0.7510 -3.7777 -0.9424
 6946SOL     OW32473   4.381   1.974  13.419 -0.1790 -0.4284  0.0418
 6946SOL    HW132474   4.457   2.003  13.368 -1.0688 -0.8451 -1.5075
 6946SOL    HW232475   4.435   1.952  13.495  1.1364  1.7050 -0.2424
 6947SOL     OW32476   0.704   1.648   6.530  0.7412 -0.1822 -0.5725
 6947SOL    HW132477   0.667   1.624   6.445 -0.9265 -3.0796  0.9639
 6947SOL    HW232478   0.774   1.703   6.496 -0.0311  0.7974 -0.5778
 6948SOL     OW32479   2.542   3.011   1.215 -0.0016  0.7128  0.4071
 6948SOL    HW132480   2.600   3.075   1.256 -0.6200  0.3865  1.7968
 6948SOL    HW232481   2.504   3.059   1.141 -1.7442  0.9115  1.4266
 6949SOL     OW32482   1.976   3.253   0.898  0.0116  0.2081  0.1244
 6949SOL    HW132483   1.935   3.193   0.836  1.2250 -2.6693  2.1144
 6949SOL    HW232484   1.967   3.339   0.857 -0.5658  0.9506  1.7812
 6950SOL     OW32485   3.479   3.843   4.196  0.3131 -0.0111  0.6535
 6950SOL    HW132486   3.516   3.917   4.148 -1.1403  0.5127  0.3408
 6950SOL    HW232487   3.504   3.858   4.288 -1.1929 -1.5516  1.3106
 6951SOL     OW32488   3.044   4.606  15.206 -0.5384 -0.1667 -0.1449
 6951SOL    HW132489   3.126   4.586  15.251  0.7816  2.4415 -1.4057
 6951SOL    HW232490   3.012   4.516  15.194  2.1025 -1.2114  0.6791
 6952SOL     OW32491   2.337   3.785   8.412  0.0175  0.0246  0.1825
 6952SOL    HW132492   2.411   3.796   8.352  0.5862 -0.8336  0.7304
 6952SOL    HW232493   2.290   3.707   8.382  0.2082 -0.1050  0.2206
 6953SOL     OW32494   1.815   1.514   6.549 -0.4312 -0.1158  0.0424
 6953SOL    HW132495   1.815   1.427   6.510 -1.3612 -0.2108  0.2465
 6953SOL    HW232496   1.721   1.534   6.558 -0.5264  0.9795 -3.5414
 6954SOL     OW32497   2.448   2.229  12.805 -0.8146 -0.3721 -0.1541
 6954SOL    HW132498   2.416   2.276  12.727 -0.9673  1.0060  0.7382
 6954SOL    HW232499   2.528   2.189  12.771 -1.3075 -0.0240 -1.7367
 6955SOL     OW32500   2.788   2.920   1.437 -0.7517  0.1762 -0.0173
 6955SOL    HW132501   2.740   2.861   1.379  0.7637  0.7293 -1.8697
 6955SOL    HW232502   2.866   2.866   1.453 -0.3856  0.3742 -1.1314
 6956SOL     OW32503   0.410   3.290   8.235 -0.3121  0.0635 -0.3921
 6956SOL    HW132504   0.446   3.263   8.151  0.4229 -0.6643  0.1624
 6956SOL    HW232505   0.322   3.258   8.214 -0.6945 -0.5002  2.0762
 6957SOL     OW32506   2.422   3.982   2.041 -0.2757 -0.2403  0.2586
 6957SOL    HW132507   2.419   4.054   2.104  1.1670  0.2041 -0.1630
 6957SOL    HW232508   2.379   4.019   1.964 -0.9128  1.4666  1.4403
 6958SOL     OW32509   2.743   0.106   7.140  0.1334  0.0539 -0.4858
 6958SOL    HW132510   2.742   0.118   7.045 -3.3054 -1.1558 -0.5957
 6958SOL    HW232511   2.724   0.197   7.164  0.0540 -0.2741  0.6576
 6959SOL     OW32512   0.130   3.490  13.961  1.2115  0.2627  0.8836
 6959SOL    HW132513   0.162   3.441  14.037  0.1255 -1.6299  0.1329
 6959SOL    HW232514   0.151   3.574  14.002 -1.0581  1.8554 -1.1834
 6960SOL     OW32515   4.294   4.353   2.006  0.1554  0.0568 -0.2013
 6960SOL    HW132516   4.377   4.321   2.042  0.2066  0.7657  0.3054
 6960SOL    HW232517   4.231   4.348   2.077  1.7929 -0.0383  1.2572
 6961SOL     OW32518   4.705   3.791   6.060 -0.2311 -0.5523 -0.3931
 6961SOL    HW132519   0.005   3.856   6.001  2.2136 -0.6940  1.0356
 6961SOL    HW232520   4.639   3.754   6.002 -0.3118  0.7116 -1.1098
 6962SOL     OW32521   1.689   1.725   7.278  0.5206  0.0031 -0.3898
 6962SOL    HW132522   1.643   1.779   7.213 -1.8097  1.3505  2.4085
 6962SOL    HW232523   1.761   1.781   7.305 -0.9742  1.6054  0.2385
 6963SOL     OW32524   0.026   0.290  11.357 -0.2131 -0.2368 -0.5989
 6963SOL    HW132525   0.103   0.233  11.344 -1.0098 -1.4943  0.1415
 6963SOL    HW232526   0.050   0.321  11.444  0.9866  0.8474 -1.3236
 6964SOL     OW32527   0.382   2.465   2.526 -0.2452  0.2264  0.1485
 6964SOL    HW132528   0.347   2.458   2.614 -0.4613  0.6106  0.0933
 6964SOL    HW232529   0.303   2.436   2.479 -0.8908  1.2351  0.6177
 6965SOL     OW32530   4.159   0.276   3.176  0.3191  0.2317  0.2500
 6965SOL    HW132531   4.248   0.291   3.142  0.1403 -2.5576 -1.4098
 6965SOL    HW232532   4.138   0.369   3.177 -1.2616 -0.1219 -0.2367
 6966SOL     OW32533   4.281   2.855   5.732  0.2949  0.0763 -0.4556
 6966SOL    HW132534   4.312   2.779   5.781 -2.3495 -0.6705  0.0531
 6966SOL    HW232535   4.284   2.805   5.651 -0.8424 -0.3301 -0.2451
 6967SOL     OW32536   4.458   0.003   6.669 -0.2300  0.3174 -0.3564
 6967SOL    HW132537   4.365   4.723   6.657 -0.7854  3.3072 -0.4307
 6967SOL    HW232538   4.469   4.718   6.761 -1.0104 -3.3548 -1.1937
 6968SOL     OW32539   1.471   3.838   6.215 -0.7039  0.4263 -0.4544
 6968SOL    HW132540   1.396   3.819   6.159 -0.0291  2.6764 -2.1145
 6968SOL    HW232541   1.472   3.934   6.215 -0.1464  0.4155 -1.8332
 6969SOL     OW32542   0.880   3.224   3.066  0.1653  0.1160  0.2450
 6969SOL    HW132543   0.920   3.256   2.985 -0.1074 -0.0890  0.0262
 6969SOL    HW232544   0.940   3.156   3.097 -0.1368  0.0842  0.7535
 6970SOL     OW32545   0.621   2.585   2.904  0.0371  0.2705  0.5590
 6970SOL    HW132546   0.613   2.490   2.895  1.2306  0.1738  0.6133
 6970SOL    HW232547   0.547   2.595   2.963  0.5067 -1.5481  1.4562
 6971SOL     OW32548   2.624   0.648   8.769 -0.3769  0.0046 -0.0590
 6971SOL    HW132549   2.617   0.554   8.784 -0.8695  0.5629  3.3081
 6971SOL    HW232550   2.595   0.665   8.859  1.1018  1.2780  0.1905
 6972SOL     OW32551   1.424   3.795  14.613 -0.5522 -0.8240 -0.4200
 6972SOL    HW132552   1.431   3.889  14.625  2.4947 -0.9996 -0.8625
 6972SOL    HW232553   1.367   3.784  14.537  0.7000 -2.6044 -1.1006
 6973SOL     OW32554   2.745   1.451   8.813 -0.1144 -0.7608 -0.4650
 6973SOL    HW132555   2.755   1.443   8.718  1.1416 -5.0306 -0.0097
 6973SOL    HW232556   2.753   1.544   8.831  1.0301 -1.0387  0.4615
 6974SOL     OW32557   2.006   0.715  10.993  0.4906 -0.3151  0.1735
 6974SOL    HW132558   2.067   0.670  10.935  1.2705  4.2248 -2.5609
 6974SOL    HW232559   1.936   0.651  11.002  0.5159 -0.3754 -0.0378
 6975SOL     OW32560   2.208   3.397   7.755  0.1165 -0.0384 -0.2011
 6975SOL    HW132561   2.276   3.352   7.706 -0.1853  0.7719 -1.3729
 6975SOL    HW232562   2.197   3.483   7.714 -2.1430  0.3764  1.2491
 6976SOL     OW32563   4.594   3.045   5.212  0.2430 -0.3211  0.6405
 6976SOL    HW132564   4.688   3.059   5.221  0.5298 -0.8104 -1.7357
 6976SOL    HW232565   4.567   3.021   5.301  1.6515  4.4392  2.3464
 6977SOL     OW32566   1.129   2.696   1.072 -0.9123  0.4292 -0.8057
 6977SOL    HW132567   1.185   2.762   1.031  0.8878 -0.1731  0.7392
 6977SOL    HW232568   1.120   2.721   1.164  2.8930  2.8273 -1.1176
 6978SOL     OW32569   3.376   1.546  12.356 -0.3284  0.4662 -0.0149
 6978SOL    HW132570   3.325   1.536  12.436  1.6089 -1.3734  0.9825
 6978SOL    HW232571   3.460   1.576  12.391 -1.5930  1.3607  2.2918
 6979SOL     OW32572   1.960   3.108   5.104 -0.2829 -0.1675 -0.1252
 6979SOL    HW132573   1.927   3.077   5.020  1.9068  1.1748 -1.4904
 6979SOL    HW232574   1.944   3.027   5.152  2.3355  0.4591  1.8145
 6980SOL     OW32575   2.933   3.788   7.257  0.2123  0.4291  0.6508
 6980SOL    HW132576   2.995   3.860   7.265 -0.5541  1.2984 -1.2605
 6980SOL    HW232577   2.956   3.752   7.343 -1.2845 -1.0924  0.4123
 6981SOL     OW32578   2.322   1.664   0.656  0.1830  0.5041  0.2358
 6981SOL    HW132579   2.276   1.684   0.574 -1.8201  0.3068  1.2999
 6981SOL    HW232580   2.261   1.702   0.719  1.3671  3.7416 -0.5916
 6982SOL     OW32581   3.496   2.086  12.089 -0.3340  0.1224  0.2261
 6982SOL    HW132582   3.474   2.148  12.158  0.0548  1.0556 -0.4849
 6982SOL    HW232583   3.436   2.120  12.022  0.5895 -1.4172 -1.3898
 6983SOL     OW32584   4.517   3.456  10.985  0.1583  0.2205 -0.1753
 6983SOL    HW132585   4.539   3.410  11.066 -0.6629  1.2970  0.6622
 6983SOL    HW232586   4.596   3.479  10.936  0.2702  0.1154 -0.0426
 6984SOL     OW32587   3.834   3.396   5.021  0.7335 -0.5664 -0.0896
 6984SOL    HW132588   3.771   3.424   5.088  1.4314  2.1838 -0.5508
 6984SOL    HW232589   3.901   3.465   5.028 -1.4448  1.5961 -0.4330
 6985SOL     OW32590   0.436   3.892   7.928  0.6800  0.0391  0.2768
 6985SOL    HW132591   0.524   3.906   7.896  1.3340  1.2124  2.5457
 6985SOL    HW232592   0.450   3.905   8.022  1.9666 -0.1348  0.0983
 6986SOL     OW32593   2.532   0.618   4.112 -0.5691  0.0192 -0.2737
 6986SOL    HW132594   2.487   0.629   4.028  0.3072 -1.0922 -0.8824
 6986SOL    HW232595   2.462   0.600   4.176 -1.1277  0.4738 -0.7556
 6987SOL     OW32596   0.607   2.906   7.874 -0.1650 -0.6904 -0.5794
 6987SOL    HW132597   0.688   2.949   7.900 -0.4810 -0.2271 -0.3510
 6987SOL    HW232598   0.547   2.931   7.944 -0.7655 -0.9768 -0.9900
 6988SOL     OW32599   1.863   3.843   0.609  0.0020 -0.4408 -0.1908
 6988SOL    HW132600   1.867   3.822   0.515  0.2241  0.1402 -0.3093
 6988SOL    HW232601   1.934   3.791   0.645 -0.8914 -0.7997  1.0490
 6989SOL     OW32602   1.679   1.493   6.077  0.7227 -0.4242  0.1421
 6989SOL    HW132603   1.769   1.463   6.094  0.1686 -1.1004  1.9471
 6989SOL    HW232604   1.666   1.445   5.995  2.9139 -1.3521  0.3195
 6990SOL     OW32605   2.099   0.042   4.701 -0.6969 -0.8957  0.0492
 6990SOL    HW132606   2.176   0.076   4.657  0.3858 -1.8553  1.1807
 6990SOL    HW232607   2.137   4.696   4.730 -0.4883 -0.1553  1.8850
 6991SOL     OW32608   3.224   0.177   2.659  0.1356 -0.3503  0.1413
 6991SOL    HW132609   3.300   0.131   2.697  0.4466  0.5471  0.6178
 6991SOL    HW232610   3.255   0.261   2.626  0.3641  0.1739  1.6959
 6992SOL     OW32611   4.421   1.517   8.984 -0.2766  0.3672 -0.1702
 6992SOL    HW132612   4.474   1.441   8.960 -0.5832 -0.2955  1.2881
 6992SOL    HW232613   4.479   1.559   9.048  1.1083 -0.1107 -1.0908
 6993SOL     OW32614   2.920   0.483   7.915 -0.4511 -0.7988 -0.4761
 6993SOL    HW132615   2.993   0.493   7.975 -0.4240 -1.1170 -0.4582
 6993SOL    HW232616   2.846   0.526   7.957  1.0379  0.8890  0.4049
 6994SOL     OW32617   4.515   3.671   5.397  0.1783 -0.7220  0.4653
 6994SOL    HW132618   4.451   3.671   5.468 -1.1140  0.3315 -0.6933
 6994SOL    HW232619   4.565   3.592   5.419  0.4272 -0.5543  0.4954
 6995SOL     OW32620   3.805   0.003   8.595 -0.3884  0.2771  0.3573
 6995SOL    HW132621   3.815   4.653   8.557  1.0142  0.5689  0.0318
 6995SOL    HW232622   3.824   4.721   8.687  0.3411 -1.4183 -0.1461
 6996SOL     OW32623   2.677   1.214   8.019 -0.3144 -0.1742 -0.2829
 6996SOL    HW132624   2.716   1.238   8.103  0.5104 -1.2139 -0.3722
 6996SOL    HW232625   2.736   1.150   7.979  1.4043  1.3129 -0.1307
 6997SOL     OW32626   0.146   1.931  17.542 -0.1324  0.5656 -0.0782
 6997SOL    HW132627   0.236   1.902  17.532 -0.3866  0.2354 -1.5068
 6997SOL    HW232628   0.159   1.993  17.613 -1.7478  0.2063  0.5353
 6998SOL     OW32629   3.627   1.556  17.482 -0.7790 -0.1584 -0.0316
 6998SOL    HW132630   3.695   1.599  17.534 -0.6080  0.4075 -0.7118
 6998SOL    HW232631   3.680   1.486  17.443 -0.9289  0.6680 -1.7531
 6999SOL     OW32632   4.384   1.938  15.432 -0.2707  0.2857  0.2559
 6999SOL    HW132633   4.419   1.976  15.513  1.9106 -0.4210 -0.3631
 6999SOL    HW232634   4.291   1.934  15.455 -0.5869  0.7802 -0.9628
 7000SOL     OW32635   3.837   0.962   8.229  0.1470  0.2990  0.0567
 7000SOL    HW132636   3.893   0.948   8.306  0.9334  0.6980 -0.4414
 7000SOL    HW232637   3.878   1.047   8.210 -0.7201  0.8985  0.8581
 7001SOL     OW32638   3.878   4.183   0.724 -0.1468  0.2492 -0.1397
 7001SOL    HW132639   3.872   4.089   0.709  2.0672  0.0462  0.2225
 7001SOL    HW232640   3.836   4.184   0.809 -2.1933  0.0126 -1.1516
 7002SOL     OW32641   2.895   1.894   6.339 -0.2298 -0.3001  0.5687
 7002SOL    HW132642   2.871   1.921   6.427 -0.0213 -0.6877  0.7446
 7002SOL    HW232643   2.884   1.801   6.359  0.5861 -0.9069 -1.7966
 7003SOL     OW32644   4.245   2.034   3.734 -0.3414  0.3767  0.0978
 7003SOL    HW132645   4.213   2.116   3.695  1.3811 -0.3645 -2.9063
 7003SOL    HW232646   4.290   1.987   3.664 -0.7621  0.3457 -0.1551
 7004SOL     OW32647   1.535   0.674   9.728 -0.3157 -0.1501  0.4052
 7004SOL    HW132648   1.542   0.587   9.767 -0.4055  0.4116  1.6965
 7004SOL    HW232649   1.440   0.682   9.717 -0.0331 -0.7146 -2.4534
 7005SOL     OW32650   4.055   0.011   5.616 -0.1786 -0.0759 -0.1992
 7005SOL    HW132651   3.964   4.733   5.593  0.4951 -3.5777 -0.4528
 7005SOL    HW232652   4.069   0.094   5.571  2.3959 -0.2005  0.3768
 7006SOL     OW32653   4.705   3.592   4.005 -0.6402  0.7519  0.0660
 7006SOL    HW132654   4.630   3.643   4.034  0.4884  2.3658  0.1123
 7006SOL    HW232655   4.663   3.520   3.958  0.8933  0.0646 -0.2437
 7007SOL     OW32656   1.665   1.711   8.292 -0.1933  0.0628 -0.4681
 7007SOL    HW132657   1.637   1.713   8.383  0.6519  3.4958 -0.2836
 7007SOL    HW232658   1.591   1.665   8.251 -1.9881  1.3842  1.3077
 7008SOL     OW32659   4.533   4.544  17.059 -0.4250  0.1814 -0.5490
 7008SOL    HW132660   4.463   4.487  17.089 -0.1891  0.5298  0.6740
 7008SOL    HW232661   4.538   4.602  17.135 -0.7557 -0.7630  0.1941
 7009SOL     OW32662   1.930   3.203   4.744 -0.1525  0.1934  0.1053
 7009SOL    HW132663   1.889   3.258   4.811  1.2160 -0.3432  1.3707
 7009SOL    HW232664   1.916   3.116   4.781  0.1048  0.2842  0.4210
 7010SOL     OW32665   1.795   2.923   6.042 -0.0201  0.2375 -0.0051
 7010SOL    HW132666   1.733   2.994   6.057 -0.7265 -0.1291 -1.1159
 7010SOL    HW232667   1.809   2.887   6.129 -0.8366  1.9633  0.8237
 7011SOL     OW32668   3.375   3.089   3.775  0.1731 -0.0354 -0.3078
 7011SOL    HW132669   3.411   3.008   3.738 -0.2510  0.2803 -1.3931
 7011SOL    HW232670   3.331   3.055   3.853  0.9234 -1.4420 -0.4859
 7012SOL     OW32671   3.849   3.026   8.447 -0.0151 -0.5599 -0.8363
 7012SOL    HW132672   3.831   3.013   8.540  1.1376 -0.7222 -0.6305
 7012SOL    HW232673   3.944   3.015   8.449 -0.1195 -1.1193  1.1775
 7013SOL     OW32674   3.100   4.168   2.893  0.1307 -0.4186  0.0545
 7013SOL    HW132675   3.139   4.100   2.837  0.6515 -0.9781  1.1050
 7013SOL    HW232676   3.019   4.171   2.842  0.0470 -1.9993  0.1056
 7014SOL     OW32677   3.932   2.334   3.821 -0.8793  0.2259  0.2223
 7014SOL    HW132678   3.916   2.388   3.744 -3.0638 -0.5517  0.1073
 7014SOL    HW232679   3.842   2.310   3.845 -0.4798  0.2975  1.7779
 7015SOL     OW32680   2.706   4.426   2.387  0.0357 -0.5515 -0.0538
 7015SOL    HW132681   2.780   4.368   2.407  0.4288  0.6223  1.9339
 7015SOL    HW232682   2.721   4.428   2.293  1.2616 -3.4623  0.1012
 7016SOL     OW32683   3.766   1.242  14.704  0.1821 -0.4500 -0.4310
 7016SOL    HW132684   3.711   1.310  14.745  0.6019 -1.4352  1.7719
 7016SOL    HW232685   3.731   1.163  14.745 -0.8248 -1.9469 -4.1521
 7017SOL     OW32686   0.775   0.959  10.643 -0.5383  0.0498 -0.0359
 7017SOL    HW132687   0.848   1.021  10.653  0.4077 -0.8871 -1.0959
 7017SOL    HW232688   0.732   1.003  10.570  1.9545  1.8738 -0.4019
 7018SOL     OW32689   0.464   1.465   7.995 -0.0876  0.3489  1.0891
 7018SOL    HW132690   0.551   1.487   8.028  0.3850  1.3228 -0.8371
 7018SOL    HW232691   0.433   1.555   7.983 -1.6578 -0.6959 -2.7683
 7019SOL     OW32692   2.576   4.184   9.754 -0.0998 -0.2500  0.1280
 7019SOL    HW132693   2.566   4.247   9.683  0.9576  0.2649  0.4355
 7019SOL    HW232694   2.612   4.231   9.830 -0.6862 -1.3187  1.0740
 7020SOL     OW32695   4.551   3.866   4.384 -0.6376 -0.6956 -0.4623
 7020SOL    HW132696   4.619   3.799   4.380 -0.7760 -0.9357  1.1125
 7020SOL    HW232697   4.499   3.838   4.459 -1.3176 -0.3305 -0.7931
 7021SOL     OW32698   1.445   3.312   9.119 -0.0573  0.2491 -0.2724
 7021SOL    HW132699   1.474   3.270   9.200  2.0949  1.8419 -0.2407
 7021SOL    HW232700   1.447   3.406   9.136  1.3069  0.2790 -0.6427
 7022SOL     OW32701   2.661   4.347   4.419  0.4669  0.6000  0.5495
 7022SOL    HW132702   2.590   4.303   4.466  0.4749  0.1147  0.1019
 7022SOL    HW232703   2.714   4.279   4.379 -0.8984 -0.9097  1.3042
 7023SOL     OW32704   4.160   4.282   6.228  0.6330  0.6975 -0.1392
 7023SOL    HW132705   4.130   4.367   6.262  0.8616  0.7270 -0.0083
 7023SOL    HW232706   4.180   4.308   6.139  1.5463  0.8731  0.1147
 7024SOL     OW32707   2.596   1.678   5.798 -0.4629  0.6503 -0.1655
 7024SOL    HW132708   2.533   1.738   5.837 -0.1451 -0.6982  2.4327
 7024SOL    HW232709   2.644   1.737   5.741 -1.4110  0.1873 -1.4495
 7025SOL     OW32710   4.040   3.306   2.134 -0.0482 -0.6068  0.8211
 7025SOL    HW132711   3.947   3.311   2.155 -0.5030 -1.8077 -0.8524
 7025SOL    HW232712   4.036   3.307   2.038  0.0000 -0.1146  0.8247
 7026SOL     OW32713   3.390   0.477   3.126 -0.2105 -0.1978  0.2649
 7026SOL    HW132714   3.386   0.385   3.099 -0.9257  0.1640 -0.8589
 7026SOL    HW232715   3.301   0.505   3.149 -0.4942  1.1681 -2.4897
 7027SOL     OW32716   2.733   0.800   9.721 -0.1503 -0.7088 -0.3463
 7027SOL    HW132717   2.705   0.711   9.745 -0.8701 -0.2150  0.6215
 7027SOL    HW232718   2.658   0.842   9.680  1.6447  0.9594 -1.8807
 7028SOL     OW32719   1.427   0.666   6.090  0.6633  0.2750  0.1558
 7028SOL    HW132720   1.436   0.756   6.057 -1.0777  0.1188 -0.7580
 7028SOL    HW232721   1.383   0.622   6.017  0.5059  1.4502 -0.4559
 7029SOL     OW32722   2.309   3.529   5.297  0.0721  0.2233  0.1429
 7029SOL    HW132723   2.349   3.453   5.256  2.6389  1.3971  0.4645
 7029SOL    HW232724   2.341   3.535   5.387  0.2814  1.8306 -0.0446
 7030SOL     OW32725   2.511   3.962   3.827 -0.6678  0.4438 -0.4588
 7030SOL    HW132726   2.445   3.941   3.762  0.3320 -1.1166 -0.9544
 7030SOL    HW232727   2.510   3.885   3.884  0.1557  0.6191 -0.2047
 7031SOL     OW32728   1.380   0.661   4.916  0.3347  0.3812  0.4428
 7031SOL    HW132729   1.394   0.726   4.847 -1.5974  0.7394  0.3807
 7031SOL    HW232730   1.380   0.703   5.002  0.6352  0.1254  0.5702
 7032SOL     OW32731   2.975   3.602   7.986  0.6235 -0.1799 -0.0638
 7032SOL    HW132732   2.986   3.586   8.079 -0.0130 -3.3744 -0.5505
 7032SOL    HW232733   2.921   3.681   7.987  0.2304 -0.4480 -0.1468
 7033SOL     OW32734   4.229   0.831   5.629  0.2479 -0.1610  1.1450
 7033SOL    HW132735   4.227   0.924   5.650  0.4208 -0.2689  1.6504
 7033SOL    HW232736   4.138   0.815   5.602  1.0237  0.5611 -1.8589
 7034SOL     OW32737   4.147   3.482   8.101  0.3540  0.3087  0.0947
 7034SOL    HW132738   4.090   3.557   8.120  0.8920  1.1086 -1.4866
 7034SOL    HW232739   4.235   3.520   8.110  0.4472  0.3210 -0.9412
 7035SOL     OW32740   0.870   3.358   2.067  0.1878 -0.6523  0.4050
 7035SOL    HW132741   0.813   3.291   2.106 -0.5340  1.6297  3.3223
 7035SOL    HW232742   0.958   3.345   2.102  0.4542  0.3988  0.1269
 7036SOL     OW32743   3.964   3.684   1.080 -0.5497 -0.3463  0.0012
 7036SOL    HW132744   3.948   3.744   1.007 -0.8386 -0.5249 -0.0845
 7036SOL    HW232745   4.055   3.696   1.106  0.1718  0.4896 -2.9589
 7037SOL     OW32746   3.453   1.197  12.638 -0.2789 -0.3755  0.4138
 7037SOL    HW132747   3.509   1.158  12.706  0.2187  1.6845  1.1923
 7037SOL    HW232748   3.443   1.291  12.655  4.3113  0.3905 -0.8604
 7038SOL     OW32749   4.193   0.996   2.654  0.4823  0.7228  0.7387
 7038SOL    HW132750   4.247   0.965   2.581  2.4300  1.7233  1.7863
 7038SOL    HW232751   4.141   1.066   2.614 -0.1975 -0.1811  0.0308
 7039SOL     OW32752   3.651   0.194   4.175  0.1169 -0.1318 -0.1014
 7039SOL    HW132753   3.745   0.189   4.158  1.0301  3.4750  3.9679
 7039SOL    HW232754   3.644   0.275   4.226  0.7151 -0.9297  1.2580
 7040SOL     OW32755   3.184   1.094  12.551 -0.2817 -0.1133  0.0466
 7040SOL    HW132756   3.258   1.152  12.568  0.1768 -0.9789  0.9647
 7040SOL    HW232757   3.197   1.071  12.459  1.0199  0.1527  0.1666
 7041SOL     OW32758   1.355   4.109   0.442 -0.0287 -0.3486  0.3755
 7041SOL    HW132759   1.397   4.148   0.365  0.5353 -0.2598  0.7295
 7041SOL    HW232760   1.296   4.051   0.395  0.3772  0.1451 -0.7342
 7042SOL     OW32761   1.392   1.067   6.842  0.0888  0.6803  0.0665
 7042SOL    HW132762   1.300   1.055   6.864  0.1494 -0.3133 -0.2181
 7042SOL    HW232763   1.406   1.030   6.755 -0.9076 -2.9922  1.4758
 7043SOL     OW32764   3.533   2.193   9.827  0.6253 -0.6416  0.3921
 7043SOL    HW132765   3.534   2.152   9.913 -1.6893  0.0911  0.7729
 7043SOL    HW232766   3.504   2.116   9.777  1.1947 -0.3952 -0.3124
 7044SOL     OW32767   0.946   0.588   1.600  0.0066  0.3848 -0.1238
 7044SOL    HW132768   1.031   0.622   1.629  0.6115  0.5539 -2.0524
 7044SOL    HW232769   0.897   0.593   1.682 -2.3210  0.7433 -1.5362
 7045SOL     OW32770   0.833   0.253   8.328 -0.0179 -0.3954 -0.2189
 7045SOL    HW132771   0.801   0.308   8.400  2.0653 -1.1312  1.2409
 7045SOL    HW232772   0.893   0.304   8.273  1.4489 -1.4451  0.4196
 7046SOL     OW32773   1.429   2.945   6.267 -0.2295  0.3936 -0.2223
 7046SOL    HW132774   1.506   2.974   6.218  0.2518  2.0737  1.5501
 7046SOL    HW232775   1.448   2.858   6.302 -0.5782  0.4215  0.0342
 7047SOL     OW32776   3.495   2.440   3.875  0.1573 -0.0166  0.1716
 7047SOL    HW132777   3.525   2.509   3.816  1.6663 -1.1525 -0.4171
 7047SOL    HW232778   3.404   2.460   3.893 -0.3346 -2.6644  0.6194
 7048SOL     OW32779   3.952   3.079   7.318  0.3210  0.7147  0.3480
 7048SOL    HW132780   4.045   3.073   7.341  0.6175  1.3939 -0.6296
 7048SOL    HW232781   3.955   3.038   7.231 -0.6658 -1.2811  1.2406
 7049SOL     OW32782   4.376   3.792   0.712 -0.2201  0.1344 -0.0062
 7049SOL    HW132783   4.381   3.735   0.789 -0.7782  1.5543  1.0791
 7049SOL    HW232784   4.288   3.779   0.675  0.1195 -0.9083 -0.4466
 7050SOL     OW32785   2.879   0.942   2.589  0.0767  0.5841 -0.0963
 7050SOL    HW132786   2.913   1.002   2.523 -0.5607 -0.2422 -1.1792
 7050SOL    HW232787   2.956   0.900   2.626 -0.7945 -0.4366  0.5860
 7051SOL     OW32788   3.251   1.355   4.827 -0.5568  0.5679  0.5715
 7051SOL    HW132789   3.257   1.286   4.761  0.0116 -0.5138  1.7573
 7051SOL    HW232790   3.164   1.335   4.863 -1.3893  2.6903 -0.2888
 7052SOL     OW32791   0.584   3.091   2.231 -0.1660  0.6580 -0.0391
 7052SOL    HW132792   0.608   3.081   2.139  0.8543 -0.4721  0.3579
 7052SOL    HW232793   0.633   3.017   2.267 -1.0546 -0.3320 -0.8810
 7053SOL     OW32794   1.542   0.049   4.792  0.3171  0.2289  0.2074
 7053SOL    HW132795   1.544   0.116   4.724  1.0054  1.6210  1.5957
 7053SOL    HW232796   1.461   0.079   4.833  1.0633 -0.9936  2.5677
 7054SOL     OW32797   4.633   1.490   7.172  0.1014 -0.2645  0.6970
 7054SOL    HW132798   4.573   1.454   7.106  0.0506  1.8518 -0.3980
 7054SOL    HW232799   4.589   1.460   7.252 -0.6226  1.0980  0.7984
 7055SOL     OW32800   2.476   3.529   9.285 -0.2041  0.7489 -0.2381
 7055SOL    HW132801   2.474   3.624   9.281  2.2116  0.7615 -0.7532
 7055SOL    HW232802   2.422   3.517   9.364  1.9585 -1.7515  0.8478
 7056SOL     OW32803   0.821   3.077  12.336 -0.2076 -0.2758 -0.4147
 7056SOL    HW132804   0.891   3.037  12.388  0.8056  0.7230 -1.0329
 7056SOL    HW232805   0.794   3.160  12.376  1.5858 -1.2912  2.8805
 7057SOL     OW32806   4.479   2.209  11.775 -0.5504 -0.7139 -0.5343
 7057SOL    HW132807   4.493   2.294  11.819  0.6412 -0.6981 -0.9519
 7057SOL    HW232808   4.383   2.211  11.780 -0.3694  1.6848  1.8842
 7058SOL     OW32809   2.786   3.481   9.114 -0.2851 -0.3422 -0.0363
 7058SOL    HW132810   2.819   3.416   9.176  0.1940 -1.3203 -1.3133
 7058SOL    HW232811   2.845   3.556   9.119 -0.8390  0.0554  0.4871
 7059SOL     OW32812   2.589   3.355   2.284 -0.1658  0.1538  0.0251
 7059SOL    HW132813   2.590   3.386   2.375 -0.5210  0.2128  0.0084
 7059SOL    HW232814   2.655   3.286   2.285 -1.7888 -1.4191 -1.7546
 7060SOL     OW32815   3.383   2.197   0.924  0.0460  0.1817  0.3254
 7060SOL    HW132816   3.411   2.112   0.891  0.2543  0.0839  0.7430
 7060SOL    HW232817   3.316   2.229   0.863 -0.1665  1.7743  1.3688
 7061SOL     OW32818   2.171   4.033   4.406 -0.0112 -0.2660 -0.2438
 7061SOL    HW132819   2.119   3.955   4.388 -0.5141 -0.1060  0.4989
 7061SOL    HW232820   2.107   4.103   4.417  0.7659  0.9079 -3.2293
 7062SOL     OW32821   4.648   4.539   9.984  0.0471  0.0117 -0.3966
 7062SOL    HW132822   4.661   4.506  10.073 -0.0418 -0.3736 -0.5247
 7062SOL    HW232823   4.553   4.536   9.973 -0.0294  0.5018  0.1138
 7063SOL     OW32824   3.468   3.491   0.400  0.3446  0.3792 -0.1074
 7063SOL    HW132825   3.559   3.501   0.426  0.0120  2.7201  0.1333
 7063SOL    HW232826   3.459   3.535   0.316  0.6767 -1.9785 -1.3740
 7064SOL     OW32827   0.976   1.977   5.756 -0.3350  0.1829  0.3306
 7064SOL    HW132828   0.990   1.985   5.850  0.1331  1.9284  0.1110
 7064SOL    HW232829   1.063   2.005   5.724 -1.8393  2.6022 -1.6474
 7065SOL     OW32830   4.178   1.500  14.903  0.7477  0.0670  0.3776
 7065SOL    HW132831   4.163   1.424  14.960  0.3023 -1.9634 -2.4433
 7065SOL    HW232832   4.241   1.455  14.847 -0.5274 -2.1254  0.6977
 7066SOL     OW32833   1.067   3.742   5.525  0.4193 -0.1180 -0.6211
 7066SOL    HW132834   1.157   3.712   5.535  0.2053 -0.5088  0.0911
 7066SOL    HW232835   1.066   3.828   5.566  1.7288  0.8924 -2.6841
 7067SOL     OW32836   2.316   0.464  11.299  0.0380 -0.1107  0.3326
 7067SOL    HW132837   2.272   0.427  11.222 -0.0355 -0.7377  0.6760
 7067SOL    HW232838   2.258   0.428  11.366 -0.1472  1.9827  1.2926
 7068SOL     OW32839   3.674   1.454  12.878  0.1525 -0.0219 -0.1095
 7068SOL    HW132840   3.761   1.476  12.845 -0.1034  0.4614 -0.4633
 7068SOL    HW232841   3.614   1.522  12.849  0.7657  0.5865  0.0602
 7069SOL     OW32842   0.608   3.904   6.379  1.1412  0.3295 -0.0820
 7069SOL    HW132843   0.566   3.935   6.459 -0.9922 -0.8662 -0.7431
 7069SOL    HW232844   0.535   3.867   6.330  0.8107  3.0177 -1.6230
 7070SOL     OW32845   2.082   1.926  16.951 -0.2867 -0.2294 -0.3703
 7070SOL    HW132846   2.119   1.850  16.907  2.1782  0.0432  1.2503
 7070SOL    HW232847   2.148   1.941  17.018 -0.2344  0.7938 -0.6462
 7071SOL     OW32848   1.227   4.711   2.552 -0.6730  0.1309 -0.5806
 7071SOL    HW132849   1.191   0.033   2.487  1.2974  2.2915  0.2993
 7071SOL    HW232850   1.283   4.650   2.502  1.8653  1.3148  0.8130
 7072SOL     OW32851   0.772   2.536   0.640  0.2014 -0.2239  0.0371
 7072SOL    HW132852   0.793   2.444   0.624  0.3420  0.0182 -1.1471
 7072SOL    HW232853   0.855   2.569   0.676  0.6923 -0.5141 -0.8306
 7073SOL     OW32854   2.299   2.347   2.414 -0.8954 -0.1290 -0.4127
 7073SOL    HW132855   2.377   2.353   2.358  0.1040 -3.7348  0.5421
 7073SOL    HW232856   2.339   2.303   2.489 -1.8393 -0.3967 -0.0664
 7074SOL     OW32857   3.773   1.686   1.953 -0.0082 -0.4925 -0.1624
 7074SOL    HW132858   3.843   1.732   1.907  1.7135 -0.4956  2.4305
 7074SOL    HW232859   3.814   1.601   1.967  0.1759  0.1012  2.8730
 7075SOL     OW32860   4.595   0.147   6.150 -0.1164  0.3818 -0.6594
 7075SOL    HW132861   4.581   0.148   6.244  1.5052 -1.8382 -0.3986
 7075SOL    HW232862   4.660   0.077   6.155 -0.9121 -0.2115  1.4289
 7076SOL     OW32863   1.712   4.085   0.497  1.1208 -0.2884  0.1091
 7076SOL    HW132864   1.654   4.102   0.570  0.4500  2.2170 -1.0084
 7076SOL    HW232865   1.762   4.010   0.529  0.5956  0.4611  2.6189
 7077SOL     OW32866   0.936   3.845  12.165 -0.1636  0.0244 -0.4539
 7077SOL    HW132867   0.907   3.773  12.109  2.3055 -2.2584  1.2399
 7077SOL    HW232868   0.916   3.827  12.256 -3.0342  3.4516 -0.4043
 7078SOL     OW32869   4.344   1.997   2.297  0.0701  0.1049  0.0321
 7078SOL    HW132870   4.415   1.937   2.275 -0.0363  0.0567 -0.1815
 7078SOL    HW232871   4.284   1.994   2.222  0.8654 -1.7131 -0.5277
 7079SOL     OW32872   4.343   2.003   7.752 -0.5328  0.3160 -0.0838
 7079SOL    HW132873   4.354   1.948   7.830  1.8622 -1.0879 -1.3958
 7079SOL    HW232874   4.422   2.057   7.758  0.0318 -0.6375  1.1181
 7080SOL     OW32875   1.750   1.903   4.235  0.1684 -0.4115  0.3834
 7080SOL    HW132876   1.732   1.892   4.141 -0.4683 -3.3861  0.8464
 7080SOL    HW232877   1.845   1.910   4.233  0.2216 -1.1693  0.2080
 7081SOL     OW32878   1.149   1.334  11.345  0.0204 -0.4233  0.0776
 7081SOL    HW132879   1.105   1.289  11.417 -0.1259  0.9306  0.8439
 7081SOL    HW232880   1.140   1.426  11.371 -0.4172  0.0363 -1.7433
 7082SOL     OW32881   1.961   1.095  11.294  0.1908 -0.2600  0.4602
 7082SOL    HW132882   2.032   1.040  11.259  0.8667  0.3366  0.8902
 7082SOL    HW232883   1.893   1.040  11.255 -1.9189  1.5445  1.6048
 7083SOL     OW32884   4.721   4.186   3.240  0.1019 -0.8220 -0.3874
 7083SOL    HW132885   0.046   4.175   3.312  0.2395 -0.7508 -0.4956
 7083SOL    HW232886   4.724   4.280   3.222 -0.2911 -0.7608 -0.1341
 7084SOL     OW32887   4.016   3.467   7.337  0.2588  0.1802  0.1901
 7084SOL    HW132888   4.064   3.550   7.338 -0.6253  0.6794  1.1144
 7084SOL    HW232889   4.090   3.412   7.309 -1.6659 -2.1037 -0.3760
 7085SOL     OW32890   2.424   3.386   5.833 -0.2998 -0.2224 -0.1286
 7085SOL    HW132891   2.375   3.305   5.841 -0.5893 -0.2156 -1.8046
 7085SOL    HW232892   2.349   3.445   5.829  0.8067  1.0297 -2.3902
 7086SOL     OW32893   1.936   0.800   9.612 -0.5155 -0.2840  0.2339
 7086SOL    HW132894   2.012   0.855   9.631 -0.5503  0.2316 -1.1134
 7086SOL    HW232895   1.964   0.762   9.529 -0.9215  0.5313 -0.2706
 7087SOL     OW32896   1.132   1.871   6.793 -0.3766  0.0569  0.0253
 7087SOL    HW132897   1.189   1.821   6.734 -0.2602 -1.5961  1.5351
 7087SOL    HW232898   1.117   1.815   6.869  0.5290  1.7839  1.4814
 7088SOL     OW32899   4.384   3.043   7.879  0.1525  0.2408  0.7579
 7088SOL    HW132900   4.351   3.126   7.916 -2.5427 -0.8391  0.7676
 7088SOL    HW232901   4.434   3.075   7.804  1.5335 -1.8339  0.7815
 7089SOL     OW32902   3.861   0.495   5.552  0.0000 -0.0471  0.2171
 7089SOL    HW132903   3.772   0.474   5.524 -0.6910 -0.2117  2.4764
 7089SOL    HW232904   3.904   0.510   5.468 -1.6340 -0.5312 -0.6936
 7090SOL     OW32905   0.265   3.428  13.472 -0.6604 -0.1686 -0.2998
 7090SOL    HW132906   0.355   3.425  13.505 -0.1910 -3.4136 -1.8132
 7090SOL    HW232907   0.231   3.364  13.535  2.5830 -1.3264  0.3007
 7091SOL     OW32908   2.650   0.005   3.391 -0.2178 -0.0401  0.3595
 7091SOL    HW132909   2.641   0.031   3.483 -0.0265  2.4415 -0.3460
 7091SOL    HW232910   2.736   4.704   3.377 -0.5110  0.5613 -3.0236
 7092SOL     OW32911   1.303   0.547   3.683 -0.0719 -0.4187 -0.3683
 7092SOL    HW132912   1.317   0.589   3.768  1.5697 -1.0973 -0.2976
 7092SOL    HW232913   1.260   0.618   3.635  0.4709  0.0726 -0.1237
 7093SOL     OW32914   1.763   0.080  12.021 -0.0748  0.3805 -1.2217
 7093SOL    HW132915   1.855   0.057  12.008 -0.0666  1.5752 -3.2318
 7093SOL    HW232916   1.758   0.175  12.022 -3.5308  0.2155 -0.6545
 7094SOL     OW32917   0.903   4.725   8.953 -0.1097 -0.7166 -0.2119
 7094SOL    HW132918   0.922   4.633   8.971 -1.3408 -1.0342 -0.5441
 7094SOL    HW232919   0.823   0.002   9.004  0.6745  2.9104 -0.0397
 7095SOL     OW32920   2.292   4.539   8.636  0.6418 -0.4580  0.5579
 7095SOL    HW132921   2.279   4.445   8.634 -1.4909 -0.1355 -0.6936
 7095SOL    HW232922   2.251   4.562   8.719  0.1329 -0.7343  0.3848
 7096SOL     OW32923   2.229   0.029  13.877 -0.4073  0.2200 -0.4834
 7096SOL    HW132924   2.233   0.049  13.784 -0.5502 -0.3403 -0.6108
 7096SOL    HW232925   2.137   0.047  13.895 -0.5109  0.9822 -1.8314
 7097SOL     OW32926   1.187   4.285  12.108 -0.2949 -0.1239  0.4061
 7097SOL    HW132927   1.152   4.220  12.168  1.7706 -1.2735  0.3311
 7097SOL    HW232928   1.169   4.241  12.025  0.5298  0.4545 -0.0788
 7098SOL     OW32929   4.421   0.057   3.483  0.0873  0.0660  0.8833
 7098SOL    HW132930   4.426   0.067   3.388  2.3939 -0.6916  0.9395
 7098SOL    HW232931   4.457   0.139   3.518 -0.0933  0.4936  0.0741
 7099SOL     OW32932   0.910   2.208   1.148  0.0786 -0.2851 -0.1663
 7099SOL    HW132933   0.976   2.155   1.193 -0.4241  0.1512  1.0703
 7099SOL    HW232934   0.953   2.294   1.149  1.2669 -0.8701 -1.3228
 7100SOL     OW32935   0.602   0.361   5.334 -0.1334 -0.0100 -0.2102
 7100SOL    HW132936   0.688   0.389   5.304  0.1047  0.1283  0.6283
 7100SOL    HW232937   0.588   0.268   5.315  1.9135 -0.3490 -0.0469
 7101SOL     OW32938   0.894   4.428   5.152 -0.3214  0.3832 -0.0818
 7101SOL    HW132939   0.952   4.495   5.117  2.0729 -2.4246 -1.4425
 7101SOL    HW232940   0.917   4.358   5.091  1.2812  0.6653  0.1995
 7102SOL     OW32941   1.786   1.399   5.706  0.3197 -0.1246 -0.2199
 7102SOL    HW132942   1.878   1.373   5.717  0.7725  1.1706 -0.9977
 7102SOL    HW232943   1.783   1.438   5.619  1.2008 -1.0105 -0.6457
 7103SOL     OW32944   1.085   3.641   2.638  0.0435 -0.2749 -0.2689
 7103SOL    HW132945   1.048   3.592   2.565  0.6114 -1.7889  0.4720
 7103SOL    HW232946   1.170   3.665   2.602 -0.1299 -0.0708 -0.5441
 7104SOL     OW32947   1.672   0.177   8.642  0.1452 -0.3161 -0.0320
 7104SOL    HW132948   1.611   0.105   8.655 -0.1060 -0.3215 -1.2838
 7104SOL    HW232949   1.655   0.190   8.549  1.1068  2.0097  0.1220
 7105SOL     OW32950   0.227   3.428   4.241 -0.5134  0.5581 -0.2089
 7105SOL    HW132951   0.225   3.366   4.168 -0.6740  2.5227 -1.8668
 7105SOL    HW232952   0.131   3.428   4.250 -0.5029  0.2402 -0.1178
 7106SOL     OW32953   4.388   2.404   2.062  0.0652 -0.1245  0.6577
 7106SOL    HW132954   4.334   2.451   1.998  2.3701  2.1382  0.3674
 7106SOL    HW232955   4.328   2.416   2.135 -1.6284 -0.9256 -0.6020
 7107SOL     OW32956   2.565   3.831  15.183  0.5950 -0.5349 -0.0373
 7107SOL    HW132957   2.622   3.883  15.240 -1.9606  1.9600  0.2279
 7107SOL    HW232958   2.610   3.747  15.179  2.3904  0.3316  1.8986
 7108SOL     OW32959   2.894   1.695   9.995  0.1320 -0.9544  0.1166
 7108SOL    HW132960   2.820   1.751   9.970 -1.4170 -2.3948  1.5348
 7108SOL    HW232961   2.926   1.732  10.077 -0.8240  0.6973 -0.2514
 7109SOL     OW32962   4.590   4.492   4.185  0.4525 -0.9231 -0.3619
 7109SOL    HW132963   4.511   4.513   4.135  0.5723 -1.5572 -0.8191
 7109SOL    HW232964   4.560   4.529   4.268 -0.6224 -1.9918 -0.2810
 7110SOL     OW32965   2.139   2.138   7.736  0.4299 -0.2850 -0.2821
 7110SOL    HW132966   2.085   2.198   7.788 -0.2735 -1.6684  0.6063
 7110SOL    HW232967   2.138   2.063   7.796  2.2233 -0.8948 -1.0390
 7111SOL     OW32968   1.899   2.621  16.775 -0.4897 -0.3286 -0.4403
 7111SOL    HW132969   1.847   2.675  16.716  0.8525  2.3028  0.7970
 7111SOL    HW232970   1.958   2.687  16.811 -1.8502 -0.5800  2.2873
 7112SOL     OW32971   1.046   1.595   3.720 -0.4871 -0.5468 -0.3550
 7112SOL    HW132972   1.047   1.573   3.813  2.0887 -0.7200 -0.4444
 7112SOL    HW232973   0.992   1.674   3.723  0.7470  0.3210 -1.1477
 7113SOL     OW32974   2.931   4.125   7.558 -0.4514 -0.0578  0.1578
 7113SOL    HW132975   2.850   4.165   7.590 -0.0760 -0.9085  2.1641
 7113SOL    HW232976   2.992   4.196   7.539 -0.7467  0.0177 -0.5108
 7114SOL     OW32977   3.378   4.600   1.344 -0.0058  0.9136  0.3710
 7114SOL    HW132978   3.311   4.667   1.355 -0.4617  0.7934 -1.6406
 7114SOL    HW232979   3.333   4.533   1.292 -0.1725  0.9622  0.4533
 7115SOL     OW32980   4.727   2.906   2.095 -0.3703  0.4449 -0.4674
 7115SOL    HW132981   4.692   2.839   2.038 -2.5288 -1.2348  2.8290
 7115SOL    HW232982   4.649   2.941   2.139 -0.3934  1.3358 -1.2269
 7116SOL     OW32983   0.111   1.098   2.329 -0.0495 -0.3853 -0.6069
 7116SOL    HW132984   0.128   1.034   2.260  0.2609 -0.0563 -0.8358
 7116SOL    HW232985   0.021   1.115   2.303  0.1426 -0.2059 -1.1565
 7117SOL     OW32986   2.732   2.595   0.522  0.7082 -0.3376  0.4518
 7117SOL    HW132987   2.686   2.626   0.444  0.5989 -1.8405 -0.0786
 7117SOL    HW232988   2.659   2.582   0.583  2.6204  0.9414  2.9912
 7118SOL     OW32989   2.716   0.118   6.875  0.5125 -0.5678 -0.8603
 7118SOL    HW132990   2.629   0.122   6.837  0.6711  0.9587 -1.0981
 7118SOL    HW232991   2.743   0.209   6.860 -0.4329 -0.4760 -1.9348
 7119SOL     OW32992   2.858   3.295   1.733 -0.1989  0.0016 -0.3742
 7119SOL    HW132993   2.861   3.200   1.747 -2.1948  0.1690  1.1868
 7119SOL    HW232994   2.785   3.301   1.672  0.3864  0.1020 -1.0571
 7120SOL     OW32995   0.106   4.470   7.988  0.0288 -0.8809 -0.0940
 7120SOL    HW132996   0.070   4.381   7.985  1.9546 -1.6933  0.4832
 7120SOL    HW232997   0.031   4.519   8.020  0.4027 -0.9068  0.8339
 7121SOL     OW32998   4.154   3.415   1.120 -0.1503 -0.1560 -0.2099
 7121SOL    HW132999   4.148   3.399   1.026 -1.3263  1.5792 -0.4220
 7121SOL    HW233000   4.169   3.509   1.116  0.5732 -0.3202 -1.4975
 7122SOL     OW33001   0.963   0.684   7.135  0.2366 -0.3553 -0.1121
 7122SOL    HW133002   1.040   0.702   7.188  0.5182 -0.0078 -0.6367
 7122SOL    HW233003   0.932   0.773   7.121 -1.3947 -0.8375  0.3328
 7123SOL     OW33004   2.972   2.273   3.132 -0.1393  0.2667 -0.2856
 7123SOL    HW133005   3.035   2.206   3.107 -0.6308 -0.3994  0.2707
 7123SOL    HW233006   2.927   2.215   3.193  0.1150  1.0855  0.6805
 7124SOL     OW33007   2.866   3.918   0.827  0.1822 -0.0357 -0.1382
 7124SOL    HW133008   2.774   3.929   0.852 -0.5240 -1.8154 -1.9052
 7124SOL    HW233009   2.923   3.982   0.870 -0.0888 -0.0719  0.2744
 7125SOL     OW33010   2.613   2.301   8.518 -0.0660 -0.9371 -0.4913
 7125SOL    HW133011   2.673   2.375   8.511  1.0157 -1.8124 -0.3504
 7125SOL    HW233012   2.631   2.247   8.441  0.9787 -2.5226  0.8911
 7126SOL     OW33013   1.716   2.282   9.992  0.6652  0.3215  0.4493
 7126SOL    HW133014   1.705   2.190  10.015 -0.2417  0.6094  1.1630
 7126SOL    HW233015   1.625   2.311  10.000  0.0887 -1.1633 -0.7339
 7127SOL     OW33016   1.565   2.698  16.975 -0.2424  0.4228  0.0634
 7127SOL    HW133017   1.547   2.766  16.910  0.3096  0.7166  0.2203
 7127SOL    HW233018   1.557   2.742  17.060  0.6468 -0.4091  0.5815
 7128SOL     OW33019   1.070   0.864   8.693 -0.5482 -0.5286 -0.0172
 7128SOL    HW133020   1.054   0.770   8.702  1.1297 -1.0268 -2.1687
 7128SOL    HW233021   1.072   0.898   8.783  2.3468 -0.6182 -0.0459
 7129SOL     OW33022   0.090   2.357  14.776 -0.1337 -0.0657 -0.1495
 7129SOL    HW133023   0.023   2.319  14.833  0.1161  0.5344  0.5546
 7129SOL    HW233024   0.140   2.403  14.843 -0.6846 -0.5300  0.5869
 7130SOL     OW33025   2.051   1.665   3.553 -0.2212 -0.8828 -0.0317
 7130SOL    HW133026   2.017   1.754   3.545 -0.2574 -0.9755 -0.9215
 7130SOL    HW233027   1.995   1.630   3.623  0.3768 -1.0411  0.3646
 7131SOL     OW33028   2.859   2.124   8.592 -0.2033 -0.7360  0.7826
 7131SOL    HW133029   2.781   2.177   8.603 -0.5407 -1.1870  0.5867
 7131SOL    HW233030   2.918   2.179   8.644  0.2826  0.3993 -1.0026
 7132SOL     OW33031   4.239   4.556   6.729 -0.2311 -0.1396  0.1093
 7132SOL    HW133032   4.263   4.490   6.664 -0.4913  0.7914 -0.9300
 7132SOL    HW233033   4.145   4.555   6.712 -0.2535  0.9376  0.1535
 7133SOL     OW33034   2.649   0.783  14.239  0.4990  0.0778 -0.2085
 7133SOL    HW133035   2.616   0.742  14.158 -1.1374  0.4722  0.2606
 7133SOL    HW233036   2.735   0.740  14.244  0.3600 -0.3235 -1.1371
 7134SOL     OW33037   2.584   0.935   6.026  0.0508  0.3074  0.5544
 7134SOL    HW133038   2.635   0.942   5.946 -0.8661  0.9716  0.0236
 7134SOL    HW233039   2.498   0.940   5.984  0.6146 -0.6323 -0.7260
 7135SOL     OW33040   1.021   2.916   5.767 -0.3677 -0.2498 -0.0263
 7135SOL    HW133041   1.026   2.821   5.772 -0.3729 -0.3307 -1.6440
 7135SOL    HW233042   0.948   2.931   5.707  0.8232  1.7317 -0.9863
 7136SOL     OW33043   0.595   0.615   2.011  0.1376 -0.1627  0.3402
 7136SOL    HW133044   0.644   0.619   1.929  0.6090 -2.4556  0.5088
 7136SOL    HW233045   0.525   0.674   1.985  0.2182 -0.6927 -1.0699
 7137SOL     OW33046   1.121   1.632   2.783  0.8001  0.6048  0.1338
 7137SOL    HW133047   1.125   1.574   2.860  0.9351  1.1873  0.5696
 7137SOL    HW233048   1.216   1.633   2.770  0.7294  0.9243 -0.3549
 7138SOL     OW33049   2.768   0.612   2.752  0.4883 -0.1127  0.4180
 7138SOL    HW133050   2.854   0.577   2.777  0.6948 -0.6467 -1.0887
 7138SOL    HW233051   2.768   0.704   2.780  0.3694 -0.1074  0.3988
 7139SOL     OW33052   1.771   3.878   7.272  0.2714  0.1677  0.3663
 7139SOL    HW133053   1.687   3.922   7.281  0.8264  1.1126  0.9882
 7139SOL    HW233054   1.761   3.811   7.339 -1.0185 -0.1735 -0.1702
 7140SOL     OW33055   3.321   0.683  17.641 -0.2627 -0.3174  0.0150
 7140SOL    HW133056   3.278   0.681  17.727 -1.8305  1.6645 -0.7106
 7140SOL    HW233057   3.256   0.712  17.576  0.2904  0.2354 -0.2912
 7141SOL     OW33058   0.591   0.116   8.390 -0.6167  0.0899 -0.4314
 7141SOL    HW133059   0.655   0.187   8.385  1.2442 -1.5236  0.5157
 7141SOL    HW233060   0.621   0.054   8.324 -1.1287 -0.5223 -0.0793
 7142SOL     OW33061   3.367   0.672  10.054  0.4441 -0.2423  0.0047
 7142SOL    HW133062   3.405   0.759  10.068 -1.5454  0.7326 -0.6033
 7142SOL    HW233063   3.328   0.666  10.141  0.9829  0.6657  0.3085
 7143SOL     OW33064   0.223   4.048   7.855 -0.8495 -0.1134  0.0742
 7143SOL    HW133065   0.282   4.016   7.923  1.2634 -1.4835 -2.4016
 7143SOL    HW233066   0.285   4.069   7.785 -0.1261 -2.0998  0.1041
 7144SOL     OW33067   2.865   3.973   0.343 -0.7060  0.5982  0.1940
 7144SOL    HW133068   2.936   3.923   0.383 -0.0728  0.8542 -0.6078
 7144SOL    HW233069   2.792   3.915   0.367 -0.5350 -0.1497 -1.0635
 7145SOL     OW33070   1.260   3.373   8.094  0.3210  0.7426 -0.3166
 7145SOL    HW133071   1.276   3.459   8.055  0.1035  1.3495  0.9292
 7145SOL    HW233072   1.349   3.358   8.124  1.1302  1.5477 -2.3056
 7146SOL     OW33073   3.340   4.668   9.797  0.3092 -0.3020  0.2582
 7146SOL    HW133074   3.385   4.718   9.865 -0.0278 -0.1123  0.3426
 7146SOL    HW233075   3.355   4.728   9.724 -0.8509 -1.6807 -1.1005
 7147SOL     OW33076   0.540   1.418   7.066  0.1897 -0.0107  0.0262
 7147SOL    HW133077   0.499   1.483   7.008 -0.9299  1.4853  2.4842
 7147SOL    HW233078   0.612   1.472   7.098 -1.7358  2.7888 -0.2941
 7148SOL     OW33079   4.530   1.177  11.387  0.2448 -0.5506  0.0513
 7148SOL    HW133080   4.468   1.246  11.409 -2.0952 -2.3676 -0.8316
 7148SOL    HW233081   4.482   1.094  11.386 -1.2195  0.2538  3.3324
 7149SOL     OW33082   2.520   3.248   8.848  0.0569  0.2184 -0.6085
 7149SOL    HW133083   2.593   3.309   8.840 -0.8017  1.4600  0.9818
 7149SOL    HW233084   2.533   3.221   8.938  1.6357  0.4419 -0.7812
 7150SOL     OW33085   3.388   4.391  16.454 -0.3875 -0.1252  0.4705
 7150SOL    HW133086   3.472   4.346  16.459 -0.1019  0.5706  2.0811
 7150SOL    HW233087   3.327   4.329  16.493 -0.5531 -0.7476 -0.7715
 7151SOL     OW33088   3.843   0.774   2.567  1.0460 -0.1915  0.5135
 7151SOL    HW133089   3.921   0.760   2.514  0.5995 -0.0622 -0.1830
 7151SOL    HW233090   3.805   0.835   2.504 -0.7176 -0.1639  1.5965
 7152SOL     OW33091   3.275   1.573   9.977 -0.0144  0.0645 -0.2630
 7152SOL    HW133092   3.291   1.514  10.051 -0.0283  1.7045  1.0541
 7152SOL    HW233093   3.255   1.651  10.029  0.8258 -0.5658  1.0087
 7153SOL     OW33094   2.183   3.345   3.745 -0.0364  0.2672  0.0271
 7153SOL    HW133095   2.175   3.266   3.692 -0.7468  0.6509 -0.4450
 7153SOL    HW233096   2.179   3.315   3.836  0.5559 -0.7263 -0.2781
 7154SOL     OW33097   0.433   2.294   6.997 -0.1616  0.4546 -0.2254
 7154SOL    HW133098   0.369   2.358   7.028  0.9860 -0.5374  4.1934
 7154SOL    HW233099   0.422   2.304   6.902 -2.4744  0.7829  0.0703
 7155SOL     OW33100   2.668   4.656  15.649  0.1314  0.7489 -0.3673
 7155SOL    HW133101   2.668   4.719  15.577  0.1411 -0.2123 -1.2032
 7155SOL    HW233102   2.759   4.658  15.680  0.5792  0.4921 -1.6885
 7156SOL     OW33103   2.893   1.032   8.011 -0.2369  0.5029 -0.1898
 7156SOL    HW133104   2.813   0.979   8.008  1.4655 -2.0863  0.0856
 7156SOL    HW233105   2.940   0.979   7.947 -0.5003 -2.1008  1.7938
 7157SOL     OW33106   2.884   2.660   3.204 -0.2808  0.5331  0.3415
 7157SOL    HW133107   2.871   2.620   3.118  0.3229  0.1687  0.4122
 7157SOL    HW233108   2.940   2.734   3.181  1.6589 -1.5066 -1.5471
 7158SOL     OW33109   4.190   1.267   6.966  0.0123 -0.4257  0.7592
 7158SOL    HW133110   4.248   1.199   7.000 -1.5172 -1.6738  0.8816
 7158SOL    HW233111   4.130   1.277   7.040 -0.8344 -1.4729  0.2208
 7159SOL     OW33112   4.118   0.486  12.364 -0.4544 -0.2167 -0.1762
 7159SOL    HW133113   4.161   0.528  12.290 -1.0029  0.9834  0.1886
 7159SOL    HW233114   4.180   0.414  12.380  0.3687  0.1769 -1.5971
 7160SOL     OW33115   3.530   3.800   9.115  0.7005  0.5688 -0.2671
 7160SOL    HW133116   3.566   3.778   9.201  4.0372  0.4293 -1.6754
 7160SOL    HW233117   3.519   3.893   9.137 -0.8388  0.2374  0.3142
 7161SOL     OW33118   4.591   1.788   1.758  0.3667  0.2676 -0.5405
 7161SOL    HW133119   4.563   1.811   1.670  0.0902  0.7158 -0.3348
 7161SOL    HW233120   4.589   1.874   1.800  1.4919 -0.7057  1.5184
 7162SOL     OW33121   1.483   2.578   7.360  0.0905  0.0921  0.4062
 7162SOL    HW133122   1.524   2.580   7.274 -1.1949  0.3614 -0.1960
 7162SOL    HW233123   1.488   2.485   7.384  1.6084 -0.0685 -0.5774
 7163SOL     OW33124   0.266   4.497   6.758 -0.6319  0.0347 -0.4043
 7163SOL    HW133125   0.248   4.462   6.670  0.2550 -1.5920  0.0557
 7163SOL    HW233126   0.294   4.585   6.733 -1.0224  0.5086  0.8711
 7164SOL     OW33127   2.767   1.335   3.355 -0.5357 -0.1273 -0.4175
 7164SOL    HW133128   2.838   1.283   3.391 -1.9305 -0.8861  1.2277
 7164SOL    HW233129   2.741   1.268   3.291 -1.9073  1.2683 -1.3470
 7165SOL     OW33130   0.608   2.551   5.019  0.4416  0.1528 -0.3200
 7165SOL    HW133131   0.533   2.607   5.000 -1.6406 -2.1484  1.0305
 7165SOL    HW233132   0.630   2.557   5.112 -1.7388  0.2045  0.1977
 7166SOL     OW33133   2.922   0.895   3.590  0.1853 -0.1261 -0.3071
 7166SOL    HW133134   2.858   0.858   3.652  2.4578 -0.0431  2.0964
 7166SOL    HW233135   2.877   0.956   3.532  1.5886  1.0074 -0.2017
 7167SOL     OW33136   4.484   4.177   2.730  0.3688 -0.2036 -0.2118
 7167SOL    HW133137   4.444   4.217   2.807 -0.6913 -0.4905 -0.6152
 7167SOL    HW233138   4.569   4.221   2.733  0.6584 -0.8756  1.3450
 7168SOL     OW33139   2.319   3.052   3.945 -0.0263 -0.2681  0.1312
 7168SOL    HW133140   2.323   3.082   3.854 -0.2239 -1.6928 -0.3388
 7168SOL    HW233141   2.231   3.014   3.937 -0.6116  1.3271 -1.1075
 7169SOL     OW33142   4.220   1.433   6.407 -0.1552  0.2382 -0.3694
 7169SOL    HW133143   4.262   1.504   6.358  1.7707 -0.5329  0.1455
 7169SOL    HW233144   4.299   1.381   6.422  0.1203  0.7139 -0.1887
 7170SOL     OW33145   1.127   3.811  10.605  0.4087 -0.1593 -0.5873
 7170SOL    HW133146   1.198   3.820  10.668  1.2901 -0.9327 -1.4726
 7170SOL    HW233147   1.136   3.719  10.581 -2.0691 -0.0364 -1.9159
 7171SOL     OW33148   2.674   3.251   3.565 -0.1059 -0.0260  0.1002
 7171SOL    HW133149   2.750   3.305   3.588 -0.0693 -0.3216  0.6840
 7171SOL    HW233150   2.672   3.179   3.628  0.3917  1.0491  1.3482
 7172SOL     OW33151   3.713   0.012  12.976 -0.0262 -0.0531 -0.4744
 7172SOL    HW133152   3.774   4.683  12.943 -0.3220 -0.4401 -0.2321
 7172SOL    HW233153   3.629   4.728  12.937 -0.1848  1.1434 -0.7923
 7173SOL     OW33154   2.215   2.391   0.345 -0.6170  0.0757  0.0163
 7173SOL    HW133155   2.154   2.454   0.305 -0.6315  0.5145  0.7381
 7173SOL    HW233156   2.155   2.320   0.368  1.2521 -0.7724  2.1876
 7174SOL     OW33157   2.704   3.138   4.304 -0.5280  0.4983 -0.2177
 7174SOL    HW133158   2.627   3.112   4.253 -1.6740 -0.2611  1.8630
 7174SOL    HW233159   2.657   3.194   4.366 -0.9713  0.7780 -0.8120
 7175SOL     OW33160   0.753   1.049  10.986 -0.1222  0.1959  0.1334
 7175SOL    HW133161   0.757   1.005  10.901 -0.5788  0.9999 -0.3008
 7175SOL    HW233162   0.679   1.002  11.024  0.6599 -1.3584 -0.2648
 7176SOL     OW33163   4.354   0.656   2.608  0.3149  0.2877 -0.3626
 7176SOL    HW133164   4.423   0.617   2.663 -0.0350  1.0530  0.6291
 7176SOL    HW233165   4.283   0.603   2.643  2.1201 -2.5945 -1.0795
 7177SOL     OW33166   2.046   1.612   5.845  0.0725 -0.1299  0.0724
 7177SOL    HW133167   2.092   1.635   5.765 -2.0610  2.5589 -0.4016
 7177SOL    HW233168   2.114   1.572   5.898  0.2138  0.4696  0.3467
 7178SOL     OW33169   1.515   3.517  13.258  0.1063  0.0139 -0.5019
 7178SOL    HW133170   1.462   3.585  13.301  1.3771  1.5507 -1.4065
 7178SOL    HW233171   1.515   3.546  13.167 -0.3653  1.9460  0.1086
 7179SOL     OW33172   1.969   0.567   3.707 -0.4125  0.6853  0.2511
 7179SOL    HW133173   1.937   0.504   3.772 -1.2349  0.1967 -0.6236
 7179SOL    HW233174   1.987   0.494   3.647 -0.5074  0.4450  0.5118
 7180SOL     OW33175   0.293   0.555   7.428  0.2108  0.1074  0.4975
 7180SOL    HW133176   0.278   0.590   7.515 -1.0264 -0.0829  0.3624
 7180SOL    HW233177   0.326   0.629   7.378 -3.4432  1.2971 -0.1800
 7181SOL     OW33178   1.086   1.902  11.018 -0.0146 -0.2590 -0.6104
 7181SOL    HW133179   1.150   1.831  11.006 -0.5081 -1.0289  1.4941
 7181SOL    HW233180   1.143   1.978  11.025  0.1951 -0.3798 -0.9804
 7182SOL     OW33181   1.994   2.637   3.861 -0.2058 -0.5738 -0.0824
 7182SOL    HW133182   1.907   2.620   3.895 -0.6136 -1.8153 -1.7172
 7182SOL    HW233183   2.051   2.591   3.922 -0.6456  1.2055  1.6533
 7183SOL     OW33184   4.154   2.033  14.449 -0.8119  0.1481  0.1753
 7183SOL    HW133185   4.231   1.991  14.487 -2.0159  0.1107  2.5047
 7183SOL    HW233186   4.078   1.985  14.482 -1.3480 -0.2937 -1.6385
 7184SOL     OW33187   4.078   1.621  12.802 -0.2013 -0.3921  0.0378
 7184SOL    HW133188   4.059   1.648  12.892  2.0515 -1.7304  0.9328
 7184SOL    HW233189   3.996   1.587  12.766 -1.1601 -0.6249  2.4687
 7185SOL     OW33190   0.398   0.653  15.084 -0.1711 -0.3045 -0.4841
 7185SOL    HW133191   0.339   0.589  15.124 -0.4014  0.9382  1.1724
 7185SOL    HW233192   0.461   0.674  15.153 -1.7251  1.8056  0.2812
 7186SOL     OW33193   3.331   1.033  12.296 -0.9412 -0.2163  0.3447
 7186SOL    HW133194   3.372   1.115  12.267 -1.1425 -0.5883 -0.9831
 7186SOL    HW233195   3.256   1.024  12.238 -0.3194 -1.3516 -0.2761
 7187SOL     OW33196   4.248   4.343  17.369 -0.4938  0.1324 -0.1833
 7187SOL    HW133197   4.299   4.294  17.305 -2.1402 -0.5588 -0.9772
 7187SOL    HW233198   4.218   4.425  17.330 -0.2022  0.3679  0.0904
 7188SOL     OW33199   2.408   0.902  14.828 -0.4083  0.1837 -0.6567
 7188SOL    HW133200   2.485   0.959  14.829  0.1385 -0.5681  0.1892
 7188SOL    HW233201   2.365   0.911  14.743 -3.0159 -4.4645  0.1492
 7189SOL     OW33202   0.642   2.976   6.481 -0.4188  0.1759 -0.3273
 7189SOL    HW133203   0.735   2.952   6.475 -0.4587  0.0278 -0.3420
 7189SOL    HW233204   0.595   2.895   6.499 -0.3695  0.1960 -0.1031
 7190SOL     OW33205   1.743   4.602   5.488  0.2270  0.0917 -0.1074
 7190SOL    HW133206   1.816   4.574   5.431  0.1296 -2.8398  1.1822
 7190SOL    HW233207   1.798   4.624   5.563  0.9848 -0.8073 -0.3990
 7191SOL     OW33208   3.505   2.477   8.379  0.0551  0.5603 -0.0294
 7191SOL    HW133209   3.578   2.420   8.402 -0.7141 -0.3215  0.2595
 7191SOL    HW233210   3.550   2.542   8.326  1.0889  0.0678  0.2396
 7192SOL     OW33211   0.140   3.511   3.772  0.2066 -0.3948  0.3980
 7192SOL    HW133212   0.175   3.423   3.756 -0.5510 -0.4007 -1.2259
 7192SOL    HW233213   0.049   3.489   3.754  0.1022  0.4565 -0.1448
 7193SOL     OW33214   3.291   3.407  16.771 -0.1108 -0.2658 -0.0849
 7193SOL    HW133215   3.225   3.360  16.721 -1.1303  2.2986 -1.1665
 7193SOL    HW233216   3.301   3.362  16.854  0.2398 -0.9310 -0.4883
 7194SOL     OW33217   0.660   1.849   5.447 -0.1073  0.1032 -0.5054
 7194SOL    HW133218   0.676   1.762   5.411  0.0603  0.2058 -0.6818
 7194SOL    HW233219   0.748   1.884   5.462 -0.8498  1.8049 -0.0793
 7195SOL     OW33220   4.082   3.323  16.693  0.4547 -0.4666 -0.0298
 7195SOL    HW133221   4.092   3.387  16.622 -2.3903  0.4455  0.3862
 7195SOL    HW233222   4.169   3.328  16.733  1.1543 -1.9457 -1.3986
 7196SOL     OW33223   4.203   4.675   1.277  0.0164  0.0334  0.8982
 7196SOL    HW133224   4.231   4.613   1.209  0.4838 -0.3312  1.4268
 7196SOL    HW233225   4.188   4.611   1.346  0.5829 -1.6718 -0.5559
 7197SOL     OW33226   1.175   2.277   6.004 -0.2024  0.4182  0.2657
 7197SOL    HW133227   1.264   2.308   6.020  0.5251 -1.1216 -0.7222
 7197SOL    HW233228   1.190   2.182   6.004 -1.5477  0.1983  3.1316
 7198SOL     OW33229   3.721   3.844   7.451 -0.3196 -0.3749 -0.2450
 7198SOL    HW133230   3.647   3.855   7.510  0.6078 -1.2907  1.0761
 7198SOL    HW233231   3.738   3.938   7.442 -1.0136 -0.4220 -2.0213
 7199SOL     OW33232   0.566   1.319   5.798 -0.2416 -0.1727 -0.8931
 7199SOL    HW133233   0.529   1.404   5.773 -1.5624  0.4949  3.1418
 7199SOL    HW233234   0.533   1.258   5.733  0.2720 -0.2077 -1.1182
 7200SOL     OW33235   0.544   1.474  13.482  0.1358  0.2507 -0.2549
 7200SOL    HW133236   0.631   1.435  13.491  0.3788  0.5801 -1.1967
 7200SOL    HW233237   0.489   1.405  13.444 -1.1344  1.2980 -0.3005
 7201SOL     OW33238   1.871   4.676   4.559  0.6110 -0.3412 -0.2838
 7201SOL    HW133239   1.935   4.727   4.609  0.5377  0.6242 -1.1733
 7201SOL    HW233240   1.928   4.643   4.489 -1.0940 -0.8863 -1.4073
 7202SOL     OW33241   1.207   4.640   3.108 -0.1540  0.4587 -0.1644
 7202SOL    HW133242   1.289   4.597   3.085 -0.9894 -2.4518  2.2624
 7202SOL    HW233243   1.149   4.582   3.058 -2.1608  1.5234  0.9192
 7203SOL     OW33244   1.817   4.643   9.375 -0.6497 -0.2661 -0.4920
 7203SOL    HW133245   1.885   4.582   9.345 -0.7905 -1.5390  1.7620
 7203SOL    HW233246   1.825   4.661   9.469 -0.3353  1.0735 -0.7841
 7204SOL     OW33247   2.974   1.216   3.451  0.2978 -0.4080  0.4489
 7204SOL    HW133248   2.962   1.211   3.546  1.7082 -0.6763  0.6027
 7204SOL    HW233249   3.058   1.173   3.439 -0.4289 -1.7106 -0.0317
 7205SOL     OW33250   0.951   2.674  15.243  0.0361 -0.0519  0.4397
 7205SOL    HW133251   0.985   2.585  15.251  1.5676  0.5245  0.3471
 7205SOL    HW233252   0.929   2.673  15.150  5.0974  2.9181 -0.8004
 7206SOL     OW33253   2.889   2.617   2.192  0.0522 -0.1283 -0.1281
 7206SOL    HW133254   2.843   2.611   2.276  0.0466  1.9570  0.0234
 7206SOL    HW233255   2.852   2.543   2.143 -1.7395  0.1659  0.7558
 7207SOL     OW33256   0.854   2.272   6.497 -0.1206  0.4222  0.0359
 7207SOL    HW133257   0.856   2.323   6.417  1.1950 -1.0437 -0.8558
 7207SOL    HW233258   0.762   2.293   6.518  0.0437  0.5963  0.5984
 7208SOL     OW33259   0.925   0.998   5.725  0.4317 -0.1948 -0.1210
 7208SOL    HW133260   0.863   0.988   5.653  1.0977 -1.8023 -0.4786
 7208SOL    HW233261   0.895   1.079   5.767 -0.1036 -0.5547  0.1912
 7209SOL     OW33262   3.101   0.761   9.055 -0.2932 -0.4827 -0.4018
 7209SOL    HW133263   3.196   0.762   9.067 -0.3454 -1.5595  0.2002
 7209SOL    HW233264   3.093   0.837   8.999  0.0092  0.1228  0.3779
 7210SOL     OW33265   2.622   1.092   4.149  0.0329  0.0497  0.2331
 7210SOL    HW133266   2.543   1.110   4.098 -0.3424 -0.0038  0.7821
 7210SOL    HW233267   2.678   1.071   4.074  0.4357  0.0268  0.5407
 7211SOL     OW33268   0.341   3.123   6.060  0.4437  0.0178 -0.2088
 7211SOL    HW133269   0.369   3.054   6.000  2.1008 -0.7291  1.4510
 7211SOL    HW233270   0.409   3.125   6.127  1.6390  4.1778 -1.5663
 7212SOL     OW33271   2.620   0.575  16.391  0.0541 -0.0648 -0.2734
 7212SOL    HW133272   2.557   0.639  16.423  0.9618  0.9168 -0.4770
 7212SOL    HW233273   2.633   0.517  16.466 -2.2801  0.1009  0.2607
 7213SOL     OW33274   2.743   1.463   6.281 -0.3001 -0.0788  0.1797
 7213SOL    HW133275   2.752   1.523   6.355  0.5468 -0.1581  0.1358
 7213SOL    HW233276   2.720   1.515   6.204  3.7176 -2.4157 -2.5879
 7214SOL     OW33277   4.360   1.741   3.791  0.3694 -0.4392  0.2765
 7214SOL    HW133278   4.337   1.753   3.883 -3.7526 -1.0047 -0.7050
 7214SOL    HW233279   4.273   1.743   3.751  0.2219  0.6644  0.6438
 7215SOL     OW33280   1.370   1.767   3.861  0.0218  0.5416 -0.6609
 7215SOL    HW133281   1.423   1.770   3.781  0.8381  0.9556 -0.1092
 7215SOL    HW233282   1.346   1.857   3.879  1.3084  0.6115  0.6850
 7216SOL     OW33283   2.572   2.540   7.808 -0.2539  0.9713  0.3876
 7216SOL    HW133284   2.578   2.454   7.848 -2.8121  0.6058 -0.0313
 7216SOL    HW233285   2.653   2.586   7.831 -0.0920  1.0483 -0.3326
 7217SOL     OW33286   4.591   0.471   7.929  0.2561 -0.0904  0.2729
 7217SOL    HW133287   4.617   0.550   7.977  3.3579 -1.7434  1.2977
 7217SOL    HW233288   4.513   0.442   7.977 -0.7330  2.9286  0.4663
 7218SOL     OW33289   2.253   1.437  10.915  0.5010  0.3867 -0.1453
 7218SOL    HW133290   2.293   1.359  10.952  0.1420  0.2165 -0.1209
 7218SOL    HW233291   2.308   1.442  10.836  0.8922  0.4018  0.1244
 7219SOL     OW33292   1.960   3.243   8.949 -0.2703 -0.6877 -0.4871
 7219SOL    HW133293   1.910   3.195   9.015  0.4368  0.7788  1.1267
 7219SOL    HW233294   2.041   3.270   8.992  0.4812 -2.6109 -0.7137
 7220SOL     OW33295   2.854   1.406   0.228  0.1673 -0.4067 -0.8451
 7220SOL    HW133296   2.799   1.342   0.183  0.6002 -0.5830 -1.1207
 7220SOL    HW233297   2.897   1.441   0.150  1.7249  0.2808  0.3267
 7221SOL     OW33298   0.117   0.516  11.803  0.4159  0.3994  0.2032
 7221SOL    HW133299   0.155   0.430  11.818 -1.0829 -0.3634 -0.2825
 7221SOL    HW233300   0.065   0.490  11.726  1.5783 -1.5526  0.0772
 7222SOL     OW33301   0.245   2.928   2.247 -0.7912 -0.4854 -0.1754
 7222SOL    HW133302   0.154   2.914   2.222 -1.0923 -2.0819  1.7728
 7222SOL    HW233303   0.275   2.963   2.164  1.6851 -1.0844  0.4724
 7223SOL     OW33304   0.639   4.337  17.469  0.0322 -0.6919 -0.2866
 7223SOL    HW133305   0.557   4.387  17.467 -0.1623 -0.9803  0.3890
 7223SOL    HW233306   0.617   4.266  17.529 -1.1180  0.0724  0.2187
 7224SOL     OW33307   0.680   0.322  12.005  0.7179 -0.3244 -0.2481
 7224SOL    HW133308   0.664   0.261  12.077  0.4506 -0.2679 -0.2614
 7224SOL    HW233309   0.637   0.403  12.033 -1.5478 -0.1657 -4.2673
 7225SOL     OW33310   1.320   0.731   0.738 -0.0748 -0.1225 -0.0037
 7225SOL    HW133311   1.267   0.783   0.677  0.4631 -0.4676 -0.7587
 7225SOL    HW233312   1.324   0.787   0.815  4.6802 -1.3548  0.6289
 7226SOL     OW33313   3.270   0.505  10.268 -0.2870 -0.2417 -0.3082
 7226SOL    HW133314   3.295   0.531  10.357 -0.5414  2.0551 -0.8900
 7226SOL    HW233315   3.234   0.418  10.282 -0.0927 -0.3000 -0.1858
 7227SOL     OW33316   3.251   4.133   2.071 -1.2079  0.3096 -0.1122
 7227SOL    HW133317   3.320   4.128   2.137  0.1644 -0.1474 -1.5803
 7227SOL    HW233318   3.249   4.046   2.032 -0.8720  1.4775 -2.7402
 7228SOL     OW33319   3.320   3.409   2.396 -0.1237  0.3492 -0.3171
 7228SOL    HW133320   3.377   3.454   2.459  0.7780  0.9198 -1.5386
 7228SOL    HW233321   3.293   3.485   2.344  2.6226  1.6478  0.0922
 7229SOL     OW33322   4.259   0.600   6.606 -0.1780  0.1387  1.4609
 7229SOL    HW133323   4.195   0.647   6.660 -1.2216  2.3277 -1.6459
 7229SOL    HW233324   4.252   0.510   6.638  2.8700 -0.3487  0.8023
 7230SOL     OW33325   3.722   3.353   0.226 -0.1190 -0.5107  0.6159
 7230SOL    HW133326   3.741   3.447   0.226 -1.0469 -0.3233  1.3639
 7230SOL    HW233327   3.798   3.327   0.279 -1.2123 -2.5373  1.1724
 7231SOL     OW33328   2.334   0.552   5.042 -0.3171  0.1695  0.7996
 7231SOL    HW133329   2.404   0.548   4.977  1.9880  0.9187  3.2341
 7231SOL    HW233330   2.380   0.524   5.121  0.6212  0.2282  0.2775
 7232SOL     OW33331   1.747   3.489   8.988 -0.0771 -0.0265 -0.2700
 7232SOL    HW133332   1.685   3.477   8.916  0.6090 -0.7882 -0.7364
 7232SOL    HW233333   1.816   3.429   8.958 -2.0563 -2.5090  0.1911
 7233SOL     OW33334   0.510   1.076  15.392  0.3762 -0.3220 -1.1464
 7233SOL    HW133335   0.587   1.019  15.392  2.1921  2.1373 -0.3926
 7233SOL    HW233336   0.436   1.015  15.385  0.4071 -0.4798 -0.1700
 7234SOL     OW33337   2.018   4.631   1.702 -0.4191  0.4616 -0.8836
 7234SOL    HW133338   2.070   4.551   1.714 -0.9605  0.0713 -1.1315
 7234SOL    HW233339   2.087   4.697   1.716 -1.6807  1.8680 -1.2827
 7235SOL     OW33340   2.496   1.790   0.832  0.4645 -0.0052 -0.0500
 7235SOL    HW133341   2.406   1.773   0.859  0.2127  1.3102 -0.0678
 7235SOL    HW233342   2.484   1.753   0.745 -0.2433  0.3091 -0.0829
 7236SOL     OW33343   4.614   0.795  13.454  0.2334 -0.5946 -0.0316
 7236SOL    HW133344   4.636   0.874  13.502 -1.6747  0.0787 -0.2756
 7236SOL    HW233345   4.699   0.751  13.444  0.1962 -0.2507 -1.8307
 7237SOL     OW33346   2.915   2.703   6.764 -0.7014 -0.2594 -0.0948
 7237SOL    HW133347   2.839   2.760   6.755 -1.5532 -1.1193  1.7433
 7237SOL    HW233348   2.941   2.693   6.672 -1.0214  1.4133 -0.3650
 7238SOL     OW33349   4.051   1.793   1.053 -0.3428 -0.1375  0.1331
 7238SOL    HW133350   4.009   1.842   0.983 -1.1030  0.5438  1.0546
 7238SOL    HW233351   4.146   1.793   1.042 -0.3387  0.5250  0.1696
 7239SOL     OW33352   3.806   1.602  12.092  0.2698  0.6340 -0.3215
 7239SOL    HW133353   3.885   1.643  12.056 -0.0356  2.5414  1.1784
 7239SOL    HW233354   3.838   1.516  12.119  0.0463 -0.4466 -3.5453
 7240SOL     OW33355   1.873   4.381   3.098  0.1235 -0.0525  0.5524
 7240SOL    HW133356   1.883   4.345   3.186  1.7184  0.6827  0.6685
 7240SOL    HW233357   1.962   4.368   3.063 -0.8921 -0.4669 -1.9083
 7241SOL     OW33358   4.291   2.794  11.450 -0.5520 -0.2930  0.3073
 7241SOL    HW133359   4.358   2.754  11.395  0.7751  0.8199  1.1029
 7241SOL    HW233360   4.220   2.803  11.388  0.7317 -2.2589 -1.4495
 7242SOL     OW33361   4.702   4.074   8.973  0.2939 -0.5492 -0.7078
 7242SOL    HW133362   4.635   4.133   9.009 -0.9682 -1.7187 -1.1481
 7242SOL    HW233363   4.679   4.067   8.880  1.0665  0.4786 -0.9783
 7243SOL     OW33364   3.233   4.527   3.150 -0.1685  0.0101 -0.0702
 7243SOL    HW133365   3.248   4.447   3.100  1.6974  0.9802 -1.1005
 7243SOL    HW233366   3.254   4.500   3.239 -0.3452  1.1963  0.3350
 7244SOL     OW33367   2.777   4.341   7.700  0.2737  0.3637  0.0207
 7244SOL    HW133368   2.776   4.435   7.715  0.7974  0.4534 -0.5076
 7244SOL    HW233369   2.757   4.310   7.789  2.5190 -0.8051  0.1182
 7245SOL     OW33370   0.817   3.048   1.627 -0.3895 -0.6635  0.5794
 7245SOL    HW133371   0.849   3.135   1.602  1.1534 -1.3118  0.3060
 7245SOL    HW233372   0.726   3.066   1.649 -0.5891 -0.3017 -0.5384
 7246SOL     OW33373   1.380   3.917  11.131 -0.2203  0.5563 -0.1696
 7246SOL    HW133374   1.410   3.963  11.209 -0.0956  2.5627 -1.4178
 7246SOL    HW233375   1.301   3.874  11.164  0.7163 -0.0143  1.3500
 7247SOL     OW33376   1.645   3.064   5.297 -0.0681 -0.2315 -0.4393
 7247SOL    HW133377   1.710   2.995   5.311 -1.0330 -0.9867  0.3411
 7247SOL    HW233378   1.564   3.015   5.283  0.5624 -1.3242 -0.3533
 7248SOL     OW33379   0.425   1.852  16.310 -0.2662 -0.6228  0.1298
 7248SOL    HW133380   0.334   1.821  16.309  0.0821 -1.7488  2.1595
 7248SOL    HW233381   0.437   1.871  16.403 -3.1855 -0.6321  0.5132
 7249SOL     OW33382   0.580   0.102   8.020  0.1107  0.6274 -0.1709
 7249SOL    HW133383   0.618   0.173   7.969  0.2117 -1.4815 -3.0046
 7249SOL    HW233384   0.525   0.069   7.949 -0.0315  0.3589  0.0625
 7250SOL     OW33385   1.020   2.673   7.690 -0.0474  0.1798 -0.3556
 7250SOL    HW133386   0.926   2.653   7.695 -0.3959  1.6850 -0.9152
 7250SOL    HW233387   1.026   2.763   7.723 -1.4290  0.4280 -0.7899
 7251SOL     OW33388   1.504   3.262   4.369  0.0897 -0.2275 -0.1968
 7251SOL    HW133389   1.543   3.224   4.290  0.5787  0.1853 -0.1522
 7251SOL    HW233390   1.459   3.181   4.394  0.9760 -0.3172  1.1077
 7252SOL     OW33391   0.176   3.155   5.572 -0.7315  0.3760  0.2921
 7252SOL    HW133392   0.182   3.141   5.666  2.2696  1.0936  0.2209
 7252SOL    HW233393   0.085   3.139   5.546 -0.9109 -2.1088  2.5506
 7253SOL     OW33394   1.903   3.557   5.153  0.0324  0.0284 -0.4525
 7253SOL    HW133395   1.831   3.618   5.169 -0.0379 -0.5986  1.6793
 7253SOL    HW233396   1.878   3.480   5.203  0.6522  0.8403  1.1257
 7254SOL     OW33397   3.101   0.007   8.313  0.3722 -0.1075 -0.1090
 7254SOL    HW133398   3.115   0.101   8.318  1.1035 -0.3353  2.0322
 7254SOL    HW233399   3.041   4.738   8.238 -2.6018  0.4252  2.2494
 7255SOL     OW33400   4.309   1.786   4.056  1.1665 -0.7822 -0.3046
 7255SOL    HW133401   4.230   1.803   4.106  0.5650 -1.7183 -0.9351
 7255SOL    HW233402   4.353   1.725   4.115 -0.5707 -0.6872  1.0784
 7256SOL     OW33403   0.386   1.996   9.310 -0.0101  0.2515 -0.4866
 7256SOL    HW133404   0.297   2.006   9.276 -0.3329 -2.2568 -0.3698
 7256SOL    HW233405   0.370   1.937   9.383 -2.6176  0.4127 -0.9417
 7257SOL     OW33406   2.178   0.546   4.594  0.2084  0.0278 -0.6896
 7257SOL    HW133407   2.144   0.527   4.681  1.3466  0.3223 -0.1860
 7257SOL    HW233408   2.093   0.540   4.551  0.5654 -1.2736 -1.2198
 7258SOL     OW33409   2.524   2.774   7.682  0.9617 -0.1533  0.4389
 7258SOL    HW133410   2.597   2.781   7.621 -0.1106  0.3241 -0.7993
 7258SOL    HW233411   2.532   2.687   7.720 -0.6152  0.6034  2.4766
 7259SOL     OW33412   2.343   4.360   3.366 -0.7084  0.0498  0.1204
 7259SOL    HW133413   2.293   4.442   3.367 -0.8393 -0.0333  0.7137
 7259SOL    HW233414   2.301   4.307   3.434  1.5339 -0.9173  0.7431
 7260SOL     OW33415   3.704   1.669   5.409 -0.5943  0.7186 -0.0433
 7260SOL    HW133416   3.667   1.598   5.356  0.0215 -0.0596  0.5761
 7260SOL    HW233417   3.630   1.691   5.465 -0.0609  1.0203  0.5454
 7261SOL     OW33418   2.054   1.222  17.506 -0.0484 -0.8529 -0.5123
 7261SOL    HW133419   1.964   1.223  17.539 -0.3115 -0.9904 -1.2170
 7261SOL    HW233420   2.079   1.307  17.543  1.1176 -1.1295 -0.6792
 7262SOL     OW33421   2.159   1.158   0.188 -0.4376 -0.0762  0.0184
 7262SOL    HW133422   2.081   1.111   0.158  0.6113 -1.1840 -0.9870
 7262SOL    HW233423   2.125   1.178   0.275  0.3011  1.7226 -0.1041
 7263SOL     OW33424   0.632   2.494  15.967  0.0368  0.4521 -0.1091
 7263SOL    HW133425   0.727   2.484  15.957  0.0241  1.5810 -1.3280
 7263SOL    HW233426   0.590   2.450  15.894 -1.2835  1.5467 -0.0142
 7264SOL     OW33427   2.802   1.931   6.947  0.0678  0.1762 -0.1134
 7264SOL    HW133428   2.712   1.902   6.958  0.6989 -1.6620  0.2941
 7264SOL    HW233429   2.792   2.026   6.948  2.4880  0.4365  1.1032
 7265SOL     OW33430   3.451   4.392   2.238 -0.0726  0.5023 -0.8430
 7265SOL    HW133431   3.501   4.449   2.297 -1.1582 -1.4243  1.9583
 7265SOL    HW233432   3.503   4.313   2.251 -1.6254 -0.6737 -1.7776
 7266SOL     OW33433   0.257   0.964  17.357 -0.1723  0.5736  0.2762
 7266SOL    HW133434   0.188   0.911  17.317 -1.2398  0.3976  2.4107
 7266SOL    HW233435   0.314   0.887  17.367 -1.7986 -0.6143  0.3971
 7267SOL     OW33436   0.009   0.962  12.083  0.2735 -0.8530 -0.2136
 7267SOL    HW133437   0.031   0.868  12.084 -0.9825 -1.1458 -1.2567
 7267SOL    HW233438   4.698   0.974  12.002 -0.5343 -1.7418  0.1361
 7268SOL     OW33439   3.877   2.055   3.232 -0.3744 -0.4615 -0.1560
 7268SOL    HW133440   3.848   1.982   3.178  0.3149 -1.3849  0.7207
 7268SOL    HW233441   3.803   2.114   3.218 -1.0691 -1.4737 -0.7374
 7269SOL     OW33442   0.213   1.943  13.515 -0.8449  0.0285 -0.2357
 7269SOL    HW133443   0.289   1.987  13.553 -1.1259  1.0778 -0.8537
 7269SOL    HW233444   0.152   1.952  13.588 -0.7570  0.1491 -0.1778
 7270SOL     OW33445   3.157   2.673   4.801  1.1305  0.4472  0.5766
 7270SOL    HW133446   3.181   2.640   4.714 -0.3938  0.8385 -0.0127
 7270SOL    HW233447   3.191   2.762   4.805  0.4285  0.7023  0.9165
 7271SOL     OW33448   2.418   2.288   4.930  0.4993 -0.3646  0.0628
 7271SOL    HW133449   2.497   2.241   4.901 -1.2960 -2.8451 -0.7516
 7271SOL    HW233450   2.377   2.226   4.990 -0.5702  0.9895  0.7342
 7272SOL     OW33451   4.252   1.296   8.980  0.4305 -0.3229  0.3932
 7272SOL    HW133452   4.308   1.371   9.000 -0.8167  0.5847  0.5773
 7272SOL    HW233453   4.186   1.313   9.048 -0.3397 -1.6553 -0.0217
 7273SOL     OW33454   1.659   2.995   4.613 -0.3549 -0.5594  0.0178
 7273SOL    HW133455   1.679   2.928   4.547  2.1109 -0.3611  0.5748
 7273SOL    HW233456   1.610   2.933   4.669  1.7448 -0.2491  2.2015
 7274SOL     OW33457   0.775   3.958  11.835 -0.0279  0.0912 -0.2126
 7274SOL    HW133458   0.807   4.024  11.897 -0.2071  0.4132 -0.4658
 7274SOL    HW233459   0.772   3.877  11.886 -2.7461  0.2058 -0.1993
 7275SOL     OW33460   2.962   0.237   5.895  0.3684  0.8367 -0.4525
 7275SOL    HW133461   2.945   0.212   5.985  0.0612  2.5395 -0.0464
 7275SOL    HW233462   2.998   0.324   5.908 -0.6367  1.2460 -0.4258
 7276SOL     OW33463   3.124   2.358  10.695 -0.1501  0.4466  0.0959
 7276SOL    HW133464   3.030   2.376  10.702 -0.3182  0.1586 -1.2860
 7276SOL    HW233465   3.111   2.264  10.708  3.7024 -0.1368 -0.4813
 7277SOL     OW33466   4.141   1.654   2.953  0.4640  0.2086  0.6916
 7277SOL    HW133467   4.201   1.644   2.879 -1.6866 -3.5103 -0.5323
 7277SOL    HW233468   4.079   1.724   2.936 -0.0842  0.4797  3.7853
 7278SOL     OW33469   4.300   2.867  16.804  0.2343 -0.1523 -0.4228
 7278SOL    HW133470   4.243   2.803  16.761 -1.1299 -0.2475  1.5515
 7278SOL    HW233471   4.357   2.819  16.864 -0.6988 -1.7100 -0.7806
 7279SOL     OW33472   3.633   0.516   8.103  0.1464  0.0493 -0.4216
 7279SOL    HW133473   3.648   0.565   8.184 -0.3840  0.2072 -0.4185
 7279SOL    HW233474   3.725   0.511   8.079  0.6068  2.6140  0.8539
 7280SOL     OW33475   2.448   0.609   4.593 -0.3501 -0.3108 -0.1579
 7280SOL    HW133476   2.353   0.607   4.606 -0.4579 -0.5125 -0.9648
 7280SOL    HW233477   2.445   0.583   4.501 -0.0261  1.2725 -0.6224
 7281SOL     OW33478   0.790   1.524   2.260  0.0375  0.4078 -0.3144
 7281SOL    HW133479   0.875   1.533   2.216 -0.3083 -1.6417 -1.3841
 7281SOL    HW233480   0.815   1.498   2.348  0.9130 -0.5635 -0.8467
 7282SOL     OW33481   0.214   2.065   5.221 -0.3705 -1.0394  0.4053
 7282SOL    HW133482   0.195   1.979   5.260  1.3356 -1.4850  0.2741
 7282SOL    HW233483   0.309   2.048   5.218 -0.3376 -0.2549 -3.5249
 7283SOL     OW33484   3.453   0.934   0.247 -0.1225 -0.0205 -0.1921
 7283SOL    HW133485   3.458   0.947   0.153  0.2732 -1.6843 -0.3970
 7283SOL    HW233486   3.544   0.938   0.278  1.1839 -2.7066 -3.7397
 7284SOL     OW33487   4.310   1.309   5.179 -0.0401 -0.1557 -0.3639
 7284SOL    HW133488   4.271   1.360   5.108  0.1271  0.7302  0.1692
 7284SOL    HW233489   4.252   1.233   5.171 -2.3223  1.5365 -0.0416
 7285SOL     OW33490   1.788   0.576   2.005  0.5490 -0.3573 -0.0394
 7285SOL    HW133491   1.865   0.631   2.022 -0.7834  1.3085  0.6055
 7285SOL    HW233492   1.804   0.594   1.912  0.6783 -2.3923 -0.3933
 7286SOL     OW33493   1.412   1.240   3.315 -0.0792 -0.2548 -0.0309
 7286SOL    HW133494   1.448   1.220   3.228  0.2156 -1.1104  0.2880
 7286SOL    HW233495   1.471   1.184   3.365 -0.5751  0.4657  1.3819
 7287SOL     OW33496   0.943   3.438   8.472  0.2960  0.6258 -0.1537
 7287SOL    HW133497   0.986   3.408   8.392  1.4895 -0.1574  0.7714
 7287SOL    HW233498   0.896   3.357   8.489 -0.0159  0.4799 -1.7452
 7288SOL     OW33499   2.709   4.047  14.818  0.6400  0.5935 -0.7480
 7288SOL    HW133500   2.639   3.982  14.828  2.1373 -0.7117  1.3888
 7288SOL    HW233501   2.679   4.103  14.890 -1.8917 -0.1286 -1.2186
 7289SOL     OW33502   4.036   1.902   2.648  0.2847  1.1434 -0.1548
 7289SOL    HW133503   4.129   1.921   2.657  0.4646  0.4111 -0.4644
 7289SOL    HW233504   4.025   1.918   2.554  2.0520 -1.6609 -0.8395
 7290SOL     OW33505   2.080   0.422  11.485  0.9218 -0.2736  0.0538
 7290SOL    HW133506   2.065   0.462  11.571 -0.1775  0.9889 -0.7107
 7290SOL    HW233507   2.052   0.499  11.435 -5.3635 -1.5123  1.7031
 7291SOL     OW33508   2.115   0.387   8.202  0.0541  0.0441  0.0636
 7291SOL    HW133509   2.159   0.303   8.208 -1.8333 -0.9931 -0.4650
 7291SOL    HW233510   2.152   0.422   8.283 -2.4072 -1.0593  1.6624
 7292SOL     OW33511   2.500   3.940   6.809 -0.3768 -0.3831 -0.0854
 7292SOL    HW133512   2.532   3.850   6.802  2.0059  0.5401 -0.9453
 7292SOL    HW233513   2.580   3.993   6.811  0.2148 -1.3112  0.7052
 7293SOL     OW33514   3.459   4.423   0.757  0.5352  0.1679 -0.2670
 7293SOL    HW133515   3.505   4.375   0.688 -0.7428 -0.3313 -0.7860
 7293SOL    HW233516   3.389   4.455   0.699  0.4926  0.1846 -0.2060
 7294SOL     OW33517   1.103   4.281  17.290 -0.0575 -0.1443 -0.1302
 7294SOL    HW133518   1.021   4.264  17.337 -0.4154 -2.3019 -1.5577
 7294SOL    HW233519   1.168   4.227  17.335  1.2116  2.3684  1.0747
 7295SOL     OW33520   3.268   1.894   9.977 -0.0957 -0.5197 -0.2538
 7295SOL    HW133521   3.329   1.968   9.976 -0.0110 -0.6089 -1.6984
 7295SOL    HW233522   3.182   1.936   9.981  1.2329  2.0759  1.2708
 7296SOL     OW33523   0.229   1.303   6.754  0.2792 -0.8755 -0.5333
 7296SOL    HW133524   0.231   1.393   6.787  0.8884 -1.5480  1.2905
 7296SOL    HW233525   0.137   1.299   6.728  0.1724 -0.4750 -0.2287
 7297SOL     OW33526   3.347   3.505   6.058  0.3528 -0.8140  0.3406
 7297SOL    HW133527   3.427   3.500   6.110  0.8559  0.7052 -0.3048
 7297SOL    HW233528   3.366   3.535   5.970 -2.1830  1.6863  0.6578
 7298SOL     OW33529   2.683   0.393  14.797 -0.2527  0.1066 -0.0643
 7298SOL    HW133530   2.777   0.410  14.795 -0.6247  2.3423  0.4865
 7298SOL    HW233531   2.672   0.311  14.845  2.0564  0.3797  0.9369
 7299SOL     OW33532   3.553   4.488   9.200 -0.0421  0.4401 -0.1222
 7299SOL    HW133533   3.554   4.505   9.295 -0.2970 -2.5476  0.3986
 7299SOL    HW233534   3.636   4.443   9.184 -0.3905 -0.7738  1.5348
 7300SOL     OW33535   1.500   3.990   9.083  0.0528 -0.0423 -0.1791
 7300SOL    HW133536   1.590   3.958   9.084  1.1154  2.8947 -1.6846
 7300SOL    HW233537   1.508   4.062   9.145 -1.1843  0.2989 -0.4088
 7301SOL     OW33538   0.068   4.398   7.631  0.1219 -0.4001 -0.2067
 7301SOL    HW133539   4.714   4.409   7.606 -0.2266 -1.6056  0.5319
 7301SOL    HW233540   0.053   4.322   7.688 -1.0682  0.7755  1.0344
 7302SOL     OW33541   1.405   0.193   5.919  0.4959  0.3731 -0.1825
 7302SOL    HW133542   1.375   0.264   5.862  0.7864 -0.1631 -0.9872
 7302SOL    HW233543   1.383   0.219   6.009  0.7601  1.1086 -0.3313
 7303SOL     OW33544   3.792   3.265  15.220  0.4829  0.0445  0.6974
 7303SOL    HW133545   3.804   3.170  15.218  3.2149  0.3911  1.5921
 7303SOL    HW233546   3.842   3.294  15.144 -0.5404  0.2863  0.1090
 7304SOL     OW33547   4.603   1.941   8.284 -0.7042 -0.6822 -0.6147
 7304SOL    HW133548   4.530   1.976   8.232 -0.4625  0.8547  0.0597
 7304SOL    HW233549   4.576   1.855   8.314 -3.0726  0.0870 -0.5323
 7305SOL     OW33550   0.819   4.337   8.544  0.0857 -0.2510 -0.2708
 7305SOL    HW133551   0.876   4.268   8.510 -1.4092 -0.9294 -1.3707
 7305SOL    HW233552   0.863   4.418   8.518  2.4690 -1.4293  0.1265
 7306SOL     OW33553   0.700   2.744   6.934 -0.6695  0.4536  0.6455
 7306SOL    HW133554   0.630   2.737   6.999  0.2185 -2.2048  1.3210
 7306SOL    HW233555   0.766   2.799   6.976  0.4561 -0.3700 -0.0404
 7307SOL     OW33556   2.148   0.654  13.175 -0.7087 -0.1039  0.1984
 7307SOL    HW133557   2.061   0.689  13.194 -0.4087  0.3099  0.7877
 7307SOL    HW233558   2.138   0.587  13.242 -1.4136  1.0636  1.2518
 7308SOL     OW33559   2.640   1.213  13.529  0.0518  0.8103  0.0733
 7308SOL    HW133560   2.592   1.291  13.555  0.2288  0.9427  0.0012
 7308SOL    HW233561   2.571   1.147  13.529 -0.8099  1.6817  3.8080
 7309SOL     OW33562   1.195   1.289  13.653  0.0316 -0.0931  0.3331
 7309SOL    HW133563   1.248   1.323  13.725  0.5848 -0.3297  0.0425
 7309SOL    HW233564   1.217   1.197  13.667 -0.6925  0.0590  2.4280
 7310SOL     OW33565   1.671   0.226   6.586  0.0227  0.5785 -0.4544
 7310SOL    HW133566   1.593   0.183   6.551 -0.2071 -0.8358  1.8759
 7310SOL    HW233567   1.629   0.304   6.623 -2.4635 -0.7274 -0.4900
 7311SOL     OW33568   3.268   0.476  15.727  0.2047 -0.0651  0.1917
 7311SOL    HW133569   3.332   0.537  15.691 -1.3644  2.4232  1.5714
 7311SOL    HW233570   3.185   0.519  15.703  0.2782 -1.9938 -3.3685
 7312SOL     OW33571   2.215   3.333   9.078 -0.8662  0.2386  0.9312
 7312SOL    HW133572   2.250   3.413   9.116  2.3727  0.2622 -2.0408
 7312SOL    HW233573   2.290   3.275   9.061 -2.3673 -1.6546  0.8147
 7313SOL     OW33574   4.548   0.059   5.858 -0.1154 -0.2156 -0.4843
 7313SOL    HW133575   4.626   0.113   5.873  0.1166 -0.3561 -1.2158
 7313SOL    HW233576   4.493   0.087   5.932  0.9771  1.0859 -0.1530
 7314SOL     OW33577   4.261   1.773   4.519 -0.1042 -0.2296 -0.2722
 7314SOL    HW133578   4.233   1.850   4.569  1.7276  0.0257  0.3798
 7314SOL    HW233579   4.316   1.810   4.450 -2.8528 -0.8238 -2.7332
 7315SOL     OW33580   0.458   1.442  10.525 -0.1310 -0.0002  0.1637
 7315SOL    HW133581   0.527   1.413  10.584 -0.9979 -0.6975  0.8346
 7315SOL    HW233582   0.387   1.483  10.576  0.0559  1.0253 -0.4012
 7316SOL     OW33583   3.938   3.369   6.304  0.0790  0.3002 -0.1017
 7316SOL    HW133584   3.950   3.460   6.279 -1.1669  0.6023  0.4475
 7316SOL    HW233585   3.914   3.335   6.218 -0.0458  1.0944 -0.3788
 7317SOL     OW33586   0.085   2.346   2.342  0.7690 -0.0940  0.4605
 7317SOL    HW133587   0.037   2.266   2.363 -0.2857  0.8866  1.7647
 7317SOL    HW233588   0.159   2.320   2.287  1.2735 -0.7743  1.4591
 7318SOL     OW33589   4.365   0.290   6.396 -0.6226 -0.2080  0.6430
 7318SOL    HW133590   4.366   0.363   6.333 -1.2329  1.0650  2.1182
 7318SOL    HW233591   4.457   0.265   6.404 -0.8532 -1.1663  0.2709
 7319SOL     OW33592   1.981   0.349   5.469 -0.2957 -0.2266  0.4825
 7319SOL    HW133593   2.038   0.360   5.392  1.2981 -0.9245  1.5497
 7319SOL    HW233594   1.906   0.323   5.416  0.3740 -3.4223  1.1100
 7320SOL     OW33595   0.103   2.981   5.011 -0.1679  0.4702 -0.6999
 7320SOL    HW133596   0.157   2.983   4.932 -0.1523 -0.1899 -0.7090
 7320SOL    HW233597   0.020   2.963   4.968 -1.4953  1.9254  1.2352
 7321SOL     OW33598   3.123   3.120   5.451 -0.1071  0.7669  0.1278
 7321SOL    HW133599   3.111   3.094   5.359 -0.2207 -1.1655  0.6942
 7321SOL    HW233600   3.036   3.114   5.490  0.6041  0.3559  1.6411
 7322SOL     OW33601   1.955   3.032   8.559  0.4146  0.0939  0.8081
 7322SOL    HW133602   1.974   3.110   8.506  0.2900 -1.1080 -1.0175
 7322SOL    HW233603   1.931   3.070   8.644 -0.4612  2.5336 -0.5261
 7323SOL     OW33604   3.046   3.219   6.041 -0.0226  0.8881  0.1681
 7323SOL    HW133605   3.130   3.174   6.047 -1.3452 -1.5800  0.1941
 7323SOL    HW233606   3.060   3.249   5.951  0.1982  0.3875  0.0364
 7324SOL     OW33607   1.279   4.278   0.676 -0.5286 -0.7201  0.4167
 7324SOL    HW133608   1.370   4.307   0.688 -0.3985 -1.1571  0.4850
 7324SOL    HW233609   1.284   4.237   0.589  2.7711  2.2628 -0.8081
 7325SOL     OW33610   3.374   2.513   2.697 -0.2627  0.1057  0.2426
 7325SOL    HW133611   3.318   2.590   2.695 -0.2707  0.1174  0.8988
 7325SOL    HW233612   3.413   2.516   2.610 -1.9704 -0.4377 -0.5362
 7326SOL     OW33613   0.258   3.671   8.463  0.3042  0.2576  0.6387
 7326SOL    HW133614   0.339   3.643   8.421 -1.4845 -1.2330 -1.7920
 7326SOL    HW233615   0.264   3.609   8.535  1.2836  0.1995  0.5121
 7327SOL     OW33616   1.284   2.192   5.577 -0.4017 -0.0722  0.0181
 7327SOL    HW133617   1.268   2.097   5.578  0.5263 -0.2183  0.9321
 7327SOL    HW233618   1.370   2.201   5.618 -0.3215  0.5651 -0.3015
 7328SOL     OW33619   2.734   3.527  16.687  0.3747  0.7830 -0.1733
 7328SOL    HW133620   2.750   3.435  16.708 -0.3044  0.5102 -0.8822
 7328SOL    HW233621   2.659   3.529  16.746 -1.0229 -0.0844 -1.9401
 7329SOL     OW33622   4.202   1.289   3.198  0.3253 -0.1436  0.0329
 7329SOL    HW133623   4.145   1.214   3.213 -1.1501  0.7206 -1.2207
 7329SOL    HW233624   4.139   1.346   3.154  1.3093  1.5086  0.7461
 7330SOL     OW33625   0.707   1.607   9.364 -0.1621 -0.4494 -0.1841
 7330SOL    HW133626   0.669   1.687   9.401  1.6822 -0.2619  1.3166
 7330SOL    HW233627   0.795   1.636   9.338 -0.3820  1.8067  1.5370
 7331SOL     OW33628   1.674   4.253  10.328 -0.0388 -0.2973  0.5009
 7331SOL    HW133629   1.597   4.196  10.314  0.3910 -1.0664  1.2558
 7331SOL    HW233630   1.722   4.204  10.261 -1.2124 -1.1583  0.2906
 7332SOL     OW33631   4.106   1.274   2.305  0.1367 -0.1908  0.5398
 7332SOL    HW133632   4.041   1.335   2.269 -0.6476 -0.8593  0.8315
 7332SOL    HW233633   4.158   1.264   2.226 -1.4364 -1.1998 -0.3706
 7333SOL     OW33634   1.081   0.634   3.963  0.1352 -0.8555  0.0938
 7333SOL    HW133635   1.132   0.704   4.002  1.4694  0.2775 -3.6148
 7333SOL    HW233636   1.026   0.597   4.032  1.2803 -0.2076  1.3545
 7334SOL     OW33637   1.224   3.762  14.382  0.2058 -0.5514 -0.5827
 7334SOL    HW133638   1.214   3.856  14.368 -1.0747 -0.9841 -2.5386
 7334SOL    HW233639   1.133   3.731  14.384 -0.0010  0.2250  1.9419
 7335SOL     OW33640   3.129   0.107   9.115 -0.2778 -0.1478 -0.4253
 7335SOL    HW133641   3.194   0.174   9.096 -1.9910  1.8470  0.7391
 7335SOL    HW233642   3.176   0.030   9.147  0.3539 -0.2145 -1.5140
 7336SOL     OW33643   1.844   4.687   6.885 -0.2393  0.4900  0.4121
 7336SOL    HW133644   1.812   4.661   6.972  0.3099  2.0248  1.0717
 7336SOL    HW233645   1.901   4.612   6.869  0.7715  1.5977 -1.1517
 7337SOL     OW33646   3.303   4.213   3.116 -0.2950  0.3286  0.1885
 7337SOL    HW133647   3.322   4.148   3.184 -1.3929 -2.1368 -1.8497
 7337SOL    HW233648   3.216   4.183   3.091 -0.1660 -1.2577  1.6338
 7338SOL     OW33649   0.482   4.401   5.845  0.5646  0.2027 -0.3115
 7338SOL    HW133650   0.452   4.479   5.892 -0.1487  1.6384 -3.1827
 7338SOL    HW233651   0.551   4.368   5.902  0.2711 -1.3966 -0.8786
 7339SOL     OW33652   2.101   4.737   2.753  0.4331 -0.0783 -0.1645
 7339SOL    HW133653   2.106   4.641   2.755  1.4225 -0.0667 -2.6027
 7339SOL    HW233654   2.194   0.016   2.738  0.0736  2.0577 -0.0965
 7340SOL     OW33655   2.845   2.993   1.732  0.2727 -0.7625  0.3890
 7340SOL    HW133656   2.762   2.945   1.722 -0.2373  0.1224  0.3625
 7340SOL    HW233657   2.902   2.944   1.674 -0.4873 -0.5555 -0.5359
 7341SOL     OW33658   2.785   3.031   7.746  0.4849 -0.8340 -0.1672
 7341SOL    HW133659   2.698   3.018   7.784  0.4965 -1.5306 -0.3961
 7341SOL    HW233660   2.776   3.114   7.698  2.7509 -0.1689  0.5467
 7342SOL     OW33661   4.298   1.566   7.163 -0.3264 -0.5001  0.2170
 7342SOL    HW133662   4.256   1.543   7.080 -0.2854 -0.9717  0.3238
 7342SOL    HW233663   4.325   1.486   7.210 -0.6261 -0.4281  0.5085
 7343SOL     OW33664   0.430   4.245  16.932  0.5768 -0.1831  0.2529
 7343SOL    HW133665   0.375   4.263  17.009 -1.8249  0.5007 -1.5946
 7343SOL    HW233666   0.501   4.307  16.949 -0.1042  0.8875 -0.7820
 7344SOL     OW33667   1.004   1.956   9.101 -0.0487  0.0537 -0.1185
 7344SOL    HW133668   1.047   2.036   9.132 -0.8969  1.2733 -2.1429
 7344SOL    HW233669   1.021   1.962   9.007  3.4139 -0.6236  0.4613
 7345SOL     OW33670   0.555   2.505  17.041 -0.0865  0.2281 -0.4103
 7345SOL    HW133671   0.554   2.421  16.995  0.8487  0.8182 -1.5082
 7345SOL    HW233672   0.649   2.521  17.052 -0.1809 -0.6509  1.6754
 7346SOL     OW33673   1.863   3.963   6.806 -0.1147 -0.3354 -0.1682
 7346SOL    HW133674   1.832   3.875   6.825  1.3495 -1.1199 -1.4867
 7346SOL    HW233675   1.956   3.940   6.802 -0.2086 -0.9541  1.1187
 7347SOL     OW33676   3.968   3.869  10.903 -0.4728 -0.1574 -0.5755
 7347SOL    HW133677   3.914   3.791  10.917  0.3386 -0.2666  1.9495
 7347SOL    HW233678   3.897   3.927  10.873  0.8506  0.9559 -1.5373
 7348SOL     OW33679   3.328   2.758   5.323 -0.6235  0.3375  0.4523
 7348SOL    HW133680   3.344   2.742   5.230  0.6353 -1.7457  1.0331
 7348SOL    HW233681   3.313   2.668   5.350 -0.3846 -0.2242 -1.2824
 7349SOL     OW33682   0.400   2.864   7.712 -0.4945  0.0987  0.8927
 7349SOL    HW133683   0.359   2.950   7.706  1.2782  0.9459  1.1320
 7349SOL    HW233684   0.458   2.869   7.788 -1.9607  0.0864  2.0099
 7350SOL     OW33685   1.018   2.083   7.592 -0.0682  0.0283  0.5514
 7350SOL    HW133686   0.986   2.042   7.511  3.3964 -0.6986 -0.4259
 7350SOL    HW233687   0.985   2.020   7.655 -0.0885  0.1882  0.7021
 7351SOL     OW33688   0.916   2.199   2.315 -0.1008  0.2179  0.2918
 7351SOL    HW133689   0.987   2.261   2.300 -0.5622  0.6523 -0.1053
 7351SOL    HW233690   0.898   2.236   2.402 -2.5678 -0.0985 -0.0969
 7352SOL     OW33691   3.027   0.879   7.833  0.0261  0.2454 -0.1026
 7352SOL    HW133692   3.023   0.934   7.755 -1.7818 -0.2575 -0.3709
 7352SOL    HW233693   3.011   0.796   7.787  0.4450 -0.8717  1.7574
 7353SOL     OW33694   3.741   0.812   4.375 -0.3913 -0.0904  0.0297
 7353SOL    HW133695   3.817   0.753   4.374 -2.1395 -2.3203 -0.6632
 7353SOL    HW233696   3.724   0.820   4.469  0.0335  0.8960  0.0138
 7354SOL     OW33697   1.768   4.217   0.968  0.0259  0.3017  0.3107
 7354SOL    HW133698   1.770   4.153   0.897  1.3801 -0.4607  1.0246
 7354SOL    HW233699   1.848   4.192   1.015  1.5208  2.5156 -1.0577
 7355SOL     OW33700   2.383   0.706   7.737 -0.2438  0.1730  0.0372
 7355SOL    HW133701   2.450   0.732   7.674 -0.1778 -0.4809 -0.1663
 7355SOL    HW233702   2.315   0.768   7.711 -1.7222 -1.2759  0.4155
 7356SOL     OW33703   4.434   3.226  13.386  0.3699 -0.1799 -0.0741
 7356SOL    HW133704   4.395   3.179  13.460  0.4645  0.3051  0.2820
 7356SOL    HW233705   4.386   3.181  13.316  1.1722 -1.1269 -0.0198
 7357SOL     OW33706   2.151   1.415   3.022 -0.1209 -1.1747 -0.2780
 7357SOL    HW133707   2.137   1.395   2.930 -0.7893 -0.6338 -0.2933
 7357SOL    HW233708   2.239   1.377   3.025  0.8774  1.0607 -0.8602
 7358SOL     OW33709   3.814   1.240   5.094  0.7724 -0.4185  0.1921
 7358SOL    HW133710   3.872   1.310   5.066  1.6216 -0.9796  0.5658
 7358SOL    HW233711   3.800   1.262   5.186 -0.6988 -0.1407 -0.0996
 7359SOL     OW33712   0.750   4.624  13.313  0.7125 -0.1533  0.4067
 7359SOL    HW133713   0.693   4.695  13.344 -0.6374 -1.4517  0.8645
 7359SOL    HW233714   0.839   4.656  13.332  0.6367  0.1901  0.1846
 7360SOL     OW33715   1.650   2.662   7.607 -0.2224 -0.3685  0.9411
 7360SOL    HW133716   1.642   2.645   7.513  3.0996  0.3281  0.5094
 7360SOL    HW233717   1.658   2.757   7.609 -2.5017 -0.1588 -0.1680
 7361SOL     OW33718   3.107   2.020  15.358 -0.1652 -0.5181  0.5372
 7361SOL    HW133719   3.189   2.055  15.322 -1.3423  2.1645  0.5077
 7361SOL    HW233720   3.044   2.091  15.354  0.7080  0.2987  1.1773
 7362SOL     OW33721   4.042   2.317   8.769  0.3799 -0.0307  0.2645
 7362SOL    HW133722   4.078   2.229   8.780  1.2048  0.2964  0.2137
 7362SOL    HW233723   3.971   2.308   8.706  2.7485 -1.7487 -2.1941
 7363SOL     OW33724   0.260   1.033   0.806 -0.4014 -0.2677  0.3235
 7363SOL    HW133725   0.273   0.940   0.824  2.9960  0.1749  0.2872
 7363SOL    HW233726   0.217   1.067   0.885  0.0496  1.4918 -0.1852
 7364SOL     OW33727   1.938   2.891  15.860 -0.5184  0.4014  0.0940
 7364SOL    HW133728   1.908   2.818  15.915 -2.1589  1.2316  0.3110
 7364SOL    HW233729   1.854   2.914  15.819 -0.9577 -1.0286  0.1784
 7365SOL     OW33730   0.294   0.861  14.313 -0.5180  0.3056 -0.1329
 7365SOL    HW133731   0.222   0.820  14.264  0.2811 -1.1868 -0.0558
 7365SOL    HW233732   0.285   0.837  14.405  1.4119 -3.4072 -0.9343
 7366SOL     OW33733   0.249   3.466   1.540 -0.4032  0.0633 -0.3085
 7366SOL    HW133734   0.227   3.390   1.595  1.2250 -1.6795 -2.0601
 7366SOL    HW233735   0.164   3.492   1.506  0.1000  3.5317  1.1216
 7367SOL     OW33736   1.803   0.342  12.149 -0.8831  0.1115  0.5120
 7367SOL    HW133737   1.796   0.403  12.222  0.0302  0.6936  0.1078
 7367SOL    HW233738   1.752   0.274  12.194  0.2731 -2.5757 -2.2453
 7368SOL     OW33739   4.251   0.211   5.522  0.2963  0.0690  0.0127
 7368SOL    HW133740   4.281   0.247   5.439  0.0544  0.2135 -0.0138
 7368SOL    HW233741   4.306   0.133   5.527 -1.0656 -0.8598  0.6719
 7369SOL     OW33742   4.373   2.798  11.720 -0.1234  0.1078 -0.0633
 7369SOL    HW133743   4.467   2.795  11.704 -0.3770 -1.9981 -1.2311
 7369SOL    HW233744   4.338   2.809  11.632 -0.0143  0.9997  0.0046
 7370SOL     OW33745   0.969   2.134   2.983 -0.8411  0.0883 -0.2932
 7370SOL    HW133746   0.931   2.085   2.910 -1.9425  2.5997 -1.3911
 7370SOL    HW233747   0.887   2.163   3.023 -0.5779  0.3760  0.0395
 7371SOL     OW33748   3.808   3.134   5.013  0.4427 -0.6984  0.4644
 7371SOL    HW133749   3.830   3.227   5.009  1.0750 -0.8867 -0.4881
 7371SOL    HW233750   3.713   3.141   5.003  0.3693  0.3167  1.9203
 7372SOL     OW33751   2.330   0.553   5.984  0.6818 -0.5763 -0.5574
 7372SOL    HW133752   2.352   0.568   6.076  2.7020  1.9663 -1.4656
 7372SOL    HW233753   2.235   0.568   5.992  0.8842  0.3665  0.0296
 7373SOL     OW33754   3.317   0.390   4.484 -0.0358 -0.1104  0.0909
 7373SOL    HW133755   3.263   0.460   4.449 -0.8648 -1.1443 -0.6787
 7373SOL    HW233756   3.257   0.320   4.458  0.9156 -0.6837 -0.5878
 7374SOL     OW33757   3.442   0.728   4.840 -0.5259  0.1130 -0.0983
 7374SOL    HW133758   3.521   0.728   4.894  0.6191 -0.3521 -1.7819
 7374SOL    HW233759   3.442   0.641   4.801 -0.9778 -0.3274  0.8676
 7375SOL     OW33760   3.913   3.871  14.682 -0.3425 -0.1723  0.4817
 7375SOL    HW133761   3.919   3.776  14.680  1.9645 -0.0449  1.7486
 7375SOL    HW233762   3.896   3.892  14.590  2.5951  1.5740  0.3556
 7376SOL     OW33763   0.990   4.342   7.165  0.6208  0.1204 -0.5965
 7376SOL    HW133764   0.933   4.380   7.099  2.1484  2.1619 -0.7402
 7376SOL    HW233765   1.071   4.320   7.120  1.0130 -1.6675  0.9944
 7377SOL     OW33766   3.266   3.277   7.130 -0.0619 -0.6757  0.0621
 7377SOL    HW133767   3.219   3.286   7.046 -0.5199 -0.2288  0.3649
 7377SOL    HW233768   3.232   3.191   7.152 -0.9979 -0.1055  0.8371
 7378SOL     OW33769   3.907   2.624   8.301 -0.0970  0.0206 -0.2644
 7378SOL    HW133770   3.966   2.550   8.316  0.3731  0.2204 -1.1638
 7378SOL    HW233771   3.951   2.691   8.353  0.0207 -0.3156  0.0735
 7379SOL     OW33772   0.499   0.484   8.269  0.1036 -0.0135 -0.1412
 7379SOL    HW133773   0.480   0.551   8.204 -0.4373 -0.0473 -0.0184
 7379SOL    HW233774   0.471   0.402   8.228 -2.4463  1.1132 -0.6190
 7380SOL     OW33775   1.332   3.666   5.592  0.0517  0.0699  0.0207
 7380SOL    HW133776   1.349   3.720   5.669  0.4320 -0.6742  0.4556
 7380SOL    HW233777   1.393   3.703   5.528 -0.4090 -0.0371 -0.4831
 7381SOL     OW33778   3.666   0.502   6.025  0.6955 -0.1836  0.3430
 7381SOL    HW133779   3.646   0.413   5.995 -1.7603  0.4136  0.1737
 7381SOL    HW233780   3.708   0.494   6.110  1.5996  2.7702  0.1459
 7382SOL     OW33781   3.525   1.894  13.803 -0.5230 -0.8890 -0.2437
 7382SOL    HW133782   3.516   1.849  13.719  0.2518  0.3404 -0.9912
 7382SOL    HW233783   3.609   1.935  13.783 -0.3929 -0.8171  0.4586
 7383SOL     OW33784   0.761   0.529   5.089  0.3778 -0.5322 -0.0038
 7383SOL    HW133785   0.819   0.568   5.024  0.8415 -2.1544 -0.5444
 7383SOL    HW233786   0.758   0.436   5.069  0.0722 -0.3857 -0.6618
 7384SOL     OW33787   1.054   3.999  15.596 -0.2434 -0.2017 -0.0967
 7384SOL    HW133788   1.126   4.034  15.649 -0.9881  0.0003  0.7920
 7384SOL    HW233789   1.072   3.906  15.606  0.6524 -0.0338 -0.1461
 7385SOL     OW33790   0.381   1.661   5.259  0.1264 -0.2835 -0.3252
 7385SOL    HW133791   0.323   1.633   5.188 -0.5447  0.2780  0.0024
 7385SOL    HW233792   0.348   1.743   5.294 -0.4910 -0.5090 -0.3766
 7386SOL     OW33793   0.415   3.585  17.596 -0.1067  0.5796  0.0936
 7386SOL    HW133794   0.361   3.650  17.551  0.2450  0.3620 -0.6406
 7386SOL    HW233795   0.498   3.587  17.549 -0.4153  3.0472 -0.3698
 7387SOL     OW33796   2.866   0.487   8.843  0.5717 -0.2882  0.3010
 7387SOL    HW133797   2.908   0.450   8.922 -2.7137 -1.4352  1.5091
 7387SOL    HW233798   2.795   0.426   8.822  0.1582  0.3253 -0.0506
 7388SOL     OW33799   1.087   1.139   6.644  0.6994  0.6358 -0.3732
 7388SOL    HW133800   1.034   1.207   6.602 -0.0059  0.0239 -0.4660
 7388SOL    HW233801   1.050   1.128   6.731  1.0382 -1.3381 -0.4935
 7389SOL     OW33802   4.210   4.712   7.003  0.5237 -0.1222 -0.3666
 7389SOL    HW133803   4.254   0.050   6.964 -0.8210  0.2273 -1.2348
 7389SOL    HW233804   4.241   4.638   6.952  0.9546 -0.3428  0.2257
 7390SOL     OW33805   4.604   0.662   5.871  0.4409 -0.1510  0.2023
 7390SOL    HW133806   4.512   0.662   5.845  0.8574 -1.3692 -1.2820
 7390SOL    HW233807   4.614   0.572   5.904  1.2822  0.6912  2.2295
 7391SOL     OW33808   1.023   2.220   7.288 -0.4093 -0.4737  0.2202
 7391SOL    HW133809   0.956   2.153   7.286 -0.5595 -0.3901  1.9148
 7391SOL    HW233810   1.096   2.181   7.336 -0.7051 -2.5814 -1.0811
 7392SOL     OW33811   0.587   3.693   4.470  0.2975  0.2621  0.4230
 7392SOL    HW133812   0.524   3.763   4.483 -0.8557 -0.7243  0.1244
 7392SOL    HW233813   0.659   3.751   4.445 -0.3195  0.4462 -0.9490
 7393SOL     OW33814   1.328   0.939  11.422  0.0727 -0.2340 -0.4421
 7393SOL    HW133815   1.335   1.035  11.419  2.2912 -0.3862 -0.1886
 7393SOL    HW233816   1.413   0.925  11.380 -0.3564 -1.5156 -0.8644
 7394SOL     OW33817   2.734   1.777  11.776  0.1862  0.3229 -0.2955
 7394SOL    HW133818   2.724   1.727  11.857  0.8318 -0.6762 -0.8281
 7394SOL    HW233819   2.672   1.850  11.777  0.8737  0.9197 -1.5811
 7395SOL     OW33820   0.397   0.863  13.299  0.1254  0.2290 -0.3997
 7395SOL    HW133821   0.404   0.955  13.324  0.3086  0.7394 -2.2897
 7395SOL    HW233822   0.452   0.856  13.220  0.1419  0.7475 -0.4329
 7396SOL     OW33823   2.544   2.120   2.479 -0.2148 -0.2266 -0.2223
 7396SOL    HW133824   2.579   2.137   2.567 -1.5823  0.6479  0.1550
 7396SOL    HW233825   2.552   2.204   2.434 -1.1173 -0.1420 -0.2174
 7397SOL     OW33826   1.040   4.081   7.617  0.1768  0.4287  0.4658
 7397SOL    HW133827   1.088   4.132   7.552 -1.7763  0.8751 -0.6234
 7397SOL    HW233828   1.040   3.989   7.588  1.5489  0.1032  1.4862
 7398SOL     OW33829   3.402   4.484   4.457  0.3215 -0.2623  0.3744
 7398SOL    HW133830   3.453   4.403   4.454 -0.4716 -0.7358 -0.5071
 7398SOL    HW233831   3.341   4.474   4.384  0.1477 -0.4856  0.5530
 7399SOL     OW33832   0.310   1.063   4.986  1.1161  0.2418 -0.0467
 7399SOL    HW133833   0.392   1.063   4.936  0.0296 -2.8101 -1.8984
 7399SOL    HW233834   0.314   1.146   5.033 -1.8679 -0.0388  0.7433
 7400SOL     OW33835   3.577   2.306   0.309 -0.5325  0.6619  0.1987
 7400SOL    HW133836   3.549   2.392   0.280  0.4433  0.4859 -1.3172
 7400SOL    HW233837   3.624   2.314   0.392  3.2238 -1.7235 -1.6900
 7401SOL     OW33838   2.647   3.862   4.868 -0.1194 -0.1541  0.2003
 7401SOL    HW133839   2.690   3.899   4.945  0.6654 -0.7771  0.0627
 7401SOL    HW233840   2.636   3.943   4.818  1.7028 -1.1258 -1.7775
 7402SOL     OW33841   1.398   0.706  12.082 -0.1833 -0.0852 -0.4148
 7402SOL    HW133842   1.469   0.694  12.145 -1.2982 -2.6036  0.3491
 7402SOL    HW233843   1.337   0.761  12.132 -0.4940 -1.6557  0.9210
 7403SOL     OW33844   3.214   3.341   8.596 -0.2539 -0.0402  0.5547
 7403SOL    HW133845   3.204   3.381   8.683 -1.8456 -1.0646  0.8399
 7403SOL    HW233846   3.308   3.343   8.579 -0.3580 -0.7503 -0.0751
 7404SOL     OW33847   3.401   3.537  12.522  0.1640  0.0665 -0.7716
 7404SOL    HW133848   3.350   3.615  12.499 -0.5269 -0.4795 -1.0788
 7404SOL    HW233849   3.417   3.488  12.441 -2.2988 -1.2238 -0.4949
 7405SOL     OW33850   1.292   2.668  12.637 -0.1178 -0.3577 -0.1411
 7405SOL    HW133851   1.296   2.725  12.713 -0.5118 -1.5271  0.7612
 7405SOL    HW233852   1.217   2.707  12.592 -1.6074 -0.9457  1.8620
 7406SOL     OW33853   1.651   4.371   1.159  0.4260  0.6206  0.6078
 7406SOL    HW133854   1.709   4.341   1.089 -0.1927 -0.3373  0.5079
 7406SOL    HW233855   1.649   4.295   1.217  0.5821  0.1193 -0.0501
 7407SOL     OW33856   1.376   0.273   5.555  0.3092 -0.2621 -0.3110
 7407SOL    HW133857   1.425   0.203   5.511 -0.0280 -0.0340 -1.0561
 7407SOL    HW233858   1.292   0.232   5.574 -1.4305  2.8815 -1.2817
 7408SOL     OW33859   1.075   1.632  11.743 -0.1835  0.6671  0.2553
 7408SOL    HW133860   1.015   1.694  11.784  1.4875  2.4718 -0.0028
 7408SOL    HW233861   1.005   1.569  11.729  1.3200 -0.6615 -1.2844
 7409SOL     OW33862   1.110   2.248  12.776  0.4799  0.7841  0.3226
 7409SOL    HW133863   1.128   2.340  12.795 -1.8082  1.5554 -1.2627
 7409SOL    HW233864   1.191   2.213  12.814  0.4094  1.0913  0.7449
 7410SOL     OW33865   2.947   0.419  14.805  0.1392 -0.6112 -0.4824
 7410SOL    HW133866   2.969   0.512  14.807  0.5617 -0.7439  1.0130
 7410SOL    HW233867   2.967   0.406  14.712  4.4065 -1.4449  0.5397
 7411SOL     OW33868   0.878   0.474  17.592 -0.1318  0.6053  0.5670
 7411SOL    HW133869   0.875   0.567  17.569 -0.7459  0.5659  0.4782
 7411SOL    HW233870   0.939   0.470  17.665 -0.1905  2.4071  0.7144
 7412SOL     OW33871   2.860   2.586   6.092 -0.1474  0.0516 -0.5319
 7412SOL    HW133872   2.921   2.655   6.118  0.7054  0.3405 -3.2814
 7412SOL    HW233873   2.878   2.580   5.998  0.8648  0.6594 -0.3712
 7413SOL     OW33874   3.317   0.441   9.524 -0.7428 -0.0565  0.4059
 7413SOL    HW133875   3.319   0.523   9.574  1.9511 -0.9359  1.8051
 7413SOL    HW233876   3.228   0.415   9.547 -1.1285  1.1605  0.2539
 7414SOL     OW33877   3.593   2.175   8.552 -0.5667  0.0050  0.2939
 7414SOL    HW133878   3.609   2.119   8.477  0.0253  0.4535  0.0776
 7414SOL    HW233879   3.499   2.161   8.553 -0.3465 -1.4645  0.5026
 7415SOL     OW33880   3.789   3.461   8.384 -0.5728  0.2882 -0.5657
 7415SOL    HW133881   3.715   3.513   8.416  0.7654  1.6182  0.3888
 7415SOL    HW233882   3.754   3.434   8.299 -0.1221  0.7457 -0.9015
 7416SOL     OW33883   0.625   0.293   9.009  0.6321 -0.4747  0.2230
 7416SOL    HW133884   0.616   0.381   8.973 -2.6156 -0.7509  0.3970
 7416SOL    HW233885   0.697   0.309   9.070  1.3775 -0.0094 -0.7808
 7417SOL     OW33886   1.727   3.890   8.499 -0.0579  0.1914  0.2656
 7417SOL    HW133887   1.680   3.965   8.534  2.4641  1.7122  0.3977
 7417SOL    HW233888   1.730   3.916   8.407  0.0493  0.5730  0.3803
 7418SOL     OW33889   4.392   3.035   8.744 -0.2229  0.1451  0.4032
 7418SOL    HW133890   4.365   3.118   8.706 -2.2071  0.6386  2.8942
 7418SOL    HW233891   4.411   2.983   8.666  0.5148  0.1832  0.5529
 7419SOL     OW33892   0.758   3.723  12.676 -0.6609  0.2891  0.0190
 7419SOL    HW133893   0.692   3.653  12.676  1.7530 -1.9756  1.3892
 7419SOL    HW233894   0.822   3.694  12.740 -0.8945 -1.1969 -0.4063
 7420SOL     OW33895   1.828   2.026  15.883  0.4516 -0.1196 -0.6476
 7420SOL    HW133896   1.863   2.027  15.794  1.5012 -0.5385 -0.2356
 7420SOL    HW233897   1.804   2.118  15.893  1.5857 -0.0643  1.4828
 7421SOL     OW33898   4.683   1.073   7.280 -0.0026  0.4835  0.1448
 7421SOL    HW133899   4.656   0.981   7.278 -0.9314  0.6687  2.8111
 7421SOL    HW233900   0.038   1.063   7.299  0.2004 -1.5958 -1.9685
 7422SOL     OW33901   1.085   4.340   0.220 -0.6977 -0.1492  0.6454
 7422SOL    HW133902   1.000   4.337   0.265 -1.1259  0.6707 -0.1301
 7422SOL    HW233903   1.136   4.402   0.272  0.6910 -1.2161  0.5611
 7423SOL     OW33904   4.030   1.437  17.436  0.1499 -0.0790  0.3581
 7423SOL    HW133905   3.948   1.397  17.463  0.7515 -0.8139  1.1011
 7423SOL    HW233906   3.994   1.513  17.391  0.8501 -1.3840 -2.3957
 7424SOL     OW33907   0.938   3.125   5.427 -0.2690  0.3801  0.1619
 7424SOL    HW133908   0.857   3.145   5.380 -1.2655 -0.6865  1.4226
 7424SOL    HW233909   0.903   3.077   5.502  1.2183 -0.6627  0.1798
 7425SOL     OW33910   4.503   2.676   8.680  0.3128 -0.4919  0.3417
 7425SOL    HW133911   4.459   2.746   8.630 -0.0651 -0.4294  0.7565
 7425SOL    HW233912   4.447   2.674   8.758  0.4266 -1.1406  0.4013
 7426SOL     OW33913   1.314   4.547  11.926  0.2620  0.4787 -0.3489
 7426SOL    HW133914   1.229   4.556  11.969 -1.2483 -1.6978 -2.8511
 7426SOL    HW233915   1.362   4.545  12.009  1.5988 -0.5986 -1.1437
 7427SOL     OW33916   1.465   3.036   0.447 -0.2042 -0.1053 -0.0777
 7427SOL    HW133917   1.506   2.949   0.451 -0.3292 -0.0603  2.0939
 7427SOL    HW233918   1.379   3.007   0.478 -2.2727  5.4453 -0.6736
 7428SOL     OW33919   3.038   3.534   4.822  0.0638 -0.2409 -0.1712
 7428SOL    HW133920   2.968   3.570   4.876  0.5615  0.6545 -0.1174
 7428SOL    HW233921   3.053   3.450   4.866  1.3664 -0.3079 -0.7392
 7429SOL     OW33922   1.642   0.153   2.621  0.1996 -0.0421 -0.1649
 7429SOL    HW133923   1.653   0.144   2.715  0.1859 -1.9454 -0.3426
 7429SOL    HW233924   1.548   0.171   2.620 -0.0714 -1.4371  0.1776
 7430SOL     OW33925   0.569   0.515   3.653 -0.5649 -0.5285 -0.8058
 7430SOL    HW133926   0.619   0.566   3.589 -0.2234  0.6203  0.3745
 7430SOL    HW233927   0.479   0.524   3.621  0.1675  0.9533 -2.4747
 7431SOL     OW33928   4.173   3.590   2.963  0.0373 -0.6659  0.2492
 7431SOL    HW133929   4.145   3.612   3.052  2.5523 -1.1106  1.1476
 7431SOL    HW233930   4.258   3.554   2.987  0.5339  0.7415  0.6166
 7432SOL     OW33931   2.270   2.777   8.765 -0.3444 -0.4703  0.3176
 7432SOL    HW133932   2.314   2.860   8.750 -1.9833  0.3581  0.1114
 7432SOL    HW233933   2.183   2.814   8.778  0.1005  0.9239 -0.7181
 7433SOL     OW33934   1.949   2.782   7.804  0.1034 -0.1937  0.3213
 7433SOL    HW133935   1.908   2.867   7.785 -1.1176 -0.3652  2.2425
 7433SOL    HW233936   1.964   2.743   7.718  1.2889 -1.0651  0.9259
 7434SOL     OW33937   2.267   4.109  10.653  0.3343 -0.3492  0.2690
 7434SOL    HW133938   2.173   4.127  10.660  0.2428 -1.4528  2.0874
 7434SOL    HW233939   2.290   4.104  10.746  2.6645 -1.7729 -0.3941
 7435SOL     OW33940   0.420   1.986   4.349 -0.3019  0.0263  0.1044
 7435SOL    HW133941   0.422   2.074   4.387 -0.0905  0.0597  0.0218
 7435SOL    HW233942   0.513   1.986   4.323  0.8180  0.7301  4.1588
 7436SOL     OW33943   0.964   4.006  13.572  0.2043 -0.0083 -0.4878
 7436SOL    HW133944   0.931   3.916  13.562  0.5819 -0.2064  0.0954
 7436SOL    HW233945   0.888   4.052  13.536  0.9997  0.2291 -1.8645
 7437SOL     OW33946   2.611   0.477  15.431 -0.4192  0.0268  0.2167
 7437SOL    HW133947   2.679   0.455  15.494 -1.1028 -0.1952  0.8664
 7437SOL    HW233948   2.528   0.480  15.477 -1.1680 -2.6830 -0.9549
 7438SOL     OW33949   1.264   4.466   7.500  0.5303  0.2787 -0.4083
 7438SOL    HW133950   1.251   4.373   7.486  0.0241  0.4293 -0.9103
 7438SOL    HW233951   1.176   4.495   7.475 -0.1155 -0.1561  1.3345
 7439SOL     OW33952   0.514   3.411   3.859 -0.1398 -0.4202 -0.2194
 7439SOL    HW133953   0.476   3.499   3.856  2.8379  0.9662  3.0842
 7439SOL    HW233954   0.580   3.425   3.791  1.3673 -0.3491  1.2708
 7440SOL     OW33955   3.254   0.589   5.242 -0.5963 -0.2290  0.1328
 7440SOL    HW133956   3.169   0.560   5.208  0.5468 -1.1226 -1.9108
 7440SOL    HW233957   3.284   0.647   5.172  0.1001 -1.7325 -0.8041
 7441SOL     OW33958   0.694   1.460   7.652 -0.0815  0.2561  0.3272
 7441SOL    HW133959   0.735   1.407   7.721  1.1160  0.8535  0.0763
 7441SOL    HW233960   0.768   1.519   7.640  0.4506 -0.3942  0.4236
 7442SOL     OW33961   3.128   0.965  11.173  0.4751 -0.6168  0.3741
 7442SOL    HW133962   3.210   1.012  11.163  1.0471 -2.3416 -3.0840
 7442SOL    HW233963   3.089   0.998  11.092  1.9705 -0.1562 -0.1525
 7443SOL     OW33964   0.156   0.884  14.616  0.5557 -0.4331  0.2286
 7443SOL    HW133965   0.182   0.974  14.596  1.5390 -0.6273  0.6442
 7443SOL    HW233966   0.243   0.846  14.624  0.1548 -1.6054 -1.0082
 7444SOL     OW33967   1.847   3.872   2.325 -0.4284 -0.5212  0.5699
 7444SOL    HW133968   1.884   3.953   2.362 -0.7174 -1.4753  2.9393
 7444SOL    HW233969   1.885   3.881   2.238 -1.5430  0.2490  0.1637
 7445SOL     OW33970   1.480   3.207   9.805 -0.1208 -0.0084 -0.3776
 7445SOL    HW133971   1.513   3.130   9.850 -0.5466  1.1054  1.8356
 7445SOL    HW233972   1.490   3.271   9.875 -1.0650  1.3036 -1.4343
 7446SOL     OW33973   2.475   4.592   3.253  0.0201 -0.1408  0.2176
 7446SOL    HW133974   2.502   4.518   3.307  1.6923 -1.1073 -1.9214
 7446SOL    HW233975   2.517   4.664   3.299  0.0324 -1.4565  2.2378
 7447SOL     OW33976   1.434   4.132  15.267  0.1006 -0.4502  0.1561
 7447SOL    HW133977   1.418   4.111  15.175  3.1383  0.9910 -0.7108
 7447SOL    HW233978   1.388   4.060  15.308  1.9358 -1.4620  0.4192
 7448SOL     OW33979   0.105   3.019  12.286 -0.1705 -0.8781 -0.0368
 7448SOL    HW133980   0.158   3.047  12.360  0.7237  0.7377 -1.2978
 7448SOL    HW233981   0.168   2.986  12.222  1.5226 -0.2386  1.3262
 7449SOL     OW33982   0.164   0.797   5.812  0.6294  0.3341  0.7023
 7449SOL    HW133983   0.182   0.843   5.730  0.1465  0.2440  0.5469
 7449SOL    HW233984   0.077   0.763   5.790 -0.5259  2.8985  1.3062
 7450SOL     OW33985   3.438   4.735   4.430  0.4033 -0.2666 -0.0491
 7450SOL    HW133986   3.344   0.015   4.418  0.5243  0.8741  0.6345
 7450SOL    HW233987   3.425   4.642   4.449  0.7867 -0.3462 -0.1882
 7451SOL     OW33988   4.644   4.531   5.508  0.3346  0.3881  0.0285
 7451SOL    HW133989   4.663   4.525   5.601 -0.1539  2.8867  0.3038
 7451SOL    HW233990   4.720   4.488   5.469 -0.7763 -2.1716  0.6810
 7452SOL     OW33991   4.021   2.296   2.370 -0.2714 -0.1167 -0.2900
 7452SOL    HW133992   4.043   2.282   2.278  0.9992 -2.1780  0.3193
 7452SOL    HW233993   4.109   2.292   2.408  0.5409 -0.2847 -2.1743
 7453SOL     OW33994   0.756   4.501   7.289  0.1388 -0.0535  0.0387
 7453SOL    HW133995   0.791   4.507   7.200 -2.1656 -0.3930 -0.8913
 7453SOL    HW233996   0.830   4.473   7.344 -0.8032  0.2133  1.4558
 7454SOL     OW33997   2.262   0.289   0.086 -0.5451 -0.0664 -0.5241
 7454SOL    HW133998   2.279   0.337   0.006 -1.6872 -0.1128 -0.8012
 7454SOL    HW233999   2.236   0.203   0.051  0.9664 -0.4828 -0.6214
 7455SOL     OW34000   2.044   4.458   6.851  0.3108  0.4547 -0.4555
 7455SOL    HW134001   2.100   4.443   6.927 -1.1910  0.4804  0.6611
 7455SOL    HW234002   2.112   4.446   6.785 -0.9055  2.1490 -2.0127
 7456SOL     OW34003   0.017   1.312  15.271 -0.1516 -0.0805 -0.4121
 7456SOL    HW134004   0.044   1.257  15.197  1.3736  0.3417 -0.1591
 7456SOL    HW234005   4.667   1.338  15.241 -1.1635 -1.8863  0.9852
 7457SOL     OW34006   1.943   0.282   8.568 -0.6015  0.3129 -0.2399
 7457SOL    HW134007   1.876   0.248   8.627 -1.9727  2.5246 -0.5040
 7457SOL    HW234008   2.010   0.319   8.626  0.8988 -0.2839 -1.6093
 7458SOL     OW34009   0.088   2.292   7.029  0.3711  0.1834  0.1425
 7458SOL    HW134010   0.064   2.366   6.974  0.4229  0.5037  0.5492
 7458SOL    HW234011   0.057   2.320   7.115  0.5293 -0.8615  0.5429
 7459SOL     OW34012   1.516   2.506   6.635 -0.1808 -0.0555 -0.3304
 7459SOL    HW134013   1.491   2.513   6.727  0.7192  0.7504 -0.1420
 7459SOL    HW234014   1.425   2.512   6.605  0.1852  0.6739 -1.2902
 7460SOL     OW34015   3.335   1.246   9.727 -0.3092  0.1644 -0.3419
 7460SOL    HW134016   3.427   1.266   9.714 -0.1456 -1.4779 -1.7818
 7460SOL    HW234017   3.294   1.332   9.717  0.6054  0.5058 -1.1352
 7461SOL     OW34018   3.878   4.454   4.418  0.1187  0.8909  0.2561
 7461SOL    HW134019   3.956   4.439   4.365  0.5881  0.7176  0.9976
 7461SOL    HW234020   3.906   4.445   4.509  3.5737 -0.4141 -0.9360
 7462SOL     OW34021   3.867   2.590   0.139 -0.2292 -0.0240 -0.4470
 7462SOL    HW134022   3.864   2.664   0.078 -1.3466  0.3639  0.0616
 7462SOL    HW234023   3.854   2.635   0.223  0.2188  0.2061 -0.5046
 7463SOL     OW34024   2.197   4.687   8.264  0.5454  0.5347 -0.0446
 7463SOL    HW134025   2.142   4.698   8.342 -1.4209  0.1930 -1.3643
 7463SOL    HW234026   2.280   4.670   8.309 -0.2421 -0.7216  0.9348
 7464SOL     OW34027   1.420   3.244   3.402 -0.0442 -0.2481 -0.1555
 7464SOL    HW134028   1.364   3.317   3.428  1.2683  0.9018 -0.5709
 7464SOL    HW234029   1.427   3.194   3.483  4.0032  0.9318  0.2343
 7465SOL     OW34030   2.267   2.913  10.060 -0.2374  0.1881 -0.0636
 7465SOL    HW134031   2.234   2.874  10.141 -1.8804 -2.0541 -1.7970
 7465SOL    HW234032   2.352   2.871  10.047 -0.0252  0.2643  1.0936
 7466SOL     OW34033   0.005   3.322   5.269 -0.5167  0.0299  0.0580
 7466SOL    HW134034   0.073   3.255   5.266 -0.3697  0.2295 -0.9331
 7466SOL    HW234035   0.047   3.381   5.206 -0.7394  0.0323 -0.0866
 7467SOL     OW34036   0.189   1.826   5.350 -0.2279  0.5271 -0.1595
 7467SOL    HW134037   0.146   1.846   5.433  3.2368 -0.0697  1.7954
 7467SOL    HW234038   0.136   1.753   5.320 -1.0590  1.4675 -0.9572
 7468SOL     OW34039   4.277   3.457   4.066  0.1904 -0.2540  0.1599
 7468SOL    HW134040   4.323   3.416   4.139  1.9250  1.6676  0.1686
 7468SOL    HW234041   4.277   3.549   4.093  0.1419  0.6755 -3.0055
 7469SOL     OW34042   3.003   3.025   7.584 -0.0084 -0.1999  0.6749
 7469SOL    HW134043   2.915   3.030   7.622  0.4016  1.1634  1.4336
 7469SOL    HW234044   2.989   2.958   7.517 -2.5254  0.8960  0.0710
 7470SOL     OW34045   3.203   3.914   2.324  0.2757  0.5015  0.0969
 7470SOL    HW134046   3.193   3.819   2.324 -0.3903  0.5670  2.4922
 7470SOL    HW234047   3.125   3.931   2.270  0.6638 -0.3827 -0.7251
 7471SOL     OW34048   1.285   4.399  11.697 -0.3400  0.1533 -0.1639
 7471SOL    HW134049   1.323   4.448  11.771  0.5914 -0.8107 -0.0006
 7471SOL    HW234050   1.245   4.320  11.733 -1.4082  1.5410  1.7145
 7472SOL     OW34051   2.302   1.818  11.120 -0.2769  0.2006 -0.3284
 7472SOL    HW134052   2.310   1.729  11.153  3.0444 -0.0029 -1.6086
 7472SOL    HW234053   2.323   1.864  11.201  2.1207  0.8681 -1.3024
 7473SOL     OW34054   2.203   0.736   8.925  0.0705  0.2352  0.0309
 7473SOL    HW134055   2.110   0.729   8.944  0.0693 -2.7648 -1.1124
 7473SOL    HW234056   2.232   0.783   9.003 -0.8803  0.8913 -0.0063
 7474SOL     OW34057   4.559   2.411  16.837 -0.1810  0.2880 -0.0169
 7474SOL    HW134058   4.582   2.319  16.825  0.1071  0.3239  0.2551
 7474SOL    HW234059   4.464   2.407  16.827 -0.3829  0.6496  1.7055
 7475SOL     OW34060   3.843   3.067  17.642  0.0052 -0.0657  0.0191
 7475SOL    HW134061   3.781   3.092  17.574  0.8951 -0.3462 -0.8890
 7475SOL    HW234062   3.923   3.104  17.606  0.3797  0.2890  1.2063
 7476SOL     OW34063   3.583   1.652   3.515 -0.6924  0.2069 -0.3792
 7476SOL    HW134064   3.640   1.660   3.591 -2.2342  1.0364  0.7052
 7476SOL    HW234065   3.541   1.567   3.534  1.3079 -0.6535  0.1483
 7477SOL     OW34066   1.486   1.274   5.115 -0.1309 -0.0391  0.5745
 7477SOL    HW134067   1.542   1.213   5.163  2.3557  0.4017 -1.8020
 7477SOL    HW234068   1.487   1.244   5.023 -0.1451  0.1080  0.5269
 7478SOL     OW34069   2.751   4.676  14.468  0.1449 -0.3199 -0.0652
 7478SOL    HW134070   2.761   4.654  14.561  0.2277 -0.8761 -0.2055
 7478SOL    HW234071   2.725   0.030  14.481  1.9327  0.2011 -0.1721
 7479SOL     OW34072   1.811   1.244  11.089 -0.3671  0.2608 -0.2503
 7479SOL    HW134073   1.899   1.207  11.096 -1.4312 -2.2672 -0.1307
 7479SOL    HW234074   1.824   1.322  11.035 -1.9879  1.6590  1.3889
 7480SOL     OW34075   1.245   0.629   1.663  0.2143  0.1967  0.5622
 7480SOL    HW134076   1.282   0.547   1.631 -1.6413  0.2214 -1.6673
 7480SOL    HW234077   1.242   0.682   1.583 -3.5444  0.8570  1.1378
 7481SOL     OW34078   4.533   0.700   8.127 -0.6525 -1.0588 -0.1059
 7481SOL    HW134079   4.602   0.705   8.194 -0.2336 -0.5799 -0.5693
 7481SOL    HW234080   4.465   0.645   8.164 -0.4649 -2.3426 -1.6546
 7482SOL     OW34081   4.287   0.087   4.187  0.2598 -0.0483 -0.3318
 7482SOL    HW134082   4.333   0.011   4.152 -1.1133 -0.1675 -1.8614
 7482SOL    HW234083   4.197   0.065   4.161  0.7117 -0.2570 -1.6986
 7483SOL     OW34084   1.332   3.800  14.999  0.7143 -0.0940 -0.1191
 7483SOL    HW134085   1.363   3.743  15.069 -3.3968 -2.3678 -0.1653
 7483SOL    HW234086   1.240   3.804  15.026  0.7875 -6.4891  0.8947
 7484SOL     OW34087   0.022   4.280   6.567 -0.0818 -0.2951  0.6408
 7484SOL    HW134088   0.113   4.310   6.562 -0.6000  0.7918 -2.4371
 7484SOL    HW234089   4.713   4.356   6.534 -1.5151 -0.9289  1.2023
 7485SOL     OW34090   4.231   1.485   7.790  0.3266 -0.6222 -0.2343
 7485SOL    HW134091   4.279   1.555   7.745 -0.2010 -1.5521 -2.2335
 7485SOL    HW234092   4.202   1.432   7.716  2.9253 -0.3368 -1.4290
 7486SOL     OW34093   3.900   1.817   2.840 -0.1048  0.6033 -0.5427
 7486SOL    HW134094   3.854   1.736   2.815 -0.0990  0.0605  1.2038
 7486SOL    HW234095   3.952   1.843   2.765 -1.2009 -0.4928 -1.6934
 7487SOL     OW34096   3.879   1.850   3.898 -0.1283  0.2589 -0.1899
 7487SOL    HW134097   3.940   1.923   3.890  1.1473 -0.5691  2.0451
 7487SOL    HW234098   3.939   1.777   3.918 -1.2373  0.0169  2.2125
 7488SOL     OW34099   2.177   0.886   7.703  0.3285 -0.2102 -0.4889
 7488SOL    HW134100   2.183   0.928   7.617 -0.4049 -0.3731 -0.6230
 7488SOL    HW234101   2.112   0.815   7.695  0.6640 -0.7391  1.5658
 7489SOL     OW34102   0.580   4.359   4.324  0.2524  0.2789 -0.1083
 7489SOL    HW134103   0.509   4.424   4.325 -1.6256 -1.7464 -1.3138
 7489SOL    HW234104   0.558   4.315   4.406  1.3332  0.9524  0.5380
 7490SOL     OW34105   0.801   2.652   2.090  0.2020  0.2730 -0.1885
 7490SOL    HW134106   0.815   2.575   2.034  1.3304 -0.9449  1.7483
 7490SOL    HW234107   0.812   2.727   2.031  1.1503  0.0854 -0.2569
 7491SOL     OW34108   3.482   2.754   2.493 -0.2105  0.5849  0.1849
 7491SOL    HW134109   3.503   2.834   2.445  3.5806  0.6822  2.0050
 7491SOL    HW234110   3.510   2.782   2.580 -0.4360 -0.9803  0.7680
 7492SOL     OW34111   4.179   2.638   6.442  0.2764  0.3982 -0.5821
 7492SOL    HW134112   4.107   2.630   6.505 -0.5758  1.8419 -1.3752
 7492SOL    HW234113   4.223   2.721   6.464 -2.4338  2.1513 -1.7691
 7493SOL     OW34114   0.426   0.952   3.739 -0.4769 -0.0121 -0.0369
 7493SOL    HW134115   0.519   0.939   3.720 -0.6389 -0.0535 -0.7973
 7493SOL    HW234116   0.388   0.901   3.669  1.7344 -0.0967 -1.1866
 7494SOL     OW34117   2.034   3.834   2.085  0.2740  0.0960  0.3086
 7494SOL    HW134118   2.115   3.836   2.136  0.1854  0.6996  0.4292
 7494SOL    HW234119   1.997   3.758   2.129  2.1960  0.3119  2.3029
 7495SOL     OW34120   0.979   1.889   7.798 -0.2394  0.0971  0.7510
 7495SOL    HW134121   1.038   1.958   7.825  0.7281 -1.1737  1.8822
 7495SOL    HW234122   0.946   1.851   7.880  1.2426 -2.2377  0.2718
 7496SOL     OW34123   2.782   3.474   2.702 -0.7097 -0.7567 -0.2437
 7496SOL    HW134124   2.877   3.480   2.699 -0.8468  0.3999 -2.1333
 7496SOL    HW234125   2.760   3.439   2.788 -0.4421  1.4837  0.7209
 7497SOL     OW34126   0.124   0.049   9.099  0.5159 -0.2135 -0.2354
 7497SOL    HW134127   0.177   0.013   9.170 -1.9893 -0.7039  1.3867
 7497SOL    HW234128   0.172   0.127   9.072 -0.7881  0.5317 -0.3968
 7498SOL     OW34129   4.673   2.224   6.717 -0.0518 -0.1597  0.1825
 7498SOL    HW134130   4.735   2.264   6.778  0.3570 -2.4031  1.2241
 7498SOL    HW234131   4.596   2.231   6.772  0.0186 -0.3763  0.3062
 7499SOL     OW34132   3.815   3.065   4.379  0.2548  0.4009  0.0011
 7499SOL    HW134133   3.843   3.119   4.304 -2.8713  1.8497 -0.1217
 7499SOL    HW234134   3.771   3.137   4.424  0.9204  0.5327  0.4456
 7500SOL     OW34135   4.166   0.331   8.010 -0.0452  0.2993  0.3392
 7500SOL    HW134136   4.115   0.271   8.064  3.2134 -1.1936  1.7426
 7500SOL    HW234137   4.099   0.375   7.957  0.0536  1.0133  0.8167
 7501SOL     OW34138   0.993   3.355   3.325  0.1613 -0.2290 -0.3793
 7501SOL    HW134139   0.987   3.408   3.246  3.1608  3.7887  2.0618
 7501SOL    HW234140   1.088   3.348   3.321  0.1909 -0.1364  0.0915
 7502SOL     OW34141   2.039   1.500  10.680 -0.2769  0.3018 -0.3201
 7502SOL    HW134142   2.077   1.553  10.610  0.5172  0.6474  0.3657
 7502SOL    HW234143   2.022   1.566  10.747 -0.7887 -0.9995  0.8372
 7503SOL     OW34144   2.819   4.358   1.635  0.0885  0.2537 -0.0775
 7503SOL    HW134145   2.834   4.429   1.697  0.5094 -0.6646  0.8741
 7503SOL    HW234146   2.868   4.286   1.674 -0.7423 -0.2696  0.0042
 7504SOL     OW34147   4.495   0.260   2.790 -0.4789 -0.3466  0.1734
 7504SOL    HW134148   4.452   0.221   2.714  0.6157  1.1883 -1.2389
 7504SOL    HW234149   4.504   0.350   2.758 -1.2413 -0.6024 -0.7443
 7505SOL     OW34150   0.125   1.245   3.159  0.5990  0.1029  0.2410
 7505SOL    HW134151   0.095   1.280   3.243 -0.3215 -1.0420  0.3956
 7505SOL    HW234152   0.182   1.177   3.196  1.0141  1.1197  1.4670
 7506SOL     OW34153   2.547   4.297  13.074 -0.3509 -0.3683 -0.6557
 7506SOL    HW134154   2.536   4.390  13.095 -0.4245 -0.3092 -0.9582
 7506SOL    HW234155   2.615   4.276  13.138 -0.7915  1.3153  0.3568
 7507SOL     OW34156   4.109   3.081   3.728 -0.1498  0.1573  0.1908
 7507SOL    HW134157   4.020   3.107   3.748 -0.1207  1.4745 -1.3600
 7507SOL    HW234158   4.152   3.166   3.721 -0.7746  0.4576  0.0783
 7508SOL     OW34159   0.663   2.782   5.420  0.0095  0.5020  0.2817
 7508SOL    HW134160   0.583   2.739   5.388  0.0163  1.4785 -1.0435
 7508SOL    HW234161   0.651   2.873   5.391 -4.3186  0.4222  1.7423
 7509SOL     OW34162   2.863   0.345   3.448  0.1523 -0.3354  0.0390
 7509SOL    HW134163   2.900   0.429   3.475 -1.7956 -0.1980  2.2966
 7509SOL    HW234164   2.781   0.358   3.495  0.7065  0.1215  0.8703
 7510SOL     OW34165   0.661   2.603   6.686 -0.2634 -0.3455  0.3720
 7510SOL    HW134166   0.698   2.680   6.728 -1.3558  0.3370  0.0859
 7510SOL    HW234167   0.610   2.567   6.759  0.6403 -1.6904  0.3347
 7511SOL     OW34168   3.957   2.798   9.491 -0.1496  0.1081 -0.0035
 7511SOL    HW134169   3.897   2.854   9.443  0.9197 -0.3483 -1.8771
 7511SOL    HW234170   3.979   2.841   9.574  0.0471  1.8080 -0.9462
 7512SOL     OW34171   3.057   3.922   6.847  0.0787  0.4720 -0.2027
 7512SOL    HW134172   3.106   3.852   6.890  0.8623  1.0342 -0.1694
 7512SOL    HW234173   2.982   3.922   6.907  1.6605  0.3918  1.7944
 7513SOL     OW34174   1.064   2.640   5.783 -0.3586  0.2641  0.0679
 7513SOL    HW134175   1.035   2.565   5.835  1.4961 -1.6722 -1.7104
 7513SOL    HW234176   1.157   2.619   5.794 -0.2879  0.4232 -0.2171
 7514SOL     OW34177   2.493   2.019  15.966  0.2375  0.5909 -0.3960
 7514SOL    HW134178   2.516   1.954  16.033  1.0716 -0.3965 -1.6262
 7514SOL    HW234179   2.465   1.968  15.890  0.7108 -0.6214  0.2373
 7515SOL     OW34180   2.569   0.328   9.057  0.2075 -0.7160  0.0910
 7515SOL    HW134181   2.662   0.335   9.080  0.2115  0.4854 -0.2796
 7515SOL    HW234182   2.549   0.422   9.065  1.8246 -0.3715  0.1695
 7516SOL     OW34183   4.152   4.272   5.902 -0.9225 -0.4779 -0.3368
 7516SOL    HW134184   4.097   4.320   5.840 -1.0292  1.0990  0.9939
 7516SOL    HW234185   4.206   4.345   5.930 -0.3118 -1.4824  1.1210
 7517SOL     OW34186   2.397   0.867  15.102 -0.5559 -0.6535  0.7940
 7517SOL    HW134187   2.478   0.918  15.100 -1.2543  0.3840 -0.7080
 7517SOL    HW234188   2.364   0.871  15.013  0.6826  0.2742  0.3810
 7518SOL     OW34189   3.941   3.867   2.595  0.1709 -0.4035 -0.0649
 7518SOL    HW134190   3.847   3.870   2.608 -0.3587 -2.0498 -3.4269
 7518SOL    HW234191   3.962   3.805   2.666 -1.9964 -2.3532 -1.1223
 7519SOL     OW34192   1.694   2.314  11.856 -0.0169 -0.0988 -0.4640
 7519SOL    HW134193   1.612   2.286  11.895  0.2845  1.0224  0.9282
 7519SOL    HW234194   1.760   2.272  11.911 -0.3900  0.7190  0.6080
 7520SOL     OW34195   0.927   2.828   1.514 -0.2780 -0.6439  0.7102
 7520SOL    HW134196   0.922   2.886   1.590 -2.0500  2.4530 -1.7613
 7520SOL    HW234197   0.840   2.836   1.475  0.1217  0.9601  0.1713
 7521SOL     OW34198   3.552   2.929   3.623 -0.1301  0.2557  0.0671
 7521SOL    HW134199   3.542   2.846   3.670 -1.3825  0.4217  0.1142
 7521SOL    HW234200   3.609   2.972   3.686 -1.2387  0.0619  1.2165
 7522SOL     OW34201   3.402   2.389   1.467  0.3764  0.9851 -0.0548
 7522SOL    HW134202   3.348   2.416   1.393 -1.3348  0.8074  1.1358
 7522SOL    HW234203   3.355   2.312   1.498  0.9437 -0.1020 -1.9117
 7523SOL     OW34204   1.751   1.036   2.243  0.0435 -0.2538  0.1259
 7523SOL    HW134205   1.725   0.948   2.217  0.2035 -0.2686  0.0195
 7523SOL    HW234206   1.804   1.062   2.168  1.4158 -0.3245  1.0739
 7524SOL     OW34207   0.676   2.351   3.519 -0.0710  0.1576 -0.5087
 7524SOL    HW134208   0.664   2.282   3.454  1.5189 -0.7322  0.1478
 7524SOL    HW234209   0.734   2.313   3.585  2.1006  0.6565 -2.1372
 7525SOL     OW34210   1.705   2.509   4.412 -1.0078 -0.7437  0.9128
 7525SOL    HW134211   1.648   2.450   4.363 -1.4142  0.1062  0.3647
 7525SOL    HW234212   1.712   2.466   4.498  1.2616  2.5450  2.3831
 7526SOL     OW34213   4.542   4.302  10.782  0.1662 -0.2339  0.1572
 7526SOL    HW134214   4.448   4.304  10.769  0.2592 -2.9459 -0.9130
 7526SOL    HW234215   4.549   4.315  10.877 -1.1090 -2.1006  0.4981
 7527SOL     OW34216   0.873   1.147  11.199  0.2601 -0.0771  0.2266
 7527SOL    HW134217   0.940   1.082  11.181 -0.9785 -0.9423 -1.2379
 7527SOL    HW234218   0.803   1.116  11.141  2.2711 -0.5295 -1.9246
 7528SOL     OW34219   0.258   4.666   3.150  0.2575 -0.3445  0.3825
 7528SOL    HW134220   0.318   4.715   3.094 -1.6723 -0.2553 -1.6487
 7528SOL    HW234221   0.300   4.679   3.235 -0.6338 -3.1065  1.2423
 7529SOL     OW34222   1.434   1.797   0.694  0.5460 -0.2634  0.0355
 7529SOL    HW134223   1.345   1.767   0.708  1.0715 -1.9348 -0.1650
 7529SOL    HW234224   1.430   1.888   0.722 -0.3634 -0.1100 -0.6111
 7530SOL     OW34225   4.316   3.811   0.080 -0.4138  0.1756  0.1670
 7530SOL    HW134226   4.399   3.858   0.091  0.3684 -1.5926  1.7185
 7530SOL    HW234227   4.351   3.729   0.045 -1.4216 -0.8446  1.5615
 7531SOL     OW34228   4.073   2.771   4.559  0.2673  0.3839 -0.0570
 7531SOL    HW134229   3.987   2.799   4.526  0.1083 -1.5916 -1.3208
 7531SOL    HW234230   4.076   2.813   4.645  0.9345  1.6793 -0.7153
 7532SOL     OW34231   3.754   3.917   0.181 -0.4470  0.1334  0.4842
 7532SOL    HW134232   3.787   3.994   0.135  2.6112 -1.0499  0.6977
 7532SOL    HW234233   3.672   3.898   0.134 -1.0888  0.3321  1.5179
 7533SOL     OW34234   3.614   3.940   1.668 -0.1225  0.1529  0.4547
 7533SOL    HW134235   3.616   4.031   1.697  2.0751  0.0198  0.7593
 7533SOL    HW234236   3.542   3.899   1.715 -0.9971  0.9938 -0.1383
 7534SOL     OW34237   4.025   2.491   6.016 -0.2451  0.4183 -0.0365
 7534SOL    HW134238   4.110   2.473   5.976 -1.2169  0.3057 -2.0049
 7534SOL    HW234239   3.970   2.460   5.944 -3.1349  1.0942  1.8600
 7535SOL     OW34240   4.049   2.105  17.159  0.2847 -0.5331  0.2466
 7535SOL    HW134241   4.144   2.097  17.159  0.3606  0.2644  1.5569
 7535SOL    HW234242   4.033   2.152  17.241  0.7255  2.3392 -1.2818
 7536SOL     OW34243   1.304   3.217   5.017  0.4228 -0.6574 -0.4247
 7536SOL    HW134244   1.232   3.183   5.070  0.0221 -2.2496 -2.0173
 7536SOL    HW234245   1.282   3.310   5.021 -2.3117 -1.3152 -0.1125
 7537SOL     OW34246   1.450   0.110   4.185 -0.6346  0.4767  0.3048
 7537SOL    HW134247   1.538   0.122   4.149 -0.8050 -1.6448 -0.8118
 7537SOL    HW234248   1.453   0.019   4.216  0.4538  0.1171 -0.8392
 7538SOL     OW34249   4.578   4.480   7.472 -0.6779 -0.1777 -1.1341
 7538SOL    HW134250   4.579   4.576   7.467  0.7304 -0.1197  0.1386
 7538SOL    HW234251   4.493   4.463   7.432 -0.5208 -1.0309 -1.0897
 7539SOL     OW34252   3.065   0.891   6.419 -0.6319 -0.7703  0.5461
 7539SOL    HW134253   3.083   0.903   6.512 -1.7972  1.2313  0.5054
 7539SOL    HW234254   3.008   0.815   6.425  0.7211 -1.6437  2.2048
 7540SOL     OW34255   1.896   4.726   0.647  0.1017 -0.6594  0.1343
 7540SOL    HW134256   1.944   4.680   0.716  1.4095 -0.6212 -0.7389
 7540SOL    HW234257   1.915   4.676   0.567  0.5957  1.6306 -1.1849
 7541SOL     OW34258   0.184   1.278   2.080  0.4415 -0.4822 -0.2357
 7541SOL    HW134259   0.242   1.210   2.113  0.8162 -0.3030 -0.5253
 7541SOL    HW234260   0.171   1.321   2.165  0.3479 -1.3385  0.1864
 7542SOL     OW34261   0.684   0.859  16.890  0.5224 -0.0570 -0.3512
 7542SOL    HW134262   0.640   0.900  16.964 -1.1779  0.2205 -1.5080
 7542SOL    HW234263   0.630   0.899  16.821 -0.2632 -0.1851  0.1962
 7543SOL     OW34264   1.237   0.190  16.385  0.3276 -0.2075  0.1641
 7543SOL    HW134265   1.170   0.253  16.359  1.0034  0.6162  0.4083
 7543SOL    HW234266   1.206   0.106  16.352  1.2271 -0.9767  1.2742
 7544SOL     OW34267   0.193   3.418   5.058 -0.2711  0.3564  0.4542
 7544SOL    HW134268   0.228   3.454   4.977 -0.7125 -0.2592 -0.0117
 7544SOL    HW234269   0.178   3.330   5.025 -0.4425  0.9532 -1.0759
 7545SOL     OW34270   3.259   4.375   5.336  0.1034  0.6120 -0.2166
 7545SOL    HW134271   3.201   4.445   5.306  1.2482  1.4744 -0.4226
 7545SOL    HW234272   3.202   4.299   5.329 -0.8393  1.5188 -2.4756
 7546SOL     OW34273   1.190   1.725   4.321 -0.1649  0.2645 -0.8481
 7546SOL    HW134274   1.142   1.757   4.244 -0.4001  1.2571 -0.2989
 7546SOL    HW234275   1.261   1.671   4.287  0.6147  0.7839 -0.0434
 7547SOL     OW34276   3.378   3.906   3.874  0.1704  0.2680  0.2020
 7547SOL    HW134277   3.322   3.902   3.952 -1.5231 -1.2538 -1.0837
 7547SOL    HW234278   3.349   3.824   3.834 -0.6887  0.0434  1.2637
 7548SOL     OW34279   2.444   1.674  17.138 -0.1538 -0.3554  0.0632
 7548SOL    HW134280   2.537   1.690  17.120 -0.8484  2.1118 -1.4420
 7548SOL    HW234281   2.435   1.668  17.233  0.8679 -0.6983  0.1367
 7549SOL     OW34282   4.304   2.039   1.225  0.4968  0.1443 -0.2240
 7549SOL    HW134283   4.256   2.116   1.194 -0.8082 -0.2989  0.6925
 7549SOL    HW234284   4.304   1.993   1.141  0.3150  1.0120 -0.7064
 7550SOL     OW34285   0.601   3.873   8.435  0.0506  0.3402  0.0596
 7550SOL    HW134286   0.632   3.785   8.456  2.6785  0.9521 -1.2239
 7550SOL    HW234287   0.683   3.898   8.392  0.8544 -0.9805  0.8278
 7551SOL     OW34288   1.266   2.159  14.629  0.5136  0.1984 -0.1995
 7551SOL    HW134289   1.251   2.066  14.612 -1.4805  0.9456 -2.6914
 7551SOL    HW234290   1.359   2.169  14.610  0.2603  0.8299 -1.1510
 7552SOL     OW34291   0.052   1.768   3.642 -0.0986 -0.2511 -0.0507
 7552SOL    HW134292   0.108   1.739   3.570  0.6419 -1.0889  0.8515
 7552SOL    HW234293   0.098   1.745   3.723  2.3128  0.1908 -1.2750
 7553SOL     OW34294   2.647   2.957  13.415  0.3889 -0.7483 -0.8965
 7553SOL    HW134295   2.586   3.006  13.360  0.3951  1.6844  1.2475
 7553SOL    HW234296   2.710   2.944  13.344  0.9599  0.9400 -0.7022
 7554SOL     OW34297   3.587   3.808   2.271 -0.3512  0.1676 -0.1913
 7554SOL    HW134298   3.648   3.734   2.273 -0.8499 -0.2566 -0.4866
 7554SOL    HW234299   3.591   3.830   2.178  2.6889 -2.2300 -0.6540
 7555SOL     OW34300   2.582   3.577   6.005 -0.2047  0.2474  0.0649
 7555SOL    HW134301   2.562   3.664   6.039  0.0556 -0.3345  1.7340
 7555SOL    HW234302   2.491   3.564   5.980  0.5309  0.9837 -2.8876
 7556SOL     OW34303   2.549   4.717   9.294  0.2398 -0.4152  0.7113
 7556SOL    HW134304   2.511   0.067   9.302 -0.5383 -0.4597 -2.5528
 7556SOL    HW234305   2.466   4.675   9.270 -0.5124 -0.9372  4.2304
 7557SOL     OW34306   3.455   4.650   4.963  0.0510  0.1560 -0.1718
 7557SOL    HW134307   3.447   4.572   5.018 -0.0929  0.6819  0.5483
 7557SOL    HW234308   3.505   4.614   4.890 -0.8403 -1.0790 -0.1695
 7558SOL     OW34309   4.531   2.156  13.734 -0.1313 -0.4187  0.2136
 7558SOL    HW134310   4.506   2.249  13.734 -0.1302 -0.4265  1.7545
 7558SOL    HW234311   4.616   2.155  13.777 -1.2500 -1.2955  2.3777
 7559SOL     OW34312   1.798   0.222   6.943  0.0386 -0.1800  0.2453
 7559SOL    HW134313   1.828   0.137   6.911 -0.2713 -0.1191 -0.2130
 7559SOL    HW234314   1.859   0.249   7.012  0.8384 -1.7978  0.1646
 7560SOL     OW34315   3.671   1.287   1.817 -0.1124  0.4739 -0.4883
 7560SOL    HW134316   3.613   1.357   1.788 -1.9550 -1.0358 -0.4876
 7560SOL    HW234317   3.671   1.233   1.737 -0.2616  1.3685 -1.0910
 7561SOL     OW34318   3.247   2.234   1.644 -0.0340  0.4120 -0.0454
 7561SOL    HW134319   3.155   2.207   1.640  0.3316 -1.0285  1.7940
 7561SOL    HW234320   3.292   2.152   1.663  2.7473  1.4058 -2.2729
 7562SOL     OW34321   2.884   2.206   5.719 -0.0601  0.6884 -0.0470
 7562SOL    HW134322   2.802   2.251   5.701 -0.8615 -0.6400  0.2709
 7562SOL    HW234323   2.884   2.198   5.815  2.1484  1.3157  0.0067
 7563SOL     OW34324   0.404   2.390   1.993  0.6641 -0.5310  0.1939
 7563SOL    HW134325   0.461   2.403   1.916  1.4851  1.0078  1.0570
 7563SOL    HW234326   0.439   2.447   2.061 -0.7701  1.5509 -0.8188
 7564SOL     OW34327   1.641   0.418   8.875  0.1805 -0.1951  0.2098
 7564SOL    HW134328   1.555   0.392   8.910  0.0977 -0.1601  0.0292
 7564SOL    HW234329   1.657   0.341   8.821  0.3986 -0.5184  0.7368
 7565SOL     OW34330   2.835   1.392   7.722 -0.4291  0.1774 -0.1176
 7565SOL    HW134331   2.742   1.367   7.718 -0.2692 -0.7822  2.0921
 7565SOL    HW234332   2.824   1.485   7.743 -0.7829 -0.2314  1.5453
 7566SOL     OW34333   4.023   1.151   8.201  0.4219 -0.7794 -0.3468
 7566SOL    HW134334   4.012   1.235   8.245 -1.1788 -1.1470 -0.0613
 7566SOL    HW234335   4.090   1.168   8.134 -0.7187 -1.3203 -1.6213
 7567SOL     OW34336   1.341   4.150  10.930  0.5345 -0.5641  0.3381
 7567SOL    HW134337   1.350   4.076  10.990  1.4021  0.1915  1.1351
 7567SOL    HW234338   1.316   4.219  10.992  2.2607  0.4250 -0.0750
 7568SOL     OW34339   0.185   3.330   7.558  0.0791  0.0045 -0.1672
 7568SOL    HW134340   0.237   3.277   7.618 -2.1281 -1.0185  0.8426
 7568SOL    HW234341   0.212   3.412   7.599  1.4762 -0.5612  0.0389
 7569SOL     OW34342   0.638   1.911  14.957  0.1354 -0.0882 -0.2643
 7569SOL    HW134343   0.688   1.851  15.012  1.6877  3.7950  2.5483
 7569SOL    HW234344   0.547   1.887  14.978 -0.2738  1.4551 -0.2878
 7570SOL     OW34345   0.192   3.139  12.506 -0.2977  0.0654 -0.2738
 7570SOL    HW134346   0.199   3.235  12.507  1.0365 -0.0323 -0.3698
 7570SOL    HW234347   0.098   3.119  12.510 -0.3698  0.5288  0.5563
 7571SOL     OW34348   0.104   3.414  12.762  0.8542 -0.9697 -0.3173
 7571SOL    HW134349   0.147   3.409  12.677 -1.4123 -0.6772 -1.4846
 7571SOL    HW234350   0.020   3.371  12.743  0.1341  0.2731  0.0760
 7572SOL     OW34351   2.597   3.099  15.169 -0.2252  0.5237 -0.3766
 7572SOL    HW134352   2.604   3.026  15.230 -3.3851  0.8521  0.3767
 7572SOL    HW234353   2.514   3.085  15.124 -0.0418 -0.0774 -0.5221
 7573SOL     OW34354   0.643   4.090   4.452  0.6857  0.0338  0.0059
 7573SOL    HW134355   0.581   4.043   4.507 -0.5864  1.5710 -0.1133
 7573SOL    HW234356   0.611   4.049   4.372 -3.5789  0.3189  1.5689
 7574SOL     OW34357   1.420   0.964   2.636 -0.2302  0.5467 -0.3714
 7574SOL    HW134358   1.345   0.989   2.583  0.3951  1.6820 -0.7159
 7574SOL    HW234359   1.446   0.887   2.584 -1.2714 -0.1635  0.1654
 7575SOL     OW34360   2.975   2.877  14.358 -0.3302 -0.0467  0.5277
 7575SOL    HW134361   2.930   2.890  14.275 -0.3053 -0.5496  0.4351
 7575SOL    HW234362   2.906   2.829  14.404 -0.5933  1.6431  1.8845
 7576SOL     OW34363   3.821   2.329   5.105  0.0248  0.9119  0.4890
 7576SOL    HW134364   3.857   2.240   5.114 -1.8766  0.1571  0.5391
 7576SOL    HW234365   3.784   2.341   5.192 -0.4633  1.2273  0.2316
 7577SOL     OW34366   1.002   2.899   2.430  0.0980 -0.2617  0.4047
 7577SOL    HW134367   1.043   2.905   2.516  1.1315  3.4440 -0.3342
 7577SOL    HW234368   1.038   2.816   2.398  1.2486  0.1630  0.5753
 7578SOL     OW34369   0.796   3.302  14.514  0.5413  0.3839  0.1467
 7578SOL    HW134370   0.782   3.212  14.544  2.1699  0.6237  1.6511
 7578SOL    HW234371   0.890   3.312  14.530  0.6257 -0.0125 -0.1097
 7579SOL     OW34372   4.718   3.128   6.929 -0.4478  0.5376  0.4428
 7579SOL    HW134373   0.031   3.191   6.878 -1.3727  0.0759 -1.0366
 7579SOL    HW234374   4.637   3.138   6.881 -0.5652  0.4276  0.6178
 7580SOL     OW34375   0.885   2.700  14.964 -0.1675 -0.1770  0.0228
 7580SOL    HW134376   0.797   2.679  14.934 -0.0923 -0.0636 -0.2784
 7580SOL    HW234377   0.939   2.640  14.911 -0.9255  0.6151 -1.6537
 7581SOL     OW34378   0.961   3.440  13.339  0.1433  0.0013 -0.0188
 7581SOL    HW134379   0.894   3.372  13.339  1.5730 -1.4051  1.1409
 7581SOL    HW234380   0.962   3.459  13.245 -0.9569 -0.2204 -0.0738
 7582SOL     OW34381   2.268   0.811   3.167 -0.2088  0.2073  0.0571
 7582SOL    HW134382   2.223   0.729   3.146 -3.6805  1.3925  2.8142
 7582SOL    HW234383   2.197   0.874   3.160 -0.8236 -0.4720  0.1888
 7583SOL     OW34384   0.606   2.744   3.722  0.1408  0.0288  0.0692
 7583SOL    HW134385   0.548   2.683   3.677  0.0396  1.6980 -2.0507
 7583SOL    HW234386   0.686   2.692   3.715  0.7511  0.5835  2.9834
 7584SOL     OW34387   2.358   3.095   9.132 -0.3959 -0.0033  0.0432
 7584SOL    HW134388   2.329   3.100   9.224  2.1456 -0.9321  0.8890
 7584SOL    HW234389   2.322   3.014   9.095  4.3772 -2.0170 -0.2194
 7585SOL     OW34390   1.248   4.242   9.345 -0.0358 -0.3763  0.2009
 7585SOL    HW134391   1.164   4.265   9.304 -0.5690 -0.7795  1.0884
 7585SOL    HW234392   1.277   4.322   9.389  1.8357 -1.2847  0.6055
 7586SOL     OW34393   4.080   1.146   4.238  0.3197  0.2308 -0.6481
 7586SOL    HW134394   3.998   1.139   4.288  1.4955 -0.5966  1.1548
 7586SOL    HW234395   4.143   1.178   4.303 -0.2255 -0.6890  0.3379
 7587SOL     OW34396   1.223   1.202  10.568  0.3077  0.1767  0.4579
 7587SOL    HW134397   1.177   1.272  10.522  3.0561  1.6492 -0.0625
 7587SOL    HW234398   1.289   1.184  10.501 -0.1719  0.5783 -0.1248
 7588SOL     OW34399   2.167   3.075  11.605  0.1702  0.5973  0.0736
 7588SOL    HW134400   2.210   3.019  11.542 -0.7856  1.1272 -1.0429
 7588SOL    HW234401   2.214   3.158  11.594  1.4279  0.1306  1.9673
 7589SOL     OW34402   3.102   2.939   9.833 -0.4460 -0.1143 -0.3572
 7589SOL    HW134403   3.053   2.967   9.910  2.9015  0.8575  1.4063
 7589SOL    HW234404   3.051   2.860   9.813 -0.5490 -0.4773  1.2854
 7590SOL     OW34405   3.225   0.959   4.227 -0.4800  0.2075 -0.4192
 7590SOL    HW134406   3.193   1.049   4.214  2.6055  1.4804  0.7786
 7590SOL    HW234407   3.320   0.970   4.236 -0.7316  1.8323  0.3599
 7591SOL     OW34408   3.013   1.601   3.501 -0.4795  0.1186 -0.0575
 7591SOL    HW134409   3.031   1.647   3.419 -0.9009 -0.7025 -0.6136
 7591SOL    HW234410   3.079   1.532   3.500 -3.1096 -2.4153 -0.5647
 7592SOL     OW34411   0.214   2.730  12.298 -0.3873  0.1015 -0.3065
 7592SOL    HW134412   0.139   2.772  12.255 -1.8482 -0.8157  1.3773
 7592SOL    HW234413   0.282   2.754  12.235  1.9913  0.5141  2.4152
 7593SOL     OW34414   4.183   3.463   6.134 -0.2406 -0.4452 -0.0300
 7593SOL    HW134415   4.102   3.512   6.117  0.8522  0.8438 -1.4915
 7593SOL    HW234416   4.227   3.511   6.204 -2.0826  1.0992  0.0756
 7594SOL     OW34417   1.651   2.000   6.102  0.1575  0.5240 -0.5004
 7594SOL    HW134418   1.738   2.039   6.108  0.2503 -0.2633  3.2248
 7594SOL    HW234419   1.665   1.929   6.165  1.9704 -2.3680 -4.2344
 7595SOL     OW34420   0.344   3.931   4.073  0.2810 -0.0258 -0.4902
 7595SOL    HW134421   0.405   3.941   4.146 -0.3865  0.4771  0.0080
 7595SOL    HW234422   0.320   3.839   4.069  2.6779 -0.6716 -0.1290
 7596SOL     OW34423   3.822   1.416   1.999  0.1683  0.4188  0.2860
 7596SOL    HW134424   3.758   1.366   1.949 -0.3959  0.2834  1.1477
 7596SOL    HW234425   3.869   1.338   2.027 -2.3743 -0.8386  1.1088
 7597SOL     OW34426   4.139   1.781  11.378 -0.2166 -0.0156  0.5311
 7597SOL    HW134427   4.189   1.862  11.383  0.9222 -0.6241 -0.7507
 7597SOL    HW234428   4.059   1.795  11.428 -0.6002  2.0470 -0.6565
 7598SOL     OW34429   4.027   1.186   2.560 -0.2877  0.2040  0.3447
 7598SOL    HW134430   4.034   1.218   2.470  1.3666 -3.7074 -0.8784
 7598SOL    HW234431   4.046   1.263   2.614  0.4913 -1.3604  2.2932
 7599SOL     OW34432   1.414   4.463   3.780 -0.2289 -0.3297  0.1543
 7599SOL    HW134433   1.353   4.408   3.830  0.1766  2.2169  3.4727
 7599SOL    HW234434   1.365   4.545   3.775 -0.6981 -0.6492 -0.4481
 7600SOL     OW34435   1.383   1.744  11.352 -0.4591 -0.4450  0.0901
 7600SOL    HW134436   1.353   1.719  11.264 -1.4241 -0.8399  0.5324
 7600SOL    HW234437   1.314   1.708  11.408 -0.8541  0.2294  0.0399
 7601SOL     OW34438   2.451   0.292   7.053  0.3740  0.6250  0.2884
 7601SOL    HW134439   2.439   0.297   7.148  1.8460  1.3071  0.4335
 7601SOL    HW234440   2.472   0.384   7.035 -0.0081  0.5380 -0.5716
 7602SOL     OW34441   1.792   2.259   3.661 -0.2867  0.3996  0.0893
 7602SOL    HW134442   1.802   2.338   3.608 -0.5147  0.2237 -0.2133
 7602SOL    HW234443   1.884   2.234   3.656 -0.0933  1.2348 -0.6586
 7603SOL     OW34444   0.568   3.923   4.249 -0.1612  0.1661 -0.0730
 7603SOL    HW134445   0.584   3.877   4.167 -1.5310 -0.4594  0.0088
 7603SOL    HW234446   0.649   3.890   4.289 -1.3222 -1.2864  1.0854
 7604SOL     OW34447   0.022   1.753  14.079  0.5585  0.4376 -0.1340
 7604SOL    HW134448   0.116   1.762  14.066  0.5025 -1.5543 -1.9728
 7604SOL    HW234449   4.736   1.839  14.112 -0.8158 -0.1705  0.4697
 7605SOL     OW34450   2.368   4.400   3.850 -0.3127  0.0687 -0.2057
 7605SOL    HW134451   2.332   4.318   3.817 -1.2263 -0.2023  1.4934
 7605SOL    HW234452   2.293   4.451   3.881 -1.4857 -1.4715 -0.5610
 7606SOL     OW34453   1.691   2.799   1.502 -0.5412 -0.1340  0.0685
 7606SOL    HW134454   1.620   2.799   1.566  2.0685 -1.4915  2.8931
 7606SOL    HW234455   1.700   2.704   1.499  2.0525  0.0838  1.6037
 7607SOL     OW34456   0.829   0.946   8.505  0.5193 -0.5661 -0.2183
 7607SOL    HW134457   0.906   0.890   8.494 -0.2999 -1.7484  0.0681
 7607SOL    HW234458   0.764   0.911   8.444 -1.8440  2.2875  0.6506
 7608SOL     OW34459   0.752   3.200   3.358 -0.4176  0.0798 -0.2133
 7608SOL    HW134460   0.745   3.141   3.283  2.0168 -2.3446  1.4461
 7608SOL    HW234461   0.836   3.242   3.336 -0.0875 -0.3389  0.2372
 7609SOL     OW34462   2.918   1.743   4.685  0.4052  0.2474 -0.1380
 7609SOL    HW134463   2.878   1.660   4.661 -0.7420  1.3745 -2.2041
 7609SOL    HW234464   3.007   1.715   4.703  0.9213  1.3777 -0.9265
 7610SOL     OW34465   1.464   2.531  17.474  0.4520 -0.0933  0.0312
 7610SOL    HW134466   1.555   2.536  17.445  0.3022  3.2386  0.1134
 7610SOL    HW234467   1.417   2.582  17.408  0.8517  0.6195  0.2998
 7611SOL     OW34468   0.704   2.815   2.576 -0.2627  0.9424  0.8864
 7611SOL    HW134469   0.621   2.776   2.548  2.2616 -2.5515 -1.7544
 7611SOL    HW234470   0.747   2.840   2.495  0.8940 -1.6005  0.7033
 7612SOL     OW34471   4.312   2.679   8.877  0.3644  0.5165  0.2910
 7612SOL    HW134472   4.220   2.700   8.863  0.2407  0.5611  1.1719
 7612SOL    HW234473   4.301   2.663   8.970  0.8648  1.4388  0.5096
 7613SOL     OW34474   4.487   0.272   7.426 -0.5627 -0.5916 -0.1376
 7613SOL    HW134475   4.576   0.285   7.457  0.1489 -2.0325 -1.5640
 7613SOL    HW234476   4.494   0.301   7.336 -1.5119 -0.8573 -0.2989
 7614SOL     OW34477   4.157   2.473   5.658  0.5347 -0.1300  0.2818
 7614SOL    HW134478   4.078   2.479   5.604  1.6435 -0.2448 -1.3863
 7614SOL    HW234479   4.122   2.540   5.716 -0.3797 -2.6282  2.5913
 7615SOL     OW34480   3.482   4.142   4.642  0.0956 -0.6199 -0.5658
 7615SOL    HW134481   3.558   4.176   4.593 -0.5812  0.7138 -0.6948
 7615SOL    HW234482   3.509   4.172   4.729  0.0254  0.1195 -0.8006
 7616SOL     OW34483   4.280   3.089  17.274  0.3883 -0.0962 -0.0185
 7616SOL    HW134484   4.319   3.073  17.188 -3.4512  0.8803 -1.9214
 7616SOL    HW234485   4.204   3.141  17.250  0.4022 -0.3962 -0.7344
 7617SOL     OW34486   0.951   4.586   5.830  0.5820 -0.2876  0.3122
 7617SOL    HW134487   0.891   4.613   5.900  1.4062  3.3161 -0.3723
 7617SOL    HW234488   0.899   4.622   5.758 -0.0838 -1.0146  0.4281
 7618SOL     OW34489   3.842   0.167   4.632 -0.1103  0.4588 -0.0524
 7618SOL    HW134490   3.764   0.137   4.585  0.9024  0.3716 -1.6522
 7618SOL    HW234491   3.822   0.150   4.724 -1.3153  2.1235  0.0028
 7619SOL     OW34492   3.498   3.255  15.887 -0.8173 -0.0222  0.5099
 7619SOL    HW134493   3.560   3.231  15.955 -0.7105 -1.3936 -0.0793
 7619SOL    HW234494   3.494   3.350  15.899  1.9997  0.0877  0.7585
 7620SOL     OW34495   3.421   3.795   0.588 -0.0050 -0.0609  0.3122
 7620SOL    HW134496   3.383   3.725   0.534  0.5133 -0.7190  0.7941
 7620SOL    HW234497   3.507   3.757   0.603 -0.3584 -0.1403  2.1024
 7621SOL     OW34498   2.845   0.053   5.716  0.6786  0.1078  0.4360
 7621SOL    HW134499   2.911   0.099   5.768  2.2419  0.0367 -1.4804
 7621SOL    HW234500   2.779   0.008   5.768  0.3959  0.5796  0.4941
 7622SOL     OW34501   4.144   4.150   6.500  0.3948  0.3859  0.2127
 7622SOL    HW134502   4.158   4.207   6.425 -0.1818  1.2870  0.7997
 7622SOL    HW234503   4.073   4.193   6.546  0.1991  0.2615  0.0300
 7623SOL     OW34504   0.379   1.162  13.297  0.1370 -0.1265  0.3035
 7623SOL    HW134505   0.311   1.176  13.232  0.2252  1.4742  0.5626
 7623SOL    HW234506   0.329   1.199  13.370 -0.8470 -0.0915 -0.3931
 7624SOL     OW34507   1.286   0.300   3.158  0.2559 -0.1431 -0.3187
 7624SOL    HW134508   1.316   0.388   3.135 -0.6506  0.3324  0.3594
 7624SOL    HW234509   1.194   0.306   3.133  0.6958  0.8125 -1.6796
 7625SOL     OW34510   1.696   1.922   3.914 -0.4291 -0.0974  0.0509
 7625SOL    HW134511   1.790   1.930   3.899 -1.0817  1.1907 -3.2813
 7625SOL    HW234512   1.683   1.965   3.830  0.1995  2.0529  1.0313
 7626SOL     OW34513   2.585   2.258  10.289  0.0351  0.1697  0.7964
 7626SOL    HW134514   2.556   2.346  10.313  0.2360  1.1231 -2.3931
 7626SOL    HW234515   2.541   2.241  10.206 -2.8520 -0.2603  2.4003
 7627SOL     OW34516   0.302   0.811   3.232  0.0827  0.0784 -0.3786
 7627SOL    HW134517   0.296   0.879   3.165 -0.1811 -1.4861 -1.9344
 7627SOL    HW234518   0.245   0.850   3.298 -0.8537 -0.4060 -0.8943
 7628SOL     OW34519   1.869   3.593   2.133 -0.0475 -0.8711  0.3333
 7628SOL    HW134520   1.830   3.517   2.091  1.9302 -1.2425 -0.8357
 7628SOL    HW234521   1.902   3.553   2.213 -0.0144  1.1271  1.3225
 7629SOL     OW34522   2.882   1.833  13.346 -0.5324 -0.2396  0.2979
 7629SOL    HW134523   2.809   1.848  13.407 -2.1265 -1.1651 -1.3876
 7629SOL    HW234524   2.951   1.828  13.412  0.7185 -1.5102 -1.1490
 7630SOL     OW34525   0.320   3.519   7.699  0.0549  0.1487  0.0030
 7630SOL    HW134526   0.249   3.575   7.732  0.2789 -1.3509  3.0674
 7630SOL    HW234527   0.386   3.577   7.738 -0.8174  1.5612 -0.6166
 7631SOL     OW34528   4.384   2.563   6.879  0.2623  0.6369  0.6380
 7631SOL    HW134529   4.317   2.497   6.861  0.0615  1.1536 -0.4663
 7631SOL    HW234530   4.359   2.643   6.834  2.1693  1.5089  1.1464
 7632SOL     OW34531   4.014   4.199  17.408  0.3044 -0.2011  0.1870
 7632SOL    HW134532   4.102   4.236  17.416  1.0500 -1.8306 -0.4733
 7632SOL    HW234533   3.991   4.239  17.325  1.5043  0.5818  0.2255
 7633SOL     OW34534   3.340   4.391   9.797  0.1213  0.2058 -0.5124
 7633SOL    HW134535   3.434   4.375   9.786  0.8693  2.3298  2.6076
 7633SOL    HW234536   3.337   4.485   9.815 -1.1981  0.3451 -1.4905
 7634SOL     OW34537   3.464   1.991   5.149  0.4178  0.4510 -0.5881
 7634SOL    HW134538   3.467   2.086   5.161  0.1247  0.4866 -0.7832
 7634SOL    HW234539   3.375   1.965   5.123  0.0293  0.8728  0.3237
 7635SOL     OW34540   0.514   1.268   6.776 -0.2596  0.0756  0.7540
 7635SOL    HW134541   0.423   1.283   6.749  0.0586 -0.3201 -0.5293
 7635SOL    HW234542   0.500   1.202   6.844  0.3655 -0.2941  0.5192
 7636SOL     OW34543   4.670   3.030   0.211 -0.2150  0.0300 -0.4827
 7636SOL    HW134544   4.579   3.054   0.230 -0.7964 -0.8210 -2.2928
 7636SOL    HW234545   4.715   3.110   0.240  0.1226 -0.2061 -0.3610
 7637SOL     OW34546   3.485   0.386  10.110  0.1952  0.6516  0.3333
 7637SOL    HW134547   3.413   0.433  10.152 -1.8741 -0.4407 -1.9881
 7637SOL    HW234548   3.493   0.447  10.037 -2.0100  0.7953  0.2002
 7638SOL     OW34549   3.298   1.797   0.276  0.0103 -0.1107  0.3168
 7638SOL    HW134550   3.247   1.717   0.263 -1.1120  0.7231 -0.3715
 7638SOL    HW234551   3.386   1.768   0.253  0.1100 -0.1610  0.7557
 7639SOL     OW34552   1.516   3.889   4.511  0.6251 -0.2851  0.0695
 7639SOL    HW134553   1.601   3.899   4.467  1.4945 -2.0072  1.3502
 7639SOL    HW234554   1.474   3.974   4.498  0.0049 -0.8190 -1.5165
 7640SOL     OW34555   1.034   4.076   6.003  0.9888  0.3330 -0.4582
 7640SOL    HW134556   1.119   4.055   5.964  1.7870  0.0196  1.4269
 7640SOL    HW234557   1.028   4.167   5.974 -0.1559  0.8446  1.4366
 7641SOL     OW34558   4.328   1.566   1.444  0.0268 -0.8327 -0.0777
 7641SOL    HW134559   4.249   1.565   1.498 -2.5831  0.2326 -3.9095
 7641SOL    HW234560   4.397   1.544   1.507  0.9109  0.6348 -0.5453
 7642SOL     OW34561   2.374   1.901   5.044  0.0673 -0.2323  0.9740
 7642SOL    HW134562   2.307   1.834   5.029  0.4199 -0.0801 -1.2334
 7642SOL    HW234563   2.319   1.979   5.054  0.6455  0.1541  1.1892
 7643SOL     OW34564   3.330   2.534  13.058  0.3951 -0.5448  0.2347
 7643SOL    HW134565   3.333   2.561  12.966  0.3945  0.8855  0.6510
 7643SOL    HW234566   3.424   2.540  13.074  0.4928  0.3494 -0.6082
 7644SOL     OW34567   1.069   2.526   2.668  0.2130 -0.0857  0.6942
 7644SOL    HW134568   1.088   2.481   2.750  2.7322 -1.2379 -0.5295
 7644SOL    HW234569   0.982   2.556   2.694  0.4141 -0.4648  1.8110
 7645SOL     OW34570   1.194   2.124   4.244  0.6693  0.0371  0.1071
 7645SOL    HW134571   1.186   2.107   4.150 -2.2210  0.6498  0.2531
 7645SOL    HW234572   1.115   2.174   4.263 -1.1013 -2.5702 -0.5386
 7646SOL     OW34573   4.487   0.290   8.275  0.4282 -0.3905  1.3281
 7646SOL    HW134574   4.561   0.243   8.312  0.0053 -1.8887  0.2881
 7646SOL    HW234575   4.418   0.224   8.267  1.1486 -0.7509 -1.8857
 7647SOL     OW34576   2.227   1.278   3.832 -0.0777  0.5827  0.3640
 7647SOL    HW134577   2.218   1.322   3.747 -1.2778 -0.5114 -0.0721
 7647SOL    HW234578   2.175   1.199   3.816 -1.1612  2.0097 -3.1985
 7648SOL     OW34579   4.720   2.059   4.973  0.0725  0.1940 -0.3736
 7648SOL    HW134580   4.653   2.108   4.926 -0.3816 -1.6824 -1.7111
 7648SOL    HW234581   4.681   2.049   5.059  0.8351 -0.5276 -0.1040
 7649SOL     OW34582   3.351   2.928   4.781 -0.2563 -0.8787 -0.8916
 7649SOL    HW134583   3.345   3.012   4.736 -0.7191  0.4620  1.6416
 7649SOL    HW234584   3.347   2.873   4.703 -0.0995  0.5374 -1.8968
 7650SOL     OW34585   1.060   4.356   5.959  0.1775 -0.1616 -1.0439
 7650SOL    HW134586   1.149   4.387   5.973  0.1330  0.3377 -1.8876
 7650SOL    HW234587   1.025   4.440   5.931  0.6342  0.8909  1.6141
 7651SOL     OW34588   4.157   3.071   8.901 -1.0225 -0.0191 -0.0683
 7651SOL    HW134589   4.116   3.000   8.952 -0.3904 -1.0169 -0.9459
 7651SOL    HW234590   4.232   3.030   8.859  0.0676  2.3962 -0.4620
 7652SOL     OW34591   1.985   0.869   5.557 -0.5715  0.1631  0.4736
 7652SOL    HW134592   1.918   0.899   5.618  1.2145 -0.3672  2.7066
 7652SOL    HW234593   2.038   0.817   5.618 -1.0781 -0.0324  0.7463
 7653SOL     OW34594   1.041   2.911  12.764 -0.0020  1.0014  0.0258
 7653SOL    HW134595   1.024   2.988  12.818  0.2104  2.7544 -2.3819
 7653SOL    HW234596   0.960   2.883  12.722  1.1494 -0.1208 -1.4724
 7654SOL     OW34597   1.279   2.896   7.071  0.2020 -0.2354 -0.2482
 7654SOL    HW134598   1.349   2.907   7.007  0.8280 -0.0211  0.4745
 7654SOL    HW234599   1.244   2.810   7.048 -2.7203  0.3290  2.0025
 7655SOL     OW34600   0.656   4.264  12.150  0.2043 -0.5418 -0.4581
 7655SOL    HW134601   0.602   4.318  12.207  1.4687 -1.2434  1.4162
 7655SOL    HW234602   0.595   4.242  12.080 -1.0706 -1.5961  0.9964
 7656SOL     OW34603   0.707   2.549   8.465 -0.4464 -0.6245  0.4121
 7656SOL    HW134604   0.714   2.455   8.445 -1.7416 -0.4887 -0.7270
 7656SOL    HW234605   0.613   2.560   8.446  0.1210 -1.8850 -3.1488
 7657SOL     OW34606   1.787   3.206  17.372 -0.0921  0.3011  0.1422
 7657SOL    HW134607   1.775   3.115  17.342 -0.3412  0.1692  0.6296
 7657SOL    HW234608   1.882   3.201  17.380  0.0057 -0.1854 -1.2811
 7658SOL     OW34609   0.157   3.245   0.341  0.4033  0.1074 -0.1049
 7658SOL    HW134610   0.091   3.309   0.316 -1.9033 -1.8516  0.9598
 7658SOL    HW234611   0.132   3.232   0.432  0.4766  0.5750 -0.0197
 7659SOL     OW34612   3.331   3.814  17.484 -0.2084  0.0709  0.0828
 7659SOL    HW134613   3.272   3.755  17.436  0.6177 -0.3931 -0.3572
 7659SOL    HW234614   3.273   3.851  17.551 -2.5862 -1.1911 -1.2434
 7660SOL     OW34615   1.691   1.711   0.693 -0.0423 -0.1217  0.7876
 7660SOL    HW134616   1.600   1.738   0.710 -0.1817  1.2789 -2.1873
 7660SOL    HW234617   1.737   1.758   0.762  0.5327  1.3024 -0.5664
 7661SOL     OW34618   0.599   0.502   0.940 -0.4273  0.1001  0.5807
 7661SOL    HW134619   0.548   0.423   0.922  1.3958 -1.1704  0.9084
 7661SOL    HW234620   0.607   0.510   1.035 -0.0306 -2.4383  0.7662
 7662SOL     OW34621   1.164   2.445   4.972  0.2286  0.2550 -0.0075
 7662SOL    HW134622   1.153   2.526   4.922  1.3280 -0.0828 -0.7821
 7662SOL    HW234623   1.210   2.394   4.905 -0.6962 -1.7752  0.9181
 7663SOL     OW34624   1.067   1.931  10.687 -0.3186 -0.2308  0.1133
 7663SOL    HW134625   0.989   1.943  10.741  0.5013  0.5789  1.1304
 7663SOL    HW234626   1.036   1.885  10.609  0.2390  0.9067 -0.7855
 7664SOL     OW34627   2.275   2.244   3.286 -0.3706 -0.4326  0.0753
 7664SOL    HW134628   2.205   2.186   3.317 -1.0710  0.0933 -0.5233
 7664SOL    HW234629   2.224   2.321   3.262 -1.9865 -1.3717  0.4746
 7665SOL     OW34630   3.781   2.294   1.769  0.4116  0.1442 -0.4213
 7665SOL    HW134631   3.710   2.344   1.809 -1.3168 -3.6825  1.2778
 7665SOL    HW234632   3.732   2.266   1.691 -2.6505 -2.0673  2.3203
 7666SOL     OW34633   0.614   4.108   8.142  0.2262 -0.0541 -0.3008
 7666SOL    HW134634   0.568   4.139   8.064 -1.0393 -0.3051  0.3433
 7666SOL    HW234635   0.557   4.039   8.177 -0.9792  0.8974 -0.3934
 7667SOL     OW34636   1.769   2.302  15.893 -0.1280  0.2630  0.7930
 7667SOL    HW134637   1.691   2.344  15.928 -1.3047 -0.4610 -0.9609
 7667SOL    HW234638   1.766   2.348  15.810  2.0342 -0.7389  0.1519
 7668SOL     OW34639   0.511   3.057  10.462 -0.2506  0.0995 -0.2393
 7668SOL    HW134640   0.593   3.008  10.451 -0.5474 -0.2287 -0.9408
 7668SOL    HW234641   0.545   3.130  10.515  1.1870  0.5830 -1.8346
 7669SOL     OW34642   2.013   0.033  12.572  0.0955 -0.3353  0.4265
 7669SOL    HW134643   2.108   0.037  12.584 -0.0869 -2.2083  2.5328
 7669SOL    HW234644   2.003   4.676  12.573  0.7548 -0.4021  1.8621
 7670SOL     OW34645   4.539   2.999   1.046 -0.0219  0.0292  0.0320
 7670SOL    HW134646   4.557   3.069   1.109 -1.0481  0.5646 -0.2830
 7670SOL    HW234647   4.488   3.053   0.987 -2.4215 -0.7630  1.3476
 7671SOL     OW34648   2.918   4.645   9.199 -0.4725  0.1538  0.0189
 7671SOL    HW134649   2.968   4.582   9.147 -0.5684  0.4626 -0.4494
 7671SOL    HW234650   2.990   4.707   9.203 -0.3232 -0.1303  1.9718
 7672SOL     OW34651   4.031   0.967   8.874  0.6977 -0.7093 -0.3271
 7672SOL    HW134652   4.065   0.879   8.858  0.3527 -0.5111 -2.1581
 7672SOL    HW234653   4.066   0.991   8.960 -0.0250  1.9037 -0.7666
 7673SOL     OW34654   2.647   2.907   2.647 -0.4101 -0.7186  0.7722
 7673SOL    HW134655   2.710   2.890   2.577 -2.2319 -2.5338 -0.4399
 7673SOL    HW234656   2.572   2.955   2.611  0.6590 -1.5085 -2.4737
 7674SOL     OW34657   4.270   4.036   4.550 -0.2552  0.4329  0.4222
 7674SOL    HW134658   4.179   4.051   4.525  0.5607  1.4379 -1.9730
 7674SOL    HW234659   4.268   3.963   4.613  0.1469 -1.2860 -1.5469
 7675SOL     OW34660   1.528   3.471   1.747  0.4059  0.5684 -0.4699
 7675SOL    HW134661   1.547   3.384   1.782 -2.0111 -0.3727 -1.5158
 7675SOL    HW234662   1.522   3.522   1.828  0.6599  1.4758 -1.0195
 7676SOL     OW34663   4.708   3.408   1.893 -0.5622 -0.1645 -0.1673
 7676SOL    HW134664   4.684   3.334   1.949  3.1904 -2.9999 -2.2562
 7676SOL    HW234665   4.672   3.482   1.941 -1.2330 -1.0294  0.6628
 7677SOL     OW34666   2.834   3.658   4.955 -0.2546  0.5227  0.0414
 7677SOL    HW134667   2.788   3.664   5.039  1.6621 -1.1317  1.2330
 7677SOL    HW234668   2.756   3.682   4.906  0.0018 -0.4311 -0.8342
 7678SOL     OW34669   3.641   0.385   5.402 -0.0308  0.6549 -0.4317
 7678SOL    HW134670   3.602   0.435   5.473  1.2694  0.6559  0.2689
 7678SOL    HW234671   3.563   0.345   5.362 -0.7619  0.6270  1.0329
 7679SOL     OW34672   4.626   3.860  13.534 -0.3917  0.1206  0.5025
 7679SOL    HW134673   4.651   3.800  13.464 -0.0238  0.8849 -0.0199
 7679SOL    HW234674   4.676   3.938  13.508 -1.9037  0.1804 -2.2305
 7680SOL     OW34675   0.832   1.331   7.888 -0.0776 -0.5772  0.2122
 7680SOL    HW134676   0.794   1.410   7.927  2.6365 -0.2790  2.2402
 7680SOL    HW234677   0.831   1.270   7.962 -0.0023  1.8080  2.1990
 7681SOL     OW34678   3.310   3.362   7.780  0.0104 -0.1254  0.3970
 7681SOL    HW134679   3.252   3.319   7.718  1.5819  0.7199 -1.6532
 7681SOL    HW234680   3.248   3.413   7.833 -0.9318 -2.1529  1.2594
 7682SOL     OW34681   3.063   0.465  16.429 -0.3933  0.0676 -0.3685
 7682SOL    HW134682   3.000   0.393  16.428  0.7381 -0.9286 -0.2831
 7682SOL    HW234683   3.141   0.417  16.457 -0.1020  1.7536  1.6416
 7683SOL     OW34684   3.766   3.620   5.436  0.0897 -0.5835 -0.0212
 7683SOL    HW134685   3.695   3.634   5.500 -0.6577 -2.3340 -0.4621
 7683SOL    HW234686   3.738   3.559   5.367 -0.0226 -0.3030 -0.2252
 7684SOL     OW34687   1.571   2.885   5.079  0.2617 -0.1552 -0.3224
 7684SOL    HW134688   1.613   2.803   5.103  1.1251  0.5217  0.4827
 7684SOL    HW234689   1.495   2.898   5.135  0.3830 -1.3613  0.1051
 7685SOL     OW34690   3.322   3.177   0.517  0.0944  0.8100  0.2266
 7685SOL    HW134691   3.298   3.254   0.465  1.9068  0.3741 -1.2632
 7685SOL    HW234692   3.307   3.200   0.609 -0.2904 -1.2499  0.6770
 7686SOL     OW34693   2.178   4.212   7.404 -0.5692 -0.0042 -0.6592
 7686SOL    HW134694   2.271   4.216   7.380 -0.0482 -0.6481  1.3156
 7686SOL    HW234695   2.190   4.225   7.498  0.9986 -1.0072 -0.7151
 7687SOL     OW34696   2.979   0.453  11.841 -0.4424  0.1235 -0.2486
 7687SOL    HW134697   2.953   0.365  11.867  0.0021  0.5889  1.7234
 7687SOL    HW234698   2.900   0.485  11.797  0.2428  0.4599 -1.2548
 7688SOL     OW34699   0.240   1.596   6.769 -0.4711  0.0582  0.9525
 7688SOL    HW134700   0.153   1.609   6.731 -0.3948 -0.5930  0.5511
 7688SOL    HW234701   0.250   1.676   6.821 -0.9023 -0.5350  1.9405
 7689SOL     OW34702   0.584   1.776   4.030  0.1742 -0.0459 -0.0897
 7689SOL    HW134703   0.499   1.795   4.071 -1.4062 -0.2504 -3.2169
 7689SOL    HW234704   0.624   1.717   4.094 -1.4455  0.2349  1.1689
 7690SOL     OW34705   3.413   0.902   4.645 -0.7584 -1.3293  0.5829
 7690SOL    HW134706   3.417   0.827   4.587 -2.3517 -1.2033  0.3254
 7690SOL    HW234707   3.433   0.866   4.732  1.4743 -0.2244  0.5427
 7691SOL     OW34708   3.908   3.864   4.629 -0.1011  0.2146  0.6802
 7691SOL    HW134709   3.842   3.818   4.576  1.3036 -1.6521  0.5692
 7691SOL    HW234710   3.855   3.900   4.701  0.8853  1.6093  0.7190
 7692SOL     OW34711   2.639   0.390   2.033  0.3207 -0.1836 -0.7104
 7692SOL    HW134712   2.625   0.423   2.121 -2.0104  1.3977 -1.6905
 7692SOL    HW234713   2.566   0.328   2.018  0.1706  0.7345 -3.8581
 7693SOL     OW34714   1.581   2.150   7.773 -0.1568 -0.0984 -0.3739
 7693SOL    HW134715   1.509   2.111   7.724  0.5938  0.6294 -2.0505
 7693SOL    HW234716   1.569   2.244   7.758 -0.8898 -0.2325 -0.6182
 7694SOL     OW34717   0.772   1.942   6.280  0.0378  0.0767  0.2796
 7694SOL    HW134718   0.814   1.893   6.351 -0.5858 -0.8419  0.0011
 7694SOL    HW234719   0.688   1.961   6.322  2.1754  2.2970  3.5687
 7695SOL     OW34720   2.686   2.639   6.413  0.0062 -0.0589 -0.6290
 7695SOL    HW134721   2.601   2.618   6.452  0.9900 -0.6092  1.2274
 7695SOL    HW234722   2.684   2.597   6.328  2.0720 -0.3461 -0.5392
 7696SOL     OW34723   0.230   0.704   2.584  0.4676 -0.2420  0.1815
 7696SOL    HW134724   0.219   0.622   2.631  1.4303 -2.4163 -3.3618
 7696SOL    HW234725   0.151   0.752   2.610 -0.3865 -0.6961 -1.5981
 7697SOL     OW34726   2.567   0.431  14.398  0.0012  0.4014 -0.1111
 7697SOL    HW134727   2.616   0.494  14.452 -0.7505  0.1805  0.8180
 7697SOL    HW234728   2.527   0.382  14.470  2.0525  0.9291  1.3990
 7698SOL     OW34729   3.238   2.115   2.523 -0.0193 -0.4845  0.2670
 7698SOL    HW134730   3.173   2.166   2.474 -2.4162 -0.8024  3.0781
 7698SOL    HW234731   3.320   2.135   2.478 -0.7111  1.5006 -0.1183
 7699SOL     OW34732   0.169   1.450   3.977 -0.1819  0.3984  0.1812
 7699SOL    HW134733   0.082   1.417   3.955 -0.2008 -0.0815  0.9744
 7699SOL    HW234734   0.227   1.387   3.934 -0.9851 -0.6947  0.6943
 7700SOL     OW34735   0.425   1.925   7.932 -0.1625  0.6918  0.6868
 7700SOL    HW134736   0.363   1.890   7.997 -0.1903 -1.2540 -0.3762
 7700SOL    HW234737   0.463   2.004   7.968 -0.3081  1.0005  0.1694
 7701SOL     OW34738   4.450   2.276  15.911  1.0514 -0.0452  0.3993
 7701SOL    HW134739   4.458   2.181  15.908  1.1107 -0.0780  1.7047
 7701SOL    HW234740   4.508   2.298  15.984  1.6643 -1.6081  0.3813
 7702SOL     OW34741   2.382   4.495   2.609 -0.3627 -0.2736 -0.0288
 7702SOL    HW134742   2.422   4.480   2.523  2.4189 -1.2450  1.4147
 7702SOL    HW234743   2.446   4.453   2.667 -3.0246 -2.1693  1.5066
 7703SOL     OW34744   3.271   0.006   4.180 -0.2621 -0.1206  0.0806
 7703SOL    HW134745   3.264   0.083   4.236  1.1294  0.4538 -0.5431
 7703SOL    HW234746   3.346   0.014   4.122 -0.3768  0.8085  0.0580
 7704SOL     OW34747   2.320   0.168   0.514  0.1467 -0.8835 -0.3703
 7704SOL    HW134748   2.310   0.096   0.576  0.5399  1.0551  1.9536
 7704SOL    HW234749   2.404   0.143   0.476  2.0568  2.0004  1.8910
 7705SOL     OW34750   3.468   0.267   1.630 -0.5799 -0.5386 -0.4060
 7705SOL    HW134751   3.397   0.255   1.567 -1.7168 -0.8342  0.9303
 7705SOL    HW234752   3.421   0.330   1.685  0.9102  1.0732 -0.9828
 7706SOL     OW34753   1.961   1.017  13.090 -0.5497  0.2775 -0.7210
 7706SOL    HW134754   2.006   1.078  13.031 -1.2046  0.3063 -1.1794
 7706SOL    HW234755   1.881   1.066  13.107 -0.3783  0.3190 -0.0256
 7707SOL     OW34756   2.520   3.154   9.479  0.5140  0.5679  0.4846
 7707SOL    HW134757   2.571   3.234   9.461 -0.3137  1.0370  0.2269
 7707SOL    HW234758   2.442   3.198   9.512  0.1005 -1.5820  2.3761
 7708SOL     OW34759   3.794   3.978   1.166 -0.1660 -0.4482  0.4371
 7708SOL    HW134760   3.740   3.989   1.245  1.4323  2.7782  1.0733
 7708SOL    HW234761   3.735   3.933   1.105 -1.2007  3.1901 -1.2479
 7709SOL     OW34762   3.965   3.557  10.828 -0.5750  0.0267  0.4293
 7709SOL    HW134763   4.039   3.609  10.796 -0.7389  0.3165  0.5218
 7709SOL    HW234764   3.975   3.467  10.796 -0.9411  0.6526 -1.4298
 7710SOL     OW34765   2.633   1.484   9.720 -0.2028 -0.2072 -0.0164
 7710SOL    HW134766   2.569   1.538   9.766  0.4737  0.2335  0.4053
 7710SOL    HW234767   2.675   1.549   9.663 -0.4938 -0.0756 -0.0778
 7711SOL     OW34768   1.784   2.763  16.539 -0.4358  0.1829  0.6608
 7711SOL    HW134769   1.690   2.782  16.545 -0.7551 -1.8476  1.8541
 7711SOL    HW234770   1.787   2.696  16.471 -1.2826  0.4049  0.3930
 7712SOL     OW34771   4.607   2.255   6.174 -0.1052  0.0533 -0.1050
 7712SOL    HW134772   4.545   2.322   6.200 -1.6861 -1.7856  0.8709
 7712SOL    HW234773   4.693   2.285   6.203 -0.1739  0.6881 -0.5596
 7713SOL     OW34774   0.876   0.013   4.848 -0.0188 -0.2223  0.4079
 7713SOL    HW134775   0.876   4.683   4.781 -0.6229 -1.8822  2.0655
 7713SOL    HW234776   0.905   0.081   4.787  1.4535 -1.3213 -0.1288
 7714SOL     OW34777   0.105   4.568   4.083  0.2242 -0.4607  0.4660
 7714SOL    HW134778   0.072   4.567   4.173 -1.0584  1.1804  0.0239
 7714SOL    HW234779   0.053   4.641   4.049  0.6634 -1.0278 -1.4679
 7715SOL     OW34780   0.471   1.935  16.567 -0.2259  0.0840 -0.0286
 7715SOL    HW134781   0.509   1.866  16.622  1.1802  0.4314 -0.5821
 7715SOL    HW234782   0.512   2.016  16.598 -1.5935  0.3103  1.2361
 7716SOL     OW34783   0.218   2.347   8.325  0.2281 -0.4267 -0.7740
 7716SOL    HW134784   0.240   2.320   8.414 -1.8144  2.1342  0.5134
 7716SOL    HW234785   0.141   2.291   8.319 -0.3018  0.1751  0.3608
 7717SOL     OW34786   0.795   0.211  16.003 -0.0702 -0.0964 -0.2118
 7717SOL    HW134787   0.719   0.268  16.013  0.6695  0.8823 -0.1997
 7717SOL    HW234788   0.865   0.271  15.976  0.0526 -0.4433 -0.6673
 7718SOL     OW34789   3.116   1.977   0.605  0.2158 -0.1339  0.2029
 7718SOL    HW134790   3.065   1.998   0.683 -0.3179 -1.8488  0.3242
 7718SOL    HW234791   3.202   2.014   0.626 -0.3582  0.0571  2.1270
 7719SOL     OW34792   3.454   2.259   4.169  0.1301 -0.4381 -0.2062
 7719SOL    HW134793   3.381   2.233   4.226 -1.5330 -2.7762 -3.4055
 7719SOL    HW234794   3.507   2.180   4.173 -2.7051 -2.3311  0.0714
 7720SOL     OW34795   2.554   4.618  11.009 -0.2387  0.4344 -0.7301
 7720SOL    HW134796   2.566   4.698  10.957  3.7123  1.8081  2.2659
 7720SOL    HW234797   2.553   4.552  10.940  1.8289  0.5183 -0.8442
 7721SOL     OW34798   2.931   3.630  13.797 -0.0492  0.6037 -0.1204
 7721SOL    HW134799   2.837   3.650  13.803 -0.0210  1.3767 -2.1013
 7721SOL    HW234800   2.947   3.547  13.841 -1.6380  0.8568  0.9399
 7722SOL     OW34801   1.667   2.126   0.727 -0.2271 -0.3813  0.3785
 7722SOL    HW134802   1.674   2.106   0.633  1.2579  1.2260  0.1613
 7722SOL    HW234803   1.577   2.098   0.747 -1.4381  4.8790  2.2470
 7723SOL     OW34804   2.909   3.291   8.732  0.4493 -0.4630 -0.4402
 7723SOL    HW134805   2.910   3.216   8.791 -0.3562 -2.0216 -2.4372
 7723SOL    HW234806   2.996   3.325   8.753 -0.8391  2.0695  0.7999
 7724SOL     OW34807   0.068   0.177   3.426 -0.0655 -0.0575 -0.0131
 7724SOL    HW134808   0.150   0.128   3.421 -1.1956 -1.9110 -0.5804
 7724SOL    HW234809   0.038   0.173   3.335 -0.1474 -0.1847  0.0196
 7725SOL     OW34810   3.242   1.269   5.970 -0.0896  0.0959 -0.0889
 7725SOL    HW134811   3.297   1.240   6.043  0.3962 -2.6777 -1.5675
 7725SOL    HW234812   3.294   1.264   5.890  1.1013  1.2208  0.6271
 7726SOL     OW34813   0.296   1.046   1.875  0.7846  0.1754  0.0339
 7726SOL    HW134814   0.313   1.067   1.967  0.7470 -1.3518  0.3832
 7726SOL    HW234815   0.202   1.056   1.863  0.6414  0.7402  1.6482
 7727SOL     OW34816   3.328   1.423   9.431 -0.2032  0.4874  0.5906
 7727SOL    HW134817   3.308   1.420   9.525 -0.0286  2.0464  0.6710
 7727SOL    HW234818   3.411   1.470   9.423  1.4072 -2.3249  0.9003
 7728SOL     OW34819   0.842   2.331   0.154  0.3793 -0.2401  0.6468
 7728SOL    HW134820   0.803   2.418   0.153 -0.4777 -0.6465 -0.6737
 7728SOL    HW234821   0.928   2.359   0.187  0.9831 -1.0486 -0.2536
 7729SOL     OW34822   0.620   1.830  17.308  0.2939  0.0186 -0.1905
 7729SOL    HW134823   0.541   1.785  17.277 -0.1475  1.4472 -1.1975
 7729SOL    HW234824   0.632   1.898  17.241 -0.7659  0.8532  0.4570
 7730SOL     OW34825   0.380   2.348  10.733  0.2151  0.5832 -0.1441
 7730SOL    HW134826   0.430   2.403  10.673 -1.5156  1.5985 -0.6693
 7730SOL    HW234827   0.448   2.360  10.799 -1.2433  0.4071  1.4052
 7731SOL     OW34828   4.264   3.868  12.024  0.3767 -0.0216  0.5621
 7731SOL    HW134829   4.268   3.813  12.102 -1.2275  0.4709  0.9897
 7731SOL    HW234830   4.320   3.823  11.960  0.5553  2.4870 -1.0445
 7732SOL     OW34831   2.260   2.388   8.974 -0.7380  0.4726 -0.5461
 7732SOL    HW134832   2.234   2.338   9.051 -0.3750  1.6624  0.3562
 7732SOL    HW234833   2.231   2.323   8.910  1.0891 -0.6818 -0.1976
 7733SOL     OW34834   1.538   0.995  15.159  0.4416  0.0980 -0.2871
 7733SOL    HW134835   1.535   0.905  15.128  0.0781  0.4452 -1.2288
 7733SOL    HW234836   1.489   1.046  15.095 -0.0205 -2.6412 -2.1121
 7734SOL     OW34837   0.422   4.091   8.477  0.4029  0.1701  0.5314
 7734SOL    HW134838   0.477   4.017   8.451  0.5244  0.5357 -0.2284
 7734SOL    HW234839   0.467   4.125   8.555  2.4505 -0.5378 -0.3468
 7735SOL     OW34840   4.705   3.616   1.053 -0.2979  0.1799 -0.1174
 7735SOL    HW134841   0.018   3.540   1.081  0.5258  0.8218  0.1498
 7735SOL    HW234842   4.724   3.625   0.960  0.1755  1.0177  0.0557
 7736SOL     OW34843   1.413   0.823   9.375  0.2948  0.4906  0.2342
 7736SOL    HW134844   1.451   0.736   9.376  1.3738  0.9631  0.1553
 7736SOL    HW234845   1.476   0.866   9.432  0.2569  0.5733  0.2157
 7737SOL     OW34846   0.046   2.478  16.569  0.4315 -0.0206  0.6019
 7737SOL    HW134847   4.725   2.454  16.640 -0.1961 -2.5850 -0.7772
 7737SOL    HW234848   0.095   2.550  16.608  0.2864 -0.4935  1.6449
 7738SOL     OW34849   3.159   2.991  12.477 -0.3529 -0.1559  0.7563
 7738SOL    HW134850   3.200   3.064  12.430 -1.6191 -0.1842 -0.3888
 7738SOL    HW234851   3.232   2.961  12.531 -0.8349 -1.2551  0.7749
 7739SOL     OW34852   1.466   2.242   5.810 -0.2366  0.2990  0.5501
 7739SOL    HW134853   1.457   2.299   5.886  1.9348 -0.8239  1.6223
 7739SOL    HW234854   1.456   2.155   5.847  0.9237  0.4603  1.2273
 7740SOL     OW34855   3.459   3.539  15.846 -0.5490  0.1839  0.0162
 7740SOL    HW134856   3.465   3.622  15.893 -0.3289 -0.1034  0.4963
 7740SOL    HW234857   3.526   3.551  15.779 -0.7788  0.4757 -0.1613
 7741SOL     OW34858   3.580   3.615  17.736 -0.5725  0.0500 -0.8451
 7741SOL    HW134859   3.552   3.537  17.688 -1.0645 -0.2082 -0.1309
 7741SOL    HW234860   3.647   3.656  17.682  1.5244 -0.2080  1.5298
 7742SOL     OW34861   1.705   1.994   4.909 -0.1164  0.2031 -0.6854
 7742SOL    HW134862   1.725   2.080   4.944 -1.4223  0.5307 -0.7383
 7742SOL    HW234863   1.660   2.017   4.828 -2.0676 -1.3140 -0.0551
 7743SOL     OW34864   3.545   4.149   0.388 -0.5266  0.3008 -0.0609
 7743SOL    HW134865   3.570   4.208   0.459  0.6533  0.9019 -0.9732
 7743SOL    HW234866   3.605   4.076   0.404 -2.0447 -0.9314 -0.0574
 7744SOL     OW34867   4.181   4.550   0.906 -0.0526 -0.0448 -0.5724
 7744SOL    HW134868   4.121   4.618   0.937  0.4442  0.2871 -0.3390
 7744SOL    HW234869   4.121   4.497   0.853 -0.9136  2.4934 -2.1723
 7745SOL     OW34870   1.126   3.124   7.084  0.5305  0.1416 -0.4253
 7745SOL    HW134871   1.174   3.186   7.028  0.8178  1.0026  0.7609
 7745SOL    HW234872   1.175   3.044   7.070  2.6234  1.2756  0.3453
 7746SOL     OW34873   3.941   3.801   3.209  0.0844 -0.1192 -0.0160
 7746SOL    HW134874   3.917   3.850   3.287  0.6716  2.5425 -1.4943
 7746SOL    HW234875   4.021   3.842   3.174 -2.1206  1.6193 -2.9734
 7747SOL     OW34876   1.471   3.120   1.275  0.2046 -0.1051  0.0469
 7747SOL    HW134877   1.487   3.187   1.341  1.4974  1.0192 -1.4048
 7747SOL    HW234878   1.414   3.165   1.212 -2.4016 -1.6780  1.3165
 7748SOL     OW34879   2.433   1.794  15.802 -0.8787 -0.3216  0.1207
 7748SOL    HW134880   2.501   1.757  15.859  2.5353  2.9929 -1.8242
 7748SOL    HW234881   2.476   1.815  15.719  1.1672  2.2922  1.8322
 7749SOL     OW34882   0.860   1.645  11.938  0.1814  0.1979 -0.3190
 7749SOL    HW134883   0.924   1.714  11.958 -0.4559  0.7318 -0.1199
 7749SOL    HW234884   0.823   1.685  11.859 -0.9910  1.4426  0.8828
 7750SOL     OW34885   1.401   4.284  10.702  0.4096  0.1466  0.6423
 7750SOL    HW134886   1.376   4.237  10.782 -0.8867  1.5109  1.0408
 7750SOL    HW234887   1.378   4.374  10.727  0.4647  0.5862 -0.9168
 7751SOL     OW34888   4.362   0.577   6.371 -0.0721  0.0923 -0.5504
 7751SOL    HW134889   4.297   0.627   6.321 -0.5091  0.4068  0.3307
 7751SOL    HW234890   4.322   0.592   6.457  1.2458  2.5966 -0.3871
 7752SOL     OW34891   3.485   1.870   2.938 -0.0086  0.4691 -0.1032
 7752SOL    HW134892   3.525   1.951   2.907 -1.2123  1.7431  1.6684
 7752SOL    HW234893   3.416   1.863   2.873  0.1531 -3.7098  0.1663
 7753SOL     OW34894   1.036   0.372   6.509 -0.2487  0.1456 -0.0957
 7753SOL    HW134895   1.124   0.348   6.480 -0.5080  0.1192 -0.8529
 7753SOL    HW234896   1.033   0.334   6.597 -1.8008 -0.9558 -0.6257
 7754SOL     OW34897   0.304   0.476   4.010  0.4934 -0.1492  0.2719
 7754SOL    HW134898   0.366   0.524   4.066 -0.3923 -0.5560  1.6187
 7754SOL    HW234899   0.226   0.529   4.027 -0.8312 -1.4890 -1.6680
 7755SOL     OW34900   0.836   3.390   2.763  0.5995  1.0510 -0.0559
 7755SOL    HW134901   0.814   3.439   2.684 -0.0685  1.4972  0.4020
 7755SOL    HW234902   0.852   3.299   2.738  0.8014  0.7404  1.1837
 7756SOL     OW34903   2.762   1.405  15.499  0.0699 -0.4571 -0.4094
 7756SOL    HW134904   2.801   1.454  15.427  2.5044 -2.0802 -0.2140
 7756SOL    HW234905   2.840   1.379  15.548  0.4819 -0.8900 -1.2941
 7757SOL     OW34906   3.945   1.492   4.887 -0.4626 -0.5658  0.0405
 7757SOL    HW134907   3.852   1.506   4.904 -0.4846 -1.9705  1.0249
 7757SOL    HW234908   3.983   1.486   4.975 -1.2255  2.6205  0.5930
 7758SOL     OW34909   1.461   2.004  14.087 -0.3831 -0.6364  0.8246
 7758SOL    HW134910   1.481   2.061  14.161 -0.3955  1.9663 -1.1746
 7758SOL    HW234911   1.499   2.053  14.014 -1.9820 -1.6789 -0.7190
 7759SOL     OW34912   4.735   4.360   7.253  0.2376  0.5439  0.3778
 7759SOL    HW134913   4.701   4.440   7.295 -0.2568  0.3143  0.4237
 7759SOL    HW234914   0.029   4.403   7.174 -0.2475 -0.5552 -0.4093
 7760SOL     OW34915   1.474   1.255   6.088  0.1736  0.1386 -0.0715
 7760SOL    HW134916   1.542   1.259   6.021  0.2942 -0.5461  0.0101
 7760SOL    HW234917   1.525   1.233   6.166 -0.2761  0.9124  0.4391
 7761SOL     OW34918   1.073   1.546   3.356  0.3146 -0.4188  0.6129
 7761SOL    HW134919   1.064   1.638   3.331 -1.0196 -0.5611  0.6015
 7761SOL    HW234920   1.166   1.530   3.339  0.8421  3.3604 -0.0701
 7762SOL     OW34921   4.143   2.023   3.274 -0.1291 -0.2683  1.1481
 7762SOL    HW134922   4.049   2.027   3.256  0.4144 -1.0999 -1.8311
 7762SOL    HW234923   4.175   2.078   3.202 -1.4390  1.3744  1.8220
 7763SOL     OW34924   1.899   3.561   4.409  0.2273  0.7569 -0.6333
 7763SOL    HW134925   1.943   3.497   4.466 -0.5627 -0.0381 -0.9075
 7763SOL    HW234926   1.810   3.547   4.443  0.9298 -1.1778  0.4305
 7764SOL     OW34927   3.655   4.055  15.286 -0.0913  0.0039 -0.0262
 7764SOL    HW134928   3.656   4.053  15.190 -0.3117 -0.9631 -0.0027
 7764SOL    HW234929   3.700   3.975  15.312 -1.8229 -0.2919  2.0113
 7765SOL     OW34930   0.152   2.026   9.183  0.1717 -0.6991  0.5087
 7765SOL    HW134931   0.168   2.111   9.142  0.0795 -0.4950  0.8966
 7765SOL    HW234932   0.116   1.973   9.112 -0.5856  0.9558 -0.3413
 7766SOL     OW34933   2.650   3.553   6.468 -0.3871  0.0210  0.0642
 7766SOL    HW134934   2.716   3.608   6.510 -0.0641 -0.7489  0.5600
 7766SOL    HW234935   2.711   3.517   6.405  0.3419 -0.3898  1.0046
 7767SOL     OW34936   1.353   0.211   2.206  0.3915  0.2456 -0.3503
 7767SOL    HW134937   1.381   0.294   2.167  1.5234  0.1641  0.2920
 7767SOL    HW234938   1.380   0.147   2.141  1.7512  0.0804  0.3679
 7768SOL     OW34939   1.721   2.107   3.227 -0.6241  0.3081 -0.1074
 7768SOL    HW134940   1.781   2.061   3.286 -0.3771  0.2862 -0.3779
 7768SOL    HW234941   1.638   2.062   3.242 -1.3151  1.7549  0.4796
 7769SOL     OW34942   3.977   4.029   5.151  0.4409  0.2692  0.1778
 7769SOL    HW134943   3.921   4.024   5.229 -2.5951  0.3879 -2.0016
 7769SOL    HW234944   3.985   4.124   5.144  1.3285  0.4138  3.2669
 7770SOL     OW34945   2.279   3.284   2.530  0.0819  0.4439 -0.0810
 7770SOL    HW134946   2.332   3.298   2.608  1.1088  1.3917 -0.9502
 7770SOL    HW234947   2.239   3.368   2.509  1.4827  1.0447 -0.4009
 7771SOL     OW34948   1.263   0.692   9.808  0.7722 -0.1867  0.7289
 7771SOL    HW134949   1.198   0.622   9.813  1.4933 -0.7843  1.5418
 7771SOL    HW234950   1.260   0.728   9.896  0.7063  0.2028  0.5699
 7772SOL     OW34951   1.666   2.963  15.782 -0.2556  1.0399 -0.7746
 7772SOL    HW134952   1.618   2.917  15.713  0.5044  0.2035 -0.7460
 7772SOL    HW234953   1.668   3.055  15.756 -2.9123  1.3869  0.3250
 7773SOL     OW34954   2.764   0.892   5.375 -0.3861 -0.0327  0.0621
 7773SOL    HW134955   2.843   0.855   5.415  0.2332  1.1989 -0.0395
 7773SOL    HW234956   2.783   0.985   5.381 -0.6856  0.1519 -1.7911
 7774SOL     OW34957   2.093   0.181   7.912  0.4207 -0.0982 -0.2191
 7774SOL    HW134958   2.165   0.149   7.965 -0.6232 -1.3551  0.4459
 7774SOL    HW234959   2.036   0.105   7.921 -0.9012  1.2379  2.5997
 7775SOL     OW34960   3.984   3.553  11.327 -0.5606  0.4007 -0.2570
 7775SOL    HW134961   3.924   3.532  11.256  0.8594 -1.1162 -1.0103
 7775SOL    HW234962   4.007   3.645  11.319 -0.1651  0.2395 -0.9642
 7776SOL     OW34963   0.880   2.403   7.466  0.2693 -0.3092  0.2176
 7776SOL    HW134964   0.901   2.482   7.417  0.1598 -1.4561 -1.6839
 7776SOL    HW234965   0.924   2.336   7.414 -0.5635 -0.6980  0.0077
 7777SOL     OW34966   2.899   3.935   3.114  0.5487  0.0001  0.1674
 7777SOL    HW134967   2.836   4.006   3.098 -1.7390 -2.0312  0.1045
 7777SOL    HW234968   2.971   3.987   3.151  2.0593 -2.2020  0.2714
 7778SOL     OW34969   2.176   0.254   6.783 -0.1479  0.2608 -0.2312
 7778SOL    HW134970   2.126   0.333   6.766 -0.9815 -0.3833 -0.8114
 7778SOL    HW234971   2.138   0.197   6.716 -0.2666 -0.6312  0.5922
 7779SOL     OW34972   2.595   2.439  10.659 -0.1394  0.6002 -0.1077
 7779SOL    HW134973   2.541   2.512  10.628  0.9851  2.3232  1.8967
 7779SOL    HW234974   2.533   2.379  10.700 -0.3244  1.5658  1.0408
 7780SOL     OW34975   2.811   1.788   2.956 -0.4851  0.4691 -0.2174
 7780SOL    HW134976   2.831   1.695   2.953  0.5390  0.6606  0.4332
 7780SOL    HW234977   2.893   1.815   2.913  0.0566  1.1768  1.2492
 7781SOL     OW34978   1.219   1.014   0.339  0.0188 -0.3342  0.4390
 7781SOL    HW134979   1.180   0.999   0.425  1.0911  2.1119  1.3683
 7781SOL    HW234980   1.146   1.000   0.279  0.3246  0.7473 -0.1823
 7782SOL     OW34981   2.509   3.969   2.624 -0.2172  0.5974  0.1970
 7782SOL    HW134982   2.479   3.961   2.534 -1.4011 -0.1879  0.6662
 7782SOL    HW234983   2.438   4.022   2.660 -0.3340 -0.8708  2.1371
 7783SOL     OW34984   0.666   0.558   6.454  0.3089 -0.2775  0.5363
 7783SOL    HW134985   0.687   0.627   6.390  1.4814 -1.9216 -0.8771
 7783SOL    HW234986   0.699   0.480   6.407 -0.4267  0.1284 -0.6556
 7784SOL     OW34987   4.195   3.525   0.351  0.1500 -0.1957  0.1057
 7784SOL    HW134988   4.151   3.605   0.321  0.4183  0.2877  1.0086
 7784SOL    HW234989   4.254   3.496   0.282  0.0495  0.5562 -0.2988
 7785SOL     OW34990   2.305   2.240   5.370  0.1821  0.5840  0.2261
 7785SOL    HW134991   2.370   2.170   5.379 -1.6779 -1.3605 -1.3071
 7785SOL    HW234992   2.248   2.232   5.447  0.8324  1.1748  0.7649
 7786SOL     OW34993   3.116   4.116  10.458  0.0002 -0.3533 -0.6517
 7786SOL    HW134994   3.109   4.030  10.417 -1.6518 -0.0279 -1.0433
 7786SOL    HW234995   3.090   4.166  10.381 -0.1244 -0.3396 -0.6010
 7787SOL     OW34996   1.623   1.078   3.407  0.3056 -0.1508 -0.8579
 7787SOL    HW134997   1.602   1.141   3.476 -0.1064  0.3172 -1.4033
 7787SOL    HW234998   1.713   1.050   3.423 -0.8620 -2.3835  1.7628
 7788SOL     OW34999   2.380   1.891  10.080 -0.7463 -0.3125  0.2515
 7788SOL    HW135000   2.447   1.930  10.136 -1.6078 -0.2370  1.2499
 7788SOL    HW235001   2.366   1.957  10.012  1.5059  1.1710  1.2331
 7789SOL     OW35002   2.098   0.173  11.379 -0.4385 -0.2623 -0.5066
 7789SOL    HW135003   2.093   0.259  11.421 -0.1519 -0.9435  0.8940
 7789SOL    HW235004   2.069   0.111  11.445 -1.7549  0.9816  0.0765
 7790SOL     OW35005   3.236   3.199   3.499  0.0101  0.5449  0.1894
 7790SOL    HW135006   3.316   3.169   3.455 -1.1919  0.0138 -1.6620
 7790SOL    HW235007   3.270   3.212   3.587  2.1559  0.3878 -0.5973
 7791SOL     OW35008   4.307   3.333   6.720 -0.0785 -0.6069  0.2936
 7791SOL    HW135009   4.214   3.338   6.741  0.0695  1.9066  0.2475
 7791SOL    HW235010   4.319   3.425   6.742  0.5992 -1.0833  1.9044
 7792SOL     OW35011   2.787   1.540   3.644  0.6953 -0.3609 -0.1124
 7792SOL    HW135012   2.878   1.525   3.619  0.9698  1.6977 -0.3327
 7792SOL    HW235013   2.758   1.575   3.560  1.1574  0.9652  0.2767
 7793SOL     OW35014   0.885   1.725   6.079 -0.3694  0.4056  0.6423
 7793SOL    HW135015   0.832   1.702   6.155 -0.7776 -1.7107 -0.2715
 7793SOL    HW235016   0.911   1.816   6.094  2.7713 -0.5432  0.9656
 7794SOL     OW35017   3.958   2.552   5.480  0.6376  0.2876 -0.0681
 7794SOL    HW135018   3.966   2.544   5.385 -3.0149  4.1864 -0.7164
 7794SOL    HW235019   3.971   2.646   5.496  0.6052  0.5202 -1.4138
 7795SOL     OW35020   4.130   4.165   3.634  0.1030 -0.3485  0.2821
 7795SOL    HW135021   4.181   4.121   3.566  0.4443  0.1811  0.1926
 7795SOL    HW235022   4.090   4.089   3.677  0.3001 -0.4207  0.3415
 7796SOL     OW35023   1.603   0.551   6.290  0.4724 -0.4403  0.0506
 7796SOL    HW135024   1.540   0.531   6.221 -0.5080 -1.6580  1.2851
 7796SOL    HW235025   1.684   0.502   6.279 -0.2036 -1.7684  0.9511
 7797SOL     OW35026   1.435   4.594   4.314 -0.1863  0.1561  0.2296
 7797SOL    HW135027   1.482   4.629   4.390  1.0952  0.5855 -0.7654
 7797SOL    HW235028   1.446   4.501   4.330  1.2105 -0.6730 -5.7548
 7798SOL     OW35029   4.032   3.342   6.833  0.5238  0.4798 -0.3203
 7798SOL    HW135030   3.980   3.357   6.754 -0.0343 -1.2926 -0.2835
 7798SOL    HW235031   3.966   3.318   6.898  0.3355  0.3704 -0.5528
 7799SOL     OW35032   3.812   3.315   7.208 -0.2405  0.1081 -0.0690
 7799SOL    HW135033   3.847   3.242   7.259 -0.5567  0.5714  0.8122
 7799SOL    HW235034   3.823   3.390   7.267 -0.6438 -0.3180  0.5427
 7800SOL     OW35035   3.526   2.455  11.052  0.1722  0.2899  0.4379
 7800SOL    HW135036   3.448   2.455  11.108 -1.6648  0.3849 -2.1401
 7800SOL    HW235037   3.484   2.444  10.966 -1.3347 -1.4791  1.3970
 7801SOL     OW35038   1.319   1.477   6.041 -0.5063  0.2152 -0.2908
 7801SOL    HW135039   1.302   1.459   5.948  0.9967 -0.0927 -0.5067
 7801SOL    HW235040   1.375   1.403   6.064  0.6185  0.4687 -2.2183
 7802SOL     OW35041   3.897   2.327   5.817  0.7933  0.6600 -0.0079
 7802SOL    HW135042   3.850   2.244   5.829 -0.0049  1.0396 -0.4853
 7802SOL    HW235043   3.828   2.380   5.776 -0.5814 -2.1054 -1.2750
 7803SOL     OW35044   3.430   3.786  12.128  0.1580 -0.3250 -0.0741
 7803SOL    HW135045   3.369   3.722  12.090 -1.5505  2.2311 -1.6013
 7803SOL    HW235046   3.382   3.838  12.192  1.2254  1.8095 -1.0292
 7804SOL     OW35047   3.782   3.961   8.758  0.0121  0.2253  0.6292
 7804SOL    HW135048   3.859   3.916   8.793  0.5488  0.3146 -0.4342
 7804SOL    HW235049   3.823   4.007   8.685 -0.1105  0.1687  0.5245
 7805SOL     OW35050   3.088   4.657   5.903  0.4004  0.0551  0.6302
 7805SOL    HW135051   3.150   4.589   5.876  1.2825  1.3180 -0.5034
 7805SOL    HW235052   3.000   4.623   5.887 -1.0956  3.1864  2.1653
 7806SOL     OW35053   4.299   0.878   4.500  0.0860  0.2859  0.0416
 7806SOL    HW135054   4.254   0.800   4.532  0.9691  0.1457  0.9506
 7806SOL    HW235055   4.290   0.874   4.405  0.7744  3.1701 -0.1621
 7807SOL     OW35056   2.091   4.206   8.783 -0.0242 -0.0745 -0.4666
 7807SOL    HW135057   2.145   4.156   8.845 -2.0661 -1.1943  0.4012
 7807SOL    HW235058   2.155   4.231   8.717 -0.7404 -0.9196 -1.4694
 7808SOL     OW35059   0.514   1.592   4.976 -0.5375  0.5146 -0.5742
 7808SOL    HW135060   0.544   1.601   5.066  0.9208 -1.0099 -0.9059
 7808SOL    HW235061   0.529   1.678   4.939 -0.1369 -0.0359 -1.6886
 7809SOL     OW35062   3.771   0.028   7.466 -0.1881  0.2936 -0.1967
 7809SOL    HW135063   3.859   0.066   7.472  0.4808 -1.0311 -1.4185
 7809SOL    HW235064   3.745   0.016   7.557  1.5820 -0.6146  0.1894
 7810SOL     OW35065   0.413   2.888   9.191  0.1162  0.4237  0.0099
 7810SOL    HW135066   0.470   2.927   9.124  1.8007 -3.4027 -0.7959
 7810SOL    HW235067   0.341   2.951   9.182 -2.6725 -2.2707  3.8872
 7811SOL     OW35068   4.668   0.093  16.270  0.3413  0.0882  0.7356
 7811SOL    HW135069   4.610   0.037  16.322  0.9590 -1.1712  0.0847
 7811SOL    HW235070   0.009   0.040  16.277 -0.4297 -0.4840  4.6302
 7812SOL     OW35071   2.539   1.151  14.607  0.1650  0.2975  0.3592
 7812SOL    HW135072   2.471   1.195  14.658 -0.0016 -0.2173  0.5782
 7812SOL    HW235073   2.572   1.081  14.663 -1.7078 -0.8549  0.0303
 7813SOL     OW35074   3.115   3.946   7.453 -0.2767 -0.4529  0.9795
 7813SOL    HW135075   3.047   4.007   7.481 -1.5825 -0.7717 -1.5473
 7813SOL    HW235076   3.084   3.872   7.507 -0.9632 -0.0796  1.1027
 7814SOL     OW35077   2.124   3.086   3.721  0.3539 -0.0905  0.3448
 7814SOL    HW135078   2.147   2.998   3.692  1.6061 -0.3357  2.0628
 7814SOL    HW235079   2.044   3.097   3.670  0.7822 -1.8357 -0.7207
 7815SOL     OW35080   3.135   3.562   0.517  0.4117 -0.3793 -0.2916
 7815SOL    HW135081   3.057   3.528   0.474  0.1196 -0.5114  0.3527
 7815SOL    HW235082   3.137   3.494   0.584  0.1816 -0.2839 -0.1875
 7816SOL     OW35083   1.505   0.366  12.747  0.2566 -0.3206  0.2869
 7816SOL    HW135084   1.518   0.297  12.682 -1.1857  0.0920 -0.4238
 7816SOL    HW235085   1.462   0.307  12.810  1.3098  0.8902  2.1587
 7817SOL     OW35086   1.672   4.350   5.650  0.2051  0.1358 -0.1523
 7817SOL    HW135087   1.605   4.346   5.581  0.0240 -1.1326  0.0889
 7817SOL    HW235088   1.708   4.438   5.637  0.9260  0.0484  1.3045
 7818SOL     OW35089   2.033   1.889   2.936 -0.3045  0.2350  0.0519
 7818SOL    HW135090   2.030   1.807   2.887 -0.4979 -0.0384  0.5182
 7818SOL    HW235091   2.008   1.860   3.024 -0.8193  0.1715 -0.1165
 7819SOL     OW35092   0.306   1.933   2.414 -0.2648 -0.1189  0.3778
 7819SOL    HW135093   0.366   1.862   2.391  0.2876  0.2339  0.7239
 7819SOL    HW235094   0.361   2.010   2.398  0.2780 -0.4364  0.6822
 7820SOL     OW35095   1.462   3.761   7.775 -0.4692  0.3679  0.4865
 7820SOL    HW135096   1.511   3.802   7.846 -1.0210 -0.6055  1.4338
 7820SOL    HW235097   1.526   3.700   7.739 -3.0478 -1.3110 -1.1923
 7821SOL     OW35098   3.758   3.986   0.477 -0.8311  0.3706 -0.0489
 7821SOL    HW135099   3.800   3.911   0.435  1.4019  2.2484 -1.1530
 7821SOL    HW235100   3.779   3.974   0.569 -1.8278 -1.2710 -0.0299
 7822SOL     OW35101   3.541   0.101   8.656  0.4507  0.1440  0.3159
 7822SOL    HW135102   3.537   0.010   8.684  1.1340  0.5069  1.6102
 7822SOL    HW235103   3.634   0.092   8.636  0.5383  0.4861  0.5617
 7823SOL     OW35104   3.948   1.005  15.714  0.7640 -0.0471  0.3036
 7823SOL    HW135105   3.922   0.950  15.788  0.8086 -1.7344 -0.9296
 7823SOL    HW235106   3.937   1.095  15.744 -0.8285  0.0480 -0.5908
 7824SOL     OW35107   3.169   4.519   1.615  0.1496  0.9935 -0.6215
 7824SOL    HW135108   3.250   4.571   1.614 -0.5779  2.1265 -0.3559
 7824SOL    HW235109   3.200   4.436   1.578 -1.6882  0.8450 -1.8358
 7825SOL     OW35110   2.894   0.534   5.267 -0.6001  0.2597  0.0083
 7825SOL    HW135111   2.837   0.467   5.230  0.0543 -0.5119  0.4069
 7825SOL    HW235112   2.928   0.557   5.180 -0.7953  1.3153  0.2147
 7826SOL     OW35113   0.208   2.881   0.463  0.0139 -0.3833 -0.7850
 7826SOL    HW135114   0.178   2.791   0.474 -0.4759 -0.5330 -3.2478
 7826SOL    HW235115   0.128   2.930   0.477  0.5204 -1.0056  4.2143
 7827SOL     OW35116   2.742   1.412  11.843 -0.0613 -0.2917  0.3309
 7827SOL    HW135117   2.723   1.323  11.872 -1.3332 -0.1335 -0.0315
 7827SOL    HW235118   2.689   1.459  11.907 -0.2258 -0.7953  0.5622
 7828SOL     OW35119   1.643   2.818  16.045 -0.0600 -0.2362  0.0074
 7828SOL    HW135120   1.607   2.860  15.967 -2.1042 -3.0974 -0.5593
 7828SOL    HW235121   1.682   2.892  16.092 -1.2284  0.7360 -0.5783
 7829SOL     OW35122   4.474   1.182  16.425 -0.2479 -0.0138  0.2959
 7829SOL    HW135123   4.446   1.108  16.371 -1.9926 -1.2675  2.9217
 7829SOL    HW235124   4.553   1.157  16.473 -0.3397 -1.0616 -0.1062
 7830SOL     OW35125   1.127   0.174   4.007 -0.1147 -0.6687 -0.7971
 7830SOL    HW135126   1.098   0.172   3.916  1.7140  0.0487 -1.3975
 7830SOL    HW235127   1.077   0.106   4.053 -0.8233 -1.9700 -3.4314
 7831SOL     OW35128   0.674   2.893   7.294  0.1217 -0.3461  0.2883
 7831SOL    HW135129   0.720   2.976   7.281  2.0699 -1.5935 -0.7197
 7831SOL    HW235130   0.582   2.916   7.309  0.0747  1.1753 -2.3435
 7832SOL     OW35131   2.279   2.883  11.369 -0.0579 -0.0083  0.2990
 7832SOL    HW135132   2.360   2.833  11.376  1.5579  2.7013  1.1022
 7832SOL    HW235133   2.222   2.840  11.432  0.8891 -1.2077  0.3237
 7833SOL     OW35134   3.266   0.634   6.029 -0.2293 -0.2050  0.3361
 7833SOL    HW135135   3.201   0.690   6.072 -0.0327  0.2246  0.0749
 7833SOL    HW235136   3.339   0.646   6.090 -0.0339  0.1913  0.0243
 7834SOL     OW35137   0.836   2.516   4.908 -0.0035 -0.3248 -0.4635
 7834SOL    HW135138   0.824   2.426   4.878  0.2131 -1.3192  2.4780
 7834SOL    HW235139   0.751   2.538   4.947  0.0130  0.8967 -1.1265
 7835SOL     OW35140   0.053   1.171   4.908  0.1394 -0.3208 -0.2293
 7835SOL    HW135141   4.711   1.119   4.915  0.7556 -0.7412  3.7521
 7835SOL    HW235142   0.126   1.109   4.909  0.0384 -0.4330  0.3029
 7836SOL     OW35143   2.908   3.726   4.530  0.2441  0.4659  0.4538
 7836SOL    HW135144   2.961   3.723   4.610  0.7999 -0.0992  0.0701
 7836SOL    HW235145   2.882   3.634   4.528 -0.0905  0.5878 -1.0460
 7837SOL     OW35146   2.971   2.783   0.367 -0.1135  0.2907 -0.1942
 7837SOL    HW135147   3.016   2.708   0.329  1.0841  0.3418  1.1161
 7837SOL    HW235148   3.025   2.853   0.329 -0.9228  0.2089 -1.5109
 7838SOL     OW35149   0.054   3.097   4.626 -0.1165 -0.4595  0.4050
 7838SOL    HW135150   0.067   3.089   4.531  2.6304  2.2258  0.5641
 7838SOL    HW235151   4.712   3.044   4.635  0.0848 -0.6263  1.1706
 7839SOL     OW35152   3.441   1.149   6.121  0.5173 -0.3936 -0.4534
 7839SOL    HW135153   3.468   1.066   6.160 -1.7220 -0.7795  0.2581
 7839SOL    HW235154   3.457   1.206   6.196  1.1447 -0.8246 -0.2611
 7840SOL     OW35155   3.885   2.225   1.022 -0.4240 -0.2859  0.2687
 7840SOL    HW135156   3.822   2.251   0.955 -0.3049  0.4404  0.4423
 7840SOL    HW235157   3.934   2.148   0.993 -2.6351 -1.1116 -1.2410
 7841SOL     OW35158   3.844   2.296   1.302  0.5229  0.0970  0.1578
 7841SOL    HW135159   3.938   2.310   1.305  0.7446 -1.7328  2.2795
 7841SOL    HW235160   3.832   2.258   1.215 -1.3882  1.9967 -0.4160
 7842SOL     OW35161   0.689   4.187   3.644  0.5146  0.4164  0.1349
 7842SOL    HW135162   0.628   4.259   3.661 -2.0823 -2.2434  2.1797
 7842SOL    HW235163   0.680   4.134   3.724  0.8808  1.3629  0.8062
 7843SOL     OW35164   1.302   3.488   1.623  0.1509  0.1363  0.0298
 7843SOL    HW135165   1.386   3.495   1.668  0.0187  0.3565  0.2381
 7843SOL    HW235166   1.288   3.582   1.623  2.8896  0.5398  0.1174
 7844SOL     OW35167   2.014   0.441  15.113  0.2372  0.1045 -0.4076
 7844SOL    HW135168   2.109   0.430  15.120 -0.0096 -0.4753  1.9866
 7844SOL    HW235169   1.985   0.359  15.154  1.7736  0.8865  2.2021
 7845SOL     OW35170   3.813   2.753   1.758  0.4706  0.7351 -0.1340
 7845SOL    HW135171   3.829   2.846   1.772  1.4986  0.8316 -1.9757
 7845SOL    HW235172   3.800   2.718   1.847  1.1051  1.2138  0.1479
 7846SOL     OW35173   2.096   2.543   8.535 -0.0502 -0.3386 -0.4572
 7846SOL    HW135174   2.055   2.547   8.621  0.6012 -1.8243 -0.0736
 7846SOL    HW235175   2.026   2.513   8.477  1.7275 -2.0521 -1.7545
 7847SOL     OW35176   2.004   1.808   8.298  0.1935 -0.0085 -0.0611
 7847SOL    HW135177   1.956   1.866   8.239  0.5217  0.8993  0.5561
 7847SOL    HW235178   2.080   1.864   8.312 -0.5773  0.0116  4.1804
 7848SOL     OW35179   2.082   0.555   0.056 -0.3577 -0.1984 -0.6068
 7848SOL    HW135180   2.065   0.629  17.747  1.2543  0.4228 -0.3005
 7848SOL    HW235181   2.155   0.503   0.021  0.8400  1.5035 -0.6578
 7849SOL     OW35182   0.053   3.100   2.731 -0.2419 -0.0359 -0.4665
 7849SOL    HW135183   0.081   3.187   2.702 -2.8799  1.0970  0.3254
 7849SOL    HW235184   4.698   3.120   2.749  0.4626  3.4767 -0.7788
 7850SOL     OW35185   2.722   1.551   9.093 -0.2404 -0.7853  0.3796
 7850SOL    HW135186   2.710   1.632   9.044 -3.1528 -1.1459  0.4530
 7850SOL    HW235187   2.645   1.551   9.151  0.6841  0.7846  1.6139
 7851SOL     OW35188   2.816   2.486  10.441  0.0851  0.7865  0.1678
 7851SOL    HW135189   2.820   2.393  10.418 -1.2143  0.5359  0.9812
 7851SOL    HW235190   2.743   2.490  10.502  1.2000 -3.0044  1.7915
 7852SOL     OW35191   2.490   1.849   6.630 -0.4366 -0.2347 -0.9238
 7852SOL    HW135192   2.426   1.877   6.565  0.9341  3.2234 -0.7826
 7852SOL    HW235193   2.440   1.793   6.690 -0.0563  1.9473  1.4448
 7853SOL     OW35194   3.043   3.538   5.823 -0.3077 -0.0397 -0.4947
 7853SOL    HW135195   3.002   3.549   5.909  1.1738 -3.3147  0.6551
 7853SOL    HW235196   2.968   3.516   5.767  0.6169  1.3652 -2.2837
 7854SOL     OW35197   1.085   1.605   6.504  0.0832 -0.3906  0.1009
 7854SOL    HW135198   1.143   1.574   6.434  0.7104  1.0588 -0.0370
 7854SOL    HW235199   1.053   1.526   6.547 -0.6171  0.3803  0.9928
 7855SOL     OW35200   3.465   1.943   0.773  0.0501 -0.1597 -0.0179
 7855SOL    HW135201   3.432   1.945   0.683 -0.1403  1.0373  0.0723
 7855SOL    HW235202   3.445   1.860   0.815  1.7545 -0.8107 -0.4826
 7856SOL     OW35203   4.002   4.312   5.160 -0.3831 -0.0343  0.3839
 7856SOL    HW135204   4.060   4.339   5.089 -0.3746 -1.7243 -0.2435
 7856SOL    HW235205   4.023   4.371   5.233 -0.3121 -1.4099  1.4640
 7857SOL     OW35206   4.572   4.524   6.033 -0.1625  0.4852 -0.2462
 7857SOL    HW135207   4.613   4.578   6.101  2.0891  1.0013 -2.0171
 7857SOL    HW235208   4.590   4.433   6.058  2.0446  0.7991 -0.6264
 7858SOL     OW35209   3.088   1.821   2.852  0.2023 -1.1097 -0.0764
 7858SOL    HW135210   3.163   1.843   2.796 -0.6880 -2.0749 -1.6394
 7858SOL    HW235211   3.120   1.734   2.876 -0.7858 -0.3600  3.8902
 7859SOL     OW35212   0.353   0.777   1.924  0.4685 -0.2455 -0.0333
 7859SOL    HW135213   0.268   0.739   1.946  0.6270 -0.0942  0.8499
 7859SOL    HW235214   0.321   0.851   1.873  0.7356 -0.6267 -0.7570
 7860SOL     OW35215   3.792   2.934  15.993  1.2501  0.3024  0.2809
 7860SOL    HW135216   3.747   2.926  15.909 -0.6222 -0.6263  1.3664
 7860SOL    HW235217   3.813   3.027  15.987  1.5390  0.2322  0.1575
 7861SOL     OW35218   1.552   3.246   4.683 -0.0022 -0.6183  0.2549
 7861SOL    HW135219   1.574   3.228   4.775  1.7514  1.1904  0.1934
 7861SOL    HW235220   1.584   3.170   4.635 -0.8253 -0.6092 -0.3069
 7862SOL     OW35221   1.869   3.047   8.217  0.5907  0.0176 -0.4141
 7862SOL    HW135222   1.826   2.962   8.225 -0.5027  0.5381 -0.7876
 7862SOL    HW235223   1.797   3.100   8.182  1.1718  0.2992 -1.1892
 7863SOL     OW35224   1.798   1.808   6.451 -0.5986 -0.4408 -0.0893
 7863SOL    HW135225   1.796   1.875   6.519  1.5545 -1.3980  0.8998
 7863SOL    HW235226   1.828   1.734   6.504 -0.6574  1.2665  2.3196
 7864SOL     OW35227   1.892   0.564   6.542 -0.0332 -0.0431  0.0355
 7864SOL    HW135228   1.838   0.639   6.566 -1.5970 -0.8180 -0.9898
 7864SOL    HW235229   1.971   0.612   6.518  0.4664 -0.5577  0.6677
 7865SOL     OW35230   4.542   2.772   2.346 -0.1107  0.4289  0.5760
 7865SOL    HW135231   4.504   2.854   2.313  2.6659  1.7871  0.7070
 7865SOL    HW235232   4.606   2.811   2.406  0.7427  0.5520 -0.4133
 7866SOL     OW35233   3.203   0.350   6.157  0.2757  0.0756  0.3109
 7866SOL    HW135234   3.212   0.376   6.249  0.7267  0.0872  0.2620
 7866SOL    HW235235   3.230   0.425   6.105  2.1970 -0.6966  0.2151
 7867SOL     OW35236   4.718   0.436  12.394 -0.0145  0.3250 -0.0588
 7867SOL    HW135237   4.668   0.463  12.317  1.6322  0.3588 -1.1185
 7867SOL    HW235238   4.659   0.440  12.469 -1.4565  0.7631 -1.2243
 7868SOL     OW35239   2.035   0.513   7.965  0.0392  0.3817 -0.3735
 7868SOL    HW135240   1.998   0.598   7.987  0.8334  0.6145  0.0750
 7868SOL    HW235241   2.030   0.470   8.051  0.5224  0.3732 -0.3527
 7869SOL     OW35242   3.574   0.286   2.044 -0.2489  0.2519 -0.1459
 7869SOL    HW135243   3.522   0.343   1.987 -0.2175  0.4091 -0.0168
 7869SOL    HW235244   3.562   0.201   2.001  0.9283 -0.3738  0.7417
 7870SOL     OW35245   1.257   2.237  14.876 -0.4442 -0.3776 -0.1656
 7870SOL    HW135246   1.266   2.247  14.781  0.5236 -0.5744 -0.0904
 7870SOL    HW235247   1.197   2.163  14.873 -0.0056 -0.7405  0.0139
 7871SOL     OW35248   1.951   0.535   8.431 -0.2632  0.7458 -0.0721
 7871SOL    HW135249   1.911   0.449   8.423  1.0716  0.2383 -1.2863
 7871SOL    HW235250   1.916   0.576   8.352 -1.3654 -0.7223 -0.3393
 7872SOL     OW35251   0.538   2.322   2.903  0.4676 -0.2346 -0.2891
 7872SOL    HW135252   0.497   2.285   2.981 -0.3511 -0.7021 -0.9349
 7872SOL    HW235253   0.582   2.251   2.855  0.0570  1.1416 -2.7275
 7873SOL     OW35254   0.994   3.779   1.984  0.1047 -0.0736  0.0123
 7873SOL    HW135255   0.956   3.840   1.921  0.4157  0.8125  0.6980
 7873SOL    HW235256   1.046   3.831   2.045 -0.4341  0.2830  0.1602
 7874SOL     OW35257   1.575   3.356  14.827 -0.0825 -0.1524 -0.4167
 7874SOL    HW135258   1.590   3.426  14.764 -2.0564  1.3439  0.7565
 7874SOL    HW235259   1.567   3.410  14.905 -2.7186  2.4228 -2.4571
 7875SOL     OW35260   1.167   1.045  11.217  0.1556  0.6694 -0.0839
 7875SOL    HW135261   1.138   1.123  11.265  1.1780  0.1133  1.4423
 7875SOL    HW235262   1.224   0.997  11.277 -2.4820 -1.1902  0.9679
 7876SOL     OW35263   4.014   2.968   7.058  0.3531 -0.1307  0.4609
 7876SOL    HW135264   3.961   2.889   7.067  0.9235 -0.5266  0.3518
 7876SOL    HW235265   3.956   3.014   6.997 -0.1760 -0.8139  0.4410
 7877SOL     OW35266   0.444   3.011   0.433  0.0625  0.0189 -0.0663
 7877SOL    HW135267   0.361   2.966   0.417 -0.1304  0.2453  0.2963
 7877SOL    HW235268   0.454   3.001   0.527 -3.2522  0.3632  0.3232
 7878SOL     OW35269   1.922   4.525   5.299  0.2874 -0.2077  0.2638
 7878SOL    HW135270   1.941   4.565   5.214 -0.4961 -2.3565 -0.9156
 7878SOL    HW235271   2.006   4.530   5.346  1.2707 -0.1910 -1.4899
 7879SOL     OW35272   1.406   4.640   8.000 -0.3084 -0.2226 -0.4536
 7879SOL    HW135273   1.410   4.732   8.027  2.5751 -0.7537  0.9830
 7879SOL    HW235274   1.382   4.594   8.080  0.8676  0.3158  0.2169
 7880SOL     OW35275   4.303   4.466   1.130  0.0386  0.3905  0.6958
 7880SOL    HW135276   4.381   4.417   1.103 -0.5007  0.2591 -0.6391
 7880SOL    HW235277   4.269   4.494   1.045  0.9923 -1.6256 -0.3372
 7881SOL     OW35278   1.328   1.817   4.897  0.6187 -0.2613  0.2323
 7881SOL    HW135279   1.237   1.805   4.873  0.4548 -0.0110  0.7184
 7881SOL    HW235280   1.320   1.890   4.959 -1.6635  1.1689 -1.7615
 7882SOL     OW35281   3.439   1.766   7.306 -0.2450  0.5704 -0.1261
 7882SOL    HW135282   3.526   1.793   7.336 -0.0355  0.1770 -0.3898
 7882SOL    HW235283   3.465   1.720   7.227 -2.4962  0.8687 -1.0603
 7883SOL     OW35284   0.501   4.612   1.902 -0.0360  0.0164  0.0633
 7883SOL    HW135285   0.463   4.524   1.900 -0.3690  0.1723 -0.4015
 7883SOL    HW235286   0.494   4.637   1.810 -0.2552  1.5412  0.5072
 7884SOL     OW35287   0.138   3.614   5.521  0.4466  0.2047  0.1706
 7884SOL    HW135288   0.170   3.602   5.432  0.3238 -0.8057  0.2628
 7884SOL    HW235289   0.056   3.564   5.515  0.5807  0.3182 -2.6117
 7885SOL     OW35290   3.993   3.835   1.355 -0.5237  0.6386  0.1015
 7885SOL    HW135291   3.934   3.795   1.290  0.9869 -3.2026  1.0546
 7885SOL    HW235292   3.943   3.915   1.369 -1.2314  0.2092  0.0539
 7886SOL     OW35293   3.776   4.451   5.977  0.0942  0.3909  0.1155
 7886SOL    HW135294   3.849   4.400   6.012  0.1635  0.4299  0.0319
 7886SOL    HW235295   3.706   4.392   5.950  1.1863 -0.6362 -0.4982
 7887SOL     OW35296   2.727   3.318   8.526 -0.6446  0.7591 -0.1571
 7887SOL    HW135297   2.799   3.330   8.588 -1.0273  2.0967  0.0193
 7887SOL    HW235298   2.699   3.409   8.524  0.3360  1.0565 -0.3172
 7888SOL     OW35299   1.908   4.133   4.103  0.0367 -0.4437 -0.2586
 7888SOL    HW135300   1.876   4.093   4.022  1.1107  0.6785 -1.2245
 7888SOL    HW235301   1.923   4.052   4.152  1.6735  0.9765  1.5678
 7889SOL     OW35302   1.486   0.978   8.503 -0.4054 -0.0357  0.7655
 7889SOL    HW135303   1.556   0.919   8.475 -0.1383 -0.0205  1.4104
 7889SOL    HW235304   1.437   0.924   8.566 -0.7541 -1.8907 -1.0670
 7890SOL     OW35305   0.215   2.210   4.989  0.2980  0.6904 -0.1687
 7890SOL    HW135306   0.145   2.151   4.960 -0.9140  0.8713  2.3977
 7890SOL    HW235307   0.224   2.172   5.076 -3.2502 -1.5030 -0.7623
 7891SOL     OW35308   3.754   2.028  15.236  0.2192  0.3161 -0.0255
 7891SOL    HW135309   3.781   1.965  15.303  0.6981 -0.3681 -0.8643
 7891SOL    HW235310   3.759   2.113  15.279 -0.5768  0.9174 -1.1235
 7892SOL     OW35311   3.369   1.917  14.032  0.3959  0.0242  0.3334
 7892SOL    HW135312   3.395   1.885  14.118 -0.6814 -0.9591  0.2965
 7892SOL    HW235313   3.438   1.887  13.973 -1.0258  0.8716 -1.7816
 7893SOL     OW35314   3.612   3.696   6.984  0.1607 -0.2769  0.2915
 7893SOL    HW135315   3.633   3.786   7.007 -0.7202  0.4158 -1.6661
 7893SOL    HW235316   3.642   3.694   6.893 -0.7922 -1.7248  0.0005
 7894SOL     OW35317   0.406   3.911   2.813 -0.5682 -0.3704  0.4597
 7894SOL    HW135318   0.487   3.953   2.841 -1.2919  2.0509 -0.9567
 7894SOL    HW235319   0.439   3.823   2.799 -0.9381 -0.3300 -0.6793
 7895SOL     OW35320   1.334   3.388   2.156 -0.8651 -0.4823 -0.1637
 7895SOL    HW135321   1.408   3.333   2.131 -1.8149 -1.8104  0.0024
 7895SOL    HW235322   1.300   3.370   2.244 -2.1162  2.1913 -0.1023
 7896SOL     OW35323   0.489   1.663   2.895 -0.1122  0.1195  0.4854
 7896SOL    HW135324   0.550   1.736   2.884  0.1914 -0.5400 -2.1950
 7896SOL    HW235325   0.414   1.716   2.925  0.4615  0.8038  0.7147
 7897SOL     OW35326   2.561   4.361   5.999  0.1081  0.2456  0.2909
 7897SOL    HW135327   2.596   4.356   5.910 -0.8349 -2.3698  0.0648
 7897SOL    HW235328   2.477   4.406   5.992  0.7906  1.1567 -2.0333
 7898SOL     OW35329   4.613   0.232   4.778 -0.4972 -0.4554  0.5617
 7898SOL    HW135330   4.549   0.297   4.749 -1.2341 -2.1187 -1.5463
 7898SOL    HW235331   4.631   0.173   4.704 -2.5604 -0.2696 -0.0996
 7899SOL     OW35332   4.170   2.372  13.820 -0.4473 -0.2280 -0.4228
 7899SOL    HW135333   4.150   2.279  13.807  1.3009 -0.3285 -2.4615
 7899SOL    HW235334   4.263   2.355  13.808 -1.1053 -2.6092 -2.1147
 7900SOL     OW35335   0.788   3.200   8.443 -0.3418  0.2721  0.0828
 7900SOL    HW135336   0.700   3.165   8.429 -0.0443 -1.1658  1.9262
 7900SOL    HW235337   0.804   3.176   8.534  0.4027 -1.7612 -0.6038
 7901SOL     OW35338   1.523   1.848   4.637  0.1850  0.3276  0.0231
 7901SOL    HW135339   1.450   1.871   4.580 -0.2902  0.8501  0.8535
 7901SOL    HW235340   1.483   1.836   4.723 -0.4005 -0.8541 -0.4276
 7902SOL     OW35341   4.645   3.936   2.096  0.1066 -0.0218 -0.3516
 7902SOL    HW135342   4.580   3.899   2.036 -0.4050  3.4294 -1.9327
 7902SOL    HW235343   4.586   3.963   2.167  1.5926 -1.2505  1.3488
 7903SOL     OW35344   4.707   1.899   0.200 -0.1644  0.1795  0.4263
 7903SOL    HW135345   0.004   1.810   0.195  0.6192  0.4141  1.7753
 7903SOL    HW235346   4.644   1.892   0.272 -0.9457 -0.8871 -0.3686
 7904SOL     OW35347   3.433   0.268   5.276 -0.7494 -0.6343  0.4169
 7904SOL    HW135348   3.451   0.177   5.255 -0.4701 -0.7022  0.9655
 7904SOL    HW235349   3.339   0.283   5.287 -0.6925  1.0318 -1.2491
 7905SOL     OW35350   3.531   1.471  12.011  0.0430  0.1083 -0.3814
 7905SOL    HW135351   3.613   1.521  12.004 -1.9136  3.8724  3.0826
 7905SOL    HW235352   3.463   1.525  11.971 -1.1853 -1.8125 -0.8685
 7906SOL     OW35353   2.122   2.754   5.081 -0.3867  0.4725 -0.1844
 7906SOL    HW135354   2.168   2.778   5.001  2.0075 -0.1359  1.0101
 7906SOL    HW235355   2.197   2.747   5.141  0.1971 -1.5374 -1.1427
 7907SOL     OW35356   0.518   1.438   5.274  0.1670  0.7254  0.1995
 7907SOL    HW135357   0.494   1.530   5.270  4.2802  1.8341  1.4311
 7907SOL    HW235358   0.532   1.408   5.184  0.2700  0.1222  0.4141
 7908SOL     OW35359   1.389   1.567   8.272  0.1848  0.3095 -0.4720
 7908SOL    HW135360   1.321   1.500   8.277  0.5663 -0.0554 -0.1788
 7908SOL    HW235361   1.332   1.644   8.268  1.3551  1.1698 -0.8230
 7909SOL     OW35362   2.123   0.727  10.597  0.2215  0.0127  0.2352
 7909SOL    HW135363   2.186   0.682  10.653  0.4014 -1.7420 -1.3745
 7909SOL    HW235364   2.155   0.817  10.610  1.2331 -0.3190  0.0608
 7910SOL     OW35365   1.286   0.551   7.757 -0.2859  0.0342  0.2154
 7910SOL    HW135366   1.319   0.624   7.705  0.4367 -2.6418 -3.0989
 7910SOL    HW235367   1.345   0.562   7.832  0.4281 -0.8941 -0.2146
 7911SOL     OW35368   3.538   1.326   6.321  0.0749 -0.1924 -0.2051
 7911SOL    HW135369   3.565   1.417   6.314 -1.4637  0.3994  1.4650
 7911SOL    HW235370   3.443   1.336   6.333  0.2184  1.1632 -0.2080
 7912SOL     OW35371   3.579   0.890   5.921  0.1567 -0.3583 -0.3203
 7912SOL    HW135372   3.549   0.970   5.879  1.8098  0.3047 -0.2274
 7912SOL    HW235373   3.534   0.887   6.005  3.0844 -0.0712  1.2653
 7913SOL     OW35374   3.072   2.227   4.034  0.3232  0.0213  0.2167
 7913SOL    HW135375   3.000   2.168   4.011 -0.0015  1.5060 -2.5828
 7913SOL    HW235376   3.097   2.179   4.113 -0.0584  0.1099  0.3961
 7914SOL     OW35377   2.962   4.191   8.752 -0.2121 -0.2812 -0.2382
 7914SOL    HW135378   3.016   4.219   8.678  0.9716 -1.5508  0.1549
 7914SOL    HW235379   2.881   4.236   8.728  0.8299  1.5510 -0.3126
 7915SOL     OW35380   1.440   3.713   9.390 -0.0139  0.1900  0.5132
 7915SOL    HW135381   1.524   3.703   9.345  0.0106 -0.7191  0.7500
 7915SOL    HW235382   1.387   3.751   9.320  2.1193  1.5678 -0.3743
 7916SOL     OW35383   0.399   3.744   5.082 -0.2858  0.0804  0.5684
 7916SOL    HW135384   0.366   3.776   4.998  0.9091  0.7100  0.3429
 7916SOL    HW235385   0.333   3.690   5.126  1.3081 -2.6640 -0.4568
 7917SOL     OW35386   0.316   0.271   2.527 -0.2377  0.2915  0.1836
 7917SOL    HW135387   0.274   0.334   2.586 -0.0087 -1.2428  1.9733
 7917SOL    HW235388   0.270   0.290   2.445  0.4390 -0.1460 -0.2931
 7918SOL     OW35389   1.644   2.957  13.286 -0.1541  0.3610 -0.0454
 7918SOL    HW135390   1.610   3.047  13.288 -1.9847 -0.3270 -0.2368
 7918SOL    HW235391   1.569   2.911  13.323  1.1089 -0.4171  1.5722
 7919SOL     OW35392   3.267   3.053   3.119 -0.2578 -0.1656 -0.2935
 7919SOL    HW135393   3.219   2.992   3.175 -0.2865  0.1364  0.0139
 7919SOL    HW235394   3.323   2.993   3.071  0.9173  1.4532 -0.9481
 7920SOL     OW35395   1.793   1.011   2.715  0.1413  0.2146  0.4068
 7920SOL    HW135396   1.740   0.959   2.654 -1.6230  0.7439  1.4929
 7920SOL    HW235397   1.862   1.043   2.657  0.6061 -0.2229  0.7167
 7921SOL     OW35398   2.466   4.427   2.084  1.2498 -0.1588  0.0296
 7921SOL    HW135399   2.557   4.399   2.088  0.9590 -1.3201 -1.5821
 7921SOL    HW235400   2.434   4.413   2.174  0.7059  1.3450  0.0684
 7922SOL     OW35401   2.805   3.096  10.757 -0.3623  0.2167 -0.5206
 7922SOL    HW135402   2.883   3.073  10.807 -1.7084 -1.6023  0.7365
 7922SOL    HW235403   2.838   3.111  10.669  2.2215 -0.0486  0.4038
 7923SOL     OW35404   2.757   3.260  16.718  0.3952 -0.1341  0.1064
 7923SOL    HW135405   2.716   3.205  16.784  1.4756 -1.3459 -0.2319
 7923SOL    HW235406   2.715   3.217  16.644 -0.9792 -1.8782  1.9197
 7924SOL     OW35407   0.219   1.328   5.411 -0.0818  0.7707 -0.0957
 7924SOL    HW135408   0.125   1.334   5.397 -0.4534 -1.3230  1.5633
 7924SOL    HW235409   0.256   1.320   5.323 -3.3412  0.9233 -1.4684
 7925SOL     OW35410   1.892   3.885   7.995  0.0041 -0.3254  0.3443
 7925SOL    HW135411   1.923   3.813   7.940  0.4098 -0.8032  1.1955
 7925SOL    HW235412   1.916   3.851   8.081 -0.9630  0.6589  0.9995
 7926SOL     OW35413   2.882   4.297   9.628  0.2394  0.5623 -0.1923
 7926SOL    HW135414   2.869   4.212   9.669 -0.8147  1.2745  0.9518
 7926SOL    HW235415   2.927   4.336   9.703 -0.7977  3.0346 -0.8453
 7927SOL     OW35416   3.579   0.602   7.102 -0.0115  0.0437  0.3219
 7927SOL    HW135417   3.490   0.635   7.088  0.1299  1.3872  2.6818
 7927SOL    HW235418   3.555   0.522   7.149  0.1192 -0.5826 -0.6757
 7928SOL     OW35419   3.248   4.525   8.379 -0.7195 -0.4289  0.0101
 7928SOL    HW135420   3.237   4.504   8.472 -0.1723  2.5207  0.7502
 7928SOL    HW235421   3.197   4.606   8.372  2.0505  1.1055 -2.1991
 7929SOL     OW35422   2.415   0.139  15.049  0.8113 -0.3456 -0.3998
 7929SOL    HW135423   2.383   0.099  15.130 -0.6579 -0.7318 -1.1757
 7929SOL    HW235424   2.337   0.185  15.018 -0.6304 -2.4184  0.1829
 7930SOL     OW35425   3.318   1.522   1.538 -0.2952 -0.4093 -0.0148
 7930SOL    HW135426   3.350   1.552   1.453 -0.1654  0.3458  0.2924
 7930SOL    HW235427   3.237   1.476   1.521 -0.0421 -1.1641  0.8373
 7931SOL     OW35428   3.438   2.398   5.460  0.3322  0.1029 -0.1200
 7931SOL    HW135429   3.389   2.397   5.542 -0.2177 -0.8251 -0.4646
 7931SOL    HW235430   3.373   2.427   5.397 -0.7869 -0.4854  0.7748
 7932SOL     OW35431   2.925   0.604   0.523 -0.1843 -0.3294 -0.6586
 7932SOL    HW135432   3.016   0.613   0.550 -0.3511 -0.6121  0.0068
 7932SOL    HW235433   2.881   0.678   0.565  0.9068 -0.1220  0.1147
 7933SOL     OW35434   3.380   4.426   7.298  0.5824  0.3541  0.4261
 7933SOL    HW135435   3.346   4.429   7.387  1.1783  0.1208  0.6592
 7933SOL    HW235436   3.379   4.521   7.284 -1.6473  0.1565 -0.7570
 7934SOL     OW35437   2.809   2.315  10.728 -0.3553  0.0386  0.2876
 7934SOL    HW135438   2.775   2.300  10.816 -1.7925  0.3610 -0.2102
 7934SOL    HW235439   2.729   2.348  10.687 -0.9491 -1.5213  0.2137
 7935SOL     OW35440   2.034   1.779   2.188 -0.5645 -0.4445 -0.3409
 7935SOL    HW135441   2.029   1.855   2.131  1.6462  0.0075  0.0683
 7935SOL    HW235442   1.984   1.716   2.136 -0.0537 -2.0583  1.0843
 7936SOL     OW35443   0.622   2.025   7.193 -0.0671  0.0403  0.4551
 7936SOL    HW135444   0.675   2.104   7.189  2.5699 -1.7380 -0.3007
 7936SOL    HW235445   0.601   2.005   7.102  0.0895  0.4056  0.3389
 7937SOL     OW35446   0.280   4.249   3.382 -0.3333  0.1287  0.1429
 7937SOL    HW135447   0.342   4.199   3.329 -0.0414 -2.1933  2.6831
 7937SOL    HW235448   0.279   4.185   3.454  1.7994 -0.6833 -0.5510
 7938SOL     OW35449   4.416   2.771   4.819 -0.4332  0.0470 -0.2753
 7938SOL    HW135450   4.447   2.683   4.839 -2.0781 -0.3878  0.4002
 7938SOL    HW235451   4.323   2.754   4.835 -0.6749  0.4054 -1.2760
 7939SOL     OW35452   2.646   0.215   3.185 -0.1850  0.4748  0.1409
 7939SOL    HW135453   2.725   0.246   3.228 -0.1787 -1.3113  1.3860
 7939SOL    HW235454   2.640   0.138   3.240 -1.7547  0.0861 -0.5721
 7940SOL     OW35455   1.830   4.683   7.964  0.0288  0.1519 -0.1995
 7940SOL    HW135456   1.754   4.628   7.946  0.5773 -1.2601  1.7028
 7940SOL    HW235457   1.799   0.021   7.915 -1.1928 -0.8008 -0.8886
 7941SOL     OW35458   2.824   1.612  12.926 -0.2070  0.2988 -0.2394
 7941SOL    HW135459   2.782   1.657  12.999 -0.5625  0.3377 -0.4656
 7941SOL    HW235460   2.842   1.526  12.964  2.1299  0.6608 -0.4976
 7942SOL     OW35461   3.476   0.050   4.026  0.0898  0.0316  0.9303
 7942SOL    HW135462   3.531   0.091   4.092  0.0137 -1.5851  1.9938
 7942SOL    HW235463   3.511   0.077   3.941 -0.7051  1.0174  0.9217
 7943SOL     OW35464   3.916   1.311   7.848 -0.2266 -0.1720  0.5505
 7943SOL    HW135465   3.829   1.305   7.887 -0.5012  1.8436  0.2715
 7943SOL    HW235466   3.955   1.381   7.901  0.9824 -1.0930  0.8854
 7944SOL     OW35467   3.347   2.910   0.481  0.2481  0.0035  0.7403
 7944SOL    HW135468   3.319   3.001   0.469 -1.0739 -0.2454  1.9741
 7944SOL    HW235469   3.392   2.900   0.397 -0.1839 -1.2216  0.6518
 7945SOL     OW35470   2.209   1.625   5.616 -0.1969 -0.0366  0.2657
 7945SOL    HW135471   2.169   1.622   5.529 -2.2396 -2.9600  1.2705
 7945SOL    HW235472   2.258   1.543   5.616  1.3419  0.9055 -0.8778
 7946SOL     OW35473   1.014   0.073   2.926  0.2186  0.6233 -0.2597
 7946SOL    HW135474   1.109   0.080   2.928  0.2101  0.9006 -0.7856
 7946SOL    HW235475   1.005   4.717   2.946  0.9946  0.1657 -2.0374
 7947SOL     OW35476   2.365   1.978   7.279  0.1741  0.3456  0.9264
 7947SOL    HW135477   2.353   1.982   7.374  1.2562  3.2700  0.9449
 7947SOL    HW235478   2.381   1.885   7.265 -0.6890  0.7180 -2.6126
 7948SOL     OW35479   2.740   3.282   4.022 -0.0934 -0.4683 -0.5856
 7948SOL    HW135480   2.717   3.230   4.098  0.6587  0.2558  0.1375
 7948SOL    HW235481   2.814   3.225   3.998  1.5139  0.8576  1.2377
 7949SOL     OW35482   1.959   2.722   2.417  0.0576  0.0467 -0.4380
 7949SOL    HW135483   1.990   2.631   2.415 -1.8398 -0.6290  0.9839
 7949SOL    HW235484   1.927   2.731   2.507 -0.5510  0.2068 -0.6732
 7950SOL     OW35485   0.615   1.570   6.290 -0.5202 -0.2737  0.1325
 7950SOL    HW135486   0.595   1.645   6.235  2.0073  2.2947  2.7262
 7950SOL    HW235487   0.533   1.520   6.286 -1.2957  0.8167  2.5128
 7951SOL     OW35488   1.301   4.124  10.519  0.7288  0.0813  1.0106
 7951SOL    HW135489   1.335   4.165  10.598  0.3552  1.0598  0.6659
 7951SOL    HW235490   1.346   4.040  10.521 -0.3076 -0.4322  2.2913
 7952SOL     OW35491   2.897   3.098   6.859 -0.3642  0.7494 -0.4190
 7952SOL    HW135492   2.843   3.020   6.876  1.2035 -0.4083 -0.7095
 7952SOL    HW235493   2.872   3.127   6.771  1.0886 -0.6972 -1.3243
 7953SOL     OW35494   4.294   0.850  17.029  0.4682  0.3787  0.0201
 7953SOL    HW135495   4.300   0.779  16.966 -1.6778  0.7951 -0.6578
 7953SOL    HW235496   4.292   0.806  17.114 -0.5108  1.0426  0.3392
 7954SOL     OW35497   0.199   1.188  13.101  0.0545 -0.0470 -0.6460
 7954SOL    HW135498   0.121   1.133  13.112  1.0101 -1.5305 -1.2949
 7954SOL    HW235499   0.249   1.127  13.046  0.4346  0.3381 -0.7296
 7955SOL     OW35500   0.658   3.943   7.343  0.1240 -0.0622  0.0042
 7955SOL    HW135501   0.626   4.006   7.279  0.2434 -1.1047 -1.0952
 7955SOL    HW235502   0.583   3.914   7.394 -1.8151  1.3531 -2.0625
 7956SOL     OW35503   4.103   1.430   8.742  0.3116 -0.2657  0.1993
 7956SOL    HW135504   4.144   1.398   8.823 -0.6993 -0.6887  0.5425
 7956SOL    HW235505   4.040   1.358   8.739  2.5519 -2.2213 -0.1471
 7957SOL     OW35506   1.298   4.477   5.985  0.3455  0.0188 -0.2752
 7957SOL    HW135507   1.348   4.418   6.041 -3.3512  1.0276  4.0359
 7957SOL    HW235508   1.335   4.561   6.015 -0.2429 -0.2164  1.1242
 7958SOL     OW35509   3.080   0.499   5.894 -0.3328 -0.1608  0.3615
 7958SOL    HW135510   3.160   0.447   5.890 -0.3711 -0.1409 -0.7238
 7958SOL    HW235511   3.118   0.579   5.929  0.8178 -1.4798  2.1119
 7959SOL     OW35512   1.832   2.376   3.128  0.1428 -0.4781  0.6346
 7959SOL    HW135513   1.830   2.422   3.211 -1.3283  1.0192 -0.2303
 7959SOL    HW235514   1.807   2.290   3.161 -2.5448 -0.6491 -1.8776
 7960SOL     OW35515   2.782   0.443   4.153  0.4398  0.0023  0.1918
 7960SOL    HW135516   2.833   0.521   4.177  1.7874  0.4065 -3.9501
 7960SOL    HW235517   2.693   0.479   4.157  1.1383  1.6182  1.1960
 7961SOL     OW35518   1.558   4.423   8.182 -0.2854 -0.0930 -0.1562
 7961SOL    HW135519   1.464   4.407   8.188  0.0303 -2.1670 -0.8587
 7961SOL    HW235520   1.598   4.340   8.206  0.9016 -0.1089 -2.2014
 7962SOL     OW35521   4.725   0.215   7.934  0.5037 -0.1565 -0.0585
 7962SOL    HW135522   4.710   0.151   8.003  0.6907  2.6908  2.6239
 7962SOL    HW235523   4.660   0.283   7.950 -0.2459 -0.4605 -1.7881
 7963SOL     OW35524   1.237   0.891   2.272 -0.1878  0.3302 -0.8064
 7963SOL    HW135525   1.173   0.941   2.222 -1.9988 -0.9684  0.2271
 7963SOL    HW235526   1.301   0.960   2.290  0.1251  0.1135 -1.0914
 7964SOL     OW35527   4.088   3.083   0.815 -0.0332  0.1005 -0.1813
 7964SOL    HW135528   4.052   3.041   0.893 -0.0466 -0.1382 -0.3151
 7964SOL    HW235529   4.119   3.009   0.763  1.3597  2.1406 -2.2830
 7965SOL     OW35530   4.465   4.371   7.076 -0.4517 -0.4282 -0.0365
 7965SOL    HW135531   4.401   4.344   7.011 -0.3554 -0.0767 -0.2802
 7965SOL    HW235532   4.550   4.357   7.034 -1.1086  1.3871 -1.9807
 7966SOL     OW35533   2.502   0.791   7.311  0.0449 -0.6312  0.2296
 7966SOL    HW135534   2.467   0.842   7.238  2.4211  0.3017 -0.2722
 7966SOL    HW235535   2.429   0.743   7.350 -0.6793 -0.0403 -0.4049
 7967SOL     OW35536   4.041   3.169  10.060  0.1192 -0.2082  0.0052
 7967SOL    HW135537   4.113   3.201  10.115 -0.1164  0.0433  0.1715
 7967SOL    HW235538   4.034   3.080  10.096  0.4397  0.1113  0.8693
 7968SOL     OW35539   2.189   3.707   7.668  0.5305 -0.1573  0.1065
 7968SOL    HW135540   2.282   3.687   7.651  0.1008 -1.8735 -0.2277
 7968SOL    HW235541   2.163   3.759   7.592 -1.6182 -0.5263  0.6022
 7969SOL     OW35542   3.250   2.605   2.413  0.0349 -0.1339  0.0665
 7969SOL    HW135543   3.319   2.660   2.450  0.7936 -1.6017  0.8316
 7969SOL    HW235544   3.295   2.528   2.379  1.3433  0.7409 -0.1551
 7970SOL     OW35545   4.436   1.804  15.713 -0.4195 -0.2129 -0.0778
 7970SOL    HW135546   4.350   1.843  15.731  0.9030  3.2202 -1.2393
 7970SOL    HW235547   4.406   1.731  15.660  0.0292 -0.0590 -0.5447
 7971SOL     OW35548   1.362   3.440   7.387 -0.5649 -0.1195 -0.1733
 7971SOL    HW135549   1.356   3.503   7.315 -0.9887 -0.2241 -0.2305
 7971SOL    HW235550   1.411   3.363   7.357  1.6427  1.2212 -0.0527
 7972SOL     OW35551   2.414   3.003   8.765 -0.1268 -0.3763  0.5071
 7972SOL    HW135552   2.450   3.078   8.812  1.3619 -0.4221 -0.5280
 7972SOL    HW235553   2.429   3.043   8.679  1.9455  0.5941  1.3110
 7973SOL     OW35554   4.101   3.112   6.421 -0.0124  0.6222 -0.0736
 7973SOL    HW135555   4.079   3.043   6.484  0.2600 -0.0629 -0.7346
 7973SOL    HW235556   4.134   3.175   6.485 -0.5194  1.6809 -0.8680
 7974SOL     OW35557   4.430   3.779   3.720 -0.2116  0.0819  0.3891
 7974SOL    HW135558   4.461   3.712   3.658  2.8003 -0.7209  2.7538
 7974SOL    HW235559   4.335   3.768   3.716  0.0691 -1.9680 -0.8430
 7975SOL     OW35560   1.538   3.355   7.780  0.5242  0.6567 -0.7811
 7975SOL    HW135561   1.444   3.338   7.772  1.0604 -2.1505 -1.1896
 7975SOL    HW235562   1.548   3.349   7.875  1.1861  0.1394 -0.8814
 7976SOL     OW35563   1.465   1.530   3.016  0.1802  0.2130 -0.1935
 7976SOL    HW135564   1.450   1.487   2.932 -0.9622  1.6898 -0.7436
 7976SOL    HW235565   1.481   1.622   2.994 -3.1480  0.2758 -2.3457
 7977SOL     OW35566   3.170   2.248   7.910  0.2682  0.2546  0.0601
 7977SOL    HW135567   3.205   2.337   7.922 -0.1659  0.0932  2.3499
 7977SOL    HW235568   3.192   2.197   7.987  0.3537  2.2807  1.3865
 7978SOL     OW35569   4.052   0.410   2.734  0.3874  0.5716  0.0226
 7978SOL    HW135570   4.086   0.472   2.798 -0.4934 -0.3096  1.3466
 7978SOL    HW235571   4.094   0.433   2.651 -1.7825  1.9215 -0.7065
 7979SOL     OW35572   2.964   0.646   7.718  0.8714 -0.2752  0.0537
 7979SOL    HW135573   2.936   0.574   7.774  1.9341 -0.2391  0.6419
 7979SOL    HW235574   2.989   0.602   7.636  1.2744 -0.6716  0.3911
 7980SOL     OW35575   0.239   1.371   9.286 -0.1709  0.1473 -0.6100
 7980SOL    HW135576   0.272   1.290   9.325 -0.6942 -0.2644 -1.0104
 7980SOL    HW235577   0.300   1.439   9.313 -0.9164 -0.5108  2.7363
 7981SOL     OW35578   4.663   3.380   8.648 -0.0530  0.5574 -0.3993
 7981SOL    HW135579   4.606   3.382   8.571  0.7643 -1.2294 -1.0360
 7981SOL    HW235580   4.705   3.296   8.633  0.6510  0.8918 -0.2817
 7982SOL     OW35581   1.347   3.990   2.095  0.4077  0.0440  0.3074
 7982SOL    HW135582   1.393   4.028   2.021 -1.6541  0.2956 -0.8303
 7982SOL    HW235583   1.416   3.942   2.141 -0.7609 -2.4100 -0.4850
 7983SOL     OW35584   0.263   0.539   3.030 -0.2851 -0.4081  0.3230
 7983SOL    HW135585   0.248   0.628   3.064  0.9722  0.5702 -1.6850
 7983SOL    HW235586   0.320   0.500   3.097 -1.0976 -0.8314  0.7618
 7984SOL     OW35587   1.989   2.133   8.190 -0.4357  0.7253  0.1407
 7984SOL    HW135588   2.024   2.216   8.223  0.2246  0.0830  1.0618
 7984SOL    HW235589   1.914   2.121   8.248 -2.3110 -0.0902 -2.4558
 7985SOL     OW35590   0.709   2.221   2.722  0.3751 -0.4928  0.3476
 7985SOL    HW135591   0.699   2.167   2.644  2.3745 -1.7084  0.9520
 7985SOL    HW235592   0.754   2.300   2.691 -0.4518  0.3136  1.1969
 7986SOL     OW35593   2.454   2.678   6.148  0.1247  0.0064 -0.5027
 7986SOL    HW135594   2.363   2.707   6.151 -0.4283 -1.9793  2.0935
 7986SOL    HW235595   2.499   2.760   6.166 -0.0175  0.2795 -1.4030
 7987SOL     OW35596   4.038   2.564  17.242 -0.2460  0.5349 -0.1259
 7987SOL    HW135597   4.131   2.553  17.219  0.3987  1.2495  2.1191
 7987SOL    HW235598   4.046   2.632  17.309  1.2254  0.4968 -0.2579
 7988SOL     OW35599   0.960   0.375  15.023 -0.8824 -0.5084  0.3028
 7988SOL    HW135600   0.975   0.282  15.040 -0.2136 -0.2492  1.1338
 7988SOL    HW235601   0.971   0.416  15.109  1.4988 -0.4317 -0.0396
 7989SOL     OW35602   2.384   3.770   2.803 -0.2252 -0.2523  0.0885
 7989SOL    HW135603   2.328   3.739   2.732 -1.1521  1.1476  0.2136
 7989SOL    HW235604   2.451   3.819   2.755  1.4686 -0.6333  2.0805
 7990SOL     OW35605   2.480   2.113   8.708  0.6663  0.0652 -0.2390
 7990SOL    HW135606   2.403   2.165   8.686  2.0599  2.1139 -0.2428
 7990SOL    HW235607   2.540   2.172   8.664  2.0426 -1.7097 -0.7376
 7991SOL     OW35608   4.554   3.134   8.933  0.0271 -0.0391 -0.3017
 7991SOL    HW135609   4.500   3.093   8.866  1.1105  0.4051 -1.4478
 7991SOL    HW235610   4.622   3.066   8.938 -0.0655  0.0861  2.5327
 7992SOL     OW35611   2.891   1.256   4.435  0.2857 -0.2383  0.0481
 7992SOL    HW135612   2.860   1.239   4.524 -1.2942 -1.7940 -0.7865
 7992SOL    HW235613   2.814   1.298   4.398  0.2752 -1.6911 -1.5753
 7993SOL     OW35614   4.619   3.571   5.909  0.2981  0.1407  0.1814
 7993SOL    HW135615   4.689   3.617   5.865  0.7053 -0.5994  0.0479
 7993SOL    HW235616   4.608   3.506   5.839 -0.8686 -0.1304  0.6102
 7994SOL     OW35617   1.871   3.910   2.960  0.4101 -0.0600 -0.8155
 7994SOL    HW135618   1.956   3.952   2.970  1.4754 -2.2735 -0.8004
 7994SOL    HW235619   1.893   3.832   2.910  0.5309 -1.0378  0.7642
 7995SOL     OW35620   3.772   1.851   8.696  0.0347  0.2803 -0.3257
 7995SOL    HW135621   3.794   1.769   8.739  0.3951  0.1678 -0.7290
 7995SOL    HW235622   3.841   1.853   8.630  1.0796  2.4029  0.8085
 7996SOL     OW35623   0.885   3.187   2.355 -0.0924  0.3560  0.4852
 7996SOL    HW135624   0.823   3.160   2.422  0.6100 -2.7971 -0.1067
 7996SOL    HW235625   0.921   3.109   2.313 -0.2578  1.7801 -2.3029
 7997SOL     OW35626   2.591   4.406  15.577 -0.0837  0.4962 -0.0585
 7997SOL    HW135627   2.624   4.490  15.607 -0.9550  0.3576  1.2913
 7997SOL    HW235628   2.614   4.419  15.485 -3.1391 -0.0182 -0.8959
 7998SOL     OW35629   1.964   1.668   7.408  0.4149  0.2596 -0.2932
 7998SOL    HW135630   1.961   1.755   7.368 -1.3799 -0.6591 -2.1590
 7998SOL    HW235631   1.942   1.678   7.501 -1.7422 -0.9537 -0.6888
 7999SOL     OW35632   3.007   3.659   3.777  0.5677  0.1522 -0.5066
 7999SOL    HW135633   2.999   3.564   3.772 -0.2945  0.0314  3.2064
 7999SOL    HW235634   2.915   3.688   3.782  1.0421  1.5379  0.2112
 8000SOL     OW35635   1.056   0.248   9.242 -0.0161 -0.1174  0.5343
 8000SOL    HW135636   1.061   0.207   9.155  1.9096  1.6561 -0.1793
 8000SOL    HW235637   1.150   0.237   9.257 -0.0538  0.0199  0.8589
 8001SOL     OW35638   1.684   0.789   9.550  0.2941  0.0616  0.0417
 8001SOL    HW135639   1.778   0.785   9.569 -0.0842 -2.0704  1.4954
 8001SOL    HW235640   1.645   0.742   9.624 -1.2431 -1.7839 -1.9162
 8002SOL     OW35641   2.706   3.790   0.465  0.4898  0.3407  0.2147
 8002SOL    HW135642   2.760   3.716   0.493 -1.6798 -1.7162 -1.0466
 8002SOL    HW235643   2.675   3.840   0.541 -1.0055 -0.1156 -0.1039
 8003SOL     OW35644   1.003   0.090   2.641 -0.0024  0.2484 -0.1485
 8003SOL    HW135645   1.085   0.047   2.616  0.2952  1.2683 -0.9183
 8003SOL    HW235646   0.993   0.081   2.736 -0.3889  2.9879  0.0704
 8004SOL     OW35647   0.598   2.117  17.257  0.2853  0.3137  0.0262
 8004SOL    HW135648   0.602   2.212  17.262  1.4094  0.2043  1.1568
 8004SOL    HW235649   0.674   2.093  17.310  0.1460  0.3390  0.2339
 8005SOL     OW35650   3.052   4.085  11.358  0.0598 -0.2805 -0.0502
 8005SOL    HW135651   3.059   3.991  11.375  1.5631  0.3681  2.8181
 8005SOL    HW235652   3.022   4.090  11.267  0.0203  0.7333  0.0133
 8006SOL     OW35653   2.954   4.000   2.195 -0.3641  0.2965 -0.4724
 8006SOL    HW135654   2.879   4.054   2.219 -0.8544 -0.8372  0.5944
 8006SOL    HW235655   2.918   3.937   2.132 -0.5983  1.5205 -1.5528
 8007SOL     OW35656   1.475   2.311   7.412 -0.0867  0.1609 -0.3660
 8007SOL    HW135657   1.522   2.233   7.384 -1.7188 -0.6482 -0.8507
 8007SOL    HW235658   1.387   2.279   7.392 -0.5507  2.4251 -2.0539
 8008SOL     OW35659   1.194   3.444   5.645  0.3550  0.0173 -0.2033
 8008SOL    HW135660   1.256   3.416   5.712 -0.5801 -0.0959  0.6198
 8008SOL    HW235661   1.230   3.525   5.610  0.3960  0.5877  1.1706
 8009SOL     OW35662   2.783   2.574   4.315  0.6639  0.0172  0.8711
 8009SOL    HW135663   2.742   2.487   4.314 -1.0017  0.8232 -0.1772
 8009SOL    HW235664   2.845   2.557   4.244  0.7913  1.1280  0.7175
 8010SOL     OW35665   2.294   0.623   5.448  0.9655  0.0601  0.3389
 8010SOL    HW135666   2.340   0.646   5.529  0.4649 -1.1578  0.9693
 8010SOL    HW235667   2.227   0.568   5.490  0.3357 -0.7256 -1.6705
 8011SOL     OW35668   0.512   1.879   0.481  0.2683  0.2912 -0.6406
 8011SOL    HW135669   0.469   1.963   0.498 -1.0787 -0.8367  1.4599
 8011SOL    HW235670   0.449   1.854   0.413 -0.4085 -0.9647  0.4466
 8012SOL     OW35671   0.048   3.358   2.636  0.4446  0.0348  0.4599
 8012SOL    HW135672   0.115   3.424   2.653  2.3766 -2.2761  1.6625
 8012SOL    HW235673   4.710   3.417   2.630  0.5911  0.2917  1.1234
 8013SOL     OW35674   3.254   3.914  14.733 -0.2396  0.0345 -0.1115
 8013SOL    HW135675   3.192   3.859  14.779  2.4491  0.2055  3.6801
 8013SOL    HW235676   3.195   3.946  14.664  0.2278 -1.1428 -1.0460
 8014SOL     OW35677   0.416   2.084   1.390  0.0953  0.2756  0.3904
 8014SOL    HW135678   0.506   2.112   1.403  0.2786 -0.0085 -0.2903
 8014SOL    HW235679   0.381   2.173   1.385  0.4055  0.4883  1.9824
 8015SOL     OW35680   4.215   0.668   5.026 -0.4767 -0.3193  0.1773
 8015SOL    HW135681   4.310   0.653   5.019 -0.3061  1.0180 -0.3527
 8015SOL    HW235682   4.214   0.708   5.113 -0.1571 -0.6098  0.3174
 8016SOL     OW35683   0.235   2.354   7.869 -0.4172  0.0373  0.7462
 8016SOL    HW135684   0.269   2.383   7.784  0.7845  1.8951  1.8636
 8016SOL    HW235685   0.163   2.413   7.890 -0.0538  0.9376 -0.5579
 8017SOL     OW35686   2.740   2.521  11.227  1.1047  0.5617  0.0572
 8017SOL    HW135687   2.772   2.464  11.297 -0.2848 -0.8780 -0.4745
 8017SOL    HW235688   2.654   2.542  11.262 -0.2506  0.0885 -2.9450
 8018SOL     OW35689   4.081   1.558   1.601  0.5617  0.0721 -0.4977
 8018SOL    HW135690   4.121   1.566   1.688  0.2846 -1.4016 -0.2345
 8018SOL    HW235691   4.007   1.616   1.621 -0.5920 -2.5452  2.8928
 8019SOL     OW35692   0.442   4.389  12.984  0.2182  0.1850  0.0527
 8019SOL    HW135693   0.505   4.379  13.055 -1.0927  0.9143  1.3261
 8019SOL    HW235694   0.441   4.485  12.983  2.2682  0.2157  0.1634
 8020SOL     OW35695   4.099   2.705   3.030  0.2358 -0.5774 -0.1016
 8020SOL    HW135696   4.145   2.741   2.954 -0.2144 -0.9381 -0.5462
 8020SOL    HW235697   4.153   2.743   3.099 -0.1291 -0.2393 -0.0065
 8021SOL     OW35698   1.226   2.561   0.122 -0.1279  0.5589  0.3528
 8021SOL    HW135699   1.236   2.507   0.044 -0.7019 -0.7579  1.1838
 8021SOL    HW235700   1.187   2.493   0.178  1.1033  0.3638  0.9685
 8022SOL     OW35701   2.577   4.679   0.744 -0.5296 -0.6344 -0.5081
 8022SOL    HW135702   2.519   4.643   0.678  0.4978 -1.7208 -0.8192
 8022SOL    HW235703   2.659   4.697   0.698 -1.5377 -1.3425 -2.5487
 8023SOL     OW35704   3.192   2.759   8.225 -0.4560  0.0797 -0.1153
 8023SOL    HW135705   3.264   2.787   8.169  0.8295 -1.7517  0.6308
 8023SOL    HW235706   3.112   2.798   8.188 -0.3745 -1.4879 -1.8994
 8024SOL     OW35707   3.594   3.711   9.352  0.4453 -0.6849  0.4650
 8024SOL    HW135708   3.620   3.620   9.358 -0.1618 -0.7956  1.3464
 8024SOL    HW235709   3.533   3.720   9.425 -0.1298 -0.4028 -0.0461
 8025SOL     OW35710   0.215   3.877   4.444  0.3752 -0.4466  0.3280
 8025SOL    HW135711   0.163   3.846   4.518 -0.2034  0.1472  0.1679
 8025SOL    HW235712   0.200   3.809   4.379 -1.3269 -0.7546  1.0311
 8026SOL     OW35713   0.349   4.454   5.215  0.0185 -0.3188  0.2422
 8026SOL    HW135714   0.372   4.485   5.128 -0.7933  1.9301  0.8343
 8026SOL    HW235715   0.419   4.389   5.217  1.3595  1.1244 -0.3251
 8027SOL     OW35716   2.273   3.867   3.054  0.3292 -0.0934 -0.5047
 8027SOL    HW135717   2.343   3.864   2.988 -0.2541  0.2679 -1.1449
 8027SOL    HW235718   2.289   3.790   3.109 -0.5786 -0.5166 -0.8288
 8028SOL     OW35719   4.628   0.800   7.151  0.5277 -0.5385 -0.7363
 8028SOL    HW135720   4.581   0.812   7.069  0.3090 -2.5221 -0.8974
 8028SOL    HW235721   4.577   0.736   7.201 -0.4427 -0.8649 -2.1598
 8029SOL     OW35722   2.204   0.154   1.428 -0.1683 -0.1877 -0.3511
 8029SOL    HW135723   2.128   0.145   1.370 -1.7275 -1.2128  1.8682
 8029SOL    HW235724   2.165   0.118   1.508 -0.5917  1.9337  0.3703
 8030SOL     OW35725   1.207   3.649   1.878  0.1557  0.1105  0.0661
 8030SOL    HW135726   1.123   3.687   1.901  1.4467  1.5116  2.5032
 8030SOL    HW235727   1.194   3.554   1.876  0.1924  0.1008  0.3309
 8031SOL     OW35728   0.565   2.898  12.656 -0.3996 -0.2285 -0.4457
 8031SOL    HW135729   0.494   2.833  12.656 -0.2476 -0.4090  1.4124
 8031SOL    HW235730   0.518   2.959  12.599 -0.5054 -0.2435 -0.3753
 8032SOL     OW35731   1.083   0.608   5.630 -0.2393  0.2426  0.1713
 8032SOL    HW135732   1.044   0.624   5.544  0.2450 -0.0207 -0.0967
 8032SOL    HW235733   1.065   0.514   5.624 -2.6193  0.7841 -1.2783
 8033SOL     OW35734   3.299   2.730   1.591  0.6284 -0.2506  0.0799
 8033SOL    HW135735   3.386   2.704   1.561  0.1168 -2.7125  0.7533
 8033SOL    HW235736   3.320   2.783   1.668 -1.2906  3.0279 -1.6903
 8034SOL     OW35737   0.644   0.539   4.309 -0.0891 -0.4022  0.1972
 8034SOL    HW135738   0.567   0.591   4.285 -1.8543 -2.4485  1.4125
 8034SOL    HW235739   0.639   0.479   4.234 -0.2475  1.0362 -0.9431
 8035SOL     OW35740   0.412   2.023  14.166 -0.0891  0.7333  0.3392
 8035SOL    HW135741   0.403   2.047  14.074  1.9555  0.6780  0.1113
 8035SOL    HW235742   0.416   2.109  14.208  0.3369  1.0651 -0.3782
 8036SOL     OW35743   1.152   2.121   6.941  0.1184 -0.6563  0.5312
 8036SOL    HW135744   1.147   2.025   6.931 -0.3649 -0.4270 -1.4824
 8036SOL    HW235745   1.057   2.133   6.944  0.1179 -0.7107  0.7060
 8037SOL     OW35746   3.719   2.435   2.221 -0.0679 -0.0784 -0.2184
 8037SOL    HW135747   3.802   2.481   2.228  0.6796 -1.4632  0.0508
 8037SOL    HW235748   3.669   2.499   2.171  0.8439  0.1790 -0.8124
 8038SOL     OW35749   1.510   2.784   5.564  0.0921 -0.0210  0.3148
 8038SOL    HW135750   1.423   2.820   5.544 -0.1896 -1.2253 -0.6102
 8038SOL    HW235751   1.546   2.856   5.616 -1.7469 -0.0246  1.5909
 8039SOL     OW35752   2.066   1.232   4.930 -0.1377 -0.3073  0.0156
 8039SOL    HW135753   2.073   1.254   5.023  0.4869  0.6265 -0.2614
 8039SOL    HW235754   2.077   1.137   4.931  3.5590  0.1170  0.0160
 8040SOL     OW35755   3.344   2.976   9.947  0.4149 -0.4113 -0.4825
 8040SOL    HW135756   3.404   2.923   9.896 -0.4821 -1.1551 -0.7670
 8040SOL    HW235757   3.263   2.959   9.898 -0.7327  1.4603  0.7508
 8041SOL     OW35758   3.146   0.076   6.759 -0.4575 -0.4906 -0.2781
 8041SOL    HW135759   3.133   0.014   6.831 -1.3494 -0.5740 -0.5029
 8041SOL    HW235760   3.230   0.043   6.729 -0.1721 -1.9697  2.1865
 8042SOL     OW35761   3.841   0.812   0.896 -0.2724 -0.5918  0.3755
 8042SOL    HW135762   3.869   0.883   0.837 -1.5329 -0.8757 -0.5639
 8042SOL    HW235763   3.915   0.800   0.956  1.2361  2.1215 -0.9180
 8043SOL     OW35764   2.681   4.022  14.238  0.2661 -0.4755 -0.3463
 8043SOL    HW135765   2.732   4.031  14.319 -2.1454 -0.1621  1.1482
 8043SOL    HW235766   2.595   4.043  14.273  0.7118  1.6168 -0.4992
 8044SOL     OW35767   4.693   4.009   2.377 -0.1331 -0.1837  0.2433
 8044SOL    HW135768   4.607   4.050   2.370 -0.8952 -1.9871 -0.8046
 8044SOL    HW235769   4.683   3.940   2.442  0.6753 -1.2013 -0.7189
 8045SOL     OW35770   0.351   0.783   8.364 -0.0972 -0.3127  0.1806
 8045SOL    HW135771   0.350   0.876   8.387 -1.7903 -0.4575  0.6793
 8045SOL    HW235772   0.271   0.743   8.398 -1.1010 -0.9240 -2.9251
 8046SOL     OW35773   2.110   2.149   2.981  0.4130 -0.6290  0.3245
 8046SOL    HW135774   2.197   2.129   3.015 -0.6268  0.9041  3.8988
 8046SOL    HW235775   2.067   2.064   2.975 -2.5481  1.0358 -2.2290
 8047SOL     OW35776   4.487   3.378   8.882 -0.0060 -0.5248 -0.0433
 8047SOL    HW135777   4.547   3.391   8.809  0.4774 -0.9420  0.2833
 8047SOL    HW235778   4.512   3.289   8.906  0.3398  0.1639  2.1736
 8048SOL     OW35779   0.895   3.698  11.239  0.2656 -0.2754 -0.6559
 8048SOL    HW135780   0.882   3.661  11.326 -0.6468  0.1820 -0.5997
 8048SOL    HW235781   0.813   3.746  11.230  0.0103 -0.6077 -0.1220
 8049SOL     OW35782   0.044   3.141   1.345 -0.3802 -0.0209  0.6755
 8049SOL    HW135783   0.028   3.092   1.426  0.6272 -2.2984 -0.4982
 8049SOL    HW235784   0.137   3.162   1.354  0.0328  0.0548 -3.6400
 8050SOL     OW35785   0.363   2.520   6.629  0.0389  0.1949  0.4759
 8050SOL    HW135786   0.287   2.551   6.677 -0.1824  0.7688 -0.2482
 8050SOL    HW235787   0.365   2.434   6.671  1.0314 -0.5089 -1.0093
 8051SOL     OW35788   0.607   2.347   6.556 -0.3106 -0.2333 -0.3415
 8051SOL    HW135789   0.635   2.429   6.595 -0.8012 -0.0754 -0.3180
 8051SOL    HW235790   0.552   2.377   6.484 -0.8923 -1.0980 -0.2666
 8052SOL     OW35791   3.613   1.238  12.416  0.2226  1.0390 -0.1503
 8052SOL    HW135792   3.551   1.237  12.343 -1.3638  1.8235  1.1887
 8052SOL    HW235793   3.560   1.201  12.486  0.5235  1.6300  0.3904
 8053SOL     OW35794   0.450   1.053  14.167 -0.0141  0.2824 -0.3481
 8053SOL    HW135795   0.404   1.008  14.237  1.3319  1.2002  1.1202
 8053SOL    HW235796   0.523   1.081  14.222 -0.7516 -0.1566  0.8388
 8054SOL     OW35797   0.651   0.751   5.565 -0.7067 -0.3469  0.6869
 8054SOL    HW135798   0.611   0.743   5.652  0.7670 -1.8819  1.2210
 8054SOL    HW235799   0.670   0.845   5.569 -1.5562 -0.1098 -0.8557
 8055SOL     OW35800   2.060   2.565  12.987 -0.6376 -0.2920  0.1658
 8055SOL    HW135801   2.127   2.546  13.053  1.2896 -2.6060 -2.4968
 8055SOL    HW235802   2.091   2.525  12.906  0.1366  0.1114  0.2611
 8056SOL     OW35803   2.243   1.333   1.549  0.4351 -0.4527 -0.3090
 8056SOL    HW135804   2.252   1.238   1.558 -0.6752 -0.5726 -0.5013
 8056SOL    HW235805   2.302   1.353   1.476  0.5567  1.5728  0.3616
 8057SOL     OW35806   2.934   4.460  12.445  0.2573  0.3254 -0.0491
 8057SOL    HW135807   3.013   4.485  12.492  0.6608  0.4392 -0.8021
 8057SOL    HW235808   2.954   4.366  12.443  0.7281  0.4517 -0.8225
 8058SOL     OW35809   4.113   2.802   9.283  0.1785 -0.3527 -0.1465
 8058SOL    HW135810   4.056   2.797   9.359  1.1048 -0.1302  0.5667
 8058SOL    HW235811   4.187   2.838   9.333  1.1999 -3.2150  0.4300
 8059SOL     OW35812   4.631   1.959   4.170 -0.3147 -0.2420 -0.2778
 8059SOL    HW135813   4.725   1.951   4.154 -0.1774 -1.3465  1.1034
 8059SOL    HW235814   4.600   1.998   4.088 -0.4490  0.5462  0.1519
 8060SOL     OW35815   1.052   0.104   5.609  0.2741 -0.1300  0.1116
 8060SOL    HW135816   1.000   0.024   5.608  1.9839 -1.2430 -0.5325
 8060SOL    HW235817   1.137   0.077   5.574  0.2500 -1.7153  1.2627
 8061SOL     OW35818   4.431   1.945  17.353  0.1779  0.3480  0.4588
 8061SOL    HW135819   4.346   1.915  17.385  0.2394  0.5852  0.8576
 8061SOL    HW235820   4.486   1.888  17.408  1.3037  0.2085 -0.8166
 8062SOL     OW35821   2.957   2.347  13.697  0.1084 -0.2331 -0.6376
 8062SOL    HW135822   3.021   2.413  13.670 -0.9286  1.2036  0.3553
 8062SOL    HW235823   2.880   2.399  13.719  1.2109  0.9821  0.3690
 8063SOL     OW35824   0.976   0.027   8.059  0.3357 -0.2538  0.1253
 8063SOL    HW135825   0.885   0.022   8.086  0.7824 -3.5652  1.0792
 8063SOL    HW235826   0.973   4.726   7.971  0.1377 -1.2722  0.5841
 8064SOL     OW35827   1.553   1.948  13.120 -0.4458  0.2407  0.0899
 8064SOL    HW135828   1.592   1.998  13.049  2.8413 -0.4142  1.4522
 8064SOL    HW235829   1.586   1.997  13.196 -0.1436  1.4503 -0.8302
 8065SOL     OW35830   2.882   1.659   7.273 -0.6214 -0.4631 -0.0467
 8065SOL    HW135831   2.945   1.725   7.244 -0.2118 -0.4175  0.9646
 8065SOL    HW235832   2.921   1.623   7.352 -3.0641  1.9423  2.2239
 8066SOL     OW35833   1.711   2.047  13.373 -0.1399  0.2380  0.5569
 8066SOL    HW135834   1.692   2.104  13.447  2.4092  0.4085  1.0789
 8066SOL    HW235835   1.793   2.009  13.404 -1.1294 -1.7438  0.7528
 8067SOL     OW35836   1.164   3.063   1.661  0.3547 -0.5599  0.1795
 8067SOL    HW135837   1.251   3.078   1.699  0.7554  0.7282 -1.2570
 8067SOL    HW235838   1.184   3.083   1.569 -1.7635  0.4289 -0.0548
 8068SOL     OW35839   4.634   4.059   8.719 -0.3428  0.7252 -0.5286
 8068SOL    HW135840   4.694   3.988   8.695  1.1624  0.4166  4.2226
 8068SOL    HW235841   4.664   4.128   8.659  2.2026  2.3896  2.6706
 8069SOL     OW35842   2.548   0.479   7.770  0.0046  0.8055  0.1566
 8069SOL    HW135843   2.492   0.556   7.765 -0.9998  0.0332 -0.6258
 8069SOL    HW235844   2.526   0.437   7.853  1.7164 -0.5418 -0.0652
 8070SOL     OW35845   4.663   0.296  13.755  0.1976 -0.4688 -0.2351
 8070SOL    HW135846   4.591   0.346  13.717  0.2728 -1.3733 -1.5556
 8070SOL    HW235847   4.681   0.232  13.687  0.8815 -1.7067  1.0966
 8071SOL     OW35848   0.114   1.399   7.878 -0.0805 -0.0154 -0.2381
 8071SOL    HW135849   0.161   1.424   7.798  1.1888  0.1365  0.5616
 8071SOL    HW235850   0.159   1.316   7.894 -0.2691 -0.0502  0.1238
 8072SOL     OW35851   0.016   3.652   4.347 -0.1100 -0.1113 -0.2447
 8072SOL    HW135852   0.066   3.650   4.265 -0.8303  3.3078 -0.7592
 8072SOL    HW235853   4.692   3.579   4.339 -0.6775  0.1512  1.6956
 8073SOL     OW35854   0.993   3.059   4.745 -0.1387  0.4035  0.2093
 8073SOL    HW135855   0.968   3.015   4.664 -1.0638  0.5165  0.4293
 8073SOL    HW235856   1.057   2.999   4.783 -1.2285 -0.7669  0.1913
 8074SOL     OW35857   1.809   2.955  11.409  0.4762 -0.4631  0.1637
 8074SOL    HW135858   1.821   2.960  11.504  0.8814 -2.0368  0.1995
 8074SOL    HW235859   1.714   2.958  11.399  0.3791 -1.5368  0.7856
 8075SOL     OW35860   0.360   0.405  14.122 -0.0976 -0.2507 -0.4262
 8075SOL    HW135861   0.362   0.456  14.202 -2.2341 -1.7926  0.6211
 8075SOL    HW235862   0.406   0.462  14.060  1.5388  0.4119  1.4324
 8076SOL     OW35863   0.724   1.513   8.073 -0.2320 -0.3057  0.0359
 8076SOL    HW135864   0.819   1.523   8.071 -0.4390  1.4693 -1.0744
 8076SOL    HW235865   0.717   1.476   8.161  1.2288  0.3229  0.4135
 8077SOL     OW35866   2.107   4.502   7.382  0.2645 -0.0966 -0.1243
 8077SOL    HW135867   2.063   4.479   7.300 -3.5276  0.1192  1.8323
 8077SOL    HW235868   2.039   4.468   7.440  1.2401 -0.2563  0.9123
 8078SOL     OW35869   0.674   0.205   1.615 -0.1600  0.6048 -0.3151
 8078SOL    HW135870   0.688   0.168   1.702  0.3147  0.1265 -0.5892
 8078SOL    HW235871   0.766   0.210   1.587 -0.8628 -1.2846 -2.9465
 8079SOL     OW35872   3.893   1.046   4.015  0.4936 -0.2493 -0.5614
 8079SOL    HW135873   3.828   1.110   3.984 -0.6517 -0.3412  1.6107
 8079SOL    HW235874   3.953   1.084   4.080 -0.1686  0.1014 -0.1450
 8080SOL     OW35875   3.348   3.113   1.273  0.5320  0.3430  0.3312
 8080SOL    HW135876   3.398   3.113   1.191 -0.4519  0.5845 -0.2755
 8080SOL    HW235877   3.307   3.199   1.273 -0.5511 -0.1747  2.0378
 8081SOL     OW35878   2.557   2.334   9.321  0.6345 -0.6072  0.1931
 8081SOL    HW135879   2.534   2.293   9.237 -0.4034  2.5043 -1.0520
 8081SOL    HW235880   2.483   2.393   9.334 -1.0299 -2.2396 -1.8913
 8082SOL     OW35881   2.233   1.939   7.553  0.0711 -0.0285  0.3663
 8082SOL    HW135882   2.148   1.955   7.594 -0.4158  0.2066 -0.7412
 8082SOL    HW235883   2.288   2.002   7.600 -1.4444  3.1847 -2.1983
 8083SOL     OW35884   2.908   1.451   2.985  0.2107  0.4841 -0.2432
 8083SOL    HW135885   2.950   1.408   3.060 -0.1706  1.3035  0.4515
 8083SOL    HW235886   2.983   1.440   2.927  1.2492  0.8336  1.0282
 8084SOL     OW35887   2.741   2.018   8.852 -0.6357 -0.6076 -0.5648
 8084SOL    HW135888   2.713   2.109   8.868 -1.5201 -1.1010  0.7494
 8084SOL    HW235889   2.659   1.974   8.877  0.1301 -2.3025 -1.0597
 8085SOL     OW35890   4.643   2.201   8.014 -0.6174  0.2604  0.0361
 8085SOL    HW135891   4.577   2.137   8.040 -0.6370 -0.1520 -1.0396
 8085SOL    HW235892   4.720   2.163   8.058  0.0407  1.8398  0.2650
 8086SOL     OW35893   0.880   0.592   8.221 -0.0219  0.0087  0.0239
 8086SOL    HW135894   0.866   0.520   8.160  0.1140 -1.9672  2.3249
 8086SOL    HW235895   0.852   0.665   8.166 -0.0754  2.1148  2.8662
 8087SOL     OW35896   0.217   1.785  15.176  0.4488  0.1122 -0.4261
 8087SOL    HW135897   0.149   1.814  15.237  0.5713 -0.4525 -0.0221
 8087SOL    HW235898   0.284   1.762  15.241  0.6016  0.4852 -0.4503
 8088SOL     OW35899   0.355   3.513   6.767  0.0350 -0.6311  0.3618
 8088SOL    HW135900   0.409   3.435   6.772  0.6841 -0.3026 -1.5011
 8088SOL    HW235901   0.271   3.468   6.765  0.3277 -1.1988  0.9193
 8089SOL     OW35902   4.649   2.375   2.679 -0.7049 -0.6135 -0.4041
 8089SOL    HW135903   4.730   2.425   2.670  0.1477 -1.8001  0.7270
 8089SOL    HW235904   4.585   2.443   2.659  0.0096 -0.0608 -0.8506
 8090SOL     OW35905   1.354   1.696   2.213 -0.6034  0.2301  0.5406
 8090SOL    HW135906   1.322   1.608   2.195 -1.3299  1.3936 -3.9460
 8090SOL    HW235907   1.429   1.681   2.271  0.9292 -2.2057 -2.1056
 8091SOL     OW35908   2.429   1.787   8.184  0.1543  0.5028  0.0794
 8091SOL    HW135909   2.367   1.739   8.239  1.6281  0.4347  1.6906
 8091SOL    HW235910   2.384   1.869   8.168  0.2406  0.5709  0.1870
 8092SOL     OW35911   2.523   0.924   4.567 -0.4963  0.3228  0.2415
 8092SOL    HW135912   2.588   0.921   4.497 -0.9309  0.5920 -0.1747
 8092SOL    HW235913   2.445   0.904   4.516 -1.1010 -0.1906  1.3464
 8093SOL     OW35914   0.023   3.122   4.330 -0.0605  0.1331  0.3541
 8093SOL    HW135915   0.030   3.123   4.234  2.2998 -1.0248  0.5229
 8093SOL    HW235916   4.696   3.053   4.345  0.7231 -0.5214  0.6763
 8094SOL     OW35917   1.585   4.022   5.228  0.1930  0.3217  0.1760
 8094SOL    HW135918   1.614   3.933   5.249 -0.8279 -0.1798 -0.5314
 8094SOL    HW235919   1.507   4.016   5.283  1.9096  1.9403  2.7485
 8095SOL     OW35920   0.412   2.449  12.155  0.0150 -0.2448 -0.2294
 8095SOL    HW135921   0.330   2.464  12.202  1.4382  0.4543  2.0285
 8095SOL    HW235922   0.461   2.388  12.210  1.4257 -0.5694 -1.8424
 8096SOL     OW35923   3.417   4.105   0.144 -0.3783  0.6928 -0.0881
 8096SOL    HW135924   3.443   4.099   0.236 -1.0693  0.4444  0.0928
 8096SOL    HW235925   3.419   4.012   0.124  0.2023  0.3542  1.5299
 8097SOL     OW35926   2.568   1.304  11.597  0.1287 -0.3508  0.2636
 8097SOL    HW135927   2.541   1.374  11.537 -0.6774  0.2177  1.2854
 8097SOL    HW235928   2.640   1.354  11.635  2.2036 -1.9097 -1.6753
 8098SOL     OW35929   3.029   0.266   5.543  0.3806  0.5142 -0.0167
 8098SOL    HW135930   3.110   0.293   5.499  1.5805 -0.6602  1.4854
 8098SOL    HW235931   3.070   0.194   5.591  0.6855  0.1149 -0.8914
 8099SOL     OW35932   1.755   0.531  11.892  1.4361 -0.6854  0.6835
 8099SOL    HW135933   1.678   0.585  11.906 -0.6622 -3.9886  1.8370
 8099SOL    HW235934   1.784   0.517  11.982 -1.2259  0.2057  1.6682
 8100SOL     OW35935   1.149   4.006   0.303 -0.0245  0.2608 -0.5272
 8100SOL    HW135936   1.075   3.951   0.329  0.9725  0.6082  3.1096
 8100SOL    HW235937   1.125   4.094   0.333  0.1794  0.0714  0.1929
 8101SOL     OW35938   0.243   2.273   9.128 -0.4266  0.5009  0.1593
 8101SOL    HW135939   0.193   2.331   9.185  0.1337  1.8180 -0.6981
 8101SOL    HW235940   0.330   2.312   9.126 -0.3631  0.3463 -0.1403
 8102SOL     OW35941   1.343   0.967   7.876 -0.0594 -0.0355 -0.5142
 8102SOL    HW135942   1.317   0.893   7.930  0.0298 -1.0337 -1.8388
 8102SOL    HW235943   1.338   1.038   7.940 -1.4754 -0.0626 -0.6056
 8103SOL     OW35944   3.523   3.968   8.858  0.0967 -0.2033 -0.3692
 8103SOL    HW135945   3.531   3.892   8.916 -0.0807  0.7507  0.8966
 8103SOL    HW235946   3.602   3.971   8.804 -1.0658 -1.8775 -2.1833
 8104SOL     OW35947   4.556   2.995   6.589  0.5099 -0.0562 -0.2371
 8104SOL    HW135948   4.521   3.034   6.669 -1.4148 -0.2375 -0.9950
 8104SOL    HW235949   4.529   3.072   6.539 -0.8033  0.3600  1.1029
 8105SOL     OW35950   3.383   0.514   7.978  0.0833 -0.1885 -0.4477
 8105SOL    HW135951   3.461   0.490   8.027 -0.7727 -1.3727  0.3622
 8105SOL    HW235952   3.312   0.451   7.994  0.2766 -0.6004 -1.2298
 8106SOL     OW35953   0.902   3.820   8.707  0.4836  0.6727  0.3924
 8106SOL    HW135954   0.971   3.885   8.695  0.7239  0.1406 -1.2164
 8106SOL    HW235955   0.859   3.872   8.774  0.3585  3.9685 -2.2335
 8107SOL     OW35956   4.301   3.371   7.403  0.1649 -0.0302 -0.1450
 8107SOL    HW135957   4.300   3.276   7.411  1.4414 -0.0629 -0.3586
 8107SOL    HW235958   4.292   3.398   7.494 -1.7981  1.2712 -0.7245
 8108SOL     OW35959   3.159   3.365   1.940  0.0008 -0.3942  0.0402
 8108SOL    HW135960   3.081   3.341   1.989 -0.4389  0.3102 -0.3326
 8108SOL    HW235961   3.169   3.452   1.978 -1.0037 -0.0052 -0.6077
 8109SOL     OW35962   4.206   4.465   9.260  0.7267 -0.2106 -0.2479
 8109SOL    HW135963   4.152   4.541   9.282 -1.3709 -1.3716 -1.4262
 8109SOL    HW235964   4.147   4.425   9.196 -1.1901 -0.4297  1.6334
 8110SOL     OW35965   2.923   4.654  10.048  0.2148  0.4854 -0.1551
 8110SOL    HW135966   2.912   0.009  10.025 -0.9266 -0.1567 -2.1456
 8110SOL    HW235967   2.984   4.655  10.122  0.1588 -0.5423 -0.1027
 8111SOL     OW35968   3.272   1.974   7.618  0.2832 -0.6165  0.1277
 8111SOL    HW135969   3.324   1.945   7.693  0.0268 -0.3448  0.4087
 8111SOL    HW235970   3.212   1.900   7.608 -1.2429  0.7140 -0.6196
 8112SOL     OW35971   0.747   2.176   4.229  0.1751  0.3665 -0.5414
 8112SOL    HW135972   0.675   2.162   4.168 -0.2978 -0.8252  0.3013
 8112SOL    HW235973   0.744   2.093   4.277  1.5680  1.5133  1.5504
 8113SOL     OW35974   0.146   2.975   3.085 -0.5349  0.1990  0.7817
 8113SOL    HW135975   0.066   2.972   3.032  0.7568  0.0018 -1.1561
 8113SOL    HW235976   0.180   3.060   3.055 -0.5010  0.1683  0.7327
 8114SOL     OW35977   1.076   3.215  14.566 -0.4525 -0.1904 -0.1693
 8114SOL    HW135978   1.049   3.253  14.649  1.6977 -0.4959  0.6651
 8114SOL    HW235979   1.170   3.228  14.558 -0.4822 -0.0975 -0.3841
 8115SOL     OW35980   1.557   2.238   8.573  0.2087 -0.3373 -0.1869
 8115SOL    HW135981   1.532   2.267   8.485 -2.9288  0.2079  0.8800
 8115SOL    HW235982   1.603   2.316   8.605 -0.4208 -0.1952  0.3633
 8116SOL     OW35983   1.819   4.625   1.949 -0.5522 -0.5298  0.4998
 8116SOL    HW135984   1.871   4.642   1.871  0.3369 -1.8999  0.8009
 8116SOL    HW235985   1.741   4.678   1.932  1.1812  1.4132 -1.2450
 8117SOL     OW35986   3.051   2.202  11.231  0.4105 -0.3128 -0.0080
 8117SOL    HW135987   2.988   2.153  11.283 -0.4381  0.1654 -0.5850
 8117SOL    HW235988   3.086   2.130  11.179  0.5397 -0.5451  0.4064
 8118SOL     OW35989   1.935   3.511   0.854 -0.1409  0.3900 -0.6005
 8118SOL    HW135990   1.975   3.584   0.808  1.6339  0.4384  1.0385
 8118SOL    HW235991   1.855   3.552   0.889  0.2448  0.9185 -0.3426
 8119SOL     OW35992   3.936   0.148   1.892  0.0583 -0.0452  0.4971
 8119SOL    HW135993   3.913   0.058   1.915  3.9376 -1.0536  0.5181
 8119SOL    HW235994   3.954   0.145   1.798  4.1222 -1.5699  1.3023
 8120SOL     OW35995   3.413   2.266   3.220  0.0232  0.3823 -0.2111
 8120SOL    HW135996   3.357   2.204   3.267  0.4581 -0.9357 -1.4308
 8120SOL    HW235997   3.386   2.252   3.129  0.7559 -2.3341 -0.0050
 8121SOL     OW35998   1.363   1.718   3.415  0.6938 -0.0640  0.3138
 8121SOL    HW135999   1.357   1.665   3.335  0.2125  1.9357 -0.9812
 8121SOL    HW236000   1.278   1.760   3.423  1.6690  1.9924 -0.2864
 8122SOL     OW36001   4.453   0.944  14.507  0.0643  0.0824  0.1383
 8122SOL    HW136002   4.380   0.917  14.563 -0.3418  0.0815 -0.3927
 8122SOL    HW236003   4.485   0.862  14.469 -1.3929 -2.2210  3.9249
 8123SOL     OW36004   0.846   3.133   3.605  0.1073  0.4819 -0.6184
 8123SOL    HW136005   0.758   3.113   3.637  0.5593  0.8148  0.8359
 8123SOL    HW236006   0.816   3.148   3.515  1.5667  1.3834 -0.9621
 8124SOL     OW36007   4.570   2.142   7.753 -0.4518 -0.7736  1.2614
 8124SOL    HW136008   4.646   2.087   7.735  1.2332  1.2375  2.1394
 8124SOL    HW236009   4.594   2.181   7.836 -1.0596  2.7762 -0.2140
 8125SOL     OW36010   1.441   3.591  10.512  0.4250  0.1783 -0.7543
 8125SOL    HW136011   1.360   3.558  10.552  0.6312 -3.3436 -3.2577
 8125SOL    HW236012   1.496   3.610  10.588  3.3197 -1.9076 -2.3540
 8126SOL     OW36013   3.650   4.264   4.262 -0.2039 -0.3052  0.0958
 8126SOL    HW136014   3.632   4.339   4.206  0.8034 -1.4296 -1.7447
 8126SOL    HW236015   3.651   4.313   4.344  2.8413 -1.3375  0.6821
 8127SOL     OW36016   3.249   3.989   5.614 -0.1991  0.5241 -0.3920
 8127SOL    HW136017   3.317   3.995   5.681  0.3319  0.3341 -0.9124
 8127SOL    HW236018   3.306   3.953   5.545 -0.2054 -0.8718  0.3398
 8128SOL     OW36019   3.758   2.250   7.567  0.1225  0.3280 -0.0781
 8128SOL    HW136020   3.849   2.281   7.567 -0.6076  2.5130  0.1958
 8128SOL    HW236021   3.761   2.173   7.623  1.9270 -0.4871 -1.2868
 8129SOL     OW36022   4.404   0.228   7.917  0.1869 -0.5908 -0.1321
 8129SOL    HW136023   4.388   0.276   7.836  1.2951  1.0474  0.6164
 8129SOL    HW236024   4.329   0.257   7.969  0.6980 -0.4084  0.4936
 8130SOL     OW36025   4.278   4.467   5.585 -0.0524 -0.4041  0.5275
 8130SOL    HW136026   4.209   4.411   5.548  0.7251 -0.1251 -1.3634
 8130SOL    HW236027   4.279   4.422   5.669  2.7288  1.2947  1.3959
 8131SOL     OW36028   4.285   2.985  12.149  0.2110 -0.3483 -0.2391
 8131SOL    HW136029   4.296   2.900  12.107 -0.2809 -0.3530 -0.3559
 8131SOL    HW236030   4.369   2.994  12.194  0.1641 -0.0307 -0.2180
 8132SOL     OW36031   4.383   2.664   7.643  0.0874 -0.4081 -0.2535
 8132SOL    HW136032   4.437   2.628   7.572 -2.5072  1.0659 -2.9568
 8132SOL    HW236033   4.341   2.582   7.669 -0.9466  0.6775  1.4563
 8133SOL     OW36034   3.790   3.605   2.329 -0.0913  0.3528 -0.5899
 8133SOL    HW136035   3.827   3.613   2.416  1.5201  0.6311 -1.3062
 8133SOL    HW236036   3.803   3.515   2.301  0.7345  0.3586 -0.2041
 8134SOL     OW36037   2.607   4.383   1.438  0.3332  0.2221 -0.1933
 8134SOL    HW136038   2.679   4.373   1.500 -2.0651 -0.3682  2.4588
 8134SOL    HW236039   2.543   4.437   1.484 -0.1548 -0.7749  0.2774
 8135SOL     OW36040   1.328   0.332   7.037 -0.4010  0.2996 -0.1375
 8135SOL    HW136041   1.404   0.320   6.979 -0.8276 -1.4435 -0.3423
 8135SOL    HW236042   1.361   0.300   7.120  2.0975  1.0041 -0.8685
 8136SOL     OW36043   1.055   0.878   7.806 -0.2811  0.2561  0.4740
 8136SOL    HW136044   1.058   0.940   7.879 -3.5821  0.4681  0.4406
 8136SOL    HW236045   1.077   0.939   7.736  1.0553  0.7315  1.2967
 8137SOL     OW36046   3.927   0.403   3.532  0.2502 -0.2047 -0.3123
 8137SOL    HW136047   3.954   0.486   3.494 -0.0724  1.2280  2.5875
 8137SOL    HW236048   3.869   0.367   3.465 -0.1564 -0.1946  0.0323
 8138SOL     OW36049   1.191   3.842   7.760  0.4996  0.0118  0.0323
 8138SOL    HW136050   1.196   3.933   7.790 -1.8885  0.0731  0.3181
 8138SOL    HW236051   1.281   3.812   7.759  0.4706  0.0186 -1.4544
 8139SOL     OW36052   1.645   0.621   7.645 -0.2754  0.1264  0.1916
 8139SOL    HW136053   1.622   0.688   7.710  0.1666  1.0420 -0.5791
 8139SOL    HW236054   1.649   0.664   7.559  0.4574  0.6384  0.4699
 8140SOL     OW36055   1.500   1.415  10.998  0.1382  0.2596  0.4426
 8140SOL    HW136056   1.406   1.400  11.013 -0.1078  0.1130 -1.2702
 8140SOL    HW236057   1.486   1.489  10.939  1.5945  0.1602 -0.0241
 8141SOL     OW36058   0.424   2.664   7.525 -0.0191  0.5553 -0.3384
 8141SOL    HW136059   0.439   2.727   7.596  0.0758 -2.4978  2.3778
 8141SOL    HW236060   0.363   2.715   7.471  0.2481  0.2763 -0.9040
 8142SOL     OW36061   4.648   2.364   4.335 -0.2703 -0.1287  0.3941
 8142SOL    HW136062   4.679   2.275   4.349 -0.7126 -0.7523 -2.5483
 8142SOL    HW236063   4.719   2.412   4.292 -1.6642  1.7385  0.1615
 8143SOL     OW36064   1.821   0.390   2.743 -0.1335 -0.1996  0.6304
 8143SOL    HW136065   1.911   0.416   2.765 -0.2703  2.1740 -1.6540
 8143SOL    HW236066   1.776   0.464   2.783  1.5770  0.3474  1.5416
 8144SOL     OW36067   2.768   0.595   0.828 -0.7914  0.2018 -0.1660
 8144SOL    HW136068   2.784   0.676   0.779  1.0554  1.1646  2.0747
 8144SOL    HW236069   2.709   0.550   0.766  0.1941 -1.7194  0.3005
 8145SOL     OW36070   4.045   3.181   9.409 -0.0842 -0.0148  0.4775
 8145SOL    HW136071   3.972   3.200   9.350  0.1484 -2.9050 -0.7420
 8145SOL    HW236072   4.125   3.214   9.368  1.6171 -1.1100  2.9195
 8146SOL     OW36073   0.187   4.437   5.423 -0.3614 -0.7949  0.0956
 8146SOL    HW136074   0.262   4.422   5.365 -0.4735  1.6409 -0.6570
 8146SOL    HW236075   0.210   4.375   5.493  1.2456  0.5461  0.7550
 8147SOL     OW36076   0.030   4.023   5.894 -0.3450  0.3012  0.0584
 8147SOL    HW136077   0.114   4.012   5.937 -1.7496 -1.5269  2.3062
 8147SOL    HW236078   0.050   4.114   5.872 -0.8833  0.4547  0.1977
 8148SOL     OW36079   3.579   0.066   9.374 -0.5107 -0.5539 -0.1635
 8148SOL    HW136080   3.615   4.715   9.383  3.1187  1.1029  1.2235
 8148SOL    HW236081   3.492   0.054   9.414 -0.3667 -1.1444 -0.0309
 8149SOL     OW36082   3.834   0.786   4.658 -0.1662  0.1054 -0.6294
 8149SOL    HW136083   3.892   0.832   4.719  0.9272 -0.5485 -1.1637
 8149SOL    HW236084   3.796   0.725   4.721 -1.0150  1.2249 -0.0523
 8150SOL     OW36085   2.242   0.926   1.066  0.0167  0.2101 -0.5298
 8150SOL    HW136086   2.157   0.916   1.022 -0.3119  0.4488  0.0515
 8150SOL    HW236087   2.255   0.844   1.113  1.5012  0.5497 -0.3371
 8151SOL     OW36088   2.920   0.664   8.289  0.2455  0.2733 -0.1516
 8151SOL    HW136089   2.842   0.675   8.235  0.8063  1.8090 -0.6423
 8151SOL    HW236090   2.874   0.680   8.371 -1.4315 -0.5659 -0.9355
 8152SOL     OW36091   3.127   4.585   2.316 -0.3329  0.2858 -0.1107
 8152SOL    HW136092   3.083   4.509   2.278 -1.4759  1.9169 -2.0787
 8152SOL    HW236093   3.178   4.553   2.390 -2.4580  0.5224  1.4433
 8153SOL     OW36094   4.347   4.189   9.560 -0.3248  0.6311 -0.5662
 8153SOL    HW136095   4.375   4.248   9.490  1.7235 -0.8984 -1.0488
 8153SOL    HW236096   4.256   4.165   9.541  0.1011 -0.0665 -1.7508
 8154SOL     OW36097   4.524   0.696   4.913  0.6310 -0.8662  0.0502
 8154SOL    HW136098   4.530   0.781   4.871 -1.2160 -0.3269  0.8924
 8154SOL    HW236099   4.458   0.653   4.858 -0.4488 -0.8400  1.3399
 8155SOL     OW36100   1.920   1.308   2.370 -0.1883 -0.1626 -0.3575
 8155SOL    HW136101   1.928   1.213   2.381  1.7667  0.0491  0.1219
 8155SOL    HW236102   1.978   1.333   2.442  0.3395 -1.7400 -0.2441
 8156SOL     OW36103   2.679   3.332   8.078  0.2987  0.3219 -0.2861
 8156SOL    HW136104   2.775   3.336   8.085  0.2209  1.4357  0.0441
 8156SOL    HW236105   2.663   3.238   8.080  2.1661 -0.0081 -0.6954
 8157SOL     OW36106   0.476   2.929   5.878  1.0737  0.2322 -0.7232
 8157SOL    HW136107   0.570   2.944   5.871  1.1195  0.6031  0.5701
 8157SOL    HW236108   0.468   2.927   5.783  1.0903 -2.3900 -0.6630
 8158SOL     OW36109   1.724   4.585  17.076  0.2691 -0.0372  0.9835
 8158SOL    HW136110   1.629   4.573  17.073  0.2592  0.9607 -2.2712
 8158SOL    HW236111   1.759   4.516  17.020 -1.4927 -0.3247  0.2539
 8159SOL     OW36112   2.978   2.882   7.867  0.0513  0.7325 -0.5291
 8159SOL    HW136113   2.896   2.923   7.838 -0.7963 -0.5843  0.0168
 8159SOL    HW236114   2.975   2.896   7.961 -0.3351  2.8487 -0.8648
 8160SOL     OW36115   1.684   1.207   8.115  0.1178 -0.1824 -0.4058
 8160SOL    HW136116   1.704   1.259   8.193 -2.5136  1.6251 -0.9493
 8160SOL    HW236117   1.593   1.226   8.094 -0.2154 -2.1771 -0.7468
 8161SOL     OW36118   3.962   2.189   6.134 -0.1391 -0.0000  0.1395
 8161SOL    HW136119   3.981   2.271   6.087  0.9462 -0.7215 -0.6909
 8161SOL    HW236120   4.020   2.136   6.080  1.4275  3.0705 -1.2259
 8162SOL     OW36121   3.649   3.617   0.601  0.0291 -0.0976 -0.0737
 8162SOL    HW136122   3.712   3.609   0.672  1.6739  0.2598 -1.4922
 8162SOL    HW236123   3.716   3.643   0.538 -1.1089  0.3082 -1.1313
 8163SOL     OW36124   2.715   3.959   1.987 -0.2729 -0.2245 -0.3835
 8163SOL    HW136125   2.634   3.935   1.941  0.4037 -0.1451 -1.6390
 8163SOL    HW236126   2.706   4.054   1.987 -1.3888 -0.3326  0.9386
 8164SOL     OW36127   3.209   1.428   5.213  0.3704 -0.7879 -0.1958
 8164SOL    HW136128   3.154   1.456   5.140 -0.2542  2.6854  1.5894
 8164SOL    HW236129   3.256   1.351   5.182  0.3708 -0.8303 -0.0920
 8165SOL     OW36130   1.051   1.991   5.999 -0.1925  0.0148  0.2342
 8165SOL    HW136131   1.091   1.912   5.964 -0.1182 -0.6631  1.8662
 8165SOL    HW236132   1.122   2.009   6.061  0.5565  0.4370 -0.7556
 8166SOL     OW36133   0.684   0.414   8.480 -0.2314 -0.1678  0.4891
 8166SOL    HW136134   0.636   0.444   8.402  0.6820 -1.7832 -0.6980
 8166SOL    HW236135   0.606   0.403   8.533  0.1227 -1.2435  0.7847
 8167SOL     OW36136   0.339   3.770   6.870  0.3276 -0.1532 -0.4422
 8167SOL    HW136137   0.328   3.690   6.820 -1.4826 -1.0847  1.4261
 8167SOL    HW236138   0.324   3.727   6.954  1.9512  0.2712  0.0758
 8168SOL     OW36139   2.389   2.194   8.032  0.3028 -0.8733  0.0058
 8168SOL    HW136140   2.318   2.252   8.003  0.9186 -0.1445 -0.0211
 8168SOL    HW236141   2.467   2.249   8.033 -1.7075  1.9981  2.5583
 8169SOL     OW36142   3.719   2.427   6.270 -0.3761  0.2314 -0.0515
 8169SOL    HW136143   3.701   2.521   6.259  0.8246  0.4689  0.1019
 8169SOL    HW236144   3.690   2.398   6.183 -1.2968 -0.8546  0.6083
 8170SOL     OW36145   3.969   4.490   5.742  0.3319 -0.8049 -0.0925
 8170SOL    HW136146   4.014   4.568   5.710  3.0546 -1.6837  1.5775
 8170SOL    HW236147   3.936   4.525   5.825 -1.1508 -2.5235  0.0296
 8171SOL     OW36148   2.663   4.181  15.102  0.3439 -0.2468 -0.3129
 8171SOL    HW136149   2.576   4.211  15.130  0.0227 -2.5861  1.2478
 8171SOL    HW236150   2.681   4.256  15.046  0.0027  1.4649  1.8585
 8172SOL     OW36151   0.382   2.467   4.389 -0.3983  0.0456 -0.2101
 8172SOL    HW136152   0.452   2.511   4.341  1.5863 -0.2437  2.3707
 8172SOL    HW236153   0.305   2.485   4.336 -0.7081 -0.5086  0.0439
 8173SOL     OW36154   1.826   3.070   3.023  0.2432 -0.4721  0.1029
 8173SOL    HW136155   1.769   3.045   3.096 -0.1163 -1.8346 -0.6575
 8173SOL    HW236156   1.825   3.166   3.025  2.4505 -0.4249 -1.3801
 8174SOL     OW36157   3.372   4.082  10.041 -0.1984  0.1263 -0.0736
 8174SOL    HW136158   3.449   4.100   9.987 -0.4154  3.3253  0.6523
 8174SOL    HW236159   3.402   4.017  10.104  1.7069  1.7758  0.6962
 8175SOL     OW36160   1.583   2.150  10.580  0.0324 -0.4020 -0.0126
 8175SOL    HW136161   1.667   2.107  10.565 -1.7336 -4.0134  0.3063
 8175SOL    HW236162   1.608   2.221  10.639  0.2598  0.0113 -0.6149
 8176SOL     OW36163   4.211   3.004  17.676  0.3386 -0.3334 -0.0910
 8176SOL    HW136164   4.197   2.948  17.599 -1.4523 -1.9091  1.3731
 8176SOL    HW236165   4.270   2.954  17.732  0.3101  0.4859  0.6674
 8177SOL     OW36166   2.020   0.482   6.805  0.3685  0.6427 -0.4471
 8177SOL    HW136167   1.978   0.512   6.724 -0.1529  0.2534 -0.3186
 8177SOL    HW236168   1.943   0.450   6.852 -0.9735  2.9201 -1.0702
 8178SOL     OW36169   1.826   2.337  16.163  0.8388 -0.3172  0.4035
 8178SOL    HW136170   1.759   2.401  16.139  1.0184  0.6552  2.4452
 8178SOL    HW236171   1.839   2.295  16.078 -0.0801 -0.9080  0.5523
 8179SOL     OW36172   1.788   0.242   5.320 -0.3881 -0.0058 -0.3197
 8179SOL    HW136173   1.838   0.176   5.270 -0.1007 -1.2002  1.5206
 8179SOL    HW236174   1.769   0.311   5.257 -0.7173  0.8043  0.6819
 8180SOL     OW36175   3.233   2.511   3.937 -0.3951 -0.5412 -0.2385
 8180SOL    HW136176   3.214   2.583   3.997 -2.6293 -2.1106  0.9466
 8180SOL    HW236177   3.200   2.438   3.989 -0.1067 -0.5160 -0.0177
 8181SOL     OW36178   1.805   1.377   7.705 -0.1452  0.8505 -0.3710
 8181SOL    HW136179   1.776   1.286   7.707  0.2202  0.7414 -0.0650
 8181SOL    HW236180   1.724   1.422   7.680 -0.2302  0.3787 -0.9401
 8182SOL     OW36181   0.342   0.054   4.355  0.0822 -0.4505 -0.0154
 8182SOL    HW136182   0.389   0.135   4.377  0.8796 -0.6878 -0.8628
 8182SOL    HW236183   0.254   0.085   4.332  0.6514 -0.0263 -1.6399
 8183SOL     OW36184   3.081   2.148   7.118  0.3179  0.4824 -0.0521
 8183SOL    HW136185   3.062   2.206   7.044 -1.2514 -1.0205 -0.8293
 8183SOL    HW236186   3.146   2.199   7.166 -0.5227  0.2522  1.3602
 8184SOL     OW36187   4.330   2.346   2.427 -0.1940  0.2172 -0.2595
 8184SOL    HW136188   4.394   2.274   2.430  0.6486  0.9773 -0.0330
 8184SOL    HW236189   4.372   2.404   2.363 -1.3475 -3.7503 -4.6744
 8185SOL     OW36190   0.863   1.659   2.744 -0.1862 -0.4973 -0.0835
 8185SOL    HW136191   0.952   1.674   2.776 -1.3267  0.6305  2.5166
 8185SOL    HW236192   0.859   1.570   2.780  1.5393 -0.5331  0.0270
 8186SOL     OW36193   0.787   3.907   9.513 -0.1943  0.5705 -0.3356
 8186SOL    HW136194   0.814   3.955   9.434 -0.5089  2.7716  0.8887
 8186SOL    HW236195   0.692   3.902   9.499 -0.5489  2.0236  1.4662
 8187SOL     OW36196   1.253   0.335   1.616  0.2529  0.1325  0.0865
 8187SOL    HW136197   1.245   0.316   1.522  0.8337 -0.9230  0.2535
 8187SOL    HW236198   1.167   0.357   1.651  0.1214  1.8370 -1.3081
 8188SOL     OW36199   0.448   1.417   3.442 -0.2333 -0.1468  0.3485
 8188SOL    HW136200   0.446   1.356   3.516 -0.7380 -0.5478  0.0059
 8188SOL    HW236201   0.484   1.370   3.367  0.6586 -0.2913  0.8700
 8189SOL     OW36202   1.845   3.903   4.783 -0.0823 -0.7704  0.0254
 8189SOL    HW136203   1.785   3.935   4.850 -0.6050  0.4572 -1.0499
 8189SOL    HW236204   1.891   3.839   4.838  1.8160  1.1483  0.6889
 8190SOL     OW36205   0.949   3.679   1.620 -0.9033 -0.7375  0.3432
 8190SOL    HW136206   0.868   3.660   1.573 -1.3188  2.2739 -0.1477
 8190SOL    HW236207   0.923   3.744   1.685 -0.5518 -0.4824  0.2283
 8191SOL     OW36208   0.278   3.155  17.642  0.4504 -0.5481  0.3945
 8191SOL    HW136209   0.357   3.101  17.652  1.0962  0.1578 -0.7188
 8191SOL    HW236210   0.243   3.140  17.729 -1.1509 -1.7498 -0.4639
 8192SOL     OW36211   1.617   3.987   2.889  0.1129 -0.4655  0.0427
 8192SOL    HW136212   1.623   4.082   2.877 -1.2173 -0.3526  0.2975
 8192SOL    HW236213   1.709   3.965   2.900  0.3337 -0.2101 -1.2587
 8193SOL     OW36214   1.648   2.743   1.941 -0.5580  0.3471 -0.0893
 8193SOL    HW136215   1.737   2.757   1.910  0.9588  1.4745  4.9080
 8193SOL    HW236216   1.656   2.725   2.035  0.2666 -0.7197 -0.3625
 8194SOL     OW36217   2.405   3.748   1.781 -0.3828 -0.0682  0.3578
 8194SOL    HW136218   2.389   3.841   1.764 -1.0029 -0.3558 -0.6619
 8194SOL    HW236219   2.328   3.726   1.834 -0.4060  0.7767  0.6802
 8195SOL     OW36220   4.226   4.003   5.728 -0.3962  0.0183  0.8397
 8195SOL    HW136221   4.207   3.916   5.763  1.6585  0.3387  2.7283
 8195SOL    HW236222   4.321   3.999   5.741 -0.4202  0.2851  1.1073
 8196SOL     OW36223   3.753   3.203  16.425  0.7679 -0.1366 -0.0068
 8196SOL    HW136224   3.661   3.177  16.429  0.9381 -0.8148 -0.4120
 8196SOL    HW236225   3.775   3.155  16.345  0.2647 -0.0131 -0.2164
 8197SOL     OW36226   1.404   3.699   7.444  0.0523  0.0025 -0.0666
 8197SOL    HW136227   1.380   3.610   7.472  1.5208 -0.2041  0.5662
 8197SOL    HW236228   1.325   3.724   7.398  0.0761 -0.0456 -0.1340
 8198SOL     OW36229   2.252   0.591   6.948 -0.0405  0.0818  0.7383
 8198SOL    HW136230   2.248   0.678   6.988 -1.1294  1.0823 -1.4966
 8198SOL    HW236231   2.190   0.585   6.875 -0.0616 -1.3271  0.8710
 8199SOL     OW36232   0.499   3.677  11.490  0.7332  0.2155  0.2975
 8199SOL    HW136233   0.464   3.668  11.579  2.5536  0.4505  1.0516
 8199SOL    HW236234   0.589   3.653  11.513  0.3000 -0.3724  1.3808
 8200SOL     OW36235   1.401   2.399   9.061 -0.4738  0.2956 -0.4735
 8200SOL    HW136236   1.353   2.418   9.141  0.1552  1.2493 -0.3241
 8200SOL    HW236237   1.414   2.304   9.066  3.6019  0.7080 -2.9191
 8201SOL     OW36238   2.288   2.513   7.554 -0.2993 -0.3857 -0.3631
 8201SOL    HW136239   2.373   2.475   7.532  0.0166  1.4756 -2.2450
 8201SOL    HW236240   2.225   2.477   7.492 -1.4397 -0.0336  0.5896
 8202SOL     OW36241   2.438   3.190  13.484  0.5167  0.4659  0.0175
 8202SOL    HW136242   2.520   3.230  13.457  1.1967 -0.6579  0.4471
 8202SOL    HW236243   2.426   3.140  13.403  0.7124 -2.1021  1.5959
 8203SOL     OW36244   3.362   1.422  14.897 -0.3313  0.4618 -0.7698
 8203SOL    HW136245   3.293   1.488  14.903 -1.8662 -1.0312 -2.0480
 8203SOL    HW236246   3.335   1.366  14.970 -0.9211  0.5288 -0.9369
 8204SOL     OW36247   0.730   0.589   2.259  0.4195  0.0251 -0.0988
 8204SOL    HW136248   0.683   0.602   2.177 -3.3847 -1.8490  1.8152
 8204SOL    HW236249   0.659   0.561   2.317  0.3649 -2.3858 -1.3374
 8205SOL     OW36250   2.903   2.032   7.601 -0.1484 -0.2281  0.0491
 8205SOL    HW136251   2.878   1.958   7.655 -1.1515 -3.1008 -4.3350
 8205SOL    HW236252   2.936   1.986   7.524  0.4451 -1.5019  1.0767
 8206SOL     OW36253   1.550   1.188   4.012 -0.2503 -0.4864  0.1571
 8206SOL    HW136254   1.568   1.102   4.051 -2.4370 -0.6554  0.8161
 8206SOL    HW236255   1.617   1.185   3.944  0.5063 -2.2183  0.9647
 8207SOL     OW36256   1.369   4.254   3.072 -0.0717  0.1533 -0.2803
 8207SOL    HW136257   1.279   4.253   3.039 -0.1786  0.5386 -0.0057
 8207SOL    HW236258   1.393   4.343   3.046 -2.1805  0.4953 -1.0845
 8208SOL     OW36259   3.043   0.438   9.601 -0.3578  0.0566 -0.4668
 8208SOL    HW136260   2.986   0.508   9.569 -0.4395  1.1249  1.9988
 8208SOL    HW236261   3.041   0.456   9.695 -0.6857  2.2221 -0.8869
 8209SOL     OW36262   4.536   0.749   3.989 -0.0196 -0.0119  0.3169
 8209SOL    HW136263   4.484   0.702   3.924  1.6292 -1.8837  0.3353
 8209SOL    HW236264   4.519   0.698   4.068  2.4439 -0.9459  0.2320
 8210SOL     OW36265   2.072   1.837   9.079 -0.2099  0.4700  0.2428
 8210SOL    HW136266   2.126   1.865   9.153  1.1739 -1.9781  0.1488
 8210SOL    HW236267   2.036   1.760   9.123 -1.0761  0.1029 -1.0962
 8211SOL     OW36268   3.315   0.427   2.646 -0.5440 -0.1632 -0.0180
 8211SOL    HW136269   3.269   0.501   2.685  0.6196  0.0449  0.9405
 8211SOL    HW236270   3.374   0.400   2.716 -0.2518  0.9685  0.1720
 8212SOL     OW36271   3.274   1.432  14.326 -0.1293 -0.0211  0.0580
 8212SOL    HW136272   3.217   1.483  14.269  2.2993 -0.0965 -2.4300
 8212SOL    HW236273   3.254   1.340  14.305 -1.1864  0.6825 -2.0016
 8213SOL     OW36274   2.901   2.490   4.084 -0.1568  1.1534 -0.5184
 8213SOL    HW136275   2.952   2.413   4.058 -2.6247  0.1020 -2.3187
 8213SOL    HW236276   2.825   2.472   4.027 -0.5586  0.9741  0.0770
 8214SOL     OW36277   3.652   2.165  11.082 -0.1797  0.7533 -0.1992
 8214SOL    HW136278   3.727   2.107  11.096 -0.2472  0.2689 -1.8699
 8214SOL    HW236279   3.664   2.226  11.155  0.0206 -0.1163  0.4974
 8215SOL     OW36280   3.915   0.646  13.514 -0.7212 -0.3391 -0.0425
 8215SOL    HW136281   3.971   0.595  13.455 -0.3480 -2.0676  1.7834
 8215SOL    HW236282   3.837   0.649  13.459 -1.1324 -0.4237  0.5307
 8216SOL     OW36283   1.811   2.616   8.994 -0.2892 -0.0708 -0.0194
 8216SOL    HW136284   1.807   2.709   9.015  2.3403 -0.4868  2.3394
 8216SOL    HW236285   1.718   2.600   8.974 -0.3593 -0.7136  0.7721
 8217SOL     OW36286   0.530   4.226  11.890 -0.6340  0.3662 -0.2788
 8217SOL    HW136287   0.489   4.308  11.862 -1.2369 -0.2755 -1.2898
 8217SOL    HW236288   0.476   4.153  11.858  1.0945 -1.2654  0.5340
 8218SOL     OW36289   1.809   3.915  10.624  0.2034 -0.3073  0.0983
 8218SOL    HW136290   1.732   3.959  10.660  0.3787  0.2582 -0.2270
 8218SOL    HW236291   1.771   3.827  10.612  0.4709 -0.5285  0.8756
 8219SOL     OW36292   4.398   2.782   6.244  0.0126  0.3345 -0.5616
 8219SOL    HW136293   4.378   2.869   6.213 -0.7519  0.2552 -0.2861
 8219SOL    HW236294   4.317   2.741   6.214 -2.5654  4.5084  0.6652
 8220SOL     OW36295   3.692   2.286   3.969 -0.4108  0.3255  0.2611
 8220SOL    HW136296   3.659   2.199   3.944 -0.3635  0.7323 -1.2281
 8220SOL    HW236297   3.612   2.334   3.947 -0.0683  0.2657 -1.1407
 8221SOL     OW36298   2.331   1.444   2.309 -0.3155 -0.4505 -0.0454
 8221SOL    HW136299   2.278   1.465   2.385  1.0601 -0.0754  0.8070
 8221SOL    HW236300   2.262   1.428   2.244  0.0757  1.9134 -1.0444
 8222SOL     OW36301   3.083   3.697   7.734  0.6634 -0.2821 -0.0014
 8222SOL    HW136302   3.176   3.674   7.727  0.4494 -1.4464  0.7982
 8222SOL    HW236303   3.066   3.666   7.824 -2.1846  0.4504 -0.3044
 8223SOL     OW36304   3.280   0.774   3.706  0.3929  0.6139 -0.7550
 8223SOL    HW136305   3.238   0.844   3.756 -0.8626  0.5940 -1.7917
 8223SOL    HW236306   3.352   0.742   3.760 -1.3323  0.2077  1.2997
 8224SOL     OW36307   2.990   1.364   6.295 -0.2715 -0.0903 -0.4422
 8224SOL    HW136308   2.900   1.347   6.266 -1.6582  1.6733  2.8415
 8224SOL    HW236309   2.966   1.365   6.387 -0.9889 -1.3666 -0.6167
 8225SOL     OW36310   3.068   1.752   9.757  0.1749 -0.2724  0.3558
 8225SOL    HW136311   3.122   1.826   9.785  1.1935 -0.2626 -1.6559
 8225SOL    HW236312   2.990   1.750   9.812 -0.1486 -0.3900 -0.1092
 8226SOL     OW36313   0.178   3.196   7.290  0.5487 -0.5159  0.2212
 8226SOL    HW136314   0.097   3.147   7.304  0.8918 -1.1213  0.1140
 8226SOL    HW236315   0.175   3.251   7.368 -2.1542 -0.9907  0.4675
 8227SOL     OW36316   4.633   3.904   3.263  0.1539  0.0040  0.1150
 8227SOL    HW136317   4.701   3.893   3.328 -0.3316  1.8813  0.9554
 8227SOL    HW236318   4.640   3.996   3.235 -0.5936 -0.9920 -3.3444
 8228SOL     OW36319   4.049   2.045   3.928  0.2570  0.9497  0.3964
 8228SOL    HW136320   4.113   2.003   3.870 -1.7521 -1.3818 -0.1410
 8228SOL    HW236321   4.057   2.137   3.903 -1.9561  1.1286  0.3286
 8229SOL     OW36322   3.698   3.028   7.076  0.6200  0.4433 -0.0617
 8229SOL    HW136323   3.610   2.998   7.055  1.4793 -1.1012 -1.4782
 8229SOL    HW236324   3.733   3.052   6.990  1.6456 -1.3609 -0.1504
 8230SOL     OW36325   1.649   2.165   8.082  0.2383 -0.6473 -0.4023
 8230SOL    HW136326   1.627   2.163   7.989 -0.7974  1.8037 -0.2279
 8230SOL    HW236327   1.673   2.257   8.096  1.0217 -0.7837 -0.8994
 8231SOL     OW36328   2.933   1.952   0.237 -0.4295 -0.8598  0.2451
 8231SOL    HW136329   2.974   1.877   0.194  0.7450 -0.4735  0.6851
 8231SOL    HW236330   2.838   1.942   0.240 -0.4565 -1.1699 -1.8472
 8232SOL     OW36331   0.316   3.118   2.415  0.4839  0.2069  0.0619
 8232SOL    HW136332   0.393   3.106   2.470  0.1288  0.6863  0.6647
 8232SOL    HW236333   0.330   3.047   2.351  3.6025  1.6522 -0.8694
 8233SOL     OW36334   4.322   4.349  16.955 -0.1344  0.7415 -0.2159
 8233SOL    HW136335   4.360   4.314  17.036  0.2825  1.2071 -0.2098
 8233SOL    HW236336   4.306   4.270  16.904  0.0021 -1.5911  3.3663
 8234SOL     OW36337   2.373   2.715   1.735  0.0063  0.6266  0.4088
 8234SOL    HW136338   2.455   2.765   1.729 -0.1834  0.6987 -1.5524
 8234SOL    HW236339   2.384   2.674   1.821 -1.5497 -0.5745  0.0335
 8235SOL     OW36340   2.570   0.137   0.411  0.3146  0.1093 -0.3049
 8235SOL    HW136341   2.647   0.102   0.456  0.7860  1.2337 -0.2539
 8235SOL    HW236342   2.600   0.142   0.321  0.7713  1.1741 -0.0929
 8236SOL     OW36343   4.461   1.913  13.932  0.3459 -0.1090 -0.0355
 8236SOL    HW136344   4.522   1.898  14.004 -1.4388 -2.4558  0.9881
 8236SOL    HW236345   4.481   1.999  13.895 -0.0647 -0.3266 -0.7776
 8237SOL     OW36346   3.547   2.642   1.587  0.3892  0.2702 -0.0939
 8237SOL    HW136347   3.546   2.557   1.542 -1.3429 -0.2998  1.0120
 8237SOL    HW236348   3.639   2.651   1.612  0.7272  1.0669 -1.6226
 8238SOL     OW36349   1.365   1.968  15.729 -0.8544  0.4221  0.1158
 8238SOL    HW136350   1.334   1.877  15.734  1.1534 -0.1995  1.1749
 8238SOL    HW236351   1.430   1.957  15.798 -0.5642 -2.0130 -0.5316
 8239SOL     OW36352   4.003   3.485   7.768 -0.7101  0.0452  0.3741
 8239SOL    HW136353   3.949   3.445   7.836  0.1044  1.0119  1.5880
 8239SOL    HW236354   3.980   3.429   7.694  3.5875  1.7000 -2.1877
 8240SOL     OW36355   3.594   4.224   6.918  0.3495  0.2909  0.3801
 8240SOL    HW136356   3.647   4.270   6.984  1.5302 -0.9365  0.2801
 8240SOL    HW236357   3.662   4.166   6.884 -0.9709 -0.1338 -1.5118
 8241SOL     OW36358   3.779   2.572   8.825  0.0342  0.3502  0.7079
 8241SOL    HW136359   3.766   2.491   8.874  0.1500  0.9504  1.7302
 8241SOL    HW236360   3.692   2.607   8.804  0.0185 -0.2150 -0.1419
 8242SOL     OW36361   3.563   3.411   9.398 -0.0217 -0.4076  0.1277
 8242SOL    HW136362   3.474   3.444   9.416  0.4881  1.8226 -1.4602
 8242SOL    HW236363   3.572   3.334   9.454 -2.9846 -1.9871 -1.5435
 8243SOL     OW36364   2.519   4.110  10.160 -0.1266 -0.1822  0.1533
 8243SOL    HW136365   2.529   4.028  10.112 -1.4981 -0.5077  0.4054
 8243SOL    HW236366   2.478   4.075  10.240  0.5795 -0.5984  0.3328
 8244SOL     OW36367   1.878   3.848   4.177  0.1411 -0.2027  0.1423
 8244SOL    HW136368   1.871   3.799   4.259 -0.7889  2.2522  1.5219
 8244SOL    HW236369   1.949   3.797   4.137 -0.1796 -1.4719  1.1972
 8245SOL     OW36370   1.713   0.457   5.114 -0.1566 -0.2208 -0.4833
 8245SOL    HW136371   1.685   0.519   5.181 -1.5952 -2.1938  0.7532
 8245SOL    HW236372   1.758   0.522   5.060  2.3454 -3.9764 -2.8783
 8246SOL     OW36373   2.382   1.078   1.664  0.3187 -0.4531 -0.1038
 8246SOL    HW136374   2.381   1.004   1.604  0.6405  0.2650 -0.9896
 8246SOL    HW236375   2.444   1.046   1.730  0.9496  0.2453 -0.3580
 8247SOL     OW36376   1.795   0.849  13.498 -0.3010 -0.5665 -0.2278
 8247SOL    HW136377   1.806   0.939  13.528 -1.5626 -0.5463  0.1523
 8247SOL    HW236378   1.730   0.865  13.430 -1.1339 -1.9690  0.2426
 8248SOL     OW36379   3.649   0.678   5.325  0.0317 -0.8281  0.0589
 8248SOL    HW136380   3.659   0.690   5.420  0.1088  0.7111 -0.1577
 8248SOL    HW236381   3.680   0.588   5.314  3.5170  0.9427 -4.4383
 8249SOL     OW36382   0.575   4.276   4.786  0.1260  0.3702 -1.1143
 8249SOL    HW136383   0.523   4.294   4.708  0.7930 -0.1769 -1.6891
 8249SOL    HW236384   0.524   4.211   4.835 -1.1075  0.5986 -2.1226
 8250SOL     OW36385   1.309   1.202   1.932 -0.3071  1.0140  0.3382
 8250SOL    HW136386   1.219   1.234   1.925 -0.3316  1.2098  1.4846
 8250SOL    HW236387   1.297   1.109   1.915 -0.9433  1.4241 -1.4066
 8251SOL     OW36388   1.228   0.692  11.398  0.4064  0.3630 -0.3738
 8251SOL    HW136389   1.222   0.788  11.403 -0.8451  0.3880 -2.1837
 8251SOL    HW236390   1.286   0.675  11.324  0.4631  1.2176 -0.5305
 8252SOL     OW36391   3.621   0.679   6.506 -0.1212 -0.7576 -0.2766
 8252SOL    HW136392   3.611   0.767   6.471 -0.1937  0.2020  2.1751
 8252SOL    HW236393   3.701   0.689   6.558 -0.2373 -0.0148 -0.2541
 8253SOL     OW36394   2.206   0.287   7.385 -0.7227 -0.8622  0.1655
 8253SOL    HW136395   2.274   0.233   7.424  1.8601  2.5628  0.4321
 8253SOL    HW236396   2.172   0.225   7.320  0.1120 -1.5597  0.4101
 8254SOL     OW36397   1.036   4.443  10.261  0.2599 -0.4485 -0.1133
 8254SOL    HW136398   1.021   4.391  10.182 -0.3693  0.6026 -0.6810
 8254SOL    HW236399   0.997   4.526  10.234  2.2173  0.7000  0.6146
 8255SOL     OW36400   3.001   1.378   5.995 -0.1897  0.3171  0.1451
 8255SOL    HW136401   2.994   1.382   6.090 -0.3475 -0.5421  0.1704
 8255SOL    HW236402   3.082   1.326   5.993 -0.3091  0.1106  0.7767
 8256SOL     OW36403   4.450   3.719   4.603  0.0970 -0.0872 -0.2319
 8256SOL    HW136404   4.356   3.704   4.593 -0.0277  0.1906  0.5135
 8256SOL    HW236405   4.480   3.664   4.676  2.1410 -2.2538 -2.7213
 8257SOL     OW36406   2.835   1.175   5.352 -0.2038 -0.1119 -0.2763
 8257SOL    HW136407   2.883   1.258   5.347 -0.9773  0.4172  0.9729
 8257SOL    HW236408   2.849   1.139   5.264  0.8933 -0.9552  0.2378
 8258SOL     OW36409   0.543   2.087   2.251 -1.0442  0.4587  0.3695
 8258SOL    HW136410   0.538   2.034   2.172 -2.6318 -0.9556  1.4100
 8258SOL    HW236411   0.567   2.169   2.207 -2.6557 -0.4251 -2.1063
 8259SOL     OW36412   4.006   4.500   3.472 -0.2714  0.4477  0.3266
 8259SOL    HW136413   4.043   4.527   3.388  0.8821  2.8491  1.6095
 8259SOL    HW236414   4.081   4.519   3.529 -0.0495  1.9063 -0.4718
 8260SOL     OW36415   3.492   3.375  13.986  0.2513 -0.0972 -0.6960
 8260SOL    HW136416   3.507   3.466  13.961 -0.3590  0.0626 -0.4950
 8260SOL    HW236417   3.398   3.374  14.006  0.3077  0.0033 -0.4182
 8261SOL     OW36418   4.531   1.937   5.542 -0.1979  0.8903  0.3504
 8261SOL    HW136419   4.503   2.013   5.490 -0.8740 -0.5906 -1.4402
 8261SOL    HW236420   4.445   1.905   5.568  0.7272 -0.7443  1.4184
 8262SOL     OW36421   0.082   3.231  11.660 -0.6601 -0.0734  0.2608
 8262SOL    HW136422   4.725   3.218  11.662 -1.1582  3.6579  1.3375
 8262SOL    HW236423   0.107   3.150  11.704  1.5308 -0.2925 -1.3993
 8263SOL     OW36424   4.059   4.454   7.271  0.2569  0.7816  0.6583
 8263SOL    HW136425   3.974   4.489   7.298 -0.8031 -0.3555 -1.2037
 8263SOL    HW236426   4.043   4.387   7.205 -0.4972 -0.7955  2.4474
 8264SOL     OW36427   1.864   2.104  17.094 -0.1756 -0.0225 -0.5081
 8264SOL    HW136428   1.793   2.081  17.033 -0.8467 -0.9554  0.6314
 8264SOL    HW236429   1.913   2.164  17.037 -1.9542  1.1400 -0.7994
 8265SOL     OW36430   3.726   3.901   4.876  0.0540 -0.5255  0.3254
 8265SOL    HW136431   3.659   3.956   4.915 -0.6874 -0.2838 -1.3008
 8265SOL    HW236432   3.801   3.919   4.933  0.3240 -0.2317 -0.1277
 8266SOL     OW36433   4.241   1.277   8.536  0.5661  0.5323 -0.2646
 8266SOL    HW136434   4.332   1.269   8.566  0.3466  0.6289  0.4245
 8266SOL    HW236435   4.203   1.204   8.585  0.0087  0.2510 -1.1319
 8267SOL     OW36436   0.840   2.461  12.179  0.3453  0.5540 -0.5611
 8267SOL    HW136437   0.770   2.398  12.200 -0.0020  1.7641  1.9802
 8267SOL    HW236438   0.890   2.451  12.260 -1.6885 -0.5681  0.5652
 8268SOL     OW36439   1.306   1.354   6.999  0.3775  0.1124 -0.3914
 8268SOL    HW136440   1.211   1.344   7.004  0.3740 -0.7576 -2.2297
 8268SOL    HW236441   1.333   1.347   6.907 -0.2745 -1.1551 -0.4796
 8269SOL     OW36442   0.106   2.311   3.806  0.1224 -0.4538 -0.3664
 8269SOL    HW136443   0.133   2.220   3.797 -0.4393 -0.4592 -2.0136
 8269SOL    HW236444   0.046   2.302   3.879 -0.2195 -0.5721 -0.6629
 8270SOL     OW36445   0.298   0.518   2.760 -0.3965  0.3307  0.1410
 8270SOL    HW136446   0.365   0.450   2.753  1.2446  2.0007 -0.5309
 8270SOL    HW236447   0.267   0.514   2.850  2.2346 -0.7600  0.9953
 8271SOL     OW36448   1.575   3.259   8.057 -0.0773  0.0625  0.0911
 8271SOL    HW136449   1.598   3.301   8.140 -1.0668  1.8637 -0.5587
 8271SOL    HW236450   1.639   3.189   8.044  0.8733  1.6327 -3.5075
 8272SOL     OW36451   2.299   2.807   2.977 -0.0394  0.1385  0.1740
 8272SOL    HW136452   2.363   2.786   2.910 -2.4357  0.9826 -2.3578
 8272SOL    HW236453   2.220   2.762   2.946 -0.1332  1.1440 -1.0432
 8273SOL     OW36454   2.394   0.369   8.570 -0.2166 -0.2597  0.4593
 8273SOL    HW136455   2.442   0.349   8.489  0.2422  1.6841  0.2587
 8273SOL    HW236456   2.323   0.421   8.531  0.9155  1.5378  0.8154
 8274SOL     OW36457   1.575   0.365   2.955 -0.2046 -0.2895 -0.0184
 8274SOL    HW136458   1.512   0.437   2.947 -1.2434 -1.2490 -0.3979
 8274SOL    HW236459   1.634   0.402   3.021 -0.4964  0.3268 -0.0967
 8275SOL     OW36460   0.874   1.297  10.852 -0.1809  0.0953 -0.1426
 8275SOL    HW136461   0.915   1.226  10.802 -1.5161  0.0880 -1.2066
 8275SOL    HW236462   0.826   1.250  10.920  0.5314 -1.0431 -0.4301
 8276SOL     OW36463   4.184   2.331   3.703 -0.2333 -0.0072 -0.1668
 8276SOL    HW136464   4.148   2.272   3.638 -0.8303  0.6031 -0.3915
 8276SOL    HW236465   4.102   2.364   3.738  0.3681  0.4652  0.8077
 8277SOL     OW36466   2.009   2.840   3.369 -0.1613 -0.3544 -0.5060
 8277SOL    HW136467   1.985   2.923   3.409  1.1504  1.2083 -2.9549
 8277SOL    HW236468   2.005   2.773   3.437  1.0072 -0.1886 -0.2677
 8278SOL     OW36469   3.991   4.514   8.045 -0.2804  0.1524  0.2339
 8278SOL    HW136470   3.896   4.518   8.055 -0.0941  0.1005  1.9059
 8278SOL    HW236471   4.012   4.603   8.017 -1.6092  1.1936  2.5868
 8279SOL     OW36472   3.732   3.089  17.385 -0.1275 -0.2919 -0.2916
 8279SOL    HW136473   3.762   2.998  17.389 -1.0997 -0.5753  0.6396
 8279SOL    HW236474   3.758   3.101  17.294  0.2393  0.1660 -0.1241
 8280SOL     OW36475   4.606   2.272   4.835  0.0770  0.4755  0.3296
 8280SOL    HW136476   4.573   2.362   4.841 -1.4197 -0.0771  0.4574
 8280SOL    HW236477   4.699   2.293   4.830  0.0088  0.9717  1.0969
 8281SOL     OW36478   3.113   0.053  14.077 -0.4604  0.0399  0.3653
 8281SOL    HW136479   3.034   0.025  14.124  0.0307  1.2790  1.9138
 8281SOL    HW236480   3.120   0.144  14.104  1.7681 -0.2151  0.7014
 8282SOL     OW36481   0.914   2.569   3.023 -0.6519 -0.2403 -0.2597
 8282SOL    HW136482   0.855   2.538   2.955  0.9450 -1.3497 -1.1255
 8282SOL    HW236483   0.972   2.496   3.044  0.7504  0.4004 -1.9918
 8283SOL     OW36484   1.199   3.477   5.970 -0.0167 -0.0881 -0.6627
 8283SOL    HW136485   1.202   3.572   5.963  1.3531 -0.2541 -2.4799
 8283SOL    HW236486   1.104   3.473   5.975  0.1419 -0.9223  1.6008
 8284SOL     OW36487   3.683   1.546   4.920 -0.3381 -0.8510  0.0132
 8284SOL    HW136488   3.660   1.621   4.975  2.7266 -0.6513  0.9988
 8284SOL    HW236489   3.618   1.485   4.957 -0.1903 -0.9885  0.0485
 8285SOL     OW36490   1.128   4.224  12.503 -0.0603  0.0822  0.2729
 8285SOL    HW136491   1.035   4.235  12.482  0.4059 -0.8047 -2.1960
 8285SOL    HW236492   1.177   4.206  12.423 -0.7739  1.7611 -0.5474
 8286SOL     OW36493   1.752   0.751   2.633 -0.0170  0.1975 -0.2059
 8286SOL    HW136494   1.758   0.727   2.725  1.0369  0.1534 -0.2886
 8286SOL    HW236495   1.842   0.775   2.609  0.1416 -1.9849 -1.7943
 8287SOL     OW36496   1.175   4.598   4.225  0.1043  0.3863  0.2043
 8287SOL    HW136497   1.269   4.610   4.241  0.1798 -1.3422  1.0233
 8287SOL    HW236498   1.158   4.561   4.312 -1.2697 -2.3210 -1.2032
 8288SOL     OW36499   0.748   3.716  11.954  0.3428  0.1904 -0.2579
 8288SOL    HW136500   0.784   3.649  11.896  0.6314  1.9982 -2.1808
 8288SOL    HW236501   0.702   3.668  12.023  2.0643 -1.3820 -0.2080
 8289SOL     OW36502   3.790   1.013   8.613  0.1939 -0.2614 -0.3972
 8289SOL    HW136503   3.742   1.064   8.548  0.4035  2.1918  1.3464
 8289SOL    HW236504   3.871   0.996   8.564  0.1018  1.6924 -1.2585
 8290SOL     OW36505   1.551   1.132   5.636 -0.2720 -0.3508 -0.2414
 8290SOL    HW136506   1.511   1.218   5.621  1.7689  0.7266  0.5261
 8290SOL    HW236507   1.549   1.125   5.731 -0.6004  1.0420 -0.1470
 8291SOL     OW36508   0.626   1.669   6.779 -0.1223  0.0041  0.0018
 8291SOL    HW136509   0.632   1.764   6.778  0.6765 -0.0588 -0.9334
 8291SOL    HW236510   0.644   1.649   6.687 -1.2829 -1.5621  0.1224
 8292SOL     OW36511   0.517   4.520   5.570  0.8930 -0.5230 -0.0707
 8292SOL    HW136512   0.510   4.524   5.666  2.3250 -2.4900  0.1123
 8292SOL    HW236513   0.430   4.547   5.540  1.2869  1.5155  0.5715
 8293SOL     OW36514   0.762   0.681   3.164 -0.0918  0.1707 -0.3232
 8293SOL    HW136515   0.752   0.637   3.079  3.7004 -0.8272 -0.2707
 8293SOL    HW236516   0.696   0.749   3.149  1.0314  1.0219 -1.4534
 8294SOL     OW36517   0.276   4.331  17.168 -0.3534 -0.6396 -0.6857
 8294SOL    HW136518   0.230   4.284  17.237  0.2530 -0.7383 -0.3506
 8294SOL    HW236519   0.207   4.372  17.116  0.4217  1.6789  0.1202
 8295SOL     OW36520   3.091   1.320   3.162 -0.1931 -0.1190  0.6429
 8295SOL    HW136521   3.040   1.288   3.236 -0.5958 -0.4340  0.2318
 8295SOL    HW236522   3.153   1.248   3.147  1.4378  1.2670  0.7997
 8296SOL     OW36523   0.147   1.094   1.045 -0.2637 -0.4103 -0.5221
 8296SOL    HW136524   0.140   1.003   1.075  0.5809 -0.6391 -1.0272
 8296SOL    HW236525   0.194   1.126   1.122 -0.5779  0.9531 -0.8975
 8297SOL     OW36526   2.987   3.884   6.589  0.6589 -0.0212  0.0316
 8297SOL    HW136527   3.007   3.916   6.677  0.4442  1.4425 -0.4498
 8297SOL    HW236528   2.980   3.966   6.540 -0.3493 -0.3132 -0.3247
 8298SOL     OW36529   3.177   1.601  17.339  0.3256  0.0957 -0.2189
 8298SOL    HW136530   3.258   1.652  17.348  0.0749  0.0242  2.4362
 8298SOL    HW236531   3.202   1.547  17.264  0.0955 -0.5829  0.1949
 8299SOL     OW36532   0.718   1.916   3.111 -0.2733  0.4018 -0.3399
 8299SOL    HW136533   0.698   1.866   3.032  0.2903  0.7382 -0.6919
 8299SOL    HW236534   0.688   1.861   3.183  1.9558  1.2041  1.1825
 8300SOL     OW36535   0.049   0.710   1.904 -0.1197 -0.3282 -0.2161
 8300SOL    HW136536   4.731   0.641   1.867 -0.9628 -1.1649  2.5982
 8300SOL    HW236537   0.014   0.782   1.853  1.4435 -0.2412 -1.1499
 8301SOL     OW36538   1.403   3.590  15.160  0.4759 -0.0723  0.4883
 8301SOL    HW136539   1.479   3.553  15.206  1.1549 -3.1617 -3.1242
 8301SOL    HW236540   1.348   3.514  15.179 -0.6688  0.7924  0.6227
 8302SOL     OW36541   3.292   2.493   1.226 -0.2712 -0.0907 -0.0166
 8302SOL    HW136542   3.330   2.580   1.211 -0.4339 -0.0049  0.0725
 8302SOL    HW236543   3.306   2.458   1.139  0.0740 -0.1806  0.0719
 8303SOL     OW36544   1.161   1.627   7.474  0.5490 -0.0142 -0.3191
 8303SOL    HW136545   1.088   1.687   7.487 -1.0773 -1.8393 -1.1661
 8303SOL    HW236546   1.234   1.677   7.438 -0.4427 -0.0659 -2.3644
 8304SOL     OW36547   0.311   3.986   6.012 -0.5486  0.2755 -0.3066
 8304SOL    HW136548   0.381   3.955   5.954 -1.7873 -2.6709 -0.1896
 8304SOL    HW236549   0.356   4.056   6.061  0.0416 -1.3404  1.4904
 8305SOL     OW36550   4.484   0.185  16.560  0.3174  0.8220 -0.1742
 8305SOL    HW136551   4.523   0.253  16.506 -0.7932  0.4321 -1.4693
 8305SOL    HW236552   4.391   0.183  16.537  0.0125 -0.8329  1.1993
 8306SOL     OW36553   3.658   2.001   8.351 -0.4376 -0.3319 -0.4540
 8306SOL    HW136554   3.588   1.945   8.316  0.3030 -0.9329 -0.9592
 8306SOL    HW236555   3.719   1.992   8.278  0.7289  0.2399  0.4684
 8307SOL     OW36556   3.544   0.692   7.627 -0.0475  0.5681 -0.6077
 8307SOL    HW136557   3.455   0.659   7.613 -0.3131  1.2784 -0.5863
 8307SOL    HW236558   3.553   0.765   7.566  0.0392 -0.9340 -2.3738
 8308SOL     OW36559   3.920   0.408   6.716  0.0999 -0.0635 -0.5570
 8308SOL    HW136560   3.871   0.447   6.788  0.1301 -0.3565 -0.3778
 8308SOL    HW236561   3.935   0.484   6.660 -2.5257  0.9121  0.0638
 8309SOL     OW36562   0.250   2.527  14.947  0.5607 -0.2134  0.5395
 8309SOL    HW136563   0.334   2.510  14.989  0.7914  0.8103  0.4840
 8309SOL    HW236564   0.260   2.616  14.915  2.4315 -1.2028 -1.6393
 8310SOL     OW36565   1.515   1.292  10.207  0.1468  0.5616  0.1054
 8310SOL    HW136566   1.454   1.223  10.182  0.0648  0.5297  0.3863
 8310SOL    HW236567   1.456   1.341  10.264 -0.9010 -1.5388  0.8529
 8311SOL     OW36568   1.469   2.230   3.455  0.2207 -0.1432  0.2013
 8311SOL    HW136569   1.480   2.287   3.379  0.5566 -1.3982 -0.6803
 8311SOL    HW236570   1.435   2.155   3.407 -0.8345  0.1654  0.4593
 8312SOL     OW36571   0.111   1.000   3.981 -0.0295 -0.6174  0.4513
 8312SOL    HW136572   0.041   1.037   4.035  0.0227 -0.5140  0.4479
 8312SOL    HW236573   0.066   0.956   3.909 -1.7759  1.0972  0.4965
 8313SOL     OW36574   2.948   2.702   6.502  0.3766  0.0034  0.2528
 8313SOL    HW136575   2.853   2.706   6.494  0.0184 -1.3841  3.5866
 8313SOL    HW236576   2.983   2.787   6.476  1.4902 -0.8563 -1.0432
 8314SOL     OW36577   0.199   0.362  12.855 -0.6333  0.1868 -0.1004
 8314SOL    HW136578   0.189   0.445  12.901 -1.5039 -0.0078  0.0556
 8314SOL    HW236579   0.204   0.299  12.927 -0.7442 -2.1062 -2.0989
 8315SOL     OW36580   1.695   3.133  14.751  0.2604 -0.1043 -0.5481
 8315SOL    HW136581   1.658   3.202  14.805  2.1813  0.2100  0.3641
 8315SOL    HW236582   1.631   3.128  14.680 -0.2980 -1.1625  0.0312
 8316SOL     OW36583   0.398   2.048   9.724 -0.0413  0.4202 -0.6100
 8316SOL    HW136584   0.478   2.075   9.679  0.3434  1.6577  0.8233
 8316SOL    HW236585   0.413   1.955   9.739 -1.3182  0.0467 -1.6315
 8317SOL     OW36586   0.861   1.393   5.549  0.2518  0.1196 -0.0116
 8317SOL    HW136587   0.776   1.436   5.554 -0.6065 -1.6120  0.2193
 8317SOL    HW236588   0.864   1.324   5.616 -1.7463 -1.1162 -1.1752
 8318SOL     OW36589   1.308   0.803   7.633  0.3805  0.3186 -0.3112
 8318SOL    HW136590   1.341   0.891   7.652 -0.9883  0.6431  0.5406
 8318SOL    HW236591   1.230   0.805   7.689 -1.3446 -1.3188 -2.6652
 8319SOL     OW36592   2.262   0.370  17.064  0.6359 -0.4110 -0.3388
 8319SOL    HW136593   2.275   0.303  16.997  2.7498 -1.2764  0.9248
 8319SOL    HW236594   2.172   0.352  17.090  0.6446  0.9468  0.6436
 8320SOL     OW36595   2.677   0.730   4.702  0.5893 -0.6849  0.1860
 8320SOL    HW136596   2.651   0.797   4.765 -3.0277  0.0023 -2.0571
 8320SOL    HW236597   2.593   0.702   4.666  0.9098 -1.1867 -0.1602
 8321SOL     OW36598   3.483   3.832  15.547 -0.4386  0.6373  0.3953
 8321SOL    HW136599   3.502   3.739  15.536  0.7604  1.2191 -2.3325
 8321SOL    HW236600   3.391   3.827  15.576 -0.0582  1.3151  1.7417
 8322SOL     OW36601   3.238   3.833   9.215 -0.3707 -0.0241  0.6071
 8322SOL    HW136602   3.236   3.928   9.227  1.0693  0.0280  0.4169
 8322SOL    HW236603   3.314   3.817   9.159  0.3599 -0.2290  1.6743
 8323SOL     OW36604   1.663   1.124   2.486  0.2004 -0.1799  0.5955
 8323SOL    HW136605   1.576   1.104   2.451 -0.3705  1.4020  1.0907
 8323SOL    HW236606   1.707   1.125   2.402  0.5719 -0.0604  0.7942
 8324SOL     OW36607   0.755   3.094   2.575  0.0447 -0.0376  0.1019
 8324SOL    HW136608   0.736   3.007   2.608  1.4643 -0.5125 -0.3363
 8324SOL    HW236609   0.665   3.126   2.566 -0.3656 -1.1508  0.2383
 8325SOL     OW36610   0.862   2.307   8.166 -0.1218  0.2508 -0.5968
 8325SOL    HW136611   0.782   2.255   8.167 -1.5087  2.3863 -2.2733
 8325SOL    HW236612   0.900   2.283   8.081  0.4382  0.1857 -0.3312
 8326SOL     OW36613   1.644   4.026   4.239 -0.0162 -0.3077  0.2289
 8326SOL    HW136614   1.700   4.074   4.300  0.2318 -0.5184  0.1674
 8326SOL    HW236615   1.696   3.956   4.199  0.0274 -0.2609  0.2038
 8327SOL     OW36616   4.236   0.070   6.306 -0.1611 -0.1440 -0.2622
 8327SOL    HW136617   4.317   0.042   6.262  0.5708 -0.2004  1.1265
 8327SOL    HW236618   4.259   0.154   6.346 -0.5102 -0.4307  0.5490
 8328SOL     OW36619   3.738   0.544   7.775  0.0816  0.4205  0.1030
 8328SOL    HW136620   3.671   0.597   7.733  0.1913  0.7922  0.3871
 8328SOL    HW236621   3.797   0.610   7.812 -0.1540  1.5992 -1.6319
 8329SOL     OW36622   1.176   0.924   3.732 -0.1351  0.3553 -0.3357
 8329SOL    HW136623   1.105   0.865   3.708  1.2818 -0.6100 -2.1278
 8329SOL    HW236624   1.246   0.917   3.668  1.0140 -2.0876  1.2034
 8330SOL     OW36625   0.442   1.764   9.716 -0.0218  0.6318  0.0116
 8330SOL    HW136626   0.361   1.765   9.666 -0.2112 -1.6920  0.3147
 8330SOL    HW236627   0.473   1.676   9.699  1.4162  0.6988  2.1887
 8331SOL     OW36628   3.093   1.240   5.572 -0.2636  0.1578  0.2832
 8331SOL    HW136629   3.010   1.192   5.570 -0.1880  0.0543 -0.5587
 8331SOL    HW236630   3.067   1.300   5.502 -0.4811  0.8595  0.9586
 8332SOL     OW36631   3.505   2.910   9.406 -0.2275 -0.0276 -0.1492
 8332SOL    HW136632   3.469   2.942   9.324  0.5689 -1.0358 -0.8908
 8332SOL    HW236633   3.435   2.863   9.451 -1.4768  0.8969 -1.1445
 8333SOL     OW36634   4.483   1.216   4.819 -0.1166 -0.0398 -0.1445
 8333SOL    HW136635   4.505   1.308   4.835  2.4748 -0.3416 -1.8494
 8333SOL    HW236636   4.397   1.219   4.859  0.5621  0.7758  1.2339
 8334SOL     OW36637   3.335   2.091   8.466 -0.1548  0.0527 -0.3612
 8334SOL    HW136638   3.267   2.025   8.480  1.0511 -0.8163  1.5230
 8334SOL    HW236639   3.291   2.156   8.412  0.9013  0.6482 -0.4957
 8335SOL     OW36640   3.522   1.455   9.122  0.1931  0.1868 -0.0453
 8335SOL    HW136641   3.520   1.523   9.054  4.3823  2.1983  1.8903
 8335SOL    HW236642   3.480   1.379   9.081  2.0341 -1.2688  0.7726
 8336SOL     OW36643   0.434   4.450   4.933  0.6181  0.4533 -0.1442
 8336SOL    HW136644   0.494   4.396   4.882  1.4612 -0.4806  1.8445
 8336SOL    HW236645   0.475   4.537   4.938 -0.9814  1.1092  1.6209
 8337SOL     OW36646   4.538   0.536   2.799  0.1517  0.7993 -0.9430
 8337SOL    HW136647   4.489   0.581   2.868  0.0031 -1.2482  0.2790
 8337SOL    HW236648   4.606   0.487   2.844 -0.5148  1.1527  0.4738
 8338SOL     OW36649   4.508   4.714   7.920 -0.0162 -0.3163  0.6153
 8338SOL    HW136650   4.466   0.063   7.921 -0.4352 -0.5123 -0.7287
 8338SOL    HW236651   4.506   4.693   7.827  2.1091 -0.5709  0.6481
 8339SOL     OW36652   2.500   0.963   5.344  0.3924  0.2827  0.2033
 8339SOL    HW136653   2.579   0.911   5.361  1.5674  2.0329  0.0238
 8339SOL    HW236654   2.448   0.901   5.291  1.0532  0.1312 -0.2602
 8340SOL     OW36655   2.983   4.422   9.843 -0.0544 -0.4959 -0.0493
 8340SOL    HW136656   3.046   4.370   9.893  0.2948 -1.7401 -1.8096
 8340SOL    HW236657   2.928   4.454   9.915  0.4324  1.5708 -0.5815
 8341SOL     OW36658   4.037   0.425  12.837 -0.5968 -0.0744 -0.0124
 8341SOL    HW136659   3.946   0.409  12.810  0.1607  1.5147 -3.5355
 8341SOL    HW236660   4.055   0.476  12.757  2.5405  0.8938  1.3147
 8342SOL     OW36661   2.369   4.465   5.018  0.7680  0.1350  0.3139
 8342SOL    HW136662   2.348   4.513   4.937  1.1934  0.1482  0.2094
 8342SOL    HW236663   2.306   4.394   5.006  1.8351 -0.5438 -1.4417
 8343SOL     OW36664   2.139   2.403   8.226 -0.3924  0.1318  0.0915
 8343SOL    HW136665   2.212   2.423   8.284  0.0223  0.0635 -0.4042
 8343SOL    HW236666   2.186   2.370   8.149  0.3168 -0.2262  0.6809
 8344SOL     OW36667   2.093   4.486   8.849  0.1224 -0.2054 -0.1446
 8344SOL    HW136668   2.013   4.482   8.901 -0.1653 -1.2840 -0.6626
 8344SOL    HW236669   2.111   4.393   8.833 -2.3351 -0.2280 -2.8844
 8345SOL     OW36670   4.195   1.668   6.560  0.0891  0.1108  0.2848
 8345SOL    HW136671   4.198   1.645   6.468 -0.4881 -0.8628  0.5134
 8345SOL    HW236672   4.136   1.595   6.579 -0.3346  0.2235 -0.6356
 8346SOL     OW36673   2.550   0.532   4.887 -0.0345 -0.1650 -0.0674
 8346SOL    HW136674   2.545   0.454   4.832 -3.0294 -1.5465  2.1882
 8346SOL    HW236675   2.600   0.595   4.834 -1.2428  1.5519  0.8461
 8347SOL     OW36676   4.570   4.093   6.505  0.2747 -0.4838 -0.0727
 8347SOL    HW136677   4.594   4.080   6.413 -0.2065 -1.1905 -0.0983
 8347SOL    HW236678   4.636   4.158   6.530  0.1648 -0.6066  0.5273
 8348SOL     OW36679   1.056   0.120   5.979 -0.6215 -0.2200 -0.7164
 8348SOL    HW136680   1.055   0.211   5.952  1.6867 -0.0299 -0.1032
 8348SOL    HW236681   1.138   0.080   5.949 -0.9147 -0.3111 -1.4018
 8349SOL     OW36682   0.721   0.260   4.970  0.2961  0.2488 -0.5623
 8349SOL    HW136683   0.789   0.239   4.907  0.4977  1.4730 -0.7485
 8349SOL    HW236684   0.654   0.257   4.901  0.1638 -0.8861 -0.3792
 8350SOL     OW36685   3.536   2.133   8.021 -0.0337  0.3600 -0.4071
 8350SOL    HW136686   3.617   2.179   8.043  0.7909 -0.7344 -1.1513
 8350SOL    HW236687   3.533   2.062   8.084  0.4769 -0.6696 -1.5505
 8351SOL     OW36688   4.582   4.540  11.221  0.0701 -0.1217 -0.3000
 8351SOL    HW136689   4.587   4.635  11.217  0.1221 -0.0424  1.7153
 8351SOL    HW236690   4.637   4.523  11.298  0.7124 -1.5602 -1.0728
 8352SOL     OW36691   3.039   2.965  10.898 -0.0676  0.4163 -0.7438
 8352SOL    HW136692   3.011   3.012  10.977  0.2224  1.4711 -1.2673
 8352SOL    HW236693   3.120   3.012  10.877 -0.6984  1.5919 -0.5166
 8353SOL     OW36694   1.411   3.481  16.898  0.2717 -0.3935  0.5089
 8353SOL    HW136695   1.343   3.548  16.902  0.4126 -0.1877 -0.7619
 8353SOL    HW236696   1.475   3.526  16.843 -0.0600 -3.0731 -2.0728
 8354SOL     OW36697   1.782   0.848   4.792  0.8787  0.2417  0.0661
 8354SOL    HW136698   1.876   0.835   4.787  0.9253  0.6434 -0.0287
 8354SOL    HW236699   1.780   0.942   4.775 -0.8546  0.0291 -0.8939
 8355SOL     OW36700   0.344   4.656   8.209  0.0229  0.0612  0.1691
 8355SOL    HW136701   0.372   4.632   8.297 -0.6457  0.5579  0.5097
 8355SOL    HW236702   0.356   4.578   8.154 -0.1080  1.2188 -1.4941
 8356SOL     OW36703   2.048   1.137   6.768 -0.1281  0.1948  0.0357
 8356SOL    HW136704   2.124   1.179   6.727  0.7397 -1.3194  0.0668
 8356SOL    HW236705   2.081   1.143   6.858 -0.6993  1.0598  0.1758
 8357SOL     OW36706   2.378   4.647   4.533 -0.1515 -0.4726  0.2143
 8357SOL    HW136707   2.415   4.700   4.463 -1.8914 -0.9694 -1.0890
 8357SOL    HW236708   2.361   4.567   4.484  0.0148  0.2475 -1.0000
 8358SOL     OW36709   1.389   0.285   3.975  0.2704  0.1357 -0.8271
 8358SOL    HW136710   1.301   0.263   3.945 -1.2068  1.3058  2.6295
 8358SOL    HW236711   1.389   0.233   4.055 -1.1500  1.0974 -0.2039
 8359SOL     OW36712   1.191   0.646  16.787 -0.0386  0.3973 -0.1316
 8359SOL    HW136713   1.144   0.724  16.814 -0.3120  0.0358  0.4326
 8359SOL    HW236714   1.252   0.644  16.860  0.7993 -0.2864 -0.8494
 8360SOL     OW36715   0.399   4.344   4.607 -0.6881 -0.1395 -0.3974
 8360SOL    HW136716   0.346   4.286   4.552 -0.3851 -1.2562  0.4766
 8360SOL    HW236717   0.342   4.421   4.600  0.3075  0.6686  0.4358
 8361SOL     OW36718   3.594   1.649   3.951 -0.1199  0.5875  0.2744
 8361SOL    HW136719   3.681   1.637   3.913 -0.9385 -0.7110 -1.1660
 8361SOL    HW236720   3.610   1.698   4.032 -0.0418  1.3322 -0.1938
 8362SOL     OW36721   0.482   0.976   6.465  0.8704 -0.4664 -0.0744
 8362SOL    HW136722   0.391   0.977   6.495  0.2810 -4.4002 -1.7822
 8362SOL    HW236723   0.474   1.072   6.463 -0.6363 -0.6309 -2.9527
 8363SOL     OW36724   1.737   4.414   4.351  0.2619  0.1286  0.1797
 8363SOL    HW136725   1.715   4.476   4.421  0.2045  1.2193 -0.8010
 8363SOL    HW236726   1.652   4.370   4.355  0.5861 -0.6528 -1.3318
 8364SOL     OW36727   0.808   2.515   5.612 -0.4367 -0.0288  0.2569
 8364SOL    HW136728   0.886   2.463   5.591 -0.5573  0.1745 -0.6852
 8364SOL    HW236729   0.824   2.593   5.559 -0.5003 -0.2778 -0.1294
 8365SOL     OW36730   0.966   3.218   4.077 -0.6810 -0.0560  0.1758
 8365SOL    HW136731   0.969   3.243   3.984 -0.6155 -1.9847 -0.3377
 8365SOL    HW236732   0.876   3.244   4.096 -0.6604 -1.6036  2.2955
 8366SOL     OW36733   4.129   4.364   8.496  0.1350  0.0055 -0.3604
 8366SOL    HW136734   4.218   4.335   8.513  1.0768  2.5619 -1.0874
 8366SOL    HW236735   4.127   4.379   8.401 -1.5950 -1.3245 -0.5481
 8367SOL     OW36736   4.497   2.699   6.528  0.0385 -0.2638 -0.0425
 8367SOL    HW136737   4.525   2.780   6.570 -0.8034  0.8516 -1.5900
 8367SOL    HW236738   4.476   2.719   6.436 -0.8617  1.1326  0.4545
 8368SOL     OW36739   3.768   1.264   3.919 -0.8153 -0.9134  0.2559
 8368SOL    HW136740   3.842   1.315   3.886 -1.6718  0.5761  0.6472
 8368SOL    HW236741   3.740   1.228   3.835  0.6741 -2.4299  0.4251
 8369SOL     OW36742   1.585   3.120   2.386 -0.0546  0.2827  0.3185
 8369SOL    HW136743   1.628   3.148   2.466 -0.5811 -0.3227  0.8108
 8369SOL    HW236744   1.621   3.033   2.371  0.5594  0.9918 -2.3054
 8370SOL     OW36745   2.054   1.550  16.327 -0.0420  0.1393  0.0131
 8370SOL    HW136746   2.118   1.543  16.399 -0.7958 -1.9565  0.4715
 8370SOL    HW236747   2.100   1.515  16.251  1.5760  0.1245  0.9866
 8371SOL     OW36748   4.157   2.166   8.340  0.3318 -0.5894 -0.2811
 8371SOL    HW136749   4.225   2.108   8.376  1.2822  0.8932  0.3376
 8371SOL    HW236750   4.086   2.135   8.395 -0.2407  0.2849 -0.5346
 8372SOL     OW36751   0.715   2.319   2.138  0.3085 -0.4109 -0.6274
 8372SOL    HW136752   0.732   2.362   2.054 -0.5915  0.0862 -0.5574
 8372SOL    HW236753   0.775   2.245   2.139  0.5515 -0.2652 -3.7931
 8373SOL     OW36754   3.373   4.231  15.219 -1.2664 -0.7054 -0.4959
 8373SOL    HW136755   3.420   4.177  15.283 -2.3287 -0.0957  0.7964
 8373SOL    HW236756   3.331   4.163  15.167  0.5266 -2.0217 -0.2391
 8374SOL     OW36757   4.735   0.796   8.713 -0.3702 -0.2523  0.4158
 8374SOL    HW136758   4.714   0.735   8.784  2.1226 -1.0183  0.4896
 8374SOL    HW236759   0.029   0.735   8.646 -1.5836 -2.2060  1.6221
 8375SOL     OW36760   3.431   1.072   7.875 -0.5145  0.1947 -0.0988
 8375SOL    HW136761   3.347   1.110   7.903 -0.4121  0.6557 -0.4309
 8375SOL    HW236762   3.458   1.036   7.960  2.1519 -0.2588 -1.1324
 8376SOL     OW36763   1.160   4.724   6.350 -0.5432 -0.1661 -0.4575
 8376SOL    HW136764   1.174   4.649   6.407 -2.4105 -0.6897 -0.6874
 8376SOL    HW236765   1.180   0.057   6.410 -1.9197  0.5462 -0.8519
 8377SOL     OW36766   3.423   2.032  11.045 -0.3210  0.2204  0.4790
 8377SOL    HW136767   3.468   1.950  11.025 -0.4100  1.0331 -3.0495
 8377SOL    HW236768   3.501   2.088  11.049 -2.3195  3.0806 -0.1344
 8378SOL     OW36769   3.414   2.471   5.917 -0.0570  0.1357 -0.2951
 8378SOL    HW136770   3.503   2.476   5.882 -0.1009  0.2503 -0.3904
 8378SOL    HW236771   3.435   2.421   5.996  3.9625  0.5294 -1.1375
 8379SOL     OW36772   2.780   4.403   2.129  1.0091 -0.4992  0.0078
 8379SOL    HW136773   2.821   4.382   2.045  1.4671  0.3796  0.0185
 8379SOL    HW236774   2.807   4.494   2.134  1.2264 -0.6175  1.0347
 8380SOL     OW36775   0.444   0.252   4.092 -0.2261 -0.1339 -0.0079
 8380SOL    HW136776   0.398   0.314   4.035  0.3326  0.3036  0.0219
 8380SOL    HW236777   0.403   0.167   4.075 -0.9896 -0.0398  1.3509
 8381SOL     OW36778   1.059   4.168   8.423 -0.6202 -0.1823 -0.3267
 8381SOL    HW136779   1.065   4.251   8.376  0.6512 -0.6604 -1.0165
 8381SOL    HW236780   1.056   4.104   8.352  0.2373 -0.0569 -0.4717
 8382SOL     OW36781   2.686   4.704   9.846  0.0305  0.3912 -0.3276
 8382SOL    HW136782   2.712   4.730   9.758  0.0372  0.8838 -0.1814
 8382SOL    HW236783   2.775   4.680   9.871 -0.1534  1.7078  1.5689
 8383SOL     OW36784   2.533   3.056   4.118  0.9037 -0.7646  0.2315
 8383SOL    HW136785   2.564   2.966   4.131 -1.4873 -1.4968  0.8391
 8383SOL    HW236786   2.473   3.034   4.047  3.5001  0.6603 -2.3858
 8384SOL     OW36787   3.844   4.225   9.755 -0.3644  0.1480  0.4657
 8384SOL    HW136788   3.903   4.274   9.697  2.5443 -1.7751  1.8957
 8384SOL    HW236789   3.891   4.224   9.838  0.4559 -1.1080 -0.0203
 8385SOL     OW36790   0.233   1.122   7.344 -0.2429  0.5415  0.1167
 8385SOL    HW136791   0.296   1.193   7.349 -0.3385  0.4698  2.2615
 8385SOL    HW236792   0.239   1.105   7.250  1.8167  0.3012  0.2988
 8386SOL     OW36793   1.131   0.109   2.355 -0.0222 -0.4704  0.1175
 8386SOL    HW136794   1.063   0.140   2.295  1.0527 -2.2225 -2.0036
 8386SOL    HW236795   1.208   0.111   2.298 -1.0885  0.5702 -1.3032
 8387SOL     OW36796   4.271   0.321  14.487 -0.7720 -0.2765  0.3371
 8387SOL    HW136797   4.348   0.267  14.504 -0.0619  0.3423 -0.9777
 8387SOL    HW236798   4.304   0.390  14.430 -1.4255  0.3630  0.7371
 8388SOL     OW36799   0.009   0.900   6.517  0.3900  0.2532 -0.5042
 8388SOL    HW136800   4.731   0.923   6.426  2.0073  1.1033 -0.5772
 8388SOL    HW236801   0.082   0.952   6.551  0.5964 -0.4515  0.1428
 8389SOL     OW36802   1.099   2.845   3.308 -0.0167 -0.4187 -0.5269
 8389SOL    HW136803   1.014   2.805   3.287  0.1524 -1.4467  0.7371
 8389SOL    HW236804   1.068   2.929   3.342 -1.1036 -0.4926 -1.3001
 8390SOL     OW36805   1.676   3.247   0.593 -0.5300 -0.1815 -0.7311
 8390SOL    HW136806   1.759   3.199   0.601 -0.5436 -0.7472 -3.9277
 8390SOL    HW236807   1.608   3.180   0.593  0.1204 -0.8429  1.8422
 8391SOL     OW36808   2.813   1.550   5.249 -0.3407  0.4020 -0.6067
 8391SOL    HW136809   2.777   1.631   5.286  1.0046  1.7281 -2.2421
 8391SOL    HW236810   2.744   1.509   5.196 -1.7657 -0.4548  1.9384
 8392SOL     OW36811   0.558   3.250   1.455  0.3064  0.2553 -0.4487
 8392SOL    HW136812   0.645   3.281   1.432  0.0992  1.4883  0.4279
 8392SOL    HW236813   0.549   3.279   1.546  1.9702  0.7039 -0.4414
 8393SOL     OW36814   0.827   2.455  14.634  0.0570  0.5010  0.2019
 8393SOL    HW136815   0.866   2.370  14.613 -0.7676  0.6962 -2.0643
 8393SOL    HW236816   0.901   2.515  14.648  1.0553 -1.3789  2.9683
 8394SOL     OW36817   4.312   1.971   2.566 -0.7541 -0.3436 -0.4784
 8394SOL    HW136818   4.305   1.984   2.472 -0.0319 -0.2198 -0.5216
 8394SOL    HW236819   4.395   2.017   2.584 -1.0503 -0.9941  2.5251
 8395SOL     OW36820   1.430   1.654   2.613 -0.3671  0.2365  0.4763
 8395SOL    HW136821   1.487   1.665   2.689  1.4145  0.6631 -0.9197
 8395SOL    HW236822   1.360   1.718   2.628 -2.0715 -1.7552  0.9290
 8396SOL     OW36823   4.632   2.378  16.075 -0.0960  0.4148  0.6425
 8396SOL    HW136824   4.673   2.459  16.043  0.8137 -1.1679 -2.1338
 8396SOL    HW236825   4.653   2.384  16.168  0.2400  0.1395  0.5823
 8397SOL     OW36826   2.323   0.010  12.155  0.0730 -0.1494 -0.2784
 8397SOL    HW136827   2.380   0.087  12.152 -0.1008  0.0115  0.5233
 8397SOL    HW236828   2.242   0.059  12.143  0.2807  0.9876  2.9563
 8398SOL     OW36829   2.980   4.661   7.539  0.4146  0.0891  0.2013
 8398SOL    HW136830   3.047   4.696   7.598  1.1433  0.5124 -0.8817
 8398SOL    HW236831   2.929   4.735   7.506 -1.1530 -1.0030  0.1397
 8399SOL     OW36832   1.789   2.640   2.149  0.1561 -0.4073  0.4250
 8399SOL    HW136833   1.822   2.565   2.100 -2.0913 -2.1299  1.5372
 8399SOL    HW236834   1.868   2.658   2.198  0.5559 -0.0847 -0.3481
 8400SOL     OW36835   3.014   2.764   1.586  0.0098  0.7296 -0.2379
 8400SOL    HW136836   3.101   2.754   1.624  0.3820  2.8906 -0.5209
 8400SOL    HW236837   2.995   2.670   1.574 -0.1820  0.6755  0.4464
 8401SOL     OW36838   4.016   4.094   4.463 -0.0222 -0.0933 -0.0329
 8401SOL    HW136839   3.993   4.027   4.528 -0.8435  2.3680  2.2097
 8401SOL    HW236840   3.950   4.078   4.395 -0.1258 -0.0674  0.0621
 8402SOL     OW36841   0.496   3.192   2.910 -0.3510  0.3063  0.1506
 8402SOL    HW136842   0.473   3.099   2.900 -0.5979  0.3089  0.7348
 8402SOL    HW236843   0.510   3.199   3.004  2.6484 -0.1967 -0.2557
 8403SOL     OW36844   2.331   0.175   1.192 -0.2272 -0.0487  0.1248
 8403SOL    HW136845   2.326   0.084   1.163 -1.2283  0.2095 -0.4995
 8403SOL    HW236846   2.297   0.170   1.281  2.3175 -1.7822  0.9870
 8404SOL     OW36847   2.412   2.235  16.543 -0.2602 -0.4168  0.7726
 8404SOL    HW136848   2.345   2.194  16.489  1.9308 -2.9783 -0.0037
 8404SOL    HW236849   2.423   2.319  16.499  0.5967 -1.6494 -1.3328
 8405SOL     OW36850   1.170   0.050   6.636  0.7098  0.2910 -0.0423
 8405SOL    HW136851   1.118   4.710   6.653  1.4039 -0.1198  0.2248
 8405SOL    HW236852   1.130   0.121   6.685  1.5863  1.2051 -0.6319
 8406SOL     OW36853   3.724   4.238   0.947 -0.1301 -0.2323 -0.2408
 8406SOL    HW136854   3.631   4.221   0.965 -0.6154  2.0628 -0.6292
 8406SOL    HW236855   3.741   4.331   0.961  0.8805 -0.1339 -2.1578
 8407SOL     OW36856   0.412   4.663  13.656  0.1799  0.0867 -0.1019
 8407SOL    HW136857   0.390   4.607  13.581 -1.5557  1.3870 -0.5687
 8407SOL    HW236858   0.377   0.010  13.626 -0.2116  0.1062  0.4170
 8408SOL     OW36859   4.570   1.849  15.246 -0.2897 -0.1438 -0.0468
 8408SOL    HW136860   4.500   1.893  15.295 -1.0708  0.2111 -1.4803
 8408SOL    HW236861   4.521   1.770  15.221  0.1055 -0.1877 -0.6781
 8409SOL     OW36862   2.415   1.240   8.075  0.4369 -0.3990 -0.2415
 8409SOL    HW136863   2.419   1.239   8.171  1.2326  0.7181 -0.2631
 8409SOL    HW236864   2.492   1.190   8.047  1.2006 -1.0031  2.9292
 8410SOL     OW36865   3.126   1.282   2.677 -0.1743  0.6423 -0.4122
 8410SOL    HW136866   3.209   1.328   2.669  0.9036 -1.3339 -0.5244
 8410SOL    HW236867   3.075   1.335   2.616 -1.0973  0.2992  0.0664
 8411SOL     OW36868   0.895   3.099   7.333 -0.0034 -0.4968 -0.5907
 8411SOL    HW136869   0.937   3.013   7.340 -1.0925 -1.3689 -4.5381
 8411SOL    HW236870   0.963   3.137   7.277  0.3499  1.1752  0.9893
 8412SOL     OW36871   1.144   3.762   7.353 -0.0060 -0.4330 -0.4347
 8412SOL    HW136872   1.058   3.802   7.337  0.8902  1.1468 -1.3537
 8412SOL    HW236873   1.124   3.717   7.435  0.1968 -1.7092 -1.0967
 8413SOL     OW36874   2.239   2.454   5.065  0.1191 -0.0571 -0.1082
 8413SOL    HW136875   2.250   2.406   4.983 -0.7397  1.1164 -0.9198
 8413SOL    HW236876   2.178   2.522   5.037 -0.3225  0.0594  1.1725
 8414SOL     OW36877   1.366   4.165  13.415 -0.0375 -0.2015 -0.3500
 8414SOL    HW136878   1.442   4.107  13.414  1.1386  1.3539  1.4387
 8414SOL    HW236879   1.318   4.137  13.493 -1.0310 -1.3702 -1.3617
 8415SOL     OW36880   3.612   1.816   2.185 -0.2371  0.1320  0.5678
 8415SOL    HW136881   3.545   1.883   2.169 -0.4066 -0.0883  0.3646
 8415SOL    HW236882   3.677   1.832   2.117  0.9195  0.8998  1.8517
 8416SOL     OW36883   2.034   4.232   3.273  0.5963 -0.3027 -0.0499
 8416SOL    HW136884   2.045   4.317   3.316  1.8707  0.6542 -2.3035
 8416SOL    HW236885   2.095   4.167   3.308  0.8076  0.2748  0.6623
 8417SOL     OW36886   3.924   3.174   4.168  0.4628  0.1078 -0.0384
 8417SOL    HW136887   4.019   3.165   4.167  0.3973 -0.4196 -0.9456
 8417SOL    HW236888   3.916   3.251   4.113 -0.3024  0.0655  0.0061
 8418SOL     OW36889   2.217   0.433  17.603  0.0697 -0.0278 -0.1949
 8418SOL    HW136890   2.198   0.474  17.519 -3.4672  0.5532  0.8820
 8418SOL    HW236891   2.312   0.441  17.595  0.0712 -0.4083 -0.5470
 8419SOL     OW36892   2.483   2.354   7.495  0.2754  0.8659 -0.4616
 8419SOL    HW136893   2.559   2.367   7.552 -2.1426  0.3756  2.8054
 8419SOL    HW236894   2.440   2.277   7.531 -0.9361  1.4992 -0.5491
 8420SOL     OW36895   2.801   0.835   0.604 -0.3043  0.2550  0.1585
 8420SOL    HW136896   2.756   0.884   0.672  3.0492  2.1490  1.0050
 8420SOL    HW236897   2.772   0.881   0.525 -1.7631  1.1066  1.1927
 8421SOL     OW36898   3.863   4.554   9.570  0.5254  0.1054  0.1261
 8421SOL    HW136899   3.935   4.496   9.595 -0.4193 -1.7577 -1.5213
 8421SOL    HW236900   3.839   4.605   9.647  0.8373  0.1764  0.1756
 8422SOL     OW36901   2.987   1.402   5.366  0.1661  0.7078  0.0233
 8422SOL    HW136902   3.063   1.424   5.311  0.0552  0.2600 -0.3100
 8422SOL    HW236903   2.920   1.464   5.339  0.0558 -0.1436 -1.6507
 8423SOL     OW36904   2.882   2.055   8.318 -0.1110  0.2507 -0.1062
 8423SOL    HW136905   2.879   2.086   8.408  1.8921 -2.7605  1.0043
 8423SOL    HW236906   2.870   1.961   8.332 -1.1781  0.4628  0.4261
 8424SOL     OW36907   1.626   1.244  14.282  0.5611 -0.0993  0.5732
 8424SOL    HW136908   1.579   1.167  14.249 -1.7201  0.9280  1.4489
 8424SOL    HW236909   1.560   1.303  14.317  0.1820  0.3408 -0.9082
 8425SOL     OW36910   0.810   2.964   5.607 -0.1014  0.1618 -0.3441
 8425SOL    HW136911   0.765   2.909   5.543 -0.2450  0.2530 -0.3225
 8425SOL    HW236912   0.751   2.971   5.682 -0.4988  2.4026 -0.8670
 8426SOL     OW36913   2.844   0.790  10.649  0.4232 -0.2135  0.0331
 8426SOL    HW136914   2.807   0.876  10.671 -1.8129 -1.3723  0.7576
 8426SOL    HW236915   2.912   0.793  10.716  0.1044  1.2949  0.3093
 8427SOL     OW36916   3.599   2.705   1.153  0.8636 -0.3637  0.3645
 8427SOL    HW136917   3.556   2.749   1.227 -0.3563 -3.6284  1.5953
 8427SOL    HW236918   3.690   2.735   1.161 -0.0570  1.9087  2.4925
 8428SOL     OW36919   2.888   4.023  11.142  0.3421 -0.3478 -0.1163
 8428SOL    HW136920   2.834   4.101  11.151 -0.1824 -0.7435  0.1331
 8428SOL    HW236921   2.832   3.961  11.188 -0.8160  1.9253  1.5318
 8429SOL     OW36922   2.668   2.899   6.220 -0.0520  0.2627 -0.0415
 8429SOL    HW136923   2.684   2.969   6.157 -2.8350 -1.0166 -2.1819
 8429SOL    HW236924   2.743   2.840   6.212 -0.3859  0.2741 -3.0234
 8430SOL     OW36925   4.396   4.634   4.014  0.2987  0.0631  0.4993
 8430SOL    HW136926   4.435   4.599   3.934 -1.7851  1.4363 -1.1196
 8430SOL    HW236927   4.313   4.587   4.012  0.9381 -0.9505 -2.6237
 8431SOL     OW36928   2.330   1.443   6.381 -0.1484 -0.3097  0.7381
 8431SOL    HW136929   2.342   1.538   6.380  0.8067 -0.4112  2.5636
 8431SOL    HW236930   2.311   1.440   6.287  0.5758 -0.5494  0.5938
 8432SOL     OW36931   0.095   4.484  13.205 -0.2336  0.1054  0.5403
 8432SOL    HW136932   0.155   4.410  13.211 -2.3165 -1.6968 -0.4809
 8432SOL    HW236933   0.024   4.457  13.264 -2.5995  0.9517 -1.9120
 8433SOL     OW36934   1.876   2.669  14.024  0.6695  0.3577 -0.2778
 8433SOL    HW136935   1.836   2.694  14.107 -1.1964 -0.0124 -1.0495
 8433SOL    HW236936   1.952   2.726  14.021  0.3599  0.9319  2.6635
 8434SOL     OW36937   3.168   2.563   6.978 -0.1329 -0.2274  0.2993
 8434SOL    HW136938   3.108   2.504   6.933 -0.9429 -0.0759  1.1865
 8434SOL    HW236939   3.127   2.549   7.063 -0.2458  0.0547  0.2914
 8435SOL     OW36940   1.999   2.858   7.071 -0.3355 -0.2324  0.2812
 8435SOL    HW136941   2.060   2.883   7.140  1.5342  2.6696 -2.4580
 8435SOL    HW236942   1.946   2.938   7.072  2.0212  1.3058  1.3985
 8436SOL     OW36943   1.418   2.206  15.932  0.2071 -0.2178 -0.4507
 8436SOL    HW136944   1.465   2.123  15.936 -0.3966 -0.5200  0.3970
 8436SOL    HW236945   1.334   2.171  15.902  0.7053  0.5429 -2.8024
 8437SOL     OW36946   2.728   2.847   8.566 -0.1081  0.2438  0.2020
 8437SOL    HW136947   2.697   2.822   8.479  0.7090  1.1836 -0.3555
 8437SOL    HW236948   2.675   2.784   8.615 -0.5790 -1.1795 -2.1173
 8438SOL     OW36949   0.802   0.440   7.334  0.1772 -0.2490 -0.5892
 8438SOL    HW136950   0.872   0.376   7.322  0.5225  0.2375 -1.1772
 8438SOL    HW236951   0.828   0.518   7.284 -0.3679  2.0675  2.7353
 8439SOL     OW36952   3.807   1.231   7.234  0.2211 -0.0024  0.0221
 8439SOL    HW136953   3.739   1.271   7.288 -1.0537 -0.5234 -1.1722
 8439SOL    HW236954   3.867   1.212   7.305  0.1620  1.9487  0.5960
 8440SOL     OW36955   1.955   3.385   2.597 -0.2863  0.9143 -0.0908
 8440SOL    HW136956   1.915   3.471   2.582 -0.1658  1.5017  2.8795
 8440SOL    HW236957   2.006   3.392   2.678 -0.6414  4.2594 -0.1531
 8441SOL     OW36958   0.104   3.175  13.669 -0.5970 -0.2743 -0.5328
 8441SOL    HW136959   0.028   3.171  13.610 -0.3763  0.2487 -0.8595
 8441SOL    HW236960   0.186   3.163  13.621 -0.5666 -0.8789 -0.3220
 8442SOL     OW36961   0.152   1.551   8.792 -0.0490  0.1863 -0.0419
 8442SOL    HW136962   0.211   1.485   8.830 -0.9651 -0.3507  0.4385
 8442SOL    HW236963   0.165   1.611   8.866  1.4895  1.4581 -1.3516
 8443SOL     OW36964   3.259   3.710  15.669 -0.1363  0.0711  0.1563
 8443SOL    HW136965   3.217   3.795  15.659  0.7756  0.1997 -2.7519
 8443SOL    HW236966   3.294   3.719  15.757  0.2587  0.4640 -0.0431
 8444SOL     OW36967   2.931   4.354   6.195  0.3243  0.5276 -0.4107
 8444SOL    HW136968   3.012   4.325   6.236  0.0826 -0.6046 -0.7297
 8444SOL    HW236969   2.930   4.449   6.196  0.3516  0.5315 -0.8970
 8445SOL     OW36970   0.659   3.329  14.294 -0.2793 -0.1045  0.3376
 8445SOL    HW136971   0.599   3.383  14.345  0.0762 -0.2285  0.8843
 8445SOL    HW236972   0.726   3.317  14.361  0.4531 -2.6078 -0.8349
 8446SOL     OW36973   0.668   4.559   5.212 -0.0355  0.2213  0.4250
 8446SOL    HW136974   0.738   4.506   5.175 -0.9625 -0.1219 -0.8521
 8446SOL    HW236975   0.644   4.495   5.278 -2.0743  0.7310  0.1813
 8447SOL     OW36976   0.887   1.945  14.547  0.0865 -0.1746  0.4396
 8447SOL    HW136977   0.795   1.925  14.528  0.0229 -0.0339  0.5933
 8447SOL    HW236978   0.919   1.872  14.495 -0.8112  0.8765 -1.5853
 8448SOL     OW36979   2.748   1.364   2.716  0.1028  0.0345  0.1907
 8448SOL    HW136980   2.823   1.388   2.662  0.2011 -0.4392  0.1123
 8448SOL    HW236981   2.697   1.442   2.696  2.3258  1.2341 -0.7834
 8449SOL     OW36982   3.051   0.492   9.153  0.7094 -0.1692  0.3763
 8449SOL    HW136983   3.104   0.465   9.229 -0.9881 -0.2750  1.5214
 8449SOL    HW236984   3.116   0.540   9.102  0.4647 -0.8243 -0.5415
 8450SOL     OW36985   4.011   1.708  16.257  0.4242 -0.8536 -0.5620
 8450SOL    HW136986   4.073   1.655  16.307  1.1603  1.4893  1.0010
 8450SOL    HW236987   4.043   1.795  16.282  0.3425 -0.9290 -0.1949
 8451SOL     OW36988   3.365   1.162  13.365 -0.4293  0.0558 -0.5471
 8451SOL    HW136989   3.434   1.177  13.431 -2.4644  0.8488  1.4012
 8451SOL    HW236990   3.402   1.200  13.286 -0.3886 -0.8989 -0.9849
 8452SOL     OW36991   1.750   1.902   6.706  0.2567 -0.1983  0.2436
 8452SOL    HW136992   1.711   1.989   6.708  0.6783  0.0832 -2.9623
 8452SOL    HW236993   1.674   1.848   6.730 -0.8213  0.5005 -1.5267
 8453SOL     OW36994   3.844   0.714   8.139  0.1870  0.5918  0.5873
 8453SOL    HW136995   3.865   0.728   8.046 -0.7621 -0.9972  0.1352
 8453SOL    HW236996   3.837   0.801   8.178  2.2345  0.2465  1.7240
 8454SOL     OW36997   0.540   4.190   7.218 -0.1123  0.1060  0.4275
 8454SOL    HW136998   0.535   4.252   7.290 -2.0374  2.7051 -1.9688
 8454SOL    HW236999   0.464   4.219   7.168  0.7833 -1.5098 -1.8708
 8455SOL     OW37000   0.428   0.055  10.847 -0.4189  0.0983  0.1874
 8455SOL    HW137001   0.392   4.707  10.871  0.0705  0.1727  1.1669
 8455SOL    HW237002   0.469   0.086  10.928 -0.0392 -1.2263  0.5000
 8456SOL     OW37003   0.682   2.077   8.811 -0.2103  0.2500 -0.4261
 8456SOL    HW137004   0.628   2.013   8.858 -2.3044  3.3002  1.2487
 8456SOL    HW237005   0.617   2.117   8.754 -1.2081  0.3618  0.8057
 8457SOL     OW37006   3.939   2.374  17.652 -0.1729 -0.1019 -0.2851
 8457SOL    HW137007   3.877   2.345  17.720  0.1425  0.2052  0.1290
 8457SOL    HW237008   3.950   2.464  17.681 -1.3623  0.0217 -0.2092
 8458SOL     OW37009   0.545   0.656  14.364 -0.3244 -0.1648  0.5868
 8458SOL    HW137010   0.536   0.747  14.335  0.7161 -0.4440 -0.5828
 8458SOL    HW237011   0.573   0.620  14.280 -1.5844 -2.0159  0.9718
 8459SOL     OW37012   0.337   0.479   7.060  0.5084 -0.7880  0.1272
 8459SOL    HW137013   0.423   0.470   7.102 -0.4965 -0.8340  2.1716
 8459SOL    HW237014   0.325   0.390   7.027 -3.4387  0.4469 -1.6428
 8460SOL     OW37015   0.762   1.573   3.297  0.1038  0.0569 -0.1468
 8460SOL    HW137016   0.820   1.573   3.374 -0.3144  0.6977  0.1675
 8460SOL    HW237017   0.805   1.510   3.238 -0.2345  1.1176 -1.5105
 8461SOL     OW37018   2.582   2.739   5.763  0.4100  0.1539  0.3461
 8461SOL    HW137019   2.671   2.773   5.751  1.3381 -2.2966  0.1413
 8461SOL    HW237020   2.580   2.698   5.849 -2.9081  0.0681  0.2056
 8462SOL     OW37021   1.901   3.999  17.487 -0.3544 -0.4614  0.3556
 8462SOL    HW137022   1.987   3.968  17.512 -0.5443  0.6126  2.3308
 8462SOL    HW237023   1.895   3.981  17.393  0.7854  0.3550  0.1234
 8463SOL     OW37024   1.162   4.147   5.194 -0.8828  0.2128  0.5712
 8463SOL    HW137025   1.117   4.196   5.125 -0.7254  1.7304  1.5472
 8463SOL    HW237026   1.233   4.210   5.207 -0.1831 -0.2229 -1.1752
 8464SOL     OW37027   1.390   3.242  17.519  0.5482  0.1748  0.2423
 8464SOL    HW137028   1.357   3.179  17.582 -0.2408 -0.9746 -1.3133
 8464SOL    HW237029   1.438   3.304  17.574  0.6095  0.2253  0.1321
 8465SOL     OW37030   1.610   1.475   3.796  0.2242  0.0965 -0.6470
 8465SOL    HW137031   1.655   1.522   3.866  0.9213  0.6507 -1.4784
 8465SOL    HW237032   1.520   1.501   3.815  0.4185 -1.1587  2.0243
 8466SOL     OW37033   2.347   1.709   6.326  0.3053 -0.1505  0.5037
 8466SOL    HW137034   2.391   1.777   6.276 -1.5521  2.5578  2.5979
 8466SOL    HW237035   2.275   1.757   6.367  1.1836  0.4784  1.2921
 8467SOL     OW37036   0.358   2.676   1.504 -0.0199 -0.4083 -0.2169
 8467SOL    HW137037   0.341   2.691   1.596 -0.4537 -0.9113 -0.2196
 8467SOL    HW237038   0.378   2.768   1.487 -2.0167 -0.0442 -0.6055
 8468SOL     OW37039   2.048   0.815   4.720 -0.0135  0.0591  0.2380
 8468SOL    HW137040   2.137   0.851   4.715  0.1164 -0.5128 -1.3223
 8468SOL    HW237041   2.067   0.734   4.768  0.5552  1.6098  2.6601
 8469SOL     OW37042   2.584   3.909   8.936  0.3171  0.1555  0.1215
 8469SOL    HW137043   2.535   3.851   8.879  3.0505 -3.0129  1.0245
 8469SOL    HW237044   2.657   3.853   8.963 -0.1857  0.3981  1.9992
 8470SOL     OW37045   2.737   0.939   2.092  0.3835 -0.1095  0.0442
 8470SOL    HW137046   2.805   0.872   2.083 -0.4187 -1.0746  1.0280
 8470SOL    HW237047   2.788   0.987   2.157 -2.2264  1.4569  0.9274
 8471SOL     OW37048   1.122   1.005  14.740 -0.8756 -0.2719  0.4457
 8471SOL    HW137049   1.074   1.071  14.789 -0.1588  0.7876 -0.2845
 8471SOL    HW237050   1.184   1.071  14.709 -0.7625  0.5821  2.4501
 8472SOL     OW37051   0.606   4.450   6.141  0.3462 -0.6873  0.6355
 8472SOL    HW137052   0.670   4.382   6.164  0.3361 -1.5232 -1.8469
 8472SOL    HW237053   0.655   4.515   6.090 -0.8201  0.6135  1.1755
 8473SOL     OW37054   0.022   3.511  16.909  0.0772 -0.0744  0.4313
 8473SOL    HW137055   0.028   3.515  17.004  0.9687 -0.5777  0.4034
 8473SOL    HW237056   4.715   3.429  16.888  0.2232  0.5376 -2.2949
 8474SOL     OW37057   4.658   0.751   4.435  0.3614  0.2831 -0.2365
 8474SOL    HW137058   4.665   0.794   4.520  1.8783  0.0224 -0.2299
 8474SOL    HW237059   4.587   0.796   4.390 -0.6773 -0.2125  0.9192
 8475SOL     OW37060   0.786   1.239   7.087 -0.5112  0.0199  0.1927
 8475SOL    HW137061   0.734   1.212   7.163 -1.6124 -0.1591 -0.6223
 8475SOL    HW237062   0.724   1.303   7.051  2.0015  2.8123  0.8112
 8476SOL     OW37063   4.000   3.928   3.725  0.1499 -0.2513 -0.2587
 8476SOL    HW137064   4.057   3.869   3.675  0.5098 -0.7296  0.7256
 8476SOL    HW237065   4.052   3.932   3.805 -0.8555  0.7458  0.3486
 8477SOL     OW37066   0.578   3.319   1.707 -0.2041 -0.5794 -0.1288
 8477SOL    HW137067   0.573   3.410   1.738  0.9380 -0.0939 -1.3825
 8477SOL    HW237068   0.671   3.312   1.726 -0.5485  1.4654  2.2617
 8478SOL     OW37069   2.053   1.904  15.941 -0.1090  0.0499  0.0278
 8478SOL    HW137070   2.090   1.970  15.883  0.7293 -1.5177 -1.2080
 8478SOL    HW237071   1.969   1.948  15.958  1.5840  2.1505  2.9374
 8479SOL     OW37072   3.749   1.113  15.063  0.0041  0.0383  0.2629
 8479SOL    HW137073   3.782   1.037  15.111 -0.1447  0.6248  1.3185
 8479SOL    HW237074   3.731   1.083  14.974 -2.5167  0.3764  0.6571
 8480SOL     OW37075   4.210   2.912  13.036 -0.3882  0.0974 -0.3330
 8480SOL    HW137076   4.287   2.860  13.059 -2.6800 -3.1368 -0.1207
 8480SOL    HW237077   4.238   2.988  13.087  0.8459  0.3946 -1.4213
 8481SOL     OW37078   0.857   4.369   4.269 -0.0860  0.1842 -0.3065
 8481SOL    HW137079   0.766   4.344   4.281 -0.6284  2.4517  0.2954
 8481SOL    HW237080   0.849   4.464   4.282  0.7243  0.1801  0.2024
 8482SOL     OW37081   2.996   0.826   9.351  0.3585 -0.1734 -0.0752
 8482SOL    HW137082   3.029   0.815   9.261 -0.7130  1.3884 -0.6637
 8482SOL    HW237083   3.022   0.916   9.368 -0.0773 -0.0109 -0.2477
 8483SOL     OW37084   3.251   0.046   4.833 -0.5105  0.4816 -0.5694
 8483SOL    HW137085   3.207   0.078   4.912  2.7229  0.8784  1.0897
 8483SOL    HW237086   3.323   4.731   4.870  0.2110  0.6655 -1.7191
 8484SOL     OW37087   1.206   2.716   8.967 -0.2196  0.0608 -0.3075
 8484SOL    HW137088   1.161   2.695   9.049 -0.9295  0.6935 -0.5347
 8484SOL    HW237089   1.202   2.810   8.981  3.4015  0.1423  0.1230
 8485SOL     OW37090   4.328   3.498   2.290 -0.5711 -0.1530 -0.1326
 8485SOL    HW137091   4.250   3.471   2.338 -1.0890  0.8971 -0.3684
 8485SOL    HW237092   4.353   3.412   2.258 -0.9093 -0.1438 -0.4211
 8486SOL     OW37093   3.068   0.719   1.605 -0.5383  0.1011 -0.3517
 8486SOL    HW137094   2.982   0.756   1.626  0.4120  0.5611  2.6666
 8486SOL    HW237095   3.048   0.676   1.522 -4.0352 -0.2740  0.6735
 8487SOL     OW37096   4.450   3.335   3.464 -0.4957 -0.3104 -0.6947
 8487SOL    HW137097   4.433   3.253   3.417 -0.6670 -1.9905  2.3636
 8487SOL    HW237098   4.490   3.301   3.544 -0.9631 -1.4254 -0.9296
 8488SOL     OW37099   0.894   3.541   6.506  0.6455 -0.1812  0.4229
 8488SOL    HW137100   0.894   3.584   6.591 -0.8907 -0.4255  0.5340
 8488SOL    HW237101   0.927   3.454   6.526  0.1241  0.0353  2.1810
 8489SOL     OW37102   2.182   0.391   7.770  0.0509 -0.0479  0.0500
 8489SOL    HW137103   2.133   0.441   7.834  1.5959  1.5529 -0.0088
 8489SOL    HW237104   2.153   0.302   7.792  0.8420 -0.6114 -1.1591
 8490SOL     OW37105   2.130   2.468   5.347 -0.1989  0.2478 -0.8988
 8490SOL    HW137106   2.191   2.401   5.378  0.3374  1.0450 -0.2306
 8490SOL    HW237107   2.192   2.512   5.289  2.5103 -1.8239  0.4360
 8491SOL     OW37108   2.896   1.852   5.984  0.2042  0.2373  0.1102
 8491SOL    HW137109   2.930   1.841   5.895 -0.2621  0.0788 -0.0466
 8491SOL    HW237110   2.893   1.947   5.982  0.0211  0.2037 -1.6047
 8492SOL     OW37111   0.411   4.449  17.402  0.3494 -0.2653 -0.1431
 8492SOL    HW137112   0.427   4.428  17.310  1.5968  1.8634 -0.4235
 8492SOL    HW237113   0.320   4.478  17.404  0.7512  1.1015 -1.5249
 8493SOL     OW37114   3.533   0.581  17.507  0.3333 -0.2005  0.8559
 8493SOL    HW137115   3.469   0.620  17.567 -3.5512 -2.0593 -2.0755
 8493SOL    HW237116   3.494   0.611  17.425  1.5916  1.8051  0.9844
 8494SOL     OW37117   3.066   0.867   0.890  0.4922  0.2150  0.2159
 8494SOL    HW137118   3.076   0.898   0.799  0.7009 -2.7833 -0.7651
 8494SOL    HW237119   3.157   0.856   0.919  0.9018 -0.8047 -1.4615
 8495SOL     OW37120   2.305   1.978  12.866 -0.1603  0.5385 -0.0269
 8495SOL    HW137121   2.346   2.044  12.922  1.0531 -1.6858  1.6970
 8495SOL    HW237122   2.226   2.026  12.840 -0.4341  0.2778  0.3236
 8496SOL     OW37123   2.534   4.612   4.803  0.5957  0.2517  0.0666
 8496SOL    HW137124   2.452   4.638   4.761 -0.1158 -0.0373  1.2696
 8496SOL    HW237125   2.589   4.589   4.728  1.6648  1.7124  0.3856
 8497SOL     OW37126   2.918   4.434   5.549  0.3545  0.2312  0.0215
 8497SOL    HW137127   2.965   4.351   5.558 -0.1332 -0.1321 -0.8425
 8497SOL    HW237128   2.942   4.495   5.619  0.8339 -1.3397  1.2183
 8498SOL     OW37129   3.398   1.697  14.666 -0.2504 -0.0049 -0.3211
 8498SOL    HW137130   3.320   1.672  14.717 -0.2552 -1.6289 -1.1359
 8498SOL    HW237131   3.459   1.712  14.738 -0.5397 -1.0901  0.1665
 8499SOL     OW37132   4.206   2.892   1.338  0.1282  0.4015 -0.3026
 8499SOL    HW137133   4.181   2.970   1.388 -0.0985  0.3061 -0.2679
 8499SOL    HW237134   4.192   2.822   1.402 -0.0030 -0.1308 -0.9130
 8500SOL     OW37135   3.845   0.327   2.073  0.0138  0.0968 -0.4055
 8500SOL    HW137136   3.759   0.290   2.095  0.0787  0.1648 -0.0363
 8500SOL    HW237137   3.879   0.264   2.009  1.0687 -0.5031  0.7402
 8501SOL     OW37138   3.705   0.610  13.359 -0.2453  0.0825  0.2320
 8501SOL    HW137139   3.632   0.550  13.343  0.2003 -0.6922  1.0783
 8501SOL    HW237140   3.679   0.681  13.300 -0.5933 -0.7994 -0.6774
 8502SOL     OW37141   4.468   1.519   3.969  0.4767  0.3172  0.3061
 8502SOL    HW137142   4.457   1.572   4.048  0.2102  0.3252  0.2637
 8502SOL    HW237143   4.487   1.587   3.903 -4.4559  1.0616 -0.3737
 8503SOL     OW37144   1.447   4.166  12.954 -0.4976 -0.0648 -0.0432
 8503SOL    HW137145   1.425   4.229  13.023 -2.0004 -0.0382 -0.5499
 8503SOL    HW237146   1.394   4.196  12.881 -0.8619 -0.9772 -0.1581
 8504SOL     OW37147   1.874   1.611   5.167  0.5391 -0.8312  0.6259
 8504SOL    HW137148   1.812   1.598   5.095  1.8430  2.4097 -1.0701
 8504SOL    HW237149   1.864   1.526   5.211  0.4812 -0.1121  1.9792
 8505SOL     OW37150   4.453   1.526   1.710  0.1814  0.2842 -0.4931
 8505SOL    HW137151   4.486   1.610   1.741  0.9155 -0.2296  0.1206
 8505SOL    HW237152   4.524   1.466   1.736  0.6452  1.5875  1.2925
 8506SOL     OW37153   0.393   3.672   0.409 -0.5381  0.0320  0.2151
 8506SOL    HW137154   0.449   3.648   0.336 -0.8762 -1.5606  0.4656
 8506SOL    HW237155   0.408   3.597   0.467  0.6950  1.9293  2.3213
 8507SOL     OW37156   3.551   3.062   3.163 -0.0701  0.0798 -0.0336
 8507SOL    HW137157   3.457   3.059   3.146 -0.3123 -0.2051  1.3770
 8507SOL    HW237158   3.561   3.122   3.237  0.7161  1.8689 -1.5718
 8508SOL     OW37159   2.890   0.990  13.235  0.0838  0.4083 -0.4233
 8508SOL    HW137160   2.974   0.945  13.234 -0.0527  0.0752  1.9782
 8508SOL    HW237161   2.893   1.023  13.146  0.1413 -0.2619 -0.6717
 8509SOL     OW37162   1.933   1.188   4.530 -0.4316 -0.0062 -0.5251
 8509SOL    HW137163   1.996   1.133   4.483 -0.2309 -0.4574  0.2783
 8509SOL    HW237164   1.993   1.245   4.580  0.2060 -0.1375 -1.1304
 8510SOL     OW37165   3.113   2.098  10.763 -0.4113  0.1275  0.3132
 8510SOL    HW137166   3.100   2.106  10.858 -2.3162  1.2539 -0.0543
 8510SOL    HW237167   3.191   2.042  10.757 -0.5648 -0.1909  1.3325
 8511SOL     OW37168   4.175   3.086  14.158  0.1574  0.3023  0.1948
 8511SOL    HW137169   4.192   3.144  14.084  1.4841  2.1770  1.9733
 8511SOL    HW237170   4.087   3.113  14.183  0.0257  0.5315 -0.5233
 8512SOL     OW37171   1.688   0.562   7.045  0.1366 -0.3421  0.2040
 8512SOL    HW137172   1.733   0.632   6.997 -0.7066  1.4210  1.9933
 8512SOL    HW237173   1.731   0.561   7.131  1.9040 -2.3951 -0.7013
 8513SOL     OW37174   4.582   1.878   9.286  0.2268  0.5613 -0.1341
 8513SOL    HW137175   4.584   1.789   9.253  0.7388  0.2079  0.8651
 8513SOL    HW237176   4.651   1.911   9.229  0.5966  1.4842  0.8415
 8514SOL     OW37177   1.938   2.930   4.520  0.1734 -0.1097  0.2100
 8514SOL    HW137178   1.925   3.024   4.509  3.2704  0.3884  0.6721
 8514SOL    HW237179   1.890   2.891   4.447 -0.2102  1.4807 -0.3933
 8515SOL     OW37180   0.139   0.699  12.034 -0.3227 -0.3930 -0.4772
 8515SOL    HW137181   0.216   0.717  12.088 -0.8760 -1.8741  0.7913
 8515SOL    HW237182   0.186   0.654  11.964  0.7631 -0.4423  0.2894
 8516SOL     OW37183   4.285   3.051   8.343  0.1631 -0.2828  0.2207
 8516SOL    HW137184   4.304   3.003   8.262 -2.3920 -0.3816 -0.3288
 8516SOL    HW237185   4.247   3.135   8.316  0.9738 -0.1623 -0.5354
 8517SOL     OW37186   1.233   2.428   1.047 -0.1544  0.2363 -0.0017
 8517SOL    HW137187   1.313   2.449   1.095  0.8033 -0.3827 -1.3288
 8517SOL    HW237188   1.201   2.518   1.051 -0.7508  0.0673 -1.0530
 8518SOL     OW37189   4.156   0.882   6.909  0.3004  0.2617 -0.2108
 8518SOL    HW137190   4.195   0.926   6.984  0.6998  0.4587 -0.5311
 8518SOL    HW237191   4.114   0.803   6.942  1.0810 -0.2216 -0.3809
 8519SOL     OW37192   3.763   3.481   1.127 -0.2725  0.1091 -0.0790
 8519SOL    HW137193   3.845   3.528   1.111 -0.4457 -0.1074 -1.6306
 8519SOL    HW237194   3.758   3.423   1.051  1.0186  0.5970 -0.5271
 8520SOL     OW37195   4.111   3.612  15.942  0.2008  0.0465 -0.5263
 8520SOL    HW137196   4.179   3.633  15.877  0.7120 -0.7549 -0.2507
 8520SOL    HW237197   4.109   3.689  15.998  1.7518  0.1970 -0.6648
 8521SOL     OW37198   4.234   2.817   4.173 -0.1457  0.2277  0.6533
 8521SOL    HW137199   4.304   2.752   4.174  1.5855  2.0807 -1.7371
 8521SOL    HW237200   4.261   2.866   4.095 -1.3405  0.9401  0.6894
 8522SOL     OW37201   2.030   0.804   2.507 -0.6249  0.1203  0.5305
 8522SOL    HW137202   2.123   0.803   2.483 -0.7014  0.0122  0.2459
 8522SOL    HW237203   2.008   0.898   2.506  0.1139  0.2821 -0.2641
 8523SOL     OW37204   1.921   1.872   5.085  0.1694 -0.1214  0.2660
 8523SOL    HW137205   1.836   1.909   5.059 -0.1700 -1.2233 -0.1829
 8523SOL    HW237206   1.890   1.788   5.119  2.1531 -0.5461  0.9970
 8524SOL     OW37207   0.482   1.055   5.380  0.8066 -0.7422  0.0456
 8524SOL    HW137208   0.411   0.999   5.349 -0.0660  0.8636 -0.8074
 8524SOL    HW237209   0.445   1.099   5.457  1.0224  1.9007 -1.3599
 8525SOL     OW37210   3.953   0.605  11.078 -0.0185  0.0729  0.4937
 8525SOL    HW137211   3.941   0.619  10.984 -0.9954  1.4459  0.8302
 8525SOL    HW237212   3.913   0.686  11.109 -0.8404  0.3001 -1.1818
 8526SOL     OW37213   1.620   0.315  16.118  0.1703  0.2436 -0.2214
 8526SOL    HW137214   1.525   0.324  16.114 -0.1112 -2.7481 -0.3077
 8526SOL    HW237215   1.650   0.360  16.197  1.1680  0.2583 -0.6111
 8527SOL     OW37216   1.497   0.781   4.689  0.1351 -0.4489 -0.4491
 8527SOL    HW137217   1.570   0.842   4.691 -0.7074  0.5350  0.1853
 8527SOL    HW237218   1.522   0.701   4.641  1.6394  0.3786 -1.0536
 8528SOL     OW37219   4.263   3.241  10.203 -0.1602  0.6734 -0.0676
 8528SOL    HW137220   4.276   3.317  10.259  1.8023  0.9199 -0.8183
 8528SOL    HW237221   4.347   3.194  10.194 -0.5855 -0.1839  0.4849
 8529SOL     OW37222   3.628   0.624   8.377  0.0942 -0.0460 -0.5334
 8529SOL    HW137223   3.535   0.604   8.367  0.2087  0.3002 -2.2499
 8529SOL    HW237224   3.626   0.681   8.455  2.3818  2.2194 -2.1366
 8530SOL     OW37225   3.442   1.294  12.203 -0.2144 -0.9679  0.2162
 8530SOL    HW137226   3.492   1.313  12.124 -0.5258 -0.3564  0.1687
 8530SOL    HW237227   3.414   1.384  12.217  4.1498  0.5266 -0.7968
 8531SOL     OW37228   3.342   2.783   9.594 -0.3579  0.5406 -0.1834
 8531SOL    HW137229   3.382   2.855   9.642  1.0508 -0.1174 -0.3611
 8531SOL    HW237230   3.335   2.716   9.661  1.1669 -1.5884 -2.1427
 8532SOL     OW37231   0.741   2.635  12.455  0.3435  0.5434 -0.2847
 8532SOL    HW137232   0.650   2.634  12.483  0.6184  1.7149  0.6277
 8532SOL    HW237233   0.741   2.685  12.374 -1.4771  0.8438 -0.0997
 8533SOL     OW37234   0.712   1.034   5.510 -0.2327  0.1879  0.6113
 8533SOL    HW137235   0.793   1.051   5.461 -0.5022  0.3792  0.2375
 8533SOL    HW237236   0.646   1.037   5.441  1.7645  2.6983 -1.1857
 8534SOL     OW37237   0.325   3.845  12.841  0.3242  0.1871  0.3835
 8534SOL    HW137238   0.313   3.932  12.879  0.5637  0.6368 -0.5676
 8534SOL    HW237239   0.264   3.785  12.884  1.2850  0.0269  1.5097
 8535SOL     OW37240   2.279   0.264  11.656 -0.0099 -0.1337 -0.1169
 8535SOL    HW137241   2.315   0.350  11.679  0.4468 -0.4703  0.4256
 8535SOL    HW237242   2.215   0.292  11.590  2.3471  0.6091 -2.0669
 8536SOL     OW37243   1.553   2.354  16.415  0.3188  0.2878 -0.1545
 8536SOL    HW137244   1.523   2.286  16.355  0.4234  0.4241 -0.3600
 8536SOL    HW237245   1.602   2.294  16.472  2.8147  1.1300 -1.4027
 8537SOL     OW37246   3.980   0.097   1.627 -0.3127 -0.2416 -0.4480
 8537SOL    HW137247   3.956   0.160   1.559  1.8273 -0.1304 -1.1029
 8537SOL    HW237248   3.932   0.020   1.598  0.4507 -1.3546  1.2030
 8538SOL     OW37249   0.873   4.428   2.340 -0.3363  0.1742  0.6680
 8538SOL    HW137250   0.877   4.523   2.346 -1.2235  0.1839  1.1517
 8538SOL    HW237251   0.895   4.409   2.249 -1.8235 -3.1995  0.9820
 8539SOL     OW37252   2.442   4.109  12.493 -0.2310  0.6685 -0.5221
 8539SOL    HW137253   2.442   4.190  12.543 -0.8983  0.6679 -0.5239
 8539SOL    HW237254   2.434   4.131  12.400  1.3160  0.1549 -0.7780
 8540SOL     OW37255   3.354   3.388   7.348  0.0052  0.7004  0.1149
 8540SOL    HW137256   3.400   3.462   7.309  1.1013 -0.6488 -1.1719
 8540SOL    HW237257   3.334   3.350   7.262  0.6821 -0.5434  0.5121
 8541SOL     OW37258   1.365   1.129   8.897 -0.4381  0.6208  0.6731
 8541SOL    HW137259   1.296   1.064   8.912 -0.4985  0.9515  1.7761
 8541SOL    HW237260   1.349   1.172   8.813 -2.8661 -2.5339 -0.5104
 8542SOL     OW37261   0.187   0.416  12.573 -0.3105  0.5190  0.1301
 8542SOL    HW137262   0.144   0.437  12.490 -2.7041 -0.3859  1.1613
 8542SOL    HW237263   0.134   0.463  12.637  0.2838 -0.1366  1.0919
 8543SOL     OW37264   1.126   3.590   4.046  0.4422 -0.0648  0.0123
 8543SOL    HW137265   1.148   3.615   4.136  0.6040  0.6108 -0.2166
 8543SOL    HW237266   1.116   3.495   4.051 -0.0827  0.0307  0.8066
 8544SOL     OW37267   4.429   4.463  11.827 -0.4087  0.3548 -0.1222
 8544SOL    HW137268   4.470   4.422  11.903 -1.0215 -0.7616 -0.3960
 8544SOL    HW237269   4.337   4.438  11.830 -0.7940  1.8640  1.0195
 8545SOL     OW37270   0.220   1.684  11.266  0.3660 -0.2968  0.5269
 8545SOL    HW137271   0.246   1.593  11.263  0.0238 -0.4525  2.3212
 8545SOL    HW237272   0.133   1.672  11.304 -1.0936  0.8899 -2.4170
 8546SOL     OW37273   2.491   2.665   4.715 -0.2335  0.1600  0.9266
 8546SOL    HW137274   2.556   2.650   4.783  1.1425 -1.2550 -0.6918
 8546SOL    HW237275   2.545   2.674   4.636 -0.4283  0.9330  0.8853
 8547SOL     OW37276   0.346   1.483  10.959  0.0503  0.2764  0.2885
 8547SOL    HW137277   0.430   1.436  10.960  0.4960  1.0796  0.3283
 8547SOL    HW237278   0.341   1.498  11.054  0.4931 -2.5982  0.7800
 8548SOL     OW37279   4.141   1.598   6.940  0.1499  0.9180  0.6237
 8548SOL    HW137280   4.104   1.518   6.903 -1.6319  1.8623  0.3150
 8548SOL    HW237281   4.136   1.667   6.874  1.3900 -0.2400 -0.6592
 8549SOL     OW37282   3.780   1.086   2.473  0.6283  0.3526  0.5439
 8549SOL    HW137283   3.856   1.119   2.520  1.9954  2.0751 -2.9161
 8549SOL    HW237284   3.739   1.168   2.446  0.9644 -0.0650 -1.2657
 8550SOL     OW37285   2.681   0.247   9.371 -0.2453 -0.1430 -0.3037
 8550SOL    HW137286   2.748   0.214   9.311 -1.2800 -1.7898 -0.5658
 8550SOL    HW237287   2.706   0.338   9.386  0.0881 -0.4620  1.1261
 8551SOL     OW37288   0.350   2.087  13.924  0.3719  0.0755 -0.0856
 8551SOL    HW137289   0.397   2.048  13.850 -1.4568 -0.3895 -1.0031
 8551SOL    HW237290   0.309   2.162  13.880  2.1925 -0.3898 -2.5931
 8552SOL     OW37291   2.646   0.892   7.970 -0.3658  0.0164  0.1577
 8552SOL    HW137292   2.637   0.842   7.889  1.9721 -0.6332  0.2828
 8552SOL    HW237293   2.567   0.943   7.988  0.3359  0.6619  1.4453
 8553SOL     OW37294   1.548   1.077  13.077  0.4525  0.2137 -0.5708
 8553SOL    HW137295   1.630   1.124  13.094 -1.0887  2.9700 -0.6299
 8553SOL    HW237296   1.495   1.153  13.054 -0.5553 -0.2863  0.1061
 8554SOL     OW37297   4.005   0.034   4.395  0.7147  0.2049  0.5271
 8554SOL    HW137298   3.979   0.067   4.481  0.3199 -0.4443  0.6560
 8554SOL    HW237299   4.098   0.011   4.401  0.2628 -1.3067  1.7005
 8555SOL     OW37300   0.859   1.198   8.662 -0.0460  0.1212  0.1430
 8555SOL    HW137301   0.858   1.159   8.749 -2.0330  2.0128  0.9549
 8555SOL    HW237302   0.851   1.122   8.604  0.5874  0.9434 -1.0052
 8556SOL     OW37303   3.326   1.488   2.710  0.0821 -0.3527  0.2978
 8556SOL    HW137304   3.280   1.522   2.634 -2.4203 -1.1276  1.4903
 8556SOL    HW237305   3.417   1.517   2.700 -0.3228  1.0174  0.6561
 8557SOL     OW37306   2.050   1.173   8.932  0.3854  0.1385  0.1687
 8557SOL    HW137307   2.102   1.250   8.909  0.4629 -0.0274 -0.2191
 8557SOL    HW237308   2.096   1.097   8.897  1.5106  0.3876  1.1202
 8558SOL     OW37309   0.195   1.113  15.565 -0.6917  0.5283 -0.0458
 8558SOL    HW137310   0.180   1.023  15.596 -0.4852  0.6515  0.4109
 8558SOL    HW237311   0.171   1.094  15.474  3.3092 -1.0575 -0.7997
 8559SOL     OW37312   3.227   2.485   0.680  0.1561 -0.3149 -0.3268
 8559SOL    HW137313   3.299   2.516   0.627 -1.0500 -1.7150 -2.7883
 8559SOL    HW237314   3.153   2.535   0.645  1.9415  3.8816  1.8259
 8560SOL     OW37315   4.529   4.308   9.021  0.3538 -1.0477 -0.0708
 8560SOL    HW137316   4.489   4.358   8.950  1.0882 -1.6985 -0.9489
 8560SOL    HW237317   4.573   4.378   9.070 -0.2579  0.7271 -2.0495
 8561SOL     OW37318   2.409   0.847   9.103  0.1652  0.0063 -0.4836
 8561SOL    HW137319   2.436   0.883   9.188 -4.2814  4.2380 -0.8654
 8561SOL    HW237320   2.411   0.930   9.054  0.0926  0.3947  0.1599
 8562SOL     OW37321   4.237   0.889   3.179 -0.4217 -0.7477  0.0661
 8562SOL    HW137322   4.224   0.899   3.085  1.0237 -1.9488 -0.2529
 8562SOL    HW237323   4.292   0.811   3.183 -0.7433 -0.9501  0.5121
 8563SOL     OW37324   1.297   3.762   9.606  0.9850 -0.4557  0.3775
 8563SOL    HW137325   1.242   3.820   9.554  0.5657 -0.5600  0.7061
 8563SOL    HW237326   1.366   3.744   9.542 -0.7138 -1.5730 -1.1419
 8564SOL     OW37327   2.028   2.901  14.965 -0.0732  0.0740  0.2203
 8564SOL    HW137328   2.113   2.858  14.956 -0.5316 -0.7307 -0.2646
 8564SOL    HW237329   2.050   2.992  14.948  0.9597 -0.6173 -2.0619
 8565SOL     OW37330   2.588   4.641   2.474  0.0133 -0.1453 -0.4235
 8565SOL    HW137331   2.659   4.673   2.530 -1.1558  0.0101  0.9529
 8565SOL    HW237332   2.625   4.560   2.438  1.6193 -0.6219  2.3416
 8566SOL     OW37333   0.461   3.136   4.680 -0.4505 -0.3085  0.5870
 8566SOL    HW137334   0.541   3.179   4.651  0.9069 -2.4411  1.2627
 8566SOL    HW237335   0.397   3.169   4.616  0.9206  2.7910  0.8027
 8567SOL     OW37336   1.680   3.268   2.597  0.1750  0.3088 -0.4022
 8567SOL    HW137337   1.761   3.313   2.621  0.2455  0.7901 -1.5141
 8567SOL    HW237338   1.609   3.308   2.648  0.4396  0.4667 -0.1536
 8568SOL     OW37339   4.486   3.110   7.600  0.0653  0.3925  0.2131
 8568SOL    HW137340   4.531   3.112   7.515 -1.0882  0.3721 -0.3924
 8568SOL    HW237341   4.524   3.030   7.637 -1.5562 -0.4272  0.1064
 8569SOL     OW37342   3.064   1.672   4.390  0.0060  0.1670  0.0199
 8569SOL    HW137343   3.052   1.598   4.449  2.6029  0.2736  0.7103
 8569SOL    HW237344   3.094   1.635   4.307  2.3058  2.1580 -0.0427
 8570SOL     OW37345   2.947   4.025   3.865  0.0974  0.6351  0.7861
 8570SOL    HW137346   2.893   3.952   3.895 -0.3434  0.3041 -0.8203
 8570SOL    HW237347   2.977   3.981   3.785 -0.9806  3.3890 -1.1044
 8571SOL     OW37348   1.079   3.020   3.104 -0.1746  0.2071  0.1854
 8571SOL    HW137349   1.164   3.058   3.124  0.6729 -1.7960  0.4154
 8571SOL    HW237350   1.076   2.945   3.164  0.2541  0.0686  0.0310
 8572SOL     OW37351   3.680   1.066   9.130 -0.9032 -0.1832 -0.4167
 8572SOL    HW137352   3.591   1.030   9.137 -1.3510  0.9482 -0.3197
 8572SOL    HW237353   3.697   1.049   9.038  1.9582  0.3812  0.0042
 8573SOL     OW37354   4.220   3.454   3.554  0.2269  0.0418 -0.3307
 8573SOL    HW137355   4.158   3.435   3.484  0.4010  0.0806 -0.4926
 8573SOL    HW237356   4.295   3.407   3.519 -1.3553 -2.0338 -0.9570
 8574SOL     OW37357   4.173   2.007   7.480  0.1537  0.1350 -0.3537
 8574SOL    HW137358   4.153   1.918   7.508  1.3301 -0.1051 -0.2782
 8574SOL    HW237359   4.179   2.008   7.385  3.3320  1.4203 -0.1376
 8575SOL     OW37360   0.333   1.087   9.289  0.5263  0.1480  0.4219
 8575SOL    HW137361   0.371   1.083   9.377  0.2866  0.1819  0.5279
 8575SOL    HW237362   0.259   1.030   9.309  0.8930 -0.4286  0.1458
 8576SOL     OW37363   0.102   3.420   6.862  0.1007  0.5614 -0.4223
 8576SOL    HW137364   0.044   3.484   6.903  0.9604  0.8441  0.3351
 8576SOL    HW237365   0.147   3.394   6.943 -1.1975  2.3571  0.8598
 8577SOL     OW37366   2.992   4.487   3.980  0.3267  0.3098 -0.3864
 8577SOL    HW137367   3.029   4.547   3.916  0.4499 -0.6780 -1.2373
 8577SOL    HW237368   2.990   4.537   4.062  0.4627 -0.8134  0.3053
 8578SOL     OW37369   3.716   4.521  12.569 -0.4639 -0.0444  0.4075
 8578SOL    HW137370   3.720   4.426  12.584  1.1743  0.0585  0.5921
 8578SOL    HW237371   3.777   4.527  12.495 -3.0875  2.6256 -1.5577
 8579SOL     OW37372   1.103   2.911   8.635  0.3455  0.1900  0.1232
 8579SOL    HW137373   1.036   2.891   8.701 -1.0978  2.3508 -0.6671
 8579SOL    HW237374   1.161   2.965   8.689  1.2586 -1.0628  0.3808
 8580SOL     OW37375   3.338   3.389   4.833  0.4015  0.5263 -0.0006
 8580SOL    HW137376   3.299   3.434   4.758 -1.4189  1.4440  1.5215
 8580SOL    HW237377   3.377   3.315   4.786  0.5490  1.0846 -0.7658
 8581SOL     OW37378   2.861   3.568   6.030  0.0634  0.5208  0.0539
 8581SOL    HW137379   2.770   3.596   6.015 -0.2715 -0.0322  1.1170
 8581SOL    HW237380   2.863   3.526   6.115 -2.0446 -0.5362 -0.4027
 8582SOL     OW37381   1.955   1.667   1.554  0.0954 -0.1729 -0.3202
 8582SOL    HW137382   2.022   1.720   1.597  2.0654 -1.4656 -1.8189
 8582SOL    HW237383   1.884   1.700   1.609  1.3587  1.0947  0.5682
 8583SOL     OW37384   1.917   4.072   5.877 -0.9863  0.3639 -0.6521
 8583SOL    HW137385   2.012   4.075   5.884 -0.8918 -1.1065 -1.2511
 8583SOL    HW237386   1.905   4.118   5.794  1.0978 -0.9551 -1.6840
 8584SOL     OW37387   1.807   3.110   6.907 -0.3056 -0.0571 -0.5686
 8584SOL    HW137388   1.828   3.182   6.847 -0.9664  0.2320 -0.4503
 8584SOL    HW237389   1.879   3.125   6.968 -0.7861  0.0872 -0.0409
 8585SOL     OW37390   1.324   0.335  10.710 -0.3317 -0.3452  0.4191
 8585SOL    HW137391   1.246   0.379  10.743  0.2398  1.5072 -0.7144
 8585SOL    HW237392   1.379   0.404  10.675  0.5264 -1.1220  0.2459
 8586SOL     OW37393   1.640   1.155   7.754 -0.0536 -0.1768  0.4579
 8586SOL    HW137394   1.591   1.149   7.672  0.2189 -1.9745  0.4204
 8586SOL    HW237395   1.629   1.065   7.785 -1.1636 -0.1213  0.2084
 8587SOL     OW37396   4.025   0.641   3.405  0.4983  0.3365 -0.1379
 8587SOL    HW137397   3.953   0.702   3.414 -1.5447 -2.1769  0.6640
 8587SOL    HW237398   4.098   0.688   3.445  2.5403 -1.1822 -2.0330
 8588SOL     OW37399   0.516   1.742   6.104  0.1341  0.3490 -0.3705
 8588SOL    HW137400   0.565   1.821   6.082 -0.5277  0.7951 -0.2344
 8588SOL    HW237401   0.424   1.765   6.102  0.2546  0.9745  1.5612
 8589SOL     OW37402   2.410   1.186   4.021  0.6214  0.7403 -0.3548
 8589SOL    HW137403   2.348   1.195   4.093  1.7223  0.7979  0.5836
 8589SOL    HW237404   2.344   1.202   3.952 -0.2089  0.2255  0.3238
 8590SOL     OW37405   0.690   3.228   6.608  0.3830  0.0060  0.0800
 8590SOL    HW137406   0.785   3.218   6.609  0.7859  3.6979  0.7984
 8590SOL    HW237407   0.668   3.145   6.566  0.3441  0.2235 -0.3353
 8591SOL     OW37408   2.361   0.937   8.064  0.2877  0.0239 -0.4412
 8591SOL    HW137409   2.315   0.853   8.066 -0.1596  0.2896  0.2725
 8591SOL    HW237410   2.315   0.982   8.134 -0.4935  0.0803 -0.9838
 8592SOL     OW37411   1.738   4.088  12.787 -0.4976 -0.1681 -0.0120
 8592SOL    HW137412   1.772   4.005  12.820  0.8800  0.5115  0.2653
 8592SOL    HW237413   1.659   4.101  12.839 -0.0446  0.9317  0.3942
 8593SOL     OW37414   3.993   0.907  11.143  0.2040  0.8272 -0.0700
 8593SOL    HW137415   4.051   0.868  11.079 -0.8319 -0.0341 -0.4816
 8593SOL    HW237416   4.058   0.954  11.196  0.9731 -0.7971  0.4224
 8594SOL     OW37417   4.605   3.648   3.187 -0.8212 -0.6682 -0.6671
 8594SOL    HW137418   4.632   3.643   3.279  2.2254  0.8003 -1.4716
 8594SOL    HW237419   4.603   3.742   3.169 -0.3809 -0.3610  0.9025
 8595SOL     OW37420   3.520   3.042  11.249  0.1932 -0.1138 -0.5536
 8595SOL    HW137421   3.535   2.992  11.329 -0.8396 -1.9467 -1.5014
 8595SOL    HW237422   3.457   2.988  11.201 -0.9210  1.1260 -0.4870
 8596SOL     OW37423   1.835   0.831  15.714 -0.1686  0.1742 -0.5093
 8596SOL    HW137424   1.918   0.867  15.744 -1.2884  2.4613 -0.0820
 8596SOL    HW237425   1.844   0.739  15.737  0.2754  1.1782  3.3160
 8597SOL     OW37426   1.209   4.501   4.856 -0.1808 -0.2743  0.0990
 8597SOL    HW137427   1.229   4.408   4.844 -2.1487 -0.7638  0.6197
 8597SOL    HW237428   1.152   4.489   4.932 -0.3763  0.9283  0.1329
 8598SOL     OW37429   4.447   2.296  15.334 -0.1077 -0.6426 -0.0842
 8598SOL    HW137430   4.416   2.258  15.416 -0.1798  0.4350  0.3853
 8598SOL    HW237431   4.477   2.225  15.278  0.8853 -1.0052  0.9228
 8599SOL     OW37432   2.169   4.026  14.882 -0.5103 -0.8344 -0.0259
 8599SOL    HW137433   2.156   4.120  14.896  0.8308 -0.5020 -1.0396
 8599SOL    HW237434   2.243   4.017  14.822  1.6919 -0.0635  2.5652
 8600SOL     OW37435   1.001   2.628   3.856  0.1952  0.1721  0.3813
 8600SOL    HW137436   1.022   2.577   3.778 -0.0950  0.6567 -0.0116
 8600SOL    HW237437   1.039   2.571   3.923  1.7039  1.7786  0.8710
 8601SOL     OW37438   2.001   3.279   8.098  0.0567 -0.2756 -0.5525
 8601SOL    HW137439   1.987   3.204   8.156 -1.4518 -1.9620 -3.1152
 8601SOL    HW237440   1.957   3.243   8.021 -0.1641  1.7275 -1.3689
 8602SOL     OW37441   2.102   0.694   5.747  0.1807 -0.0140  0.0670
 8602SOL    HW137442   2.097   0.701   5.842  0.8350  1.0092  0.0294
 8602SOL    HW237443   2.029   0.634   5.731  0.8271  0.0305 -3.0656
 8603SOL     OW37444   0.317   2.237   2.718  0.6862  0.1660  0.3069
 8603SOL    HW137445   0.411   2.224   2.727  0.8833  0.2101 -1.7306
 8603SOL    HW237446   0.304   2.309   2.779  0.0357  0.6898 -0.4488
 8604SOL     OW37447   0.699   3.252  13.308  0.1971  0.0116 -0.3703
 8604SOL    HW137448   0.676   3.165  13.340  0.5909 -1.2675 -3.6002
 8604SOL    HW237449   0.700   3.223  13.217  0.8297  3.5777 -1.5019
 8605SOL     OW37450   2.499   3.803   9.280 -0.3256 -0.8282  0.6221
 8605SOL    HW137451   2.592   3.824   9.274 -0.5775  0.0972 -0.0485
 8605SOL    HW237452   2.462   3.862   9.214  2.6603  0.3719 -0.0056
 8606SOL     OW37453   3.585   2.771   7.344  0.1363 -0.2223  0.1102
 8606SOL    HW137454   3.593   2.773   7.440  1.1266 -0.8343  0.0359
 8606SOL    HW237455   3.543   2.855   7.322 -1.7624 -1.2906 -0.3495
 8607SOL     OW37456   2.088   0.478   5.193 -0.9896  0.5677  0.1125
 8607SOL    HW137457   2.058   0.411   5.132  0.6632  0.8215 -0.9875
 8607SOL    HW237458   2.184   0.472   5.192 -0.9634  0.7036  1.1235
 8608SOL     OW37459   1.202   2.544   8.022 -0.1484 -0.2954  0.5137
 8608SOL    HW137460   1.265   2.610   7.991 -0.7342 -0.1791 -0.4507
 8608SOL    HW237461   1.151   2.605   8.074 -0.1708  1.2214 -1.2452
 8609SOL     OW37462   4.506   0.925   8.616 -0.7356  0.2590  0.0290
 8609SOL    HW137463   4.573   0.890   8.675 -0.4400 -1.1651 -1.1440
 8609SOL    HW237464   4.436   0.860   8.618 -0.2332 -0.3287 -1.1990
 8610SOL     OW37465   0.956   0.318   3.563  0.2239  0.0424  0.4058
 8610SOL    HW137466   0.915   0.387   3.615 -0.3428  0.7119 -0.9366
 8610SOL    HW237467   1.010   0.372   3.506 -0.4382  0.0314 -0.2268
 8611SOL     OW37468   3.175   3.169   9.279  0.2136 -0.3271  0.2660
 8611SOL    HW137469   3.096   3.143   9.232 -0.9743  0.9308  1.5547
 8611SOL    HW237470   3.182   3.103   9.348  0.7766 -0.5007  0.0412
 8612SOL     OW37471   2.156   4.623   2.332 -0.0073 -0.7042 -0.7090
 8612SOL    HW137472   2.100   4.572   2.391  2.7484 -0.1772  2.3652
 8612SOL    HW237473   2.095   4.647   2.262 -0.0651  3.0130  0.6155
 8613SOL     OW37474   0.115   1.608  14.362 -0.4569  0.1066 -0.7087
 8613SOL    HW137475   0.165   1.671  14.310 -0.7595  1.4273  0.6143
 8613SOL    HW237476   0.089   1.560  14.283  2.1581 -1.1297 -0.8428
 8614SOL     OW37477   0.850   3.563   5.514  0.4963 -0.5622 -0.5811
 8614SOL    HW137478   0.937   3.603   5.520  0.1875  0.5626 -4.0773
 8614SOL    HW237479   0.850   3.526   5.426  0.8860 -2.1232  0.0742
 8615SOL     OW37480   3.085   0.627  16.654  0.1231 -0.0804  0.0861
 8615SOL    HW137481   2.995   0.616  16.685 -0.1008  3.9023  0.7832
 8615SOL    HW237482   3.092   0.575  16.575 -0.4805  0.4502 -0.3151
 8616SOL     OW37483   4.726   1.559  11.738  0.4767  0.0085  0.0475
 8616SOL    HW137484   4.715   1.570  11.832  0.3983 -3.5163  0.4652
 8616SOL    HW237485   0.045   1.633  11.719 -1.1164  1.0781 -0.5136
 8617SOL     OW37486   3.700   2.410   1.497 -0.2977  0.0438 -0.3192
 8617SOL    HW137487   3.615   2.368   1.501  0.5360 -1.8396 -2.4502
 8617SOL    HW237488   3.743   2.367   1.422 -2.2323  0.5121 -1.7135
 8618SOL     OW37489   2.687   3.679   5.669  0.2080 -0.1227  0.8724
 8618SOL    HW137490   2.709   3.587   5.678 -0.3154 -0.3825 -0.3679
 8618SOL    HW237491   2.772   3.713   5.643 -0.6834  2.2108  0.9682
 8619SOL     OW37492   2.270   0.266   4.550 -0.0364  0.4281  0.4370
 8619SOL    HW137493   2.200   0.330   4.560  1.0166  1.6655 -0.1364
 8619SOL    HW237494   2.312   0.296   4.469 -1.8164 -1.2828 -1.1293
 8620SOL     OW37495   0.146   2.985   7.086 -0.4543  0.1260 -0.1037
 8620SOL    HW137496   0.234   3.021   7.078 -0.7102  0.7837  0.0313
 8620SOL    HW237497   0.099   3.039   7.022 -3.1716 -2.4024 -0.2541
 8621SOL     OW37498   1.743   2.942  11.928 -0.6100 -0.6622  0.4524
 8621SOL    HW137499   1.671   3.000  11.951 -1.1131 -1.3286  0.5717
 8621SOL    HW237500   1.702   2.859  11.953 -0.0534 -0.7777  1.0024
 8622SOL     OW37501   0.915   2.698   5.136 -0.6393  0.0772 -0.4123
 8622SOL    HW137502   0.889   2.645   5.061 -2.8881  0.8310 -0.1567
 8622SOL    HW237503   0.840   2.758   5.131  2.2007  3.6114 -0.9276
 8623SOL     OW37504   1.525   0.468  12.355  0.2613  0.7552  0.3021
 8623SOL    HW137505   1.539   0.373  12.355 -1.2706  0.5279  2.4022
 8623SOL    HW237506   1.595   0.501  12.411  1.0810 -0.3392 -0.0894
 8624SOL     OW37507   4.288   2.260  17.334  0.6996 -0.1932  0.3492
 8624SOL    HW137508   4.321   2.314  17.261  1.0537 -0.2324  0.4810
 8624SOL    HW237509   4.296   2.179  17.285  3.1576  1.0852 -1.3707
 8625SOL     OW37510   2.160   3.005   4.834 -0.3592 -0.0045  0.1301
 8625SOL    HW137511   2.175   2.935   4.770  4.7486  0.1458  1.1477
 8625SOL    HW237512   2.065   2.996   4.835 -0.4050  0.8263  2.4177
 8626SOL     OW37513   2.552   3.782   7.426 -0.1733 -0.3593 -0.7130
 8626SOL    HW137514   2.460   3.780   7.401 -0.7353  0.5652  1.2571
 8626SOL    HW237515   2.569   3.876   7.438  0.1555 -0.5739  0.5073
 8627SOL     OW37516   3.522   1.779   5.589 -0.0828  0.7787 -0.5101
 8627SOL    HW137517   3.445   1.834   5.579 -0.1567  0.7114 -0.3097
 8627SOL    HW237518   3.568   1.818   5.663 -0.2676 -0.7978  0.4382
 8628SOL     OW37519   0.855   3.662   6.771 -0.4121  0.0789  0.1295
 8628SOL    HW137520   0.858   3.663   6.866  1.1956 -2.4155  0.1108
 8628SOL    HW237521   0.761   3.666   6.753 -0.2177 -1.2874 -1.2319
 8629SOL     OW37522   2.261   0.756   1.307 -0.3258 -0.1462 -0.2373
 8629SOL    HW137523   2.186   0.698   1.321  1.7970 -1.7418  4.2681
 8629SOL    HW237524   2.330   0.692   1.292 -0.8399 -1.1726  1.7992
 8630SOL     OW37525   2.026   0.755  17.622  0.0278  0.5178 -0.1380
 8630SOL    HW137526   2.108   0.763  17.573  0.1222 -0.4429 -0.1367
 8630SOL    HW237527   1.972   0.819  17.575  1.2646  2.4332  1.0504
 8631SOL     OW37528   3.332   0.673   6.589  0.4508  0.4429 -0.2304
 8631SOL    HW137529   3.308   0.741   6.653 -0.9413  0.0802 -0.3739
 8631SOL    HW237530   3.427   0.684   6.586  0.5255 -0.3339 -0.7965
 8632SOL     OW37531   3.475   1.111   3.725  0.0772  0.5267  0.4477
 8632SOL    HW137532   3.441   1.099   3.814  1.2752  0.8549  0.9444
 8632SOL    HW237533   3.525   1.030   3.716 -0.8319 -0.0231  0.2817
 8633SOL     OW37534   2.373   4.641   8.942  0.1235  0.1930  0.4451
 8633SOL    HW137535   2.293   4.682   8.973 -1.8269 -1.9759 -1.6704
 8633SOL    HW237536   2.349   4.552   8.968  0.1602  0.6842  2.1120
 8634SOL     OW37537   0.981   4.214   4.997 -0.2911  0.0608 -0.3775
 8634SOL    HW137538   0.946   4.239   4.912 -0.9132 -0.5689 -0.2987
 8634SOL    HW237539   0.974   4.119   5.002 -1.1704  0.0972 -1.0112
 8635SOL     OW37540   0.074   1.775   6.428  0.4149 -0.0808 -1.2212
 8635SOL    HW137541   0.142   1.842   6.419  1.3909 -1.1058 -1.4984
 8635SOL    HW237542   4.732   1.816   6.396 -0.9242  0.6742  3.0154
 8636SOL     OW37543   1.270   2.495   6.535  0.4968 -0.6287  0.3106
 8636SOL    HW137544   1.201   2.543   6.489  0.6276 -0.0036  0.7730
 8636SOL    HW237545   1.233   2.408   6.523  0.8247 -0.5369 -1.3186
 8637SOL     OW37546   1.064   4.284  13.443  0.7029  0.2257  0.2194
 8637SOL    HW137547   1.110   4.367  13.454 -0.5958  0.8748  0.7753
 8637SOL    HW237548   1.066   4.255  13.534  3.0703 -2.0486 -0.5622
 8638SOL     OW37549   1.146   2.710   6.183  0.6489  0.1628  0.8145
 8638SOL    HW137550   1.118   2.666   6.264  0.7705  0.9613  1.2869
 8638SOL    HW237551   1.065   2.698   6.134  0.8596 -0.3736  0.5913
 8639SOL     OW37552   4.465   4.545   3.781 -0.2511  0.0895 -0.7853
 8639SOL    HW137553   4.489   4.540   3.689 -0.6192  1.0949 -0.9358
 8639SOL    HW237554   4.515   4.472   3.817 -0.3682 -0.6159 -2.0590
 8640SOL     OW37555   4.580   0.858  14.168 -1.1515  0.3400 -0.1616
 8640SOL    HW137556   4.585   0.938  14.221 -1.7418 -1.7171  2.9453
 8640SOL    HW237557   4.616   0.892  14.085  0.3586  0.0189  0.3663
 8641SOL     OW37558   1.480   0.997  11.673  0.4628 -0.2668 -0.7267
 8641SOL    HW137559   1.424   0.954  11.607 -1.6599 -1.4372  1.8378
 8641SOL    HW237560   1.475   1.089  11.649 -1.2946  0.0603  0.9244
 8642SOL     OW37561   3.583   1.628   6.344 -0.0168  0.7234  0.1962
 8642SOL    HW137562   3.586   1.678   6.426  3.1100 -1.1148  1.1918
 8642SOL    HW237563   3.521   1.678   6.292 -0.0840  0.0944 -0.3257
 8643SOL     OW37564   2.096   2.500   9.700  0.3269 -0.0467  0.5672
 8643SOL    HW137565   2.057   2.546   9.626  1.7794  0.6962  0.2751
 8643SOL    HW237566   2.141   2.566   9.752  1.1089 -1.2138  1.3780
 8644SOL     OW37567   3.880   3.219   0.712 -0.3965  0.2154  0.1191
 8644SOL    HW137568   3.906   3.284   0.647  0.2256  0.7270  0.8792
 8644SOL    HW237569   3.960   3.171   0.733 -1.1359 -1.2671 -0.4403
 8645SOL     OW37570   4.322   0.408  14.752  0.5177  0.1091  0.3519
 8645SOL    HW137571   4.386   0.461  14.704  0.1522  0.5547  0.3502
 8645SOL    HW237572   4.285   0.358  14.679  1.0557 -0.1689  0.2686
 8646SOL     OW37573   4.632   1.298   1.693  0.4527 -0.1021 -0.1351
 8646SOL    HW137574   4.640   1.224   1.633 -1.2373 -0.0656 -0.3981
 8646SOL    HW237575   4.672   1.365   1.637  1.1055  0.6450  1.2196
 8647SOL     OW37576   3.829   0.391  14.574 -0.0691  0.2415 -0.7720
 8647SOL    HW137577   3.776   0.337  14.632  2.1318 -0.0296  0.9663
 8647SOL    HW237578   3.759   0.427  14.520 -2.7835 -0.3897  2.3744
 8648SOL     OW37579   0.249   4.255  14.941  0.1629 -0.1515 -0.0385
 8648SOL    HW137580   0.311   4.182  14.945  2.4165  1.7683 -0.1105
 8648SOL    HW237581   0.172   4.211  14.978  0.9144  0.2881  2.0502
 8649SOL     OW37582   0.428   3.901   2.422  0.1050 -0.6569  0.2858
 8649SOL    HW137583   0.516   3.895   2.460  0.6256  3.3894 -0.2710
 8649SOL    HW237584   0.442   3.832   2.358 -0.7319 -1.5186  1.0371
 8650SOL     OW37585   1.010   0.883  11.613 -0.1971  0.2274  0.0714
 8650SOL    HW137586   0.976   0.794  11.629  1.3524  0.4123  4.2071
 8650SOL    HW237587   1.079   0.875  11.678  0.6352 -3.3187 -1.2039
 8651SOL     OW37588   4.514   1.546   2.294 -0.2800  0.3370  0.2912
 8651SOL    HW137589   4.541   1.526   2.204 -0.2348  1.0416  0.1473
 8651SOL    HW237590   4.491   1.460   2.329  0.8137 -0.1391 -0.1488
 8652SOL     OW37591   3.587   2.116   2.814 -0.2482 -0.1950  0.1091
 8652SOL    HW137592   3.645   2.099   2.739  0.4922  0.3814  0.5538
 8652SOL    HW237593   3.645   2.163   2.874 -0.4852  0.9634 -0.5655
 8653SOL     OW37594   1.165   0.694   3.500  0.2980 -0.0385  0.3692
 8653SOL    HW137595   1.080   0.731   3.478  0.4440  0.3277  0.4245
 8653SOL    HW237596   1.161   0.609   3.457 -1.1830  1.1948 -1.8978
 8654SOL     OW37597   3.320   3.708  10.861 -0.6225  0.1145  0.0423
 8654SOL    HW137598   3.404   3.663  10.847 -1.4643 -1.3007 -0.4222
 8654SOL    HW237599   3.266   3.630  10.867  0.2807 -0.2648  3.0012
 8655SOL     OW37600   0.081   4.091  15.172 -0.3054  0.5976  0.0570
 8655SOL    HW137601   0.034   4.045  15.241 -0.4792 -2.1715 -1.8734
 8655SOL    HW237602   0.137   4.150  15.222 -0.8832  2.1488 -1.1289
 8656SOL     OW37603   3.466   3.900   6.332 -0.0652  0.3270  0.3976
 8656SOL    HW137604   3.413   3.856   6.267  0.1693  0.3894  0.1637
 8656SOL    HW237605   3.542   3.841   6.330  0.4671  0.9845  0.9807
 8657SOL     OW37606   3.555   4.586  17.397 -0.1916 -0.0483 -0.6058
 8657SOL    HW137607   3.531   4.563  17.487  0.8327 -1.9476 -0.8253
 8657SOL    HW237608   3.619   4.656  17.413  1.9176 -2.0513 -0.3646
 8658SOL     OW37609   0.271   3.258   3.768  0.3685  0.0109  0.2789
 8658SOL    HW137610   0.283   3.171   3.731  2.4696  0.1980  0.5226
 8658SOL    HW237611   0.350   3.259   3.822 -0.6656  0.8299  1.8027
 8659SOL     OW37612   1.499   2.775  16.502  0.4938  0.8674 -0.3645
 8659SOL    HW137613   1.468   2.787  16.412 -0.5264  1.6570  0.1017
 8659SOL    HW237614   1.452   2.695  16.526  1.4964 -0.4359 -2.8018
 8660SOL     OW37615   3.320   3.754   2.926  0.2533 -0.0642 -0.1960
 8660SOL    HW137616   3.364   3.683   2.973 -1.0054 -0.3932  0.4926
 8660SOL    HW237617   3.300   3.812   2.999 -0.5476 -2.2004  1.2856
 8661SOL     OW37618   0.078   1.542   1.957  0.1485  0.4053 -0.0239
 8661SOL    HW137619   0.137   1.615   1.938 -0.8760  1.4586  0.8903
 8661SOL    HW237620   0.083   1.526   2.052  1.7654  2.1154  0.1745
 8662SOL     OW37621   3.368   2.395  10.531 -0.6997  0.2619  0.5814
 8662SOL    HW137622   3.417   2.431  10.606  0.0831 -0.0115  0.2029
 8662SOL    HW237623   3.284   2.377  10.573 -0.2310 -1.3281  0.8511
 8663SOL     OW37624   1.087   1.672   7.018 -0.1961 -0.0895 -0.1477
 8663SOL    HW137625   1.140   1.688   7.096 -1.0051  0.5662  0.2637
 8663SOL    HW237626   1.073   1.578   7.009  1.1178 -0.3783  0.7991
 8664SOL     OW37627   0.632   0.931   4.137 -0.4685  0.9460 -0.1833
 8664SOL    HW137628   0.637   0.906   4.229  1.3942 -2.2505 -1.1505
 8664SOL    HW237629   0.557   0.879   4.108 -0.6135  1.0618 -0.0178
 8665SOL     OW37630   2.463   2.576   6.756 -0.0657 -0.3111  0.3162
 8665SOL    HW137631   2.449   2.565   6.662  1.8010  1.0466 -0.1182
 8665SOL    HW237632   2.520   2.502   6.777  0.5252  0.5084  1.5977
 8666SOL     OW37633   1.777   3.836  12.933 -0.1664 -0.1980  0.0560
 8666SOL    HW137634   1.687   3.843  12.965 -1.0353 -0.5734 -2.2634
 8666SOL    HW237635   1.812   3.896  12.999 -0.6019 -0.8394  0.8715
 8667SOL     OW37636   0.392   3.605   7.436  0.1494 -0.9679 -0.1183
 8667SOL    HW137637   0.382   3.566   7.523 -0.5353 -0.5095  0.0121
 8667SOL    HW237638   0.301   3.615   7.409  0.3828 -0.0833 -0.5896
 8668SOL     OW37639   2.189   3.032   6.684  0.2172  0.1184  0.3281
 8668SOL    HW137640   2.246   3.108   6.697  1.3843 -0.4983 -1.3122
 8668SOL    HW237641   2.239   2.972   6.740 -0.0076  0.8302  1.2905
 8669SOL     OW37642   3.482   0.593   9.268  0.2285  0.3899  0.2055
 8669SOL    HW137643   3.420   0.658   9.300  1.9682  3.6815 -3.0583
 8669SOL    HW237644   3.561   0.646   9.254  1.8125 -1.5999  1.7817
 8670SOL     OW37645   3.869   1.984   5.870  0.0245  0.3322 -0.1130
 8670SOL    HW137646   3.790   2.018   5.911 -1.0737 -0.2110 -1.7986
 8670SOL    HW237647   3.860   2.010   5.778 -0.4134  1.1795  0.1730
 8671SOL     OW37648   3.217   0.138  11.263 -0.2750 -0.0994  0.0678
 8671SOL    HW137649   3.135   0.180  11.289 -1.1147 -0.0247 -2.7032
 8671SOL    HW237650   3.198   0.052  11.300  0.1491  0.4150  1.4780
 8672SOL     OW37651   0.416   0.306   7.434 -0.4503 -0.5642 -0.3965
 8672SOL    HW137652   0.376   0.390   7.410  0.2797  0.0966  0.6920
 8672SOL    HW237653   0.389   0.299   7.525 -1.7283 -1.5089 -0.8556
 8673SOL     OW37654   0.539   0.586   6.688 -0.3715  0.4363  0.4349
 8673SOL    HW137655   0.603   0.619   6.751 -1.5198 -0.2658  1.9619
 8673SOL    HW237656   0.600   0.566   6.617 -0.8337  0.7893 -0.0564
 8674SOL     OW37657   1.527   3.887   2.634 -0.8787 -0.1244  0.5985
 8674SOL    HW137658   1.544   3.877   2.727  0.2784 -0.3236  0.3685
 8674SOL    HW237659   1.510   3.981   2.625 -1.1976 -0.3258 -0.9051
 8675SOL     OW37660   0.299   0.024  17.036 -0.3757 -0.1868 -0.0960
 8675SOL    HW137661   0.347   0.086  17.090  1.6800 -1.6568 -0.2402
 8675SOL    HW237662   0.359   4.697  16.999 -3.3054 -1.5493 -2.4665
 8676SOL     OW37663   3.389   4.517   2.008  0.0152 -0.1762  0.0914
 8676SOL    HW137664   3.420   4.461   2.080  3.3715  0.7800 -0.6234
 8676SOL    HW237665   3.416   4.470   1.929 -0.0331 -0.1900  0.0831
 8677SOL     OW37666   1.144   4.534   4.492  0.1464 -0.1901  0.0910
 8677SOL    HW137667   1.181   4.616   4.527 -1.8657  0.6465  0.2608
 8677SOL    HW237668   1.197   4.469   4.538  1.6852  0.2603 -1.0319
 8678SOL     OW37669   4.476   1.039   2.501  0.2857  0.4012  0.0694
 8678SOL    HW137670   4.561   1.026   2.544  0.1519  0.0577  0.2242
 8678SOL    HW237671   4.487   0.983   2.424  2.4576 -0.4956  1.0147
 8679SOL     OW37672   1.718   0.678   8.907  0.1258 -0.5053 -0.6328
 8679SOL    HW137673   1.807   0.674   8.871  0.8233  0.5081  0.9826
 8679SOL    HW237674   1.703   0.584   8.908 -2.3022 -0.0921  2.2212
 8680SOL     OW37675   4.735   2.843   6.884  0.6572 -0.2008  0.4239
 8680SOL    HW137676   0.021   2.893   6.962 -2.3412 -0.3639  1.4226
 8680SOL    HW237677   4.650   2.881   6.862 -0.4369 -2.1354  1.3426
 8681SOL     OW37678   3.326   1.571   7.528  0.0181  0.5882 -0.1537
 8681SOL    HW137679   3.253   1.632   7.518  0.4120  1.3519  1.5864
 8681SOL    HW237680   3.404   1.618   7.496  0.8196 -0.8967 -0.3711
 8682SOL     OW37681   3.369   4.102   8.519 -0.1092 -0.2703  0.3542
 8682SOL    HW137682   3.456   4.130   8.491  0.2312 -1.4411  0.2084
 8682SOL    HW237683   3.376   4.098   8.615  0.5317 -0.3278  0.3018
 8683SOL     OW37684   2.600   2.292   6.328  0.0886 -0.3519 -0.0881
 8683SOL    HW137685   2.668   2.339   6.280  0.5786 -1.5708 -0.6095
 8683SOL    HW237686   2.639   2.207   6.303  0.1878 -0.0024 -1.1300
 8684SOL     OW37687   2.159   2.197   6.312  0.1524  0.1350 -1.2261
 8684SOL    HW137688   2.130   2.130   6.251 -0.2158 -1.0949  0.3092
 8684SOL    HW237689   2.232   2.242   6.268  0.2376 -0.1692 -1.3931
 8685SOL     OW37690   1.404   1.357   5.592  0.1874  0.0632  0.2537
 8685SOL    HW137691   1.419   1.398   5.507 -0.8484  0.7621  0.4002
 8685SOL    HW237692   1.448   1.419   5.650 -1.8060  2.4141 -0.7335
 8686SOL     OW37693   1.083   2.861   1.831 -0.3432  0.0204  0.0010
 8686SOL    HW137694   1.143   2.883   1.903  1.6945  0.9651 -1.9771
 8686SOL    HW237695   1.107   2.924   1.763 -1.8774  0.9491  0.3133
 8687SOL     OW37696   3.395   1.130   4.455  0.4228 -0.3673  0.4367
 8687SOL    HW137697   3.426   1.042   4.475  0.1278 -1.1846 -2.5899
 8687SOL    HW237698   3.478   1.179   4.447  1.2052 -1.7299  0.2150
 8688SOL     OW37699   1.803   3.847  13.387 -0.0251 -0.1208 -0.3741
 8688SOL    HW137700   1.869   3.872  13.452 -0.5192 -0.7559  0.3770
 8688SOL    HW237701   1.782   3.758  13.415 -1.1880 -0.3640 -2.0126
 8689SOL     OW37702   3.359   0.480   4.739 -0.2269 -0.0082  0.3230
 8689SOL    HW137703   3.325   0.461   4.651 -1.5333  1.4868  0.5205
 8689SOL    HW237704   3.281   0.483   4.793  0.9764 -0.4944  2.1073
 8690SOL     OW37705   3.968   0.921   7.612 -0.0811 -0.4706 -0.4811
 8690SOL    HW137706   4.025   0.846   7.627 -1.2165 -1.4298 -0.9866
 8690SOL    HW237707   3.957   0.951   7.702 -0.9532 -0.0648 -0.7219
 8691SOL     OW37708   0.682   2.442   7.662  0.2599 -0.2433  0.2196
 8691SOL    HW137709   0.738   2.417   7.588  0.3724  2.1134 -0.4995
 8691SOL    HW237710   0.712   2.528   7.689 -1.1820  0.4108 -0.2791
 8692SOL     OW37711   4.273   0.417   3.978  0.0265 -0.0443  0.2303
 8692SOL    HW137712   4.193   0.366   3.969  0.5119 -0.4891 -1.5407
 8692SOL    HW237713   4.252   0.487   3.917  0.1408  0.2187  0.4953
 8693SOL     OW37714   2.012   0.162  16.139 -0.6654 -0.2270  0.0924
 8693SOL    HW137715   1.943   0.207  16.091 -0.4838  1.5387  1.4828
 8693SOL    HW237716   1.978   0.176  16.228  0.0135  0.3135  0.2621
 8694SOL     OW37717   1.965   1.389   8.618 -0.6780  0.0208 -0.1805
 8694SOL    HW137718   2.029   1.334   8.573 -0.7569 -1.2928  1.3281
 8694SOL    HW237719   1.944   1.453   8.550  0.9967 -0.9397 -1.6045
 8695SOL     OW37720   4.349   2.038  12.506  0.4860 -0.1720  0.2091
 8695SOL    HW137721   4.355   1.980  12.582  1.5679  2.1471  1.8679
 8695SOL    HW237722   4.260   2.017  12.478  0.7167 -0.3099 -0.4404
 8696SOL     OW37723   1.074   2.217   9.107  0.3522 -0.3111 -0.4139
 8696SOL    HW137724   1.067   2.275   9.031  0.0614 -0.8219 -0.7791
 8696SOL    HW237725   1.021   2.257   9.176 -0.4518 -1.8416 -0.1689
 8697SOL     OW37726   4.434   0.180   1.780 -0.1636 -0.0790 -0.5344
 8697SOL    HW137727   4.432   0.087   1.803  1.7456 -0.0329 -0.1629
 8697SOL    HW237728   4.360   0.182   1.719  0.9521 -0.9867 -1.9079
 8698SOL     OW37729   2.514   3.035   1.893 -0.6183  0.0623  0.0515
 8698SOL    HW137730   2.547   2.973   1.958  0.4160 -0.3395 -0.8684
 8698SOL    HW237731   2.481   3.104   1.950 -0.3511 -1.6943  2.3235
 8699SOL     OW37732   1.687   3.375  13.410  0.1947  0.0972 -0.2015
 8699SOL    HW137733   1.645   3.396  13.326  0.9462 -1.5256 -0.9826
 8699SOL    HW237734   1.621   3.316  13.446  0.2568 -0.6892 -1.3541
 8700SOL     OW37735   0.329   2.162   7.543 -0.5054  0.0697 -0.0903
 8700SOL    HW137736   0.368   2.089   7.591  1.0870  1.9507  1.4951
 8700SOL    HW237737   0.367   2.237   7.589  0.1078  0.7523 -1.6973
 8701SOL     OW37738   3.467   2.452   4.743 -0.2911 -0.4359 -0.0812
 8701SOL    HW137739   3.431   2.364   4.732 -1.3117 -0.4366  2.9405
 8701SOL    HW237740   3.444   2.490   4.658 -0.7616  1.7964  1.0324
 8702SOL     OW37741   3.297   4.508   8.055 -0.2270 -0.2087 -0.5992
 8702SOL    HW137742   3.302   4.543   8.144 -0.1136  0.2846 -0.8003
 8702SOL    HW237743   3.365   4.441   8.056  0.7628  0.8322  1.2006
 8703SOL     OW37744   3.581   3.204   5.504  0.6171  0.1349  0.0219
 8703SOL    HW137745   3.542   3.248   5.430  1.7470  0.4474 -0.3852
 8703SOL    HW237746   3.650   3.269   5.517 -0.5617  1.4194 -0.1475
 8704SOL     OW37747   2.461   2.511  13.764 -0.2004 -0.0021  0.2282
 8704SOL    HW137748   2.428   2.443  13.704 -0.6606  0.7991 -0.4239
 8704SOL    HW237749   2.406   2.584  13.736 -0.9601 -0.6909 -0.0647
 8705SOL     OW37750   3.289   0.311   8.989  0.3166 -0.0021  0.1006
 8705SOL    HW137751   3.376   0.313   8.950 -0.5447 -1.6305 -1.8865
 8705SOL    HW237752   3.307   0.327   9.082 -0.3413 -1.2424  0.4501
 8706SOL     OW37753   0.575   2.648  17.431 -0.1032 -0.1390 -0.1464
 8706SOL    HW137754   0.532   2.706  17.369 -1.9527 -2.5052 -1.0655
 8706SOL    HW237755   0.629   2.716  17.472 -0.0756 -0.0612 -0.3136
 8707SOL     OW37756   2.987   3.837   4.786  0.8708  0.0943 -0.0401
 8707SOL    HW137757   3.014   3.913   4.837 -0.6483  0.5511  0.0933
 8707SOL    HW237758   2.978   3.770   4.854  0.8889  0.1195 -0.0129
 8708SOL     OW37759   0.413   0.615  14.811 -0.4353 -0.2393 -0.2643
 8708SOL    HW137760   0.507   0.614  14.826 -0.3176  1.1507 -0.8582
 8708SOL    HW237761   0.383   0.643  14.897 -0.0547 -0.5001 -0.0508
 8709SOL     OW37762   2.961   4.189  12.453 -0.2566  0.2327  0.2505
 8709SOL    HW137763   2.998   4.108  12.487 -0.5901  0.2359  0.6183
 8709SOL    HW237764   2.885   4.161  12.401 -1.1628  2.3381  0.4263
 8710SOL     OW37765   1.326   3.109  16.263 -0.0013  0.3525 -0.7823
 8710SOL    HW137766   1.361   3.022  16.243 -1.7825 -0.0877 -1.9174
 8710SOL    HW237767   1.234   3.105  16.237  0.2255 -2.9155 -1.0981
 8711SOL     OW37768   1.468   2.767   2.549 -0.6982 -0.7573 -0.3720
 8711SOL    HW137769   1.383   2.760   2.505  0.0118 -2.4036 -1.4977
 8711SOL    HW237770   1.519   2.829   2.498 -2.2362  1.0253  0.2689
 8712SOL     OW37771   3.291   3.288  17.746  0.2336 -0.2922  0.0194
 8712SOL    HW137772   3.201   3.315  17.728  0.0480 -1.4297 -0.7104
 8712SOL    HW237773   3.273   3.222   0.064  2.0071 -0.0812  0.7214
 8713SOL     OW37774   3.513   3.453   3.524 -0.2124 -0.1944 -0.0539
 8713SOL    HW137775   3.431   3.478   3.481 -0.9067 -1.9838  0.2204
 8713SOL    HW237776   3.532   3.532   3.574 -3.5117  0.1135  0.6895
 8714SOL     OW37777   0.292   3.320   5.391 -0.0059 -0.2829 -0.0904
 8714SOL    HW137778   0.256   3.237   5.424  2.4599 -0.9370  1.0212
 8714SOL    HW237779   0.271   3.374   5.467  2.4431  1.2538 -0.5067
 8715SOL     OW37780   0.814   2.714   7.436 -0.0028  0.3866 -0.2979
 8715SOL    HW137781   0.884   2.773   7.407  0.4562  0.0383  0.1059
 8715SOL    HW237782   0.738   2.771   7.423 -0.1799  0.3696  0.6521
 8716SOL     OW37783   2.892   0.146   3.007  0.0922  0.5794 -0.2014
 8716SOL    HW137784   2.907   0.141   2.913  0.0294  3.6018 -0.3639
 8716SOL    HW237785   2.838   0.225   3.001 -2.1468 -0.9443 -0.2857
 8717SOL     OW37786   1.428   1.376   2.799  0.1355  0.0170  0.1976
 8717SOL    HW137787   1.426   1.398   2.706  2.0413  3.2785  0.9397
 8717SOL    HW237788   1.476   1.293   2.791  1.9727  1.0860  0.2069
 8718SOL     OW37789   1.527   3.872  16.301  0.3491 -0.5884  0.1152
 8718SOL    HW137790   1.569   3.893  16.385  0.3723 -1.9126  0.4348
 8718SOL    HW237791   1.541   3.952  16.251  0.7922 -1.2958 -0.8832
 8719SOL     OW37792   3.237   3.964  15.340 -0.6602  0.1698 -0.3575
 8719SOL    HW137793   3.238   3.954  15.245  0.4501  1.7213 -0.5074
 8719SOL    HW237794   3.330   3.963  15.362 -1.1231  0.6380  1.6259
 8720SOL     OW37795   3.983   0.116   3.383 -0.0816  0.0062 -0.0603
 8720SOL    HW137796   4.026   0.186   3.335 -0.0634  0.1808  0.2083
 8720SOL    HW237797   4.010   0.044   3.326  0.3643 -0.8966  1.3072
 8721SOL     OW37798   1.109   0.740   2.776 -0.0021  0.4673  0.4021
 8721SOL    HW137799   1.168   0.693   2.717  0.6935  2.4808 -0.4878
 8721SOL    HW237800   1.165   0.754   2.852 -0.3354  1.5174  0.4441
 8722SOL     OW37801   4.676   2.937   8.204 -0.5949  0.1821  0.4449
 8722SOL    HW137802   4.631   2.855   8.187 -1.2184  0.8944 -1.3513
 8722SOL    HW237803   4.700   2.955   8.113  1.9953  3.5607  1.8017
 8723SOL     OW37804   3.074   2.888   5.939  0.3083  0.3640 -0.3066
 8723SOL    HW137805   3.137   2.816   5.934 -0.7763 -0.6849  1.5775
 8723SOL    HW237806   3.135   2.961   5.950  0.9966 -0.1800 -0.5000
 8724SOL     OW37807   2.035   1.838   2.485 -0.2357  0.0551 -0.0848
 8724SOL    HW137808   2.092   1.915   2.480  0.3167 -0.2484  1.2944
 8724SOL    HW237809   2.035   1.806   2.395  0.2748  0.0296 -0.0752
 8725SOL     OW37810   1.288   4.051   4.438  0.4022  0.0933  0.3990
 8725SOL    HW137811   1.215   4.064   4.498  0.2099 -1.3700  0.4698
 8725SOL    HW237812   1.274   4.129   4.383 -0.7015  0.2912  0.9591
 8726SOL     OW37813   0.320   0.768   6.574  0.4124 -0.2564 -0.2964
 8726SOL    HW137814   0.398   0.791   6.523  1.0987 -2.3230 -0.1671
 8726SOL    HW237815   0.356   0.697   6.626  1.6341  0.5586 -0.0284
 8727SOL     OW37816   2.924   2.889   8.129 -0.6304 -0.0731 -0.4753
 8727SOL    HW137817   2.862   2.819   8.148 -0.6969  0.7353  2.2354
 8727SOL    HW237818   2.891   2.950   8.195 -1.8052 -2.1168  0.8137
 8728SOL     OW37819   3.965   0.305   4.180  0.3486 -0.3169  0.1682
 8728SOL    HW137820   3.990   0.319   4.271 -0.3954  1.0971  0.1570
 8728SOL    HW237821   3.935   0.392   4.156  1.1474 -0.2968 -0.7383
 8729SOL     OW37822   4.416   3.169   0.866  0.2143  0.1035  0.2347
 8729SOL    HW137823   4.397   3.180   0.773 -0.5099  1.0854  0.5018
 8729SOL    HW237824   4.330   3.156   0.906 -0.0309  1.1759  0.0456
 8730SOL     OW37825   1.898   3.721   9.435  0.5483  0.4019 -0.5679
 8730SOL    HW137826   1.958   3.668   9.489 -0.5530 -0.1768  0.0829
 8730SOL    HW237827   1.944   3.805   9.437  2.5218 -0.7073  1.6747
 8731SOL     OW37828   0.039   1.153   1.869 -0.1248  0.4056 -0.7523
 8731SOL    HW137829   4.721   1.215   1.821  0.0947  1.2587  0.0958
 8731SOL    HW237830   0.079   1.207   1.938  1.0078 -0.1657 -0.9635
 8732SOL     OW37831   1.678   0.255   4.515  0.4282  0.1315 -0.0253
 8732SOL    HW137832   1.702   0.312   4.442  0.2332 -0.2991 -0.4263
 8732SOL    HW237833   1.758   0.247   4.568 -1.9773  0.4021  3.6716
 8733SOL     OW37834   1.834   3.567   4.068  0.7863 -0.5230  0.0112
 8733SOL    HW137835   1.825   3.499   4.135  0.5108 -1.2242 -0.7359
 8733SOL    HW237836   1.755   3.612   4.096  0.7749 -0.3521 -0.3042
 8734SOL     OW37837   2.570   3.918   0.118 -0.6480  0.1501  0.6160
 8734SOL    HW137838   2.650   3.873   0.094 -1.3567  0.1636 -1.8324
 8734SOL    HW237839   2.503   3.870   0.069  0.0111 -0.2130  0.0840
 8735SOL     OW37840   1.295   2.646   7.658 -0.1869  0.2678 -0.2083
 8735SOL    HW137841   1.199   2.651   7.653 -0.3756 -1.6218  2.1579
 8735SOL    HW237842   1.325   2.634   7.568  1.3315 -2.0798  0.6186
 8736SOL     OW37843   0.108   2.544   5.057 -0.5450  0.2963 -0.1411
 8736SOL    HW137844   0.113   2.545   4.961  0.4971  0.7092 -0.0847
 8736SOL    HW237845   0.022   2.508   5.080 -1.0132  0.2888 -1.8449
 8737SOL     OW37846   3.430   3.747   2.498 -0.6380  0.1337  0.3479
 8737SOL    HW137847   3.337   3.735   2.478 -0.6520 -0.6947  0.8948
 8737SOL    HW237848   3.477   3.755   2.415 -1.0716  1.3864  0.2133
 8738SOL     OW37849   0.422   3.586   7.125 -0.1292 -0.6327  0.4898
 8738SOL    HW137850   0.429   3.600   7.220  0.6561 -0.2574  0.3754
 8738SOL    HW237851   0.381   3.500   7.122  0.3635 -0.8984  1.3160
 8739SOL     OW37852   1.186   2.485  16.366  0.2933 -0.2707  0.2000
 8739SOL    HW137853   1.176   2.410  16.307 -0.6093  0.1014 -0.1146
 8739SOL    HW237854   1.113   2.480  16.427  0.4406  0.3797  0.4297
 8740SOL     OW37855   0.452   2.727   2.513  0.9527  0.0778  0.0861
 8740SOL    HW137856   0.448   2.631   2.511  0.3939  0.0689  1.5675
 8740SOL    HW237857   0.367   2.753   2.477  0.7934 -1.6148 -0.7741
 8741SOL     OW37858   3.402   3.939  14.481 -0.0929  0.1779 -0.0199
 8741SOL    HW137859   3.314   3.939  14.443  0.1044 -0.3404 -0.4851
 8741SOL    HW237860   3.380   3.948  14.573 -1.0092 -0.0167 -0.2223
 8742SOL     OW37861   2.545   1.989  11.774 -0.5204  0.0860 -0.4053
 8742SOL    HW137862   2.606   2.061  11.791 -0.3366  0.4871 -2.6456
 8742SOL    HW237863   2.480   2.006  11.842  2.0370  0.9389  1.8127
 8743SOL     OW37864   2.775   3.091   2.121 -0.9945  0.8632 -0.3996
 8743SOL    HW137865   2.725   3.089   2.202  3.9741  1.5697  2.7067
 8743SOL    HW237866   2.736   3.019   2.071 -1.1074 -0.3928  1.5191
 8744SOL     OW37867   3.756   2.578   7.944 -0.1838  0.8268  0.4335
 8744SOL    HW137868   3.823   2.512   7.962 -0.5851  0.4294  0.4542
 8744SOL    HW237869   3.777   2.608   7.855  2.2181 -2.1420  0.0099
 8745SOL     OW37870   0.894   2.668   5.412  0.4891  0.5391  0.1520
 8745SOL    HW137871   0.909   2.692   5.321 -0.6401 -0.3959 -0.2839
 8745SOL    HW237872   0.836   2.738   5.440 -0.4815 -1.6577  3.5925
 8746SOL     OW37873   3.833   3.784   9.217 -0.3129  0.3912 -0.6275
 8746SOL    HW137874   3.763   3.793   9.281  0.7736 -0.0563  0.6024
 8746SOL    HW237875   3.869   3.696   9.229 -1.0201 -0.3540 -3.9598
 8747SOL     OW37876   1.463   0.594   7.945  0.1091 -0.3872 -0.0490
 8747SOL    HW137877   1.498   0.678   7.975  0.4691  0.3068 -2.4423
 8747SOL    HW237878   1.474   0.540   8.023  0.1304  1.5893  1.3227
 8748SOL     OW37879   2.716   0.473   6.570  0.3568 -0.2252  0.1173
 8748SOL    HW137880   2.627   0.491   6.601  0.4368  1.7891 -0.8006
 8748SOL    HW237881   2.700   0.484   6.477  1.5588 -1.2759 -0.2175
 8749SOL     OW37882   1.026   0.227   8.901 -0.5673  0.9536 -0.1401
 8749SOL    HW137883   1.092   0.186   8.846 -0.4755  0.4252  0.3685
 8749SOL    HW237884   0.976   0.151   8.930  2.3278 -0.1319  2.0564
 8750SOL     OW37885   3.076   2.064   1.055 -0.2837 -0.2169 -0.5757
 8750SOL    HW137886   3.120   1.983   1.029  1.0071  0.5108 -0.6851
 8750SOL    HW237887   3.146   2.098   1.111 -0.3437 -1.5887  0.3336
 8751SOL     OW37888   0.149   2.606   8.226  0.6507  0.1040  0.2163
 8751SOL    HW137889   0.055   2.592   8.240  0.3631  1.9494  0.1355
 8751SOL    HW237890   0.168   2.512   8.234  2.1610  0.6488  3.0255
 8752SOL     OW37891   0.946   2.973   9.484 -0.0246  0.5046 -0.0870
 8752SOL    HW137892   1.015   3.037   9.469 -0.2508  0.8551  0.3774
 8752SOL    HW237893   0.910   2.953   9.398 -1.3027 -5.9521  1.9284
 8753SOL     OW37894   0.516   4.372  16.628  0.0760  0.0472  0.4326
 8753SOL    HW137895   0.483   4.282  16.633  0.2816  0.0038  0.9985
 8753SOL    HW237896   0.439   4.417  16.662  0.5614  1.5779 -0.4850
 8754SOL     OW37897   3.610   0.619   9.828  0.0443 -0.4705 -0.2766
 8754SOL    HW137898   3.528   0.614   9.779 -0.3911 -1.1554  0.5316
 8754SOL    HW237899   3.672   0.604   9.756  1.2755  2.0064  0.2606
 8755SOL     OW37900   2.459   1.850   8.900  0.0574 -0.0298 -0.1388
 8755SOL    HW137901   2.425   1.925   8.949  0.7617  0.1474  0.0786
 8755SOL    HW237902   2.450   1.879   8.810  2.8770  2.5368  0.4266
 8756SOL     OW37903   1.155   3.792   5.219 -0.4281  0.0620 -0.4478
 8756SOL    HW137904   1.140   3.718   5.160 -0.9116  2.3278 -3.1781
 8756SOL    HW237905   1.084   3.776   5.282 -0.4470  1.1106 -0.1995
 8757SOL     OW37906   1.758   1.753  15.627 -0.0419 -0.0166 -0.4526
 8757SOL    HW137907   1.793   1.842  15.630 -0.5374  0.2492 -2.7365
 8757SOL    HW237908   1.831   1.706  15.665 -1.7242 -2.0435  0.2596
 8758SOL     OW37909   3.333   2.805   4.545  0.1357  0.5078  0.0123
 8758SOL    HW137910   3.378   2.723   4.523  3.8810  1.7712  2.8976
 8758SOL    HW237911   3.260   2.802   4.484  0.3865 -2.9734 -0.1355
 8759SOL     OW37912   0.114   3.716  17.308 -0.2370  0.1138  0.2849
 8759SOL    HW137913   0.181   3.757  17.362  1.6628 -1.9977 -0.4672
 8759SOL    HW237914   0.127   3.746  17.218  0.9806 -0.9595  0.0880
 8760SOL     OW37915   3.616   1.026   3.354  0.4993  0.0269 -0.3800
 8760SOL    HW137916   3.679   0.972   3.401  0.5733 -0.8957 -1.5293
 8760SOL    HW237917   3.538   0.975   3.375  0.9488 -0.5679 -0.1530
 8761SOL     OW37918   3.964   2.418   8.018 -0.3572 -0.5025 -0.5660
 8761SOL    HW137919   4.012   2.421   8.101 -1.0316  0.0744 -0.1898
 8761SOL    HW237920   4.024   2.466   7.962 -1.5190  3.0513  1.2071
 8762SOL     OW37921   2.865   4.182   4.360  0.6932 -0.5007 -0.1502
 8762SOL    HW137922   2.884   4.216   4.272 -0.0673  0.4772  0.0697
 8762SOL    HW237923   2.914   4.100   4.354  0.6699 -0.5917  0.9929
 8763SOL     OW37924   4.622   2.477   6.945 -0.1120  0.1260 -0.0402
 8763SOL    HW137925   4.534   2.505   6.919 -0.0692 -0.5369 -0.9105
 8763SOL    HW237926   4.632   2.536   7.019 -3.8515 -0.8873  1.2883
 8764SOL     OW37927   2.961   3.371   3.745  0.5802 -0.1760 -0.0193
 8764SOL    HW137928   2.884   3.413   3.782 -0.4548 -1.1546 -1.0466
 8764SOL    HW237929   2.957   3.285   3.786 -0.7542 -0.0563  0.0966
 8765SOL     OW37930   1.255   3.873   8.612  0.6838 -0.2280  0.4086
 8765SOL    HW137931   1.340   3.871   8.656  0.3166  0.2439  1.1452
 8765SOL    HW237932   1.232   3.780   8.613  2.8298 -0.7611  0.2404
 8766SOL     OW37933   2.669   4.559   4.232 -0.3100  0.5359  0.0808
 8766SOL    HW137934   2.607   4.511   4.178  0.1434 -1.4834  1.3323
 8766SOL    HW237935   2.694   4.484   4.287  1.3621 -0.1674 -1.6430
 8767SOL     OW37936   0.167   1.231   0.353 -0.0375 -0.0419 -0.0769
 8767SOL    HW137937   0.159   1.242   0.258 -0.0474 -1.5138 -0.2520
 8767SOL    HW237938   0.125   1.313   0.380 -2.5208 -1.8666  1.6811
 8768SOL     OW37939   1.159   3.463   5.280  0.4073 -0.0998  0.1040
 8768SOL    HW137940   1.067   3.488   5.283  0.1426 -1.0396 -0.3595
 8768SOL    HW237941   1.162   3.391   5.343  0.9674  1.4292  1.8281
 8769SOL     OW37942   0.590   4.442   8.426 -0.3916  0.6112  0.1766
 8769SOL    HW137943   0.617   4.392   8.503 -1.7617 -0.2655  0.0994
 8769SOL    HW237944   0.676   4.475   8.401 -1.6598  2.6190 -1.5529
 8770SOL     OW37945   0.248   3.694   4.050 -0.0084  0.6662 -0.6074
 8770SOL    HW137946   0.173   3.648   4.012 -0.3065  2.6362 -2.4075
 8770SOL    HW237947   0.286   3.634   4.115 -0.3436  0.5132 -0.5534
 8771SOL     OW37948   3.739   2.544   4.861 -0.0415  0.5148 -0.1511
 8771SOL    HW137949   3.664   2.528   4.803  0.9455  0.1659 -1.3397
 8771SOL    HW237950   3.700   2.610   4.918  2.3132  1.7017  0.0942
 8772SOL     OW37951   3.137   4.030   3.586 -0.0105  0.3956 -0.0826
 8772SOL    HW137952   3.222   4.008   3.625  1.3384 -0.1929 -3.3139
 8772SOL    HW237953   3.113   4.115   3.623  1.5092 -0.0258  1.8749
 8773SOL     OW37954   3.411   4.171   3.787 -0.1685 -0.5361 -0.6192
 8773SOL    HW137955   3.414   4.079   3.814  0.0904 -0.9039 -1.8810
 8773SOL    HW237956   3.355   4.208   3.855 -0.5252 -3.4213  0.6577
 8774SOL     OW37957   2.914   3.252   3.008 -0.1765  0.4941  0.5778
 8774SOL    HW137958   2.998   3.296   2.997 -0.2496  0.3097 -0.7231
 8774SOL    HW237959   2.849   3.321   3.022 -0.1799  0.8692 -1.2023
 8775SOL     OW37960   4.215   0.215   7.345  0.2106  0.2457 -0.0938
 8775SOL    HW137961   4.172   0.132   7.324 -0.2949 -0.2316  2.7866
 8775SOL    HW237962   4.304   0.202   7.312  0.2192 -0.0418  0.0349
 8776SOL     OW37963   1.282   3.820   8.067  0.1484 -0.0828  0.7343
 8776SOL    HW137964   1.247   3.745   8.020  1.3741 -0.8108  0.9829
 8776SOL    HW237965   1.336   3.775   8.132  2.9926  1.0366 -0.8452
 8777SOL     OW37966   4.371   3.440   3.126 -0.5106 -0.3281  0.0637
 8777SOL    HW137967   4.437   3.479   3.184  1.1562 -0.6996 -1.5910
 8777SOL    HW237968   4.318   3.399   3.195  0.8040 -1.5928  0.3083
 8778SOL     OW37969   4.506   3.044  16.657  0.2048 -0.2943  0.3253
 8778SOL    HW137970   4.575   3.033  16.592  0.5335  1.3426  0.4029
 8778SOL    HW237971   4.456   2.962  16.658 -1.5248  0.7730 -0.1921
 8779SOL     OW37972   2.864   3.180   6.597 -0.1006  0.2211 -0.3245
 8779SOL    HW137973   2.873   3.178   6.502 -1.6926 -1.8954 -0.4256
 8779SOL    HW237974   2.772   3.155   6.606 -0.0071 -0.3817 -1.0615
 8780SOL     OW37975   3.897   1.732   0.351 -0.4087 -0.2657 -0.2566
 8780SOL    HW137976   3.928   1.703   0.437 -1.2873 -1.4252 -0.3278
 8780SOL    HW237977   3.867   1.819   0.378  2.7772  0.5741  0.4830
 8781SOL     OW37978   1.857   1.175   4.078  0.6628  0.1856 -0.5890
 8781SOL    HW137979   1.865   1.095   4.129  1.5317 -0.4791 -1.7572
 8781SOL    HW237980   1.840   1.234   4.151 -0.3576  0.1976 -0.8372
 8782SOL     OW37981   4.076   2.646   7.828  0.3222  0.3664 -0.2403
 8782SOL    HW137982   4.108   2.713   7.768 -0.4277  1.8895  1.0646
 8782SOL    HW237983   4.005   2.610   7.775  1.8069 -2.2351 -0.4713
 8783SOL     OW37984   1.889   2.128   6.402  0.6046 -0.0719 -0.0708
 8783SOL    HW137985   1.940   2.056   6.438 -0.3736  0.2537  1.9293
 8783SOL    HW237986   1.904   2.131   6.307 -1.0362  1.4225 -0.2960
 8784SOL     OW37987   3.223   3.714   5.802 -0.5092  0.2769 -0.0634
 8784SOL    HW137988   3.153   3.651   5.817  0.5486 -0.3166  2.3849
 8784SOL    HW237989   3.226   3.714   5.706  3.9264 -0.6069  0.1009
 8785SOL     OW37990   2.819   4.683  16.854  0.0322 -0.1118 -0.7138
 8785SOL    HW137991   2.907   4.679  16.818  0.5305 -0.0391  0.5141
 8785SOL    HW237992   2.775   0.000  16.789  1.9826 -0.4039 -2.2722
 8786SOL     OW37993   2.051   1.669   6.942  0.3789 -0.3176  0.8390
 8786SOL    HW137994   2.087   1.715   7.018  0.2322  0.7507  0.2701
 8786SOL    HW237995   1.975   1.726   6.930  0.3383 -0.4202  0.6215
 8787SOL     OW37996   1.625   0.948   4.133  0.0890  0.6895  0.2760
 8787SOL    HW137997   1.651   0.860   4.107  0.0693  1.3862 -2.0403
 8787SOL    HW237998   1.646   0.942   4.226 -3.2290  0.3376  1.0325
 8788SOL     OW37999   0.116   2.823   3.317  0.0941  0.1176  0.3595
 8788SOL    HW138000   0.151   2.888   3.256  0.4967  0.4873  0.9780
 8788SOL    HW238001   0.139   2.742   3.271 -1.1910 -0.1011  0.1090
 8789SOL     OW38002   4.384   4.131   7.470  0.2441 -0.3827 -0.2772
 8789SOL    HW138003   4.352   4.204   7.417  2.3008  0.3110 -0.5596
 8789SOL    HW238004   4.454   4.180   7.513 -0.8173  2.1417 -1.3915
 8790SOL     OW38005   3.393   1.379   3.890  0.0033 -0.1973 -0.3878
 8790SOL    HW138006   3.453   1.314   3.852  2.0923  1.3096  0.3437
 8790SOL    HW238007   3.411   1.460   3.842 -1.8350  0.1646 -0.4370
 8791SOL     OW38008   1.896   2.003  15.600 -0.5393 -0.3315 -0.6754
 8791SOL    HW138009   1.941   2.087  15.588 -1.4300  0.3139  0.6177
 8791SOL    HW238010   1.967   1.942  15.580  0.8499  0.8203  0.7140
 8792SOL     OW38011   2.660   2.414  10.950  0.1194  0.5789 -0.5819
 8792SOL    HW138012   2.606   2.468  10.892 -0.5581 -0.9219 -1.3480
 8792SOL    HW238013   2.701   2.479  11.007  0.2120  0.8101 -0.9109
 8793SOL     OW38014   3.937   3.420   4.383  0.2235 -0.3559 -0.2329
 8793SOL    HW138015   3.982   3.454   4.306 -1.9294 -2.0792 -2.2134
 8793SOL    HW238016   3.872   3.359   4.349 -1.7446  1.4890  0.2339
 8794SOL     OW38017   0.631   3.013   3.688  0.0067  0.0982  0.7905
 8794SOL    HW138018   0.606   3.045   3.775 -1.4863  0.0762  0.3714
 8794SOL    HW238019   0.626   2.920   3.709 -0.1721  0.4716  2.4053
 8795SOL     OW38020   0.240   1.774   8.134  0.0218  0.9743  0.1111
 8795SOL    HW138021   0.166   1.739   8.086  1.0738 -2.0676  0.7067
 8795SOL    HW238022   0.232   1.732   8.220 -2.2829 -1.3385 -1.2197
 8796SOL     OW38023   3.915   4.522   2.115  0.0825  0.1234  0.5924
 8796SOL    HW138024   3.892   4.442   2.163 -2.1786 -0.4512 -1.4742
 8796SOL    HW238025   3.879   4.581   2.181  2.3641  1.2761  0.7742
 8797SOL     OW38026   2.144   4.670  16.422  0.1657 -0.3014 -0.3761
 8797SOL    HW138027   2.080   4.600  16.403  0.1401 -0.6943  1.1143
 8797SOL    HW238028   2.097   0.016  16.422  0.3421 -0.2025 -0.5674
 8798SOL     OW38029   0.604   4.692   4.998  0.6515  0.3215 -0.0179
 8798SOL    HW138030   0.622   4.663   5.088 -0.3541  1.4180  0.5567
 8798SOL    HW238031   0.694   4.707   4.971  0.6389 -1.8500 -1.2214
 8799SOL     OW38032   3.839   1.070  12.639 -0.2763  0.1821  0.8918
 8799SOL    HW138033   3.866   1.036  12.554  1.8509  3.6098  0.2265
 8799SOL    HW238034   3.924   1.051  12.679  0.0285  0.2263  0.2622
 8800SOL     OW38035   1.918   0.697   3.460 -0.1295 -0.0807  0.0539
 8800SOL    HW138036   1.863   0.765   3.499 -0.2594  0.7975 -1.6370
 8800SOL    HW238037   1.948   0.637   3.528  0.7749  0.2758 -0.0340
 8801SOL     OW38038   1.349   2.038   6.448 -0.0289 -0.2008  0.0588
 8801SOL    HW138039   1.400   1.959   6.429  1.7074  1.4444 -2.0473
 8801SOL    HW238040   1.388   2.101   6.387 -0.9887  0.8210  0.5124
 8802SOL     OW38041   1.119   2.071  15.682  0.1117  0.6280  0.4485
 8802SOL    HW138042   1.194   2.013  15.697  0.4189  1.5846  2.6774
 8802SOL    HW238043   1.057   1.999  15.685  1.9798 -1.0393 -1.1404
 8803SOL     OW38044   3.862   4.691   9.292  0.0825  0.2272  0.8227
 8803SOL    HW138045   3.919   0.024   9.320 -0.1341  0.7275 -0.0194
 8803SOL    HW238046   3.854   4.634   9.369 -1.0195  1.1067  1.3758
 8804SOL     OW38047   3.825   3.222   9.234 -0.0165  0.7496  0.2452
 8804SOL    HW138048   3.741   3.238   9.190  0.7632  0.8139 -1.2435
 8804SOL    HW238049   3.815   3.301   9.287 -1.7165  0.3006  0.6100
 8805SOL     OW38050   3.052   3.755   5.314  0.4647  0.8478  0.5386
 8805SOL    HW138051   2.975   3.806   5.340 -0.2526 -1.0912  2.2378
 8805SOL    HW238052   3.118   3.822   5.300  1.3952  0.1206  1.3909
 8806SOL     OW38053   2.078   2.257   3.606  0.0156  0.3230  0.0391
 8806SOL    HW138054   2.117   2.191   3.549 -3.4326 -0.8427 -1.0158
 8806SOL    HW238055   2.129   2.337   3.593 -2.5139  1.7949 -0.8917
 8807SOL     OW38056   2.919   3.370   7.828  0.4925 -0.0275  0.0303
 8807SOL    HW138057   2.985   3.315   7.871 -0.2892 -0.8766  0.1617
 8807SOL    HW238058   2.931   3.445   7.887 -0.5883  0.5288 -0.4607
 8808SOL     OW38059   1.113   0.453   3.374 -0.8628 -0.1710  0.4104
 8808SOL    HW138060   1.184   0.390   3.359 -0.5334  0.8047 -2.1481
 8808SOL    HW238061   1.073   0.459   3.287  0.2881  0.1094 -0.1017
 8809SOL     OW38062   4.086   0.614   6.893  0.4227 -0.0359 -0.4753
 8809SOL    HW138063   4.173   0.573   6.903  0.6982  0.8248  0.7156
 8809SOL    HW238064   4.039   0.569   6.963  0.7765 -0.8582 -0.7718
 8810SOL     OW38065   0.644   1.645   4.504  0.2756 -0.1038  0.1966
 8810SOL    HW138066   0.650   1.674   4.595 -0.8496  2.2034 -0.4609
 8810SOL    HW238067   0.733   1.623   4.478 -0.9907 -0.5948 -3.7211
 8811SOL     OW38068   0.542   1.616  14.045  0.3402 -0.4335  0.0101
 8811SOL    HW138069   0.631   1.617  14.079 -0.1850 -0.2242  1.3821
 8811SOL    HW238070   0.533   1.522  14.033  0.1612 -0.3589 -0.4682
 8812SOL     OW38071   0.651   3.801  11.266  0.0256 -0.0798 -0.3800
 8812SOL    HW138072   0.616   3.762  11.347 -0.1827 -1.3090 -1.0556
 8812SOL    HW238073   0.580   3.800  11.202 -0.7314 -0.5982  0.4648
 8813SOL     OW38074   2.140   3.499   8.006 -0.5826 -0.2384  0.8809
 8813SOL    HW138075   2.181   3.464   7.927 -2.8804 -0.7392 -0.0918
 8813SOL    HW238076   2.092   3.430   8.051 -1.2280  0.3982  1.1705
 8814SOL     OW38077   1.305   3.542   5.046 -0.3546 -0.2890  0.2602
 8814SOL    HW138078   1.250   3.596   4.989  0.6678 -0.1737 -0.6348
 8814SOL    HW238079   1.241   3.515   5.112 -0.5072 -2.1059 -0.6053
 8815SOL     OW38080   1.162   4.646  16.962  0.3146 -0.2374  0.9311
 8815SOL    HW138081   1.095   4.655  16.894 -1.0349  1.7809  2.5420
 8815SOL    HW238082   1.108   4.606  17.030  2.1586 -2.7428  0.9332
 8816SOL     OW38083   1.099   2.560  14.802 -0.7280  0.0338  0.5133
 8816SOL    HW138084   1.190   2.586  14.816 -0.7281  0.6239 -0.5766
 8816SOL    HW238085   1.094   2.493  14.870 -0.3818 -2.0105 -1.4717
 8817SOL     OW38086   0.587   1.542  12.394 -0.0533 -0.1423 -0.5291
 8817SOL    HW138087   0.589   1.500  12.308 -2.3900 -2.4123  0.5410
 8817SOL    HW238088   0.574   1.636  12.381 -0.1760  0.1041  1.3715
 8818SOL     OW38089   3.557   1.287   3.344 -0.1583 -0.2601 -0.2810
 8818SOL    HW138090   3.642   1.290   3.301  0.4187  2.5590  1.0282
 8818SOL    HW238091   3.551   1.192   3.347 -2.3911 -0.0534  1.9614
 8819SOL     OW38092   2.814   0.670   9.155 -0.5571  0.4462  0.0290
 8819SOL    HW138093   2.815   0.745   9.213 -0.8090  0.5437 -0.0952
 8819SOL    HW238094   2.907   0.650   9.144 -0.1673  2.1040  0.3546
 8820SOL     OW38095   3.171   1.971   5.190  0.2431  0.3555  0.5999
 8820SOL    HW138096   3.148   1.902   5.253 -0.9106 -0.8588 -1.1703
 8820SOL    HW238097   3.177   2.048   5.247 -0.6118 -0.0140  1.2001
 8821SOL     OW38098   0.511   4.726  15.890  0.2004  0.1764 -0.3043
 8821SOL    HW138099   0.435   0.033  15.852  0.8937 -0.3562 -2.3279
 8821SOL    HW238100   0.579   0.054  15.877 -1.8376  2.2227 -0.6724
 8822SOL     OW38101   3.175   4.669   2.069 -0.9732  0.0812  0.2302
 8822SOL    HW138102   3.260   4.631   2.047 -2.1360 -1.5970 -1.3345
 8822SOL    HW238103   3.176   4.658   2.164 -3.6777 -1.6278  0.0632
 8823SOL     OW38104   1.258   1.328  11.077  0.4774 -0.2072 -0.6550
 8823SOL    HW138105   1.229   1.333  11.168  0.0046  0.7222 -0.8589
 8823SOL    HW238106   1.202   1.260  11.040 -0.6916  0.7385 -0.6199
 8824SOL     OW38107   4.643   2.547   2.016 -0.4406  0.2278  0.3921
 8824SOL    HW138108   4.625   2.626   1.966  1.1658  0.5498  0.3156
 8824SOL    HW238109   4.556   2.530   2.051 -0.3734  1.6415  1.2592
 8825SOL     OW38110   1.606   0.115   2.878 -0.1946  0.1703 -0.1546
 8825SOL    HW138111   1.612   0.209   2.897  0.3357  0.0166  0.3885
 8825SOL    HW238112   1.513   0.095   2.887 -0.1667 -0.1422 -0.5462
 8826SOL     OW38113   4.472   1.125  15.857  0.0575 -0.3200  0.2780
 8826SOL    HW138114   4.380   1.097  15.855 -0.5427  1.5633  1.6406
 8826SOL    HW238115   4.514   1.098  15.775 -1.1442 -1.9743  0.2071
 8827SOL     OW38116   0.087   1.915   4.725  0.4139  0.0159  0.1689
 8827SOL    HW138117   0.009   1.862   4.731  0.1248  0.1966 -2.0548
 8827SOL    HW238118   0.069   1.987   4.785 -3.5502  0.1819 -1.2512
 8828SOL     OW38119   0.774   2.147   5.665 -0.0488  0.3599 -0.1534
 8828SOL    HW138120   0.789   2.185   5.578  1.5085  0.5674  0.2099
 8828SOL    HW238121   0.832   2.072   5.671 -2.8014 -1.7096  0.3822
 8829SOL     OW38122   3.874   2.859   3.024 -0.1302  0.0224  0.4677
 8829SOL    HW138123   3.822   2.813   2.958 -0.4132  2.1153 -0.7840
 8829SOL    HW238124   3.954   2.807   3.019 -0.7356 -0.8191 -0.3826
 8830SOL     OW38125   0.432   4.473  10.721  0.1177 -0.1922 -0.5767
 8830SOL    HW138126   0.382   4.490  10.801 -0.2491  0.1294 -0.8749
 8830SOL    HW238127   0.380   4.525  10.660 -1.4882 -1.0680  0.0366
 8831SOL     OW38128   4.447   3.854  11.787  0.0390  0.2817  0.2757
 8831SOL    HW138129   4.510   3.872  11.856 -1.2263  3.6612  0.5854
 8831SOL    HW238130   4.398   3.936  11.799  0.3650  0.3297  1.2108
 8832SOL     OW38131   2.126   1.144   8.362 -0.2595  0.7885  0.1539
 8832SOL    HW138132   2.165   1.059   8.343  0.0968  0.3474  2.8987
 8832SOL    HW238133   2.192   1.182   8.420 -0.2589 -0.2463  0.8242
 8833SOL     OW38134   4.537   2.001  15.876  0.0438  0.6220 -0.7557
 8833SOL    HW138135   4.505   1.924  15.830  0.2383  1.4816 -2.3373
 8833SOL    HW238136   4.586   1.962  15.948  0.1475 -0.6133 -1.5055
 8834SOL     OW38137   3.206   0.615  14.280  0.3506 -0.1320 -0.0193
 8834SOL    HW138138   3.162   0.606  14.365  0.2715  0.9677  0.0627
 8834SOL    HW238139   3.286   0.656  14.313 -0.7931  1.9702  0.1935
 8835SOL     OW38140   3.986   2.035  13.472 -0.1857 -0.1246  0.2515
 8835SOL    HW138141   4.041   1.992  13.537  0.7668  1.5222  0.5216
 8835SOL    HW238142   4.053   2.090  13.432 -0.3052 -0.6237 -0.6408
 8836SOL     OW38143   4.408   2.333   8.248 -0.2084 -0.0885  0.0329
 8836SOL    HW138144   4.411   2.238   8.234  2.2527 -0.0835  0.4829
 8836SOL    HW238145   4.394   2.364   8.159 -1.2533  1.6584  0.8027
 8837SOL     OW38146   3.025   3.054   1.941 -0.0309 -0.0124  0.1922
 8837SOL    HW138147   2.988   3.140   1.922 -1.9595 -0.8070  0.4039
 8837SOL    HW238148   2.971   2.997   1.886  1.0395 -2.3968  1.6422
 8838SOL     OW38149   2.248   2.896   2.416 -0.4780 -0.3863 -0.6849
 8838SOL    HW138150   2.296   2.816   2.439 -1.3210 -0.6048  0.3370
 8838SOL    HW238151   2.158   2.873   2.439 -0.6555  0.5281 -0.4747
 8839SOL     OW38152   0.654   4.497   2.845 -0.0120 -0.0285 -0.3452
 8839SOL    HW138153   0.583   4.434   2.835 -0.4265  0.7342 -2.1450
 8839SOL    HW238154   0.685   4.482   2.934 -0.0435  0.0349 -0.3241
 8840SOL     OW38155   1.238   3.800   6.108 -0.3053 -0.0663 -0.1760
 8840SOL    HW138156   1.216   3.823   6.198  1.2510 -0.0189  0.1802
 8840SOL    HW238157   1.154   3.764   6.080 -0.5386  0.4147 -0.0970
 8841SOL     OW38158   0.927   4.030   4.365  0.3881  0.0348  0.3675
 8841SOL    HW138159   0.860   4.094   4.389  0.2751 -0.2829  0.8866
 8841SOL    HW238160   0.988   4.055   4.435 -0.4160  1.6370  0.5050
 8842SOL     OW38161   3.115   3.688  14.848  0.3713  0.0208  0.3881
 8842SOL    HW138162   3.192   3.678  14.904  1.5958 -1.2215 -1.5328
 8842SOL    HW238163   3.103   3.600  14.814  1.7915  0.2611 -0.6976
 8843SOL     OW38164   0.740   4.053   3.968  0.7551 -0.0055  0.6151
 8843SOL    HW138165   0.808   4.092   3.913 -0.4580 -1.9291 -2.2468
 8843SOL    HW238166   0.685   4.127   3.993 -0.6484 -0.6832 -0.4483
 8844SOL     OW38167   0.251   0.425   8.553 -0.4540 -0.2407  0.2858
 8844SOL    HW138168   0.329   0.369   8.556 -1.3019 -1.4922 -0.9905
 8844SOL    HW238169   0.200   0.376   8.617 -0.7595  1.0694  1.0389
 8845SOL     OW38170   3.072   2.279   2.373  0.0254  0.3225  0.4304
 8845SOL    HW138171   2.990   2.283   2.423  1.3834  1.8099  2.5567
 8845SOL    HW238172   3.050   2.320   2.290 -0.4712  0.9741  0.8831
 8846SOL     OW38173   1.855   1.578   2.048 -0.0062  0.1993 -0.4351
 8846SOL    HW138174   1.762   1.597   2.044  0.2730  1.6905  0.1469
 8846SOL    HW238175   1.871   1.538   1.963  1.0963  0.4751 -0.3602
 8847SOL     OW38176   4.448   4.648   1.858 -0.5288 -0.0374 -0.2737
 8847SOL    HW138177   4.374   4.595   1.827  0.1545 -2.0702  1.5310
 8847SOL    HW238178   4.525   4.605   1.822  1.0954  1.9230  0.8734
 8848SOL     OW38179   0.273   3.009   4.812  0.0490  0.4035  0.0860
 8848SOL    HW138180   0.212   3.024   4.739  1.3986 -0.7642 -1.2786
 8848SOL    HW238181   0.347   3.034   4.757 -0.6439 -1.5297 -1.7248
 8849SOL     OW38182   3.783   2.562  17.436 -0.5301 -0.2523 -0.3757
 8849SOL    HW138183   3.745   2.475  17.450 -2.2191  0.5712  0.1325
 8849SOL    HW238184   3.875   2.550  17.462 -0.5169  1.6481  0.4420
 8850SOL     OW38185   4.048   0.029   7.226  0.4351 -0.2905  0.6133
 8850SOL    HW138186   3.961   4.726   7.229 -0.0150  0.5831 -0.5485
 8850SOL    HW238187   4.105   4.721   7.165  0.7420  1.8656 -0.7101
 8851SOL     OW38188   3.144   4.082  17.397 -0.3952 -0.1709  0.0768
 8851SOL    HW138189   3.137   4.027  17.476  0.7906 -0.0524  0.2636
 8851SOL    HW238190   3.222   4.136  17.408  0.0709 -0.8612  0.1100
 8852SOL     OW38191   3.023   0.991   4.667  0.1798  0.1783  0.3024
 8852SOL    HW138192   2.944   1.039   4.689 -1.4186 -1.8879 -0.9249
 8852SOL    HW238193   2.994   0.908   4.706  0.0357  0.4842  0.8415
 8853SOL     OW38194   0.787   1.256  14.973  0.1956 -0.1243 -0.3508
 8853SOL    HW138195   0.726   1.247  15.046  1.7851 -0.0811  1.0021
 8853SOL    HW238196   0.752   1.342  14.947 -0.7321 -0.5579 -0.5275
 8854SOL     OW38197   4.077   4.351   3.112 -0.2833  0.2735 -0.2798
 8854SOL    HW138198   4.063   4.304   3.030 -0.1500 -0.3318  0.0368
 8854SOL    HW238199   4.158   4.398   3.092  0.2247  0.1064  1.3126
 8855SOL     OW38200   3.167   1.631   4.151  0.0696 -0.0399 -0.0058
 8855SOL    HW138201   3.236   1.571   4.178  0.3618  0.5064  0.4352
 8855SOL    HW238202   3.207   1.663   4.070 -2.0778  0.2840 -0.9435
 8856SOL     OW38203   4.271   4.169   0.690 -0.1436 -0.0146  0.2063
 8856SOL    HW138204   4.216   4.105   0.735 -1.0326  1.0356  0.6191
 8856SOL    HW238205   4.221   4.178   0.609  1.6557  1.0505 -0.7647
 8857SOL     OW38206   3.001   3.356  10.003  0.1003  0.0689 -0.3987
 8857SOL    HW138207   2.923   3.333   9.952  0.6586  1.1750 -1.7520
 8857SOL    HW238208   3.008   3.451   9.995 -1.9611  0.0424 -2.5647
 8858SOL     OW38209   0.954   2.328  15.037 -0.1120 -0.7827 -0.3291
 8858SOL    HW138210   0.892   2.368  15.098  3.0746  3.7383 -0.0356
 8858SOL    HW238211   0.895   2.256  15.016  1.3533 -2.6372  1.9260
 8859SOL     OW38212   2.740   4.277  11.212  0.1674  0.3351 -0.3598
 8859SOL    HW138213   2.645   4.282  11.224  0.4943  4.4266  0.6178
 8859SOL    HW238214   2.773   4.363  11.187  0.0488 -0.3782 -3.0371
 8860SOL     OW38215   1.943   1.749   7.953  0.1209 -0.0528 -0.6685
 8860SOL    HW138216   1.883   1.810   7.996  0.3506  0.6453 -1.3216
 8860SOL    HW238217   1.897   1.666   7.957  0.5154 -0.2400  0.0879
 8861SOL     OW38218   4.637   1.224   2.848 -0.1094  0.4741 -0.1012
 8861SOL    HW138219   4.576   1.294   2.825  0.5760  0.7987 -0.9106
 8861SOL    HW238220   4.696   1.223   2.773  1.8371  1.4920  1.4359
 8862SOL     OW38221   2.658   3.755   1.706  0.1443  0.2123 -0.0255
 8862SOL    HW138222   2.563   3.744   1.712  0.0867  0.9967  0.3998
 8862SOL    HW238223   2.670   3.704   1.786 -0.1895 -0.3996 -0.3639
 8863SOL     OW38224   4.669   0.114  13.544 -0.4519 -0.6826  0.3979
 8863SOL    HW138225   4.702   0.024  13.551  2.7988  0.4186 -0.9052
 8863SOL    HW238226   4.579   0.089  13.566 -0.9044  1.6701  1.2036
 8864SOL     OW38227   2.458   3.224   2.087 -0.3202 -0.0140 -0.2981
 8864SOL    HW138228   2.499   3.274   2.157  0.6220 -0.1585 -0.7386
 8864SOL    HW238229   2.438   3.144   2.136  2.3073  0.6168  1.7967
 8865SOL     OW38230   4.293   4.702   5.810  0.0461 -0.2649 -0.6410
 8865SOL    HW138231   4.254   4.705   5.722  1.2568 -1.6218 -1.2291
 8865SOL    HW238232   4.370   0.020   5.798  0.1075 -0.6139 -1.8924
 8866SOL     OW38233   4.017   2.302   1.650  0.0209  0.3560 -0.4797
 8866SOL    HW138234   4.004   2.384   1.603 -1.9577  0.6563  0.5846
 8866SOL    HW238235   3.942   2.301   1.710  1.1852  2.3872  1.0068
 8867SOL     OW38236   2.646   1.216   7.080 -0.3010 -0.1551 -0.1814
 8867SOL    HW138237   2.666   1.310   7.074  0.0493 -0.2247 -0.1437
 8867SOL    HW238238   2.720   1.196   7.138  1.0371  0.2237 -1.7606
 8868SOL     OW38239   0.505   0.156  17.176  0.1593  0.6061  0.3613
 8868SOL    HW138240   0.559   0.233  17.194  1.0409  0.8970 -3.4678
 8868SOL    HW238241   0.545   0.095  17.238  0.0541  1.1818  0.9969
 8869SOL     OW38242   4.702   3.279   6.442 -0.3781  0.1061 -0.3565
 8869SOL    HW138243   4.690   3.332   6.521  0.1235 -1.4678  0.7654
 8869SOL    HW238244   4.613   3.259   6.415  0.2727 -2.6361 -0.4478
 8870SOL     OW38245   3.844   2.706   0.865 -0.7026  1.0186  0.5022
 8870SOL    HW138246   3.876   2.638   0.924 -0.3857  1.0612  0.3812
 8870SOL    HW238247   3.921   2.705   0.808 -2.1364 -1.2746 -1.3753
 8871SOL     OW38248   2.336   4.613   6.466  0.0390 -0.7622  0.2895
 8871SOL    HW138249   2.262   4.572   6.420 -0.0172  0.1481 -0.4256
 8871SOL    HW238250   2.307   4.703   6.479 -1.4784 -1.0865 -0.8135
 8872SOL     OW38251   2.293   0.875   2.454  0.2555 -0.2691 -0.8055
 8872SOL    HW138252   2.346   0.931   2.398 -0.0614 -0.3849 -1.2196
 8872SOL    HW238253   2.370   0.842   2.500  2.4712  0.6366 -3.8958
 8873SOL     OW38254   3.645   3.981   3.900  0.2861 -0.3914 -0.7731
 8873SOL    HW138255   3.555   3.962   3.872 -0.9717  0.4949  2.6628
 8873SOL    HW238256   3.626   4.038   3.974 -1.0940 -2.7004  0.6325
 8874SOL     OW38257   4.303   0.242   9.099  0.6275 -0.1626  0.3258
 8874SOL    HW138258   4.355   0.264   9.176  1.9366 -1.7034 -0.1264
 8874SOL    HW238259   4.311   0.147   9.101 -2.7843 -0.4387  1.2216
 8875SOL     OW38260   2.935   3.714  16.695  0.6019  0.3903  0.2311
 8875SOL    HW138261   2.987   3.641  16.729  1.6783  0.3351 -1.4981
 8875SOL    HW238262   2.847   3.677  16.687  0.0425  1.3194  2.1788
 8876SOL     OW38263   4.065   0.161   2.832  0.2523  0.2658 -0.1986
 8876SOL    HW138264   4.096   0.238   2.784 -1.8839  1.0170 -0.3597
 8876SOL    HW238265   3.987   0.180   2.883  1.4584 -1.2818  2.2369
 8877SOL     OW38266   0.393   3.350   5.886  0.0798 -0.5344 -0.6178
 8877SOL    HW138267   0.344   3.420   5.929  1.1684 -0.8722  1.2058
 8877SOL    HW238268   0.380   3.276   5.945  1.6366  1.6672  2.5471
 8878SOL     OW38269   0.019   2.448  15.081  0.4347 -0.1463  0.4684
 8878SOL    HW138270   0.061   2.379  15.132 -1.5052 -1.5106  0.2273
 8878SOL    HW238271   0.092   2.494  15.041 -0.1655 -0.3779 -0.8997
 8879SOL     OW38272   1.729   2.794   4.417 -0.0281 -0.2809 -0.1601
 8879SOL    HW138273   1.734   2.819   4.325 -2.0245  0.8038  0.0309
 8879SOL    HW238274   1.698   2.704   4.408  4.5949 -1.8035 -1.3671
 8880SOL     OW38275   3.721   3.338  11.583  0.6555  0.0512 -0.2946
 8880SOL    HW138276   3.682   3.406  11.528  1.3282  1.0786  0.4864
 8880SOL    HW238277   3.809   3.374  11.597  1.2362 -0.6903 -2.0048
 8881SOL     OW38278   3.501   1.411   3.588 -0.0475  0.4810 -0.1222
 8881SOL    HW138279   3.571   1.384   3.647 -1.3557  1.0541  1.6695
 8881SOL    HW238280   3.508   1.358   3.508 -1.2117  3.2459 -2.0795
 8882SOL     OW38281   0.451   4.076   7.668 -0.5416 -0.5686  0.2249
 8882SOL    HW138282   0.494   4.131   7.602  0.4610 -0.7410  0.7240
 8882SOL    HW238283   0.452   3.994   7.618  0.1522 -1.1821  1.2407
 8883SOL     OW38284   0.837   1.990   8.573  0.1726  0.5347 -0.3403
 8883SOL    HW138285   0.833   2.079   8.537  2.3340  0.5002 -0.6457
 8883SOL    HW238286   0.791   1.998   8.656  0.1639  1.6883 -0.4531
 8884SOL     OW38287   1.104   3.144   5.198  0.0470 -0.1802 -0.3630
 8884SOL    HW138288   1.099   3.113   5.288 -0.1062  0.1540 -0.2581
 8884SOL    HW238289   1.021   3.127   5.154 -1.3489 -3.2260  3.4651
 8885SOL     OW38290   0.578   2.513  16.728  0.0586  0.0891  0.0184
 8885SOL    HW138291   0.558   2.426  16.761  1.6320 -0.9829 -1.8106
 8885SOL    HW238292   0.502   2.547  16.680  0.0525 -1.5350 -1.1161
 8886SOL     OW38293   2.315   1.985   0.474  0.1458 -0.3250  0.6107
 8886SOL    HW138294   2.237   1.985   0.529  0.3079 -0.1724  0.8423
 8886SOL    HW238295   2.288   2.049   0.409  1.5884  1.2554  1.5524
 8887SOL     OW38296   3.205   0.296  15.933  0.6259 -0.0998  0.0078
 8887SOL    HW138297   3.132   0.352  15.959 -0.1171 -1.4134  0.7168
 8887SOL    HW238298   3.233   0.332  15.849  1.1414  0.7677  0.5572
 8888SOL     OW38299   4.143   0.119   2.093 -0.2608 -0.8525 -0.6253
 8888SOL    HW138300   4.103   0.151   2.012 -1.0334  1.6022  0.7095
 8888SOL    HW238301   4.137   0.027   2.066 -1.4087 -0.9945  0.1444
 8889SOL     OW38302   2.349   0.958  15.902 -0.1586  0.0101  0.2964
 8889SOL    HW138303   2.293   0.950  15.825 -0.4649  0.7696  0.4371
 8889SOL    HW238304   2.285   0.984  15.969 -0.1133  0.4584  0.1710
 8890SOL     OW38305   1.619   0.138   0.961 -0.5310  0.0973  0.5152
 8890SOL    HW138306   1.587   0.051   0.937  1.6329 -0.9414  1.3619
 8890SOL    HW238307   1.633   0.170   0.872  0.1028 -1.5554  0.0158
 8891SOL     OW38308   1.850   2.484   7.678 -0.1233 -0.0455  0.4773
 8891SOL    HW138309   1.905   2.496   7.601 -1.0592 -1.2690 -0.3938
 8891SOL    HW238310   1.770   2.535   7.667 -0.6164 -0.8179  0.4359
 8892SOL     OW38311   0.799   2.385  13.569 -0.1791 -0.0404 -0.2967
 8892SOL    HW138312   0.843   2.313  13.524  0.1947 -0.9735  1.5559
 8892SOL    HW238313   0.834   2.384  13.658 -3.0356  1.7152  0.8386
 8893SOL     OW38314   0.934   1.954  15.369  0.3732  0.0328 -0.0003
 8893SOL    HW138315   0.976   2.040  15.375  1.0026 -0.4040  1.6043
 8893SOL    HW238316   1.005   1.894  15.391  0.3492 -0.7506 -1.9983
 8894SOL     OW38317   3.031   1.834   5.752  0.1551  0.4369  0.5489
 8894SOL    HW138318   3.062   1.744   5.751 -2.0979 -0.3197  0.0059
 8894SOL    HW238319   3.110   1.873   5.713 -2.0006  3.9515 -0.3616
 8895SOL     OW38320   1.674   1.506   4.683 -0.1101 -0.6784 -0.6260
 8895SOL    HW138321   1.664   1.411   4.672 -0.2462 -1.0579  2.7579
 8895SOL    HW238322   1.589   1.535   4.717 -0.2162 -1.1418 -0.4960
 8896SOL     OW38323   1.150   3.743  13.451 -0.0483 -0.0873 -0.1160
 8896SOL    HW138324   1.239   3.758  13.480 -0.9756 -1.2480  3.4203
 8896SOL    HW238325   1.146   3.647  13.441  0.2323 -0.0156 -0.8955
 8897SOL     OW38326   0.684   1.802   7.891  0.4891  0.0732 -0.2670
 8897SOL    HW138327   0.740   1.785   7.967 -0.8777  1.7216  1.1200
 8897SOL    HW238328   0.600   1.836   7.920  0.7398 -0.4137  1.0191
 8898SOL     OW38329   1.435   3.089   1.760 -0.3713  0.3211  0.5388
 8898SOL    HW138330   1.433   3.078   1.855 -0.6882 -2.4970  0.2061
 8898SOL    HW238331   1.473   3.005   1.734 -0.3428  0.3112  0.6145
 8899SOL     OW38332   0.310   0.927  10.021  0.3388 -0.5736  0.1472
 8899SOL    HW138333   0.254   1.001   9.997  0.0819 -0.8308 -0.0494
 8899SOL    HW238334   0.392   0.945   9.975  0.3973  0.1430  0.5146
 8900SOL     OW38335   4.605   3.540   9.414 -0.7511  0.2099 -0.1309
 8900SOL    HW138336   4.543   3.520   9.344  0.8835 -1.6422 -1.0415
 8900SOL    HW238337   4.580   3.626   9.447  3.1303  1.4919 -0.5437
 8901SOL     OW38338   1.996   2.178   3.992  0.7739  0.2087 -0.3457
 8901SOL    HW138339   1.991   2.225   3.908 -0.8555  0.5200 -0.0771
 8901SOL    HW238340   2.042   2.234   4.055  1.0618  0.9386 -1.2021
 8902SOL     OW38341   3.620   3.906   2.021 -0.0644  0.0327  0.1074
 8902SOL    HW138342   3.685   3.927   1.954 -0.1062 -0.9867 -0.2525
 8902SOL    HW238343   3.544   3.876   1.972  0.2937 -0.7991  0.0671
 8903SOL     OW38344   1.616   0.838   7.442  0.6378 -0.1563  0.3511
 8903SOL    HW138345   1.547   0.898   7.471 -0.6349 -2.3066  1.8105
 8903SOL    HW238346   1.613   0.849   7.347  0.9348 -0.4533  0.3086
 8904SOL     OW38347   3.247   0.470   2.377 -0.0809 -0.7376  0.0389
 8904SOL    HW138348   3.287   0.471   2.464 -1.6301 -2.7066  0.7965
 8904SOL    HW238349   3.312   0.424   2.325  0.4296  1.5741 -1.3744
 8905SOL     OW38350   2.263   3.982   6.196  0.0960  0.0208  0.3099
 8905SOL    HW138351   2.260   4.073   6.165 -0.4180 -0.0456  0.1709
 8905SOL    HW238352   2.174   3.955   6.173  0.6270 -1.0883 -0.4510
 8906SOL     OW38353   1.389   3.869  13.564 -0.1719 -0.2970  0.0474
 8906SOL    HW138354   1.433   3.802  13.616 -0.9892 -1.4786 -0.8021
 8906SOL    HW238355   1.463   3.909  13.518  0.1432 -1.7706 -0.7274
 8907SOL     OW38356   3.826   2.027   7.718 -0.1823 -0.3810  0.2419
 8907SOL    HW138357   3.772   1.948   7.714 -0.3466 -0.3898  2.7907
 8907SOL    HW238358   3.895   1.989   7.771 -0.3851 -0.6974  0.2834
 8908SOL     OW38359   0.015   2.400   6.469  0.1181 -0.4912 -0.1054
 8908SOL    HW138360   4.732   2.377   6.560 -0.2523  1.4962  0.3065
 8908SOL    HW238361   4.669   2.437   6.443  0.0775 -1.3302 -1.2019
 8909SOL     OW38362   3.454   1.877   3.380 -0.2174  0.1466  0.5553
 8909SOL    HW138363   3.477   1.800   3.433 -1.1076 -0.0413  0.6594
 8909SOL    HW238364   3.511   1.946   3.415 -1.1443  0.6892  1.0138
 8910SOL     OW38365   0.962   1.250   4.717 -0.0098 -0.2237 -0.1583
 8910SOL    HW138366   0.955   1.171   4.770 -0.2664 -1.0793 -1.4667
 8910SOL    HW238367   0.999   1.226   4.632 -0.7599 -0.1380 -0.5102
 8911SOL     OW38368   2.884   2.151   5.999 -0.1509 -0.1435 -0.1967
 8911SOL    HW138369   2.979   2.149   5.998 -0.0961  2.1553 -0.0040
 8911SOL    HW238370   2.865   2.205   6.076  1.8586  1.8220 -1.1003
 8912SOL     OW38371   4.424   0.387   2.418 -0.1402  0.1711 -0.4441
 8912SOL    HW138372   4.418   0.300   2.379 -0.0844 -0.9367  2.0123
 8912SOL    HW238373   4.518   0.404   2.409 -0.0449  0.3089  0.7090
 8913SOL     OW38374   1.691   1.371   2.615 -0.2699  0.6423 -0.4528
 8913SOL    HW138375   1.698   1.281   2.582 -0.2532 -0.3182  2.1358
 8913SOL    HW238376   1.708   1.423   2.536  1.2979  2.0635  0.8265
 8914SOL     OW38377   0.192   2.421  17.450 -0.6226  0.5944 -0.7957
 8914SOL    HW138378   0.240   2.458  17.376 -0.2481  0.2522 -0.7217
 8914SOL    HW238379   0.211   2.329  17.433 -1.5474  0.2574 -0.0356
 8915SOL     OW38380   4.672   0.870   3.770 -0.3844  0.3565  0.1531
 8915SOL    HW138381   4.602   0.844   3.831 -1.6560  0.1979 -1.3788
 8915SOL    HW238382   4.637   0.958   3.758 -0.0239  0.7532  1.9832
 8916SOL     OW38383   2.381   0.568  12.892 -0.6089 -0.0343 -0.3037
 8916SOL    HW138384   2.304   0.626  12.893 -0.6340 -0.0509 -1.7402
 8916SOL    HW238385   2.390   0.569  12.987 -0.8174 -1.5412 -0.2773
 8917SOL     OW38386   4.311   1.736  11.153 -0.0472  0.1992  0.1904
 8917SOL    HW138387   4.245   1.760  11.217  1.8194  0.1266  2.1383
 8917SOL    HW238388   4.255   1.688  11.091 -0.4648  1.3975 -0.3570
 8918SOL     OW38389   1.233   3.274   3.212 -0.2439 -0.0965 -0.0798
 8918SOL    HW138390   1.269   3.340   3.153 -1.0380 -0.2475 -0.7472
 8918SOL    HW238391   1.314   3.239   3.249 -0.6418 -2.0103 -0.9820
 8919SOL     OW38392   3.669   0.038   0.557 -0.2065  0.0256  0.7629
 8919SOL    HW138393   3.729   0.097   0.512 -0.1077 -0.1167  0.7051
 8919SOL    HW238394   3.613   0.104   0.597 -1.8645 -0.1665 -1.2485
 8920SOL     OW38395   3.379   1.174   9.292  0.3372  0.3402 -0.8698
 8920SOL    HW138396   3.463   1.158   9.335 -0.3041 -0.0708  0.2082
 8920SOL    HW238397   3.370   1.264   9.325 -0.9822  0.3041 -1.1362
 8921SOL     OW38398   0.586   1.123   6.003  0.3618  0.0252  0.1936
 8921SOL    HW138399   0.523   1.081   5.945  0.8266  0.9568 -0.9731
 8921SOL    HW238400   0.589   1.212   5.967  0.4544 -1.4009 -3.2403
 8922SOL     OW38401   1.593   2.479   8.445  0.2859  0.1016 -0.1044
 8922SOL    HW138402   1.555   2.516   8.365  0.1935  3.3831  1.4718
 8922SOL    HW238403   1.575   2.544   8.513  0.8285  0.4315 -0.2750
 8923SOL     OW38404   3.636   2.081   3.459 -0.2910  0.4917  0.0945
 8923SOL    HW138405   3.603   2.120   3.540  0.6110  1.3023  0.0794
 8923SOL    HW238406   3.729   2.076   3.480 -0.2721 -0.9650 -0.3625
 8924SOL     OW38407   2.553   4.053   5.293  0.0779 -0.5042 -0.1400
 8924SOL    HW138408   2.596   4.124   5.340  0.6403 -0.0488 -1.3430
 8924SOL    HW238409   2.471   4.052   5.343 -1.0986  0.0227 -2.0747
 8925SOL     OW38410   4.341   1.075   7.090 -0.1204 -0.5308 -0.1857
 8925SOL    HW138411   4.435   1.080   7.074  0.0030  0.2609  0.7283
 8925SOL    HW238412   4.347   1.045   7.181 -1.6520 -1.4002 -0.3765
 8926SOL     OW38413   4.643   1.007  15.643  0.4530 -0.5839  0.2914
 8926SOL    HW138414   4.701   0.951  15.592  0.6956  0.1910 -0.2882
 8926SOL    HW238415   4.650   1.089  15.594  1.3936 -0.0373  1.3224
 8927SOL     OW38416   0.843   3.855   7.547 -0.0695  0.0217 -0.0806
 8927SOL    HW138417   0.804   3.768   7.549  0.6368 -0.2776  1.0582
 8927SOL    HW238418   0.780   3.913   7.505  0.6681 -0.2780 -1.5948
 8928SOL     OW38419   4.097   2.649   0.776  0.3413 -0.0402 -0.3262
 8928SOL    HW138420   4.107   2.581   0.842  0.6577  0.1198 -0.2054
 8928SOL    HW238421   4.099   2.597   0.696  2.7458 -1.4141  0.6298
 8929SOL     OW38422   0.047   1.993  16.940  0.0850 -0.1637 -0.6812
 8929SOL    HW138423   0.011   1.951  17.019  1.0037 -0.5395 -0.4603
 8929SOL    HW238424   0.064   2.083  16.970 -2.1207  0.5706 -1.5790
 8930SOL     OW38425   0.627   0.521   2.987  0.3698  0.3208 -0.4524
 8930SOL    HW138426   0.584   0.572   2.918 -0.7430 -1.0373 -0.7673
 8930SOL    HW238427   0.706   0.487   2.946 -0.3344 -0.8910 -0.7857
 8931SOL     OW38428   3.603   4.256   1.273 -0.2443 -0.3517 -0.5517
 8931SOL    HW138429   3.536   4.204   1.230 -0.5267  0.3348 -0.9437
 8931SOL    HW238430   3.659   4.286   1.201 -1.6797 -1.3382 -2.0538
 8932SOL     OW38431   0.155   3.105   6.390 -0.1807 -0.4903  0.8601
 8932SOL    HW138432   0.094   3.174   6.413  1.0376  0.8219  0.1496
 8932SOL    HW238433   0.115   3.044   6.452  1.4313 -2.4781 -0.0314
 8933SOL     OW38434   4.083   0.369   9.709  0.1604  0.0161 -0.0103
 8933SOL    HW138435   4.063   0.355   9.802 -1.7314  1.2504 -0.2389
 8933SOL    HW238436   4.006   0.326   9.671  1.8532 -1.1128 -2.1738
 8934SOL     OW38437   1.601   0.350   7.700  0.2134  0.5508  0.6945
 8934SOL    HW138438   1.623   0.442   7.714  0.0205  0.4711  1.5180
 8934SOL    HW238439   1.601   0.344   7.605  1.0293  0.0760  0.7276
 8935SOL     OW38440   0.858   1.010  14.513 -0.2157 -1.0142  0.1113
 8935SOL    HW138441   0.827   0.953  14.583 -1.4359 -0.2003  0.2328
 8935SOL    HW238442   0.912   0.949  14.463 -1.9957  0.8128 -4.0353
 8936SOL     OW38443   3.431   1.714  17.368  0.1061 -0.8270  0.2007
 8936SOL    HW138444   3.478   1.766  17.303 -0.9447 -0.3620 -0.1845
 8936SOL    HW238445   3.499   1.655  17.403  0.4587 -0.4853  0.0974
 8937SOL     OW38446   3.487   1.109   1.938 -0.2204  0.5723  0.5868
 8937SOL    HW138447   3.431   1.137   1.866  0.2298 -2.4869 -0.9353
 8937SOL    HW238448   3.541   1.188   1.947  0.7003 -0.0906  0.9030
 8938SOL     OW38449   4.439   1.062   5.436  0.0532  0.2294 -0.1076
 8938SOL    HW138450   4.415   0.982   5.391  0.6687 -0.7808  1.3399
 8938SOL    HW238451   4.510   1.033   5.493  1.7781 -0.2190 -2.4920
 8939SOL     OW38452   1.225   0.005   4.622  0.5812 -0.1592 -0.1230
 8939SOL    HW138453   1.288   0.066   4.584 -0.4373  0.2577 -1.1319
 8939SOL    HW238454   1.249   0.007   4.715 -0.1552 -0.6688  0.0762
 8940SOL     OW38455   1.309   4.254   4.872 -0.0781 -0.2073 -0.3812
 8940SOL    HW138456   1.396   4.245   4.911 -0.8529  1.3006  1.7008
 8940SOL    HW238457   1.303   4.161   4.850  0.0214 -0.2879 -0.0729
 8941SOL     OW38458   4.399   2.828  12.775  0.9153 -0.4389  0.6356
 8941SOL    HW138459   4.340   2.895  12.810 -1.6454 -2.1212 -0.4631
 8941SOL    HW238460   4.379   2.829  12.682 -0.5446 -0.5283  0.9558
 8942SOL     OW38461   1.174   2.979   9.807  0.2814 -0.0651  0.0879
 8942SOL    HW138462   1.134   3.060   9.839 -0.0771  0.1619 -0.9409
 8942SOL    HW238463   1.165   2.921   9.883 -1.8696 -0.4541 -0.4583
 8943SOL     OW38464   1.897   0.558   6.217  0.3396  0.2144 -0.1206
 8943SOL    HW138465   1.967   0.521   6.270  0.1141 -0.9319 -0.6316
 8943SOL    HW238466   1.877   0.482   6.163 -1.2973  0.7298 -0.2478
 8944SOL     OW38467   2.222   0.319   3.117 -0.4848  0.8112 -0.7448
 8944SOL    HW138468   2.165   0.273   3.055 -0.8946 -0.1519  0.3681
 8944SOL    HW238469   2.309   0.293   3.084 -0.1221 -0.1229  0.9974
 8945SOL     OW38470   0.705   4.666   4.471  0.3217  0.6458  0.2837
 8945SOL    HW138471   0.662   4.675   4.556 -1.0458  1.0992 -0.4575
 8945SOL    HW238472   0.647   4.720   4.418 -1.0815  1.0977  2.2669
 8946SOL     OW38473   3.386   2.300   2.903  0.6467 -0.2128  0.4931
 8946SOL    HW138474   3.392   2.364   2.832  1.8744  2.1277  2.6552
 8946SOL    HW238475   3.460   2.240   2.891 -1.0967 -2.4422  1.0464
 8947SOL     OW38476   3.618   4.300   4.837 -0.5527 -0.3809 -0.4364
 8947SOL    HW138477   3.673   4.338   4.907 -1.7343  0.0213  0.2650
 8947SOL    HW238478   3.553   4.369   4.825 -0.7470 -0.4742  0.0657
 8948SOL     OW38479   2.026   3.191   1.993  0.4145  0.8286 -0.4288
 8948SOL    HW138480   2.054   3.139   2.068 -1.9532 -0.2277 -0.2810
 8948SOL    HW238481   2.103   3.194   1.936  0.8213  0.7630  0.1209
 8949SOL     OW38482   4.017   4.208   4.000 -0.2911  0.0848 -0.0062
 8949SOL    HW138483   4.079   4.174   3.936  1.2378  1.0925  0.9474
 8949SOL    HW238484   3.968   4.254   3.932  0.2025  0.4056 -0.1456
 8950SOL     OW38485   2.364   1.389   0.753  0.1396  0.0701  0.2877
 8950SOL    HW138486   2.338   1.480   0.738  0.7662  0.0809 -0.7719
 8950SOL    HW238487   2.307   1.370   0.827  1.6644  3.5136  2.3611
 8951SOL     OW38488   3.807   2.913   8.136 -0.2552  0.0080 -0.1613
 8951SOL    HW138489   3.884   2.970   8.138 -0.2400 -0.0501  0.9344
 8951SOL    HW238490   3.798   2.887   8.228 -0.1389  3.5942  0.8770
 8952SOL     OW38491   4.537   3.184   8.165  0.6456 -0.0084 -0.3213
 8952SOL    HW138492   4.574   3.096   8.165 -0.6647 -0.5702  0.5758
 8952SOL    HW238493   4.507   3.194   8.075  1.5314  0.1141 -0.6012
 8953SOL     OW38494   2.523   4.047   9.150 -0.6331 -0.2025 -0.3805
 8953SOL    HW138495   2.566   3.994   9.083  2.2161 -0.9832  2.0580
 8953SOL    HW238496   2.548   4.130   9.111 -2.4851  1.2183  1.4553
 8954SOL     OW38497   2.998   2.163   1.934  0.2307  0.0290  0.0036
 8954SOL    HW138498   2.908   2.129   1.926  0.1838  0.5827 -1.8892
 8954SOL    HW238499   3.030   2.156   1.844 -2.1210  0.8834 -0.9280
 8955SOL     OW38500   0.788   1.265  12.116 -0.2131  0.0664 -0.6169
 8955SOL    HW138501   0.703   1.247  12.158 -0.5797 -1.0898 -1.8487
 8955SOL    HW238502   0.831   1.314  12.186 -1.0726 -1.2159  0.8359
 8956SOL     OW38503   2.214   2.476   5.995  0.0890  0.4446  0.0461
 8956SOL    HW138504   2.297   2.480   5.948  0.5858 -1.5269  0.7609
 8956SOL    HW238505   2.251   2.462   6.083  1.3818 -0.7041 -0.6656
 8957SOL     OW38506   2.865   0.724  15.712 -0.2905  0.0669 -0.0781
 8957SOL    HW138507   2.914   0.686  15.786 -0.5781 -0.3067 -0.0793
 8957SOL    HW238508   2.867   0.808  15.758  0.7505  0.6615 -1.2043
 8958SOL     OW38509   3.143   1.622   6.322 -0.3826 -0.1736 -0.0227
 8958SOL    HW138510   3.108   1.699   6.277  1.3268  0.8291  0.3857
 8958SOL    HW238511   3.067   1.565   6.311  0.8678 -2.1589  1.5388
 8959SOL     OW38512   3.543   3.584   8.402  0.1969 -0.3450  0.0729
 8959SOL    HW138513   3.538   3.666   8.353 -0.6118 -0.7461 -0.5050
 8959SOL    HW238514   3.459   3.541   8.386  0.0701 -0.0708  0.0117
 8960SOL     OW38515   0.264   4.163   4.396  0.0587 -0.9734 -0.5067
 8960SOL    HW138516   0.220   4.078   4.407  0.5059 -1.2351 -0.7522
 8960SOL    HW238517   0.263   4.174   4.301  0.7963 -1.3759 -0.5583
 8961SOL     OW38518   3.612   3.258   2.522  0.1557 -0.0182  0.2865
 8961SOL    HW138519   3.704   3.276   2.539 -0.0021 -0.1460  1.3074
 8961SOL    HW238520   3.560   3.327   2.565 -1.9087 -0.5347 -1.3776
 8962SOL     OW38521   3.733   3.683   3.477  0.6461 -0.1373  0.0899
 8962SOL    HW138522   3.673   3.647   3.412 -1.8111  2.1661  1.0721
 8962SOL    HW238523   3.733   3.773   3.444 -2.4738 -0.4956 -0.9068
 8963SOL     OW38524   0.285   0.171   9.889  0.3227 -0.1224  0.1804
 8963SOL    HW138525   0.360   0.168   9.949 -1.0498 -0.2411  1.8709
 8963SOL    HW238526   0.218   0.114   9.925  0.8224 -0.0664  1.1987
 8964SOL     OW38527   4.284   4.582  11.498 -0.0034  0.3897  0.2885
 8964SOL    HW138528   4.285   4.604  11.591 -0.3313 -1.5130  0.7412
 8964SOL    HW238529   4.332   4.500  11.506  1.0051  1.2560  3.0879
 8965SOL     OW38530   3.588   3.655   4.777  0.1041 -0.2549 -0.5312
 8965SOL    HW138531   3.591   3.674   4.683  1.6194  0.5791 -0.3025
 8965SOL    HW238532   3.648   3.726   4.799  0.7379 -1.6127  2.0104
 8966SOL     OW38533   2.074   3.988   9.463  0.2649 -0.1108  0.4986
 8966SOL    HW138534   2.087   3.984   9.558 -0.5140  0.7550  0.6376
 8966SOL    HW238535   2.168   4.004   9.449  0.5535 -2.2675 -0.1311
 8967SOL     OW38536   3.516   3.006   2.411 -0.3257  0.2030  0.2799
 8967SOL    HW138537   3.487   3.066   2.341 -1.4703  0.0871  0.6452
 8967SOL    HW238538   3.563   3.075   2.458  1.3063  0.2895 -1.4684
 8968SOL     OW38539   3.667   2.857  11.481  0.2833  0.1986 -0.2340
 8968SOL    HW138540   3.741   2.811  11.519 -0.0312 -0.8945 -0.9592
 8968SOL    HW238541   3.612   2.786  11.448 -1.0442  1.0967  0.0197
 8969SOL     OW38542   3.212   1.352   0.469 -0.8981 -0.0010 -0.0452
 8969SOL    HW138543   3.244   1.268   0.435  1.4214  1.3172 -1.1100
 8969SOL    HW238544   3.263   1.355   0.550 -2.0397 -1.0562  0.7062
 8970SOL     OW38545   2.704   0.904  13.422 -0.0045  0.3938 -0.1345
 8970SOL    HW138546   2.626   0.889  13.369  0.6327  0.1727 -1.0180
 8970SOL    HW238547   2.767   0.927  13.353 -1.2256  1.1369 -1.0102
 8971SOL     OW38548   4.130   0.573  14.365 -0.5996 -0.0958  0.1576
 8971SOL    HW138549   4.175   0.613  14.291 -1.0633 -0.5643 -0.3829
 8971SOL    HW238550   4.049   0.549  14.319  0.0449  0.4727 -1.2628
 8972SOL     OW38551   3.095   2.947   2.881 -0.5150  0.0910 -0.0822
 8972SOL    HW138552   3.155   3.013   2.916  1.5122 -1.6650 -0.2397
 8972SOL    HW238553   3.017   2.968   2.932 -0.9790 -1.2256 -0.2557
 8973SOL     OW38554   2.144   1.893   7.869  0.0702 -0.2696  0.4101
 8973SOL    HW138555   2.212   1.828   7.850  0.2146 -0.1586  0.5509
 8973SOL    HW238556   2.074   1.837   7.905 -0.3690 -0.4955 -0.8038
 8974SOL     OW38557   0.989   0.822   5.289  0.0784 -0.2035 -0.5070
 8974SOL    HW138558   0.957   0.913   5.293 -2.1388 -1.0169  0.4126
 8974SOL    HW238559   1.082   0.816   5.309  0.3406  0.4434 -1.5124
 8975SOL     OW38560   0.552   1.582   2.647 -0.0059 -0.2273 -0.0769
 8975SOL    HW138561   0.640   1.547   2.662 -0.0952 -0.7464 -0.7580
 8975SOL    HW238562   0.527   1.601   2.737 -1.0340 -0.9222 -0.2200
 8976SOL     OW38563   2.285   2.691   7.918 -0.7061  0.2178 -0.0808
 8976SOL    HW138564   2.377   2.711   7.936 -0.4722  0.2690 -1.3346
 8976SOL    HW238565   2.292   2.656   7.830  1.3894 -1.5831  0.7981
 8977SOL     OW38566   0.336   4.003   3.534 -0.5244 -0.3618 -0.3898
 8977SOL    HW138567   0.327   4.026   3.627  1.8068  0.8511 -0.4947
 8977SOL    HW238568   0.389   3.923   3.530 -0.0683 -0.0835  0.1573
 8978SOL     OW38569   2.554   1.027  11.608 -0.0720  0.1920  0.1922
 8978SOL    HW138570   2.566   1.120  11.588  1.6686 -0.1695 -0.3851
 8978SOL    HW238571   2.486   1.038  11.675  0.6768  0.8309  0.8567
 8979SOL     OW38572   0.887   3.513   7.893 -0.1735  0.5570  0.1214
 8979SOL    HW138573   0.803   3.470   7.911  0.1757 -1.0047 -2.0338
 8979SOL    HW238574   0.857   3.603   7.886 -1.1641  0.0988 -1.4341
 8980SOL     OW38575   4.187   3.137   1.713 -0.3852 -0.2697  0.3651
 8980SOL    HW138576   4.153   3.226   1.712 -0.2336 -0.2132 -0.6360
 8980SOL    HW238577   4.185   3.101   1.624 -0.7068  0.8541 -0.0750
 8981SOL     OW38578   0.872   0.401   2.377 -0.2793 -0.0250 -0.4909
 8981SOL    HW138579   0.858   0.335   2.309 -1.0367  0.5239 -0.8592
 8981SOL    HW238580   0.825   0.475   2.339 -0.8916  0.5652  1.4146
 8982SOL     OW38581   3.597   4.712   6.530  0.3592 -0.5851 -0.1110
 8982SOL    HW138582   3.640   0.059   6.543  1.5144 -1.5581  2.3840
 8982SOL    HW238583   3.643   4.690   6.449 -1.0766 -0.9584 -0.8300
 8983SOL     OW38584   0.246   3.722   3.300  0.3029  0.6555 -0.2519
 8983SOL    HW138585   0.329   3.676   3.312 -0.0569 -0.0815 -0.6516
 8983SOL    HW238586   0.281   3.806   3.269 -3.7000  2.5929  0.4143
 8984SOL     OW38587   1.809   0.628  17.369 -1.0036 -0.1434 -0.6863
 8984SOL    HW138588   1.826   0.546  17.416 -1.2372 -0.8174 -1.7800
 8984SOL    HW238589   1.766   0.679  17.437  0.1776 -0.8105  0.5731
 8985SOL     OW38590   4.058   1.940   2.362  0.1645 -0.0656  0.1029
 8985SOL    HW138591   4.140   1.939   2.311  0.5353 -0.9515  0.7192
 8985SOL    HW238592   3.994   1.936   2.291 -1.0135 -0.5315  1.2158
 8986SOL     OW38593   0.024   1.316   8.747  0.4020  0.1386  0.1874
 8986SOL    HW138594   0.042   1.410   8.742  0.2296  0.1877  0.5125
 8986SOL    HW238595   0.113   1.281   8.737  0.2366 -0.2863  0.1749
 8987SOL     OW38596   0.626   0.313   4.491  0.3945  1.0802  0.1971
 8987SOL    HW138597   0.612   0.396   4.446  2.5832  0.8036 -0.9906
 8987SOL    HW238598   0.655   0.259   4.418  0.7535  2.7266 -0.8818
 8988SOL     OW38599   1.525   1.298   6.474  0.1415 -0.2108 -0.0267
 8988SOL    HW138600   1.443   1.249   6.465 -0.8572  1.4028  0.2560
 8988SOL    HW238601   1.575   1.233   6.424 -0.2725 -0.9945  0.5696
 8989SOL     OW38602   1.061   0.280   2.056 -0.3315 -0.3408 -0.3228
 8989SOL    HW138603   1.054   0.310   1.966  0.8879 -0.3456 -0.4108
 8989SOL    HW238604   0.972   0.246   2.070 -0.8870  1.4066  0.3919
 8990SOL     OW38605   0.749   1.373  16.389  0.0265 -0.0309 -0.4331
 8990SOL    HW138606   0.715   1.303  16.333  0.0685 -1.1427  0.9559
 8990SOL    HW238607   0.839   1.342  16.394 -0.5995 -1.5182  1.3216
 8991SOL     OW38608   2.915   1.317   1.012 -0.2812  0.1775 -0.4627
 8991SOL    HW138609   2.880   1.334   0.925 -0.0840  1.5601 -0.2700
 8991SOL    HW238610   2.898   1.223   1.017 -1.8289  0.5959  2.0802
 8992SOL     OW38611   3.022   3.946  12.615 -0.3576  0.4284 -0.1454
 8992SOL    HW138612   2.982   3.945  12.702  0.9234  0.1601  0.4443
 8992SOL    HW238613   3.046   3.853  12.607  2.1148  0.8473  2.2493
 8993SOL     OW38614   1.571   0.221   5.041  0.2957  0.2610  0.9377
 8993SOL    HW138615   1.494   0.264   5.003 -1.0445 -2.2201  0.7974
 8993SOL    HW238616   1.631   0.295   5.040  1.9601 -1.1025  0.8567
 8994SOL     OW38617   0.795   3.474  13.048  0.4436  0.4198 -0.0074
 8994SOL    HW138618   0.771   3.566  13.054 -1.3127 -0.0460  0.1422
 8994SOL    HW238619   0.720   3.431  13.089 -0.6598  1.9692 -0.4365
 8995SOL     OW38620   3.687   2.086   8.804 -0.3948 -0.4207  0.1957
 8995SOL    HW138621   3.660   2.119   8.718 -0.3584 -1.1211 -0.0809
 8995SOL    HW238622   3.736   2.012   8.769  2.6182  1.3026  0.7271
 8996SOL     OW38623   4.473   2.124   8.732 -0.0615  0.1719  0.1152
 8996SOL    HW138624   4.418   2.172   8.793 -0.4328 -0.3127  0.1597
 8996SOL    HW238625   4.485   2.181   8.655  0.4452 -1.5505 -1.0756
 8997SOL     OW38626   4.193   2.552   1.197 -0.2557  0.7941  0.1723
 8997SOL    HW138627   4.169   2.580   1.285 -0.2586  0.9163  0.1321
 8997SOL    HW238628   4.248   2.626   1.175 -1.4370  1.7937  0.5959
 8998SOL     OW38629   2.180   2.766  11.585 -0.4100  1.0546  0.2892
 8998SOL    HW138630   2.104   2.709  11.573 -0.6439  1.6349 -1.0421
 8998SOL    HW238631   2.147   2.838  11.639  0.0900 -0.2806  2.3346
 8999SOL     OW38632   2.245   1.432   7.481  0.2192  0.3196 -0.3674
 8999SOL    HW138633   2.248   1.425   7.576  1.2329  0.4668 -0.3912
 8999SOL    HW238634   2.287   1.517   7.471 -1.4623  1.4764  2.6250
 9000SOL     OW38635   3.941   1.772   8.466  0.0607 -0.0447  0.2699
 9000SOL    HW138636   4.004   1.825   8.417  0.4598  0.2346  1.0938
 9000SOL    HW238637   3.872   1.756   8.401 -1.0666  0.5699  1.3042
 9001SOL     OW38638   1.086   1.593   2.180  0.1327 -0.2119  0.0302
 9001SOL    HW138639   1.087   1.512   2.130  2.7251 -0.9723  1.3615
 9001SOL    HW238640   1.110   1.657   2.113 -0.3045 -1.1008 -0.9649
 9002SOL     OW38641   2.598   2.826   5.369  0.2753  0.4272 -0.6499
 9002SOL    HW138642   2.591   2.770   5.446  0.3709  1.9875  0.4905
 9002SOL    HW238643   2.683   2.800   5.334  0.4309  0.0262  0.0334
 9003SOL     OW38644   1.113   2.212  15.918 -0.8126  0.1541  0.6146
 9003SOL    HW138645   1.138   2.201  15.826 -0.5964 -0.4186  0.7465
 9003SOL    HW238646   1.052   2.139  15.927 -0.8784  0.0705 -0.4601
 9004SOL     OW38647   3.392   3.697   0.952  0.3846  0.0414 -0.0991
 9004SOL    HW138648   3.373   3.647   0.873  1.7070  0.6499 -0.7882
 9004SOL    HW238649   3.309   3.720   0.994  0.8862  1.3202  0.2018
 9005SOL     OW38650   2.504   2.466   5.165  0.5210  0.7514  0.1291
 9005SOL    HW138651   2.412   2.484   5.186  1.0964  1.2377  2.2872
 9005SOL    HW238652   2.498   2.426   5.079  0.9352  2.4122 -0.6736
 9006SOL     OW38653   2.362   2.047  15.474 -0.2447 -0.1485  0.0367
 9006SOL    HW138654   2.401   1.967  15.440 -1.9958 -1.0201  0.0827
 9006SOL    HW238655   2.334   2.017  15.561  0.4334 -1.3296 -0.1618
 9007SOL     OW38656   1.140   3.557  14.642  0.0752  1.0232 -0.0160
 9007SOL    HW138657   1.110   3.490  14.703  1.5069 -0.4044 -0.8765
 9007SOL    HW238658   1.181   3.614  14.707  0.6851 -0.6950  1.1045
 9008SOL     OW38659   2.555   0.154   7.696  0.3547 -0.1821  0.1056
 9008SOL    HW138660   2.492   0.216   7.732  0.0437  0.4328 -1.5166
 9008SOL    HW238661   2.627   0.151   7.759 -0.0481 -1.7401  0.4983
 9009SOL     OW38662   2.227   0.553   4.278  0.0488 -0.1679  0.2998
 9009SOL    HW138663   2.179   0.604   4.213 -0.5438 -0.1444  0.7485
 9009SOL    HW238664   2.155   0.531   4.338 -0.1684  0.1020  0.1380
 9010SOL     OW38665   2.650   2.856  10.926  0.1612  0.1814  0.1918
 9010SOL    HW138666   2.603   2.879  11.006 -0.8385 -0.5143 -0.1950
 9010SOL    HW238667   2.726   2.815  10.966  0.6171  0.8549  0.0032
 9011SOL     OW38668   1.399   0.213  11.992 -0.3185 -0.1448 -0.6371
 9011SOL    HW138669   1.416   0.304  12.019  0.5494 -0.6565  0.5477
 9011SOL    HW238670   1.372   0.175  12.076 -0.5319 -1.8858 -1.4996
 9012SOL     OW38671   3.647   2.284   4.862  0.2576 -0.6450 -0.3306
 9012SOL    HW138672   3.680   2.335   4.936 -2.1583  2.0641 -1.0869
 9012SOL    HW238673   3.603   2.355   4.814 -2.7038 -1.7010  0.8063
 9013SOL     OW38674   2.971   0.588   8.623  0.2048 -0.4528 -0.6432
 9013SOL    HW138675   2.938   0.537   8.697  2.8447 -1.2721 -0.0300
 9013SOL    HW238676   2.884   0.606   8.588 -0.0226  1.9456  1.1788
 9014SOL     OW38677   2.144   3.359  10.832  0.3070  0.4455  0.4934
 9014SOL    HW138678   2.177   3.315  10.910  0.7825 -1.1978 -0.6508
 9014SOL    HW238679   2.222   3.389  10.786  0.0200 -0.2934 -0.4685
 9015SOL     OW38680   3.836   4.162  10.663 -0.4616  0.1636 -0.3034
 9015SOL    HW138681   3.797   4.147  10.749  0.4335 -0.4334 -0.0021
 9015SOL    HW238682   3.825   4.256  10.672 -1.5894 -0.0116  0.1695
 9016SOL     OW38683   2.721   0.080   9.600  0.3515  0.0924 -0.8304
 9016SOL    HW138684   2.750   4.732   9.566 -0.2461  0.3454 -1.9930
 9016SOL    HW238685   2.681   0.108   9.518  0.0458 -2.4439 -1.5662
 9017SOL     OW38686   3.282   4.440   7.579  0.3563 -0.3831 -0.6665
 9017SOL    HW138687   3.307   4.511   7.639 -0.1899 -0.7391 -0.0065
 9017SOL    HW238688   3.276   4.367   7.641  0.7206 -1.2738 -1.6923
 9018SOL     OW38689   3.535   4.475  12.934 -0.3258  0.3218  0.3299
 9018SOL    HW138690   3.503   4.555  12.893  1.8573  0.3430 -1.3381
 9018SOL    HW238691   3.481   4.475  13.013  0.0378  1.1227  0.5832
 9019SOL     OW38692   0.760   0.396   3.877 -0.1786  0.0361  0.4097
 9019SOL    HW138693   0.675   0.422   3.840 -0.4647  0.4565  1.3570
 9019SOL    HW238694   0.816   0.469   3.852  0.2085 -0.4236 -0.0551
 9020SOL     OW38695   1.129   1.477   9.309 -0.4159  0.2216 -0.6475
 9020SOL    HW138696   1.167   1.453   9.394  2.1361  1.3766 -1.4772
 9020SOL    HW238697   1.199   1.470   9.244  1.3111 -4.9134  1.8035
 9021SOL     OW38698   0.690   1.327  14.288 -0.0916 -0.2482  0.1299
 9021SOL    HW138699   0.621   1.338  14.223 -0.6670 -1.2498  0.5608
 9021SOL    HW238700   0.676   1.237  14.319 -2.0522  0.3889  1.0673
 9022SOL     OW38701   0.944   0.059  14.924 -0.0806  0.5188  0.0784
 9022SOL    HW138702   1.025   0.097  14.889  0.3799 -0.2504  0.3013
 9022SOL    HW238703   0.892   0.089  14.850  0.4778  1.0968 -0.0902
 9023SOL     OW38704   2.957   1.325   4.851 -0.6066 -0.0957 -0.1317
 9023SOL    HW138705   2.888   1.260   4.845  0.5879 -1.4806  1.1711
 9023SOL    HW238706   2.920   1.394   4.796  0.4531  1.9263  1.6865
 9024SOL     OW38707   3.214   4.555   9.381  0.2505  0.0353  0.2654
 9024SOL    HW138708   3.161   4.475   9.384  1.4157 -0.7382  0.4308
 9024SOL    HW238709   3.200   4.586   9.470  1.5492  0.8542  0.1705
 9025SOL     OW38710   3.577   2.427   1.871  0.5750 -0.8590 -0.1829
 9025SOL    HW138711   3.543   2.422   1.961  0.1816 -0.9043 -0.3328
 9025SOL    HW238712   3.503   2.464   1.824  2.1090  2.6136  0.1741
 9026SOL     OW38713   4.413   4.288   4.502  0.0673  0.6927  0.3810
 9026SOL    HW138714   4.339   4.331   4.461 -1.1756 -2.1564 -0.4133
 9026SOL    HW238715   4.368   4.203   4.504  1.0244  0.0813 -3.7302
 9027SOL     OW38716   0.011   4.076  13.403 -0.1258 -0.2864 -0.1849
 9027SOL    HW138717   0.047   4.164  13.410  1.1706 -0.6657 -1.8945
 9027SOL    HW238718   4.675   4.081  13.342  0.8319  0.4238 -1.2939
 9028SOL     OW38719   3.284   1.358   8.682 -0.3466 -0.0094 -0.2754
 9028SOL    HW138720   3.350   1.320   8.624  1.2600  0.2510  1.4022
 9028SOL    HW238721   3.289   1.443   8.638  1.2980 -0.2386 -0.5391
 9029SOL     OW38722   1.070   2.654   9.170 -0.6710  0.2930  0.1399
 9029SOL    HW138723   0.977   2.642   9.189 -0.7934 -1.1829 -1.4618
 9029SOL    HW238724   1.102   2.593   9.237 -1.1041  1.7085  1.6549
 9030SOL     OW38725   3.606   4.088   5.029  0.4891 -0.6561 -0.1415
 9030SOL    HW138726   3.588   4.124   5.116 -1.3120 -0.3833 -0.6319
 9030SOL    HW238727   3.603   4.164   4.971 -1.8803 -1.3060 -0.8777
 9031SOL     OW38728   3.270   3.639   5.520 -0.1328 -0.0654 -0.0901
 9031SOL    HW138729   3.208   3.566   5.525 -0.4502  0.1108 -1.4650
 9031SOL    HW238730   3.257   3.668   5.430 -0.7585  0.3344  0.1271
 9032SOL     OW38731   2.666   3.462   7.724  0.0526 -0.3942  0.2496
 9032SOL    HW138732   2.599   3.425   7.781  0.0100  0.0985  0.5173
 9032SOL    HW238733   2.743   3.410   7.747 -0.2599 -2.1256 -2.5739
 9033SOL     OW38734   0.878   0.391   8.034 -0.6535  0.1475  0.1762
 9033SOL    HW138735   0.936   0.411   7.961 -1.6399  1.8013 -0.1662
 9033SOL    HW238736   0.798   0.370   7.985 -0.8197  0.5085  0.2918
 9034SOL     OW38737   3.806   2.079   9.934  0.1599  0.2059  0.2213
 9034SOL    HW138738   3.867   2.014   9.899 -0.4972  0.0113 -0.5716
 9034SOL    HW238739   3.824   2.080  10.028 -2.4983  1.0400  0.7269
 9035SOL     OW38740   4.373   2.740   1.103 -0.7303 -0.3515 -0.0311
 9035SOL    HW138741   4.436   2.701   1.043  0.2570  1.0974  0.0699
 9035SOL    HW238742   4.394   2.831   1.079  0.2505 -0.5879 -0.0496
 9036SOL     OW38743   2.366   2.939  11.839  0.2062  0.5688 -0.4526
 9036SOL    HW138744   2.447   2.920  11.887  0.7652  1.2601 -1.1114
 9036SOL    HW238745   2.298   2.906  11.897  1.1944 -0.7778 -0.0531
 9037SOL     OW38746   2.541   0.615  11.342 -0.1478 -0.0174 -0.9409
 9037SOL    HW138747   2.605   0.579  11.281  0.2560  1.3754 -1.3382
 9037SOL    HW238748   2.466   0.560  11.321  0.0197 -0.1934 -1.0834
 9038SOL     OW38749   2.629   1.327   4.415  0.1082  0.4876  0.1314
 9038SOL    HW138750   2.585   1.392   4.360 -2.4591 -1.8769 -0.6145
 9038SOL    HW238751   2.571   1.251   4.404 -1.3955  1.7795 -0.8583
 9039SOL     OW38752   0.899   4.041   8.899 -0.1709 -0.5939  0.0230
 9039SOL    HW138753   0.806   4.017   8.895 -0.7781  1.5086  1.4765
 9039SOL    HW238754   0.892   4.119   8.846  1.1323 -0.4485  0.0766
 9040SOL     OW38755   3.870   2.780   1.196  0.1549 -0.2738  0.1082
 9040SOL    HW138756   3.936   2.765   1.263 -2.3848  1.2207  2.9780
 9040SOL    HW238757   3.916   2.831   1.129 -1.3882 -0.4698 -1.1012
 9041SOL     OW38758   0.836   2.306  11.303  0.5166  0.2974 -0.0584
 9041SOL    HW138759   0.859   2.226  11.256  0.7438  1.0188 -1.1696
 9041SOL    HW238760   0.792   2.267  11.379  1.2161  0.3733  0.3786
 9042SOL     OW38761   1.977   4.114   0.239 -0.0058  0.1077  0.0881
 9042SOL    HW138762   2.006   4.093   0.150 -2.5573  2.6494 -1.3402
 9042SOL    HW238763   2.012   4.046   0.296 -2.7651 -2.1512 -0.9017
 9043SOL     OW38764   1.344   1.430   6.718 -0.2714  0.0467 -0.6421
 9043SOL    HW138765   1.439   1.434   6.726 -0.2795 -0.9812 -0.0034
 9043SOL    HW238766   1.318   1.360   6.657  2.0431  0.1105 -1.6988
 9044SOL     OW38767   2.851   0.259  15.672  0.4413  0.1210 -0.0890
 9044SOL    HW138768   2.887   0.283  15.758 -0.3981  1.9615 -0.2510
 9044SOL    HW238769   2.775   0.318  15.666 -0.4477 -1.0975 -0.8679
 9045SOL     OW38770   2.193   1.047   1.347  0.6889 -0.1060  0.1513
 9045SOL    HW138771   2.241   0.983   1.296  0.2317  0.0734 -0.4975
 9045SOL    HW238772   2.252   1.118   1.322 -0.2223  1.0959  1.4050
 9046SOL     OW38773   3.341   0.742   7.116 -0.3736 -0.1855  0.4259
 9046SOL    HW138774   3.372   0.832   7.106  0.1543 -0.3055  1.0114
 9046SOL    HW238775   3.259   0.748   7.068 -0.6821  0.5715  1.0461
 9047SOL     OW38776   4.131   4.026   7.557 -0.0154 -0.3732 -0.1903
 9047SOL    HW138777   4.222   4.024   7.528  0.4111 -1.0670  1.1719
 9047SOL    HW238778   4.114   4.117   7.532  0.9306  0.0073  0.5559
 9048SOL     OW38779   2.987   3.658   3.027  0.3383 -0.1679 -0.2222
 9048SOL    HW138780   2.935   3.738   3.019 -0.0086 -0.4273 -0.5797
 9048SOL    HW238781   3.027   3.669   3.113 -0.3138  1.8545 -0.1785
 9049SOL     OW38782   2.349   2.402   3.657  0.5884 -0.5867  0.4742
 9049SOL    HW138783   2.343   2.404   3.752  1.3149 -2.9770  0.5684
 9049SOL    HW238784   2.418   2.336   3.649  0.1815 -1.2380  2.4400
 9050SOL     OW38785   2.260   2.785   8.379 -0.0050  0.1326  0.1074
 9050SOL    HW138786   2.206   2.860   8.354 -1.2967 -0.4404  1.1805
 9050SOL    HW238787   2.200   2.734   8.433  0.7316  0.7860  1.5345
 9051SOL     OW38788   0.859   4.694   2.317 -0.3205  0.0990  0.2622
 9051SOL    HW138789   0.805   4.709   2.395 -0.7861 -3.0890  0.5614
 9051SOL    HW238790   0.795   4.704   2.246 -0.1293  1.8249  0.3230
 9052SOL     OW38791   0.869   1.345  10.447 -0.4839 -0.5707 -0.2563
 9052SOL    HW138792   0.852   1.439  10.446  2.3512 -0.0362  0.6961
 9052SOL    HW238793   0.812   1.317  10.518 -0.9377 -0.4965 -0.5968
 9053SOL     OW38794   3.737   4.541   3.566 -0.9858 -0.1471 -0.2043
 9053SOL    HW138795   3.718   4.450   3.585  0.5567 -0.5146 -0.4032
 9053SOL    HW238796   3.829   4.538   3.539 -1.1345  1.4253 -0.9173
 9054SOL     OW38797   2.690   2.505   0.135 -0.4347 -0.4538  0.1526
 9054SOL    HW138798   2.704   2.579   0.076  0.3645 -0.1622  0.6913
 9054SOL    HW238799   2.773   2.458   0.124  0.2986  0.8839 -0.1215
 9055SOL     OW38800   1.086   2.773   9.650  0.2160  0.8365  0.3231
 9055SOL    HW138801   1.137   2.844   9.688  3.5534  0.7331 -3.9328
 9055SOL    HW238802   1.025   2.826   9.599 -2.2462 -0.4980  1.8684
 9056SOL     OW38803   3.507   0.766   7.927  0.2444  0.3374  0.1818
 9056SOL    HW138804   3.549   0.779   7.842  1.0860 -1.1636  0.3558
 9056SOL    HW238805   3.467   0.680   7.914 -0.7152  0.8233 -0.0541
 9057SOL     OW38806   0.482   1.271   4.402  0.4518  0.8747  0.1146
 9057SOL    HW138807   0.482   1.261   4.306  2.0438  2.3510 -0.0436
 9057SOL    HW238808   0.410   1.217   4.432  0.6806 -0.2187 -1.3104
 9058SOL     OW38809   4.706   2.401   7.615 -0.1079 -0.1539  0.7027
 9058SOL    HW138810   4.724   2.374   7.705  0.7121 -1.6674  0.0880
 9058SOL    HW238811   4.690   2.318   7.571  0.5006 -0.7869  1.6823
 9059SOL     OW38812   4.572   4.488   2.426  0.3225 -0.2871  0.0784
 9059SOL    HW138813   4.624   4.568   2.434 -1.5732  0.8640  1.1891
 9059SOL    HW238814   4.529   4.485   2.512  1.3271 -2.1446  0.5092
 9060SOL     OW38815   1.937   1.478   1.795  0.2874  0.1017  0.3821
 9060SOL    HW138816   1.934   1.387   1.823 -0.3407 -0.8419 -2.8589
 9060SOL    HW238817   2.030   1.494   1.778 -0.3115  1.7953 -1.3125
 9061SOL     OW38818   0.538   1.729   2.413 -0.8257  0.3547  0.2208
 9061SOL    HW138819   0.554   1.673   2.489 -0.2276  0.3476  0.0953
 9061SOL    HW238820   0.613   1.702   2.359  0.0533  2.6342  0.2869
 9062SOL     OW38821   1.412   2.677   6.118 -0.2484 -0.0265 -0.6085
 9062SOL    HW138822   1.436   2.725   6.038 -0.2107 -2.1171 -1.8643
 9062SOL    HW238823   1.317   2.686   6.114 -0.1777  0.6923 -0.6473
 9063SOL     OW38824   4.143   4.558   3.998  0.1835  0.7217  0.4089
 9063SOL    HW138825   4.107   4.646   3.993  0.2216  0.8039  1.4620
 9063SOL    HW238826   4.109   4.526   3.915  1.6510 -1.7804  0.7646
 9064SOL     OW38827   3.639   0.155   5.589 -0.2739  0.0363 -0.4316
 9064SOL    HW138828   3.555   0.187   5.622 -0.1921 -0.3380  0.1549
 9064SOL    HW238829   3.672   0.230   5.540 -0.6507  1.4166  1.4175
 9065SOL     OW38830   2.919   2.632   5.218 -0.3536 -0.3106 -0.8897
 9065SOL    HW138831   2.965   2.707   5.182  1.5009 -1.2929 -0.5560
 9065SOL    HW238832   2.878   2.592   5.141 -0.8104  0.1614 -0.8909
 9066SOL     OW38833   3.670   3.598   1.893  0.0050  0.2498 -0.5282
 9066SOL    HW138834   3.725   3.612   1.816 -0.1015  2.5407 -0.2016
 9066SOL    HW238835   3.703   3.669   1.949  0.1585 -0.0147 -0.2849
 9067SOL     OW38836   2.037   0.686  14.710  0.0812 -0.1732  0.0744
 9067SOL    HW138837   2.098   0.756  14.684 -0.0723  0.3483  1.1122
 9067SOL    HW238838   1.951   0.728  14.698 -0.7060 -1.6052  0.7791
 9068SOL     OW38839   3.646   1.761  11.956  0.1695  1.1425 -0.0957
 9068SOL    HW138840   3.663   1.705  11.880 -1.9493 -1.8533  1.6595
 9068SOL    HW238841   3.693   1.720  12.028 -0.4137  1.2184  0.3274
 9069SOL     OW38842   4.286   2.222  10.901  0.2610  0.3646  0.8744
 9069SOL    HW138843   4.380   2.225  10.884 -0.0068 -1.4021 -1.0046
 9069SOL    HW238844   4.283   2.232  10.996 -1.4461 -0.6580  0.9294
 9070SOL     OW38845   2.920   4.525   4.591 -0.1887 -0.1482  0.0940
 9070SOL    HW138846   2.941   4.432   4.604 -2.5638 -0.8282 -0.7742
 9070SOL    HW238847   3.007   4.561   4.604 -0.2517  0.4667 -1.1985
 9071SOL     OW38848   1.828   4.242   9.448 -0.1756 -0.0394  0.1520
 9071SOL    HW138849   1.733   4.246   9.438 -0.0849  1.2908 -0.1828
 9071SOL    HW238850   1.860   4.297   9.377  0.4467 -0.4860  0.0926
 9072SOL     OW38851   1.831   0.153   1.609 -0.1470 -0.6303  0.1745
 9072SOL    HW138852   1.786   0.193   1.684  0.1611 -1.6831  0.9242
 9072SOL    HW238853   1.921   0.164   1.638 -0.2836  0.3668  0.2062
 9073SOL     OW38854   3.807   0.409   3.785  0.0239  0.4894 -0.5091
 9073SOL    HW138855   3.885   0.389   3.836 -0.5911  0.3858  0.3786
 9073SOL    HW238856   3.852   0.402   3.700  2.7727 -1.7773  1.1272
 9074SOL     OW38857   2.961   2.208   0.178 -0.2479 -0.3551  0.4444
 9074SOL    HW138858   2.920   2.248   0.255 -0.0168 -0.2306  0.5014
 9074SOL    HW238859   2.971   2.117   0.206 -1.2861 -0.3768  0.7655
 9075SOL     OW38860   3.027   3.153   1.333  0.0251  0.1113 -0.4945
 9075SOL    HW138861   3.090   3.086   1.360 -1.3920 -0.9186  0.2767
 9075SOL    HW238862   2.942   3.111   1.349  1.2260 -2.0884  0.1105
 9076SOL     OW38863   0.376   0.773   4.713 -0.2036 -0.2542  0.4455
 9076SOL    HW138864   0.404   0.704   4.773 -4.0312 -1.3845  0.8990
 9076SOL    HW238865   0.294   0.739   4.679  1.0020 -0.4134 -2.2936
 9077SOL     OW38866   4.347   2.011   8.489 -0.2487  0.2251  0.1783
 9077SOL    HW138867   4.387   2.076   8.547  2.6695  0.9596 -2.7069
 9077SOL    HW238868   4.413   1.942   8.493  1.1522  1.4256 -2.6813
 9078SOL     OW38869   4.162   3.685   3.707  0.0462 -0.1092  0.4268
 9078SOL    HW138870   4.071   3.660   3.719  1.5686 -4.9516  1.7685
 9078SOL    HW238871   4.185   3.611   3.652 -1.6377  0.7522 -1.4356
 9079SOL     OW38872   0.090   2.037   3.953 -0.2672  0.5250 -0.2229
 9079SOL    HW138873   0.043   1.954   3.958  0.5022 -0.0145 -1.6948
 9079SOL    HW238874   0.165   2.013   3.898  0.9745 -0.4890  1.9343
 9080SOL     OW38875   0.999   2.969  17.492 -0.1071 -0.4856  0.6180
 9080SOL    HW138876   1.047   3.025  17.431  0.7083 -0.8600  0.9160
 9080SOL    HW238877   1.076   2.925  17.527  0.7265 -0.3550 -1.0566
 9081SOL     OW38878   2.295   3.629  12.578 -0.0644  0.3695 -0.6313
 9081SOL    HW138879   2.221   3.606  12.634 -0.2949  0.2738 -0.9741
 9081SOL    HW238880   2.264   3.712  12.542  2.1572  0.6009 -1.9854
 9082SOL     OW38881   1.427   2.394   2.930  0.6385 -0.6699  0.0402
 9082SOL    HW138882   1.419   2.479   2.887  1.5964  0.1570  1.5158
 9082SOL    HW238883   1.514   2.370   2.897  0.7494  0.2485 -0.3412
 9083SOL     OW38884   0.656   2.377   5.776  0.1131  0.1016 -0.4234
 9083SOL    HW138885   0.707   2.305   5.739 -1.4914 -0.6231 -1.2518
 9083SOL    HW238886   0.715   2.444   5.745  1.8969 -0.8571  0.8839
 9084SOL     OW38887   0.009   4.450   3.212  0.6068  0.0181  0.4860
 9084SOL    HW138888   0.074   4.495   3.266 -0.0993  0.2202  1.1666
 9084SOL    HW238889   0.023   4.502   3.132 -1.3224  0.7254  0.6063
 9085SOL     OW38890   2.472   3.770   9.562 -0.3202  0.6238 -0.2978
 9085SOL    HW138891   2.498   3.790   9.472  1.9080  0.2782  0.2715
 9085SOL    HW238892   2.380   3.795   9.564  0.5454  4.0195 -2.3441
 9086SOL     OW38893   4.118   4.041   0.869  0.8902 -0.6725 -0.2597
 9086SOL    HW138894   4.103   4.134   0.886  0.1550 -0.7144 -0.7028
 9086SOL    HW238895   4.168   4.016   0.947 -0.9940  0.1973  1.2317
 9087SOL     OW38896   1.044   3.586   8.165  0.1076 -0.2903  0.1839
 9087SOL    HW138897   1.033   3.628   8.080 -1.0866 -3.9198 -1.4458
 9087SOL    HW238898   1.054   3.497   8.132  0.0664 -0.9928  2.0256
 9088SOL     OW38899   2.526   1.542   4.287  0.8116 -0.1655  0.4328
 9088SOL    HW138900   2.570   1.599   4.224 -3.2233  0.5716 -1.7793
 9088SOL    HW238901   2.440   1.582   4.298  0.9365  0.1868  0.1153
 9089SOL     OW38902   4.424   1.903   4.337  0.1828  0.4554 -0.1769
 9089SOL    HW138903   4.495   1.904   4.274 -0.3664  1.8737 -0.7765
 9089SOL    HW238904   4.404   1.997   4.339  0.0788  0.4260  0.4179
 9090SOL     OW38905   4.727   4.343   2.775  0.1883  0.4338 -0.5076
 9090SOL    HW138906   0.026   4.427   2.747  1.6698  0.8576  2.5871
 9090SOL    HW238907   0.058   4.279   2.758  0.0152  0.0497  0.2250
 9091SOL     OW38908   0.250   3.460   2.025 -0.6319  0.0206  0.0118
 9091SOL    HW138909   0.188   3.526   2.057 -0.8605 -1.0187  1.7068
 9091SOL    HW238910   0.279   3.513   1.951  1.2946 -0.4670  0.4358
 9092SOL     OW38911   3.221   3.971   0.792  0.1815 -0.1119  0.0049
 9092SOL    HW138912   3.226   3.985   0.698 -0.6643  2.3219  0.3363
 9092SOL    HW238913   3.146   4.022   0.823  0.9818  0.9683  0.1484
 9093SOL     OW38914   2.902   0.690   2.454 -0.3818  0.2902 -0.1988
 9093SOL    HW138915   2.872   0.777   2.479  0.2633  0.1295  1.1506
 9093SOL    HW238916   2.995   0.706   2.465 -0.3891 -1.6221  2.7195
 9094SOL     OW38917   0.892   0.624  11.684  0.8090 -0.1900 -0.4205
 9094SOL    HW138918   0.920   0.579  11.605 -1.6630 -0.5253 -1.0819
 9094SOL    HW238919   0.832   0.557  11.715  3.4446 -2.3569 -0.0550
 9095SOL     OW38920   0.556   0.159  17.607  0.4110 -0.5629 -0.1803
 9095SOL    HW138921   0.557   0.101  17.531 -3.0336  0.4527 -1.0064
 9095SOL    HW238922   0.589   0.240  17.570  2.6777 -0.1686  2.6549
 9096SOL     OW38923   1.144   3.714  12.957  0.0332 -0.2430  0.1744
 9096SOL    HW138924   1.192   3.796  12.969  3.2041 -2.2840  1.2891
 9096SOL    HW238925   1.193   3.647  13.004 -2.3244 -0.5877  2.1602
 9097SOL     OW38926   0.976   2.476   8.969 -0.3279  0.1965  0.7964
 9097SOL    HW138927   1.001   2.470   8.877 -1.1917 -0.5619  0.6082
 9097SOL    HW238928   1.038   2.541   9.002 -2.0400  1.7831  0.8660
 9098SOL     OW38929   4.458   3.121   6.812 -0.1435  0.2097 -0.4497
 9098SOL    HW138930   4.409   3.203   6.815  1.3737  0.9977  2.6877
 9098SOL    HW238931   4.394   3.072   6.864 -0.5582  1.4562  0.2107
 9099SOL     OW38932   4.469   1.729   8.412  0.3444 -0.4780  0.0178
 9099SOL    HW138933   4.518   1.648   8.398 -0.6143 -0.6651 -2.3040
 9099SOL    HW238934   4.401   1.687   8.465 -1.3803 -1.6136 -3.1117
 9100SOL     OW38935   0.757   3.955   3.476  0.2332 -0.0238  0.9527
 9100SOL    HW138936   0.806   3.930   3.553  2.0707  1.3033  0.2198
 9100SOL    HW238937   0.715   4.035   3.507 -1.3525 -0.9952  1.3211
 9101SOL     OW38938   0.495   2.777   6.542  0.1237 -0.1312 -0.3592
 9101SOL    HW138939   0.414   2.770   6.492  0.0594 -1.5538 -0.0559
 9101SOL    HW238940   0.490   2.690   6.583  1.9902  0.6594  1.5289
 9102SOL     OW38941   2.600   4.150  13.863  0.1255 -0.2511 -0.0407
 9102SOL    HW138942   2.515   4.194  13.873  0.8074  1.0145  0.1692
 9102SOL    HW238943   2.659   4.225  13.864 -2.2858  1.6595  0.2074
 9103SOL     OW38944   4.655   1.450  17.680 -0.2048  0.5156  0.5369
 9103SOL    HW138945   4.646   1.388  17.608  0.6162 -1.2615  1.9720
 9103SOL    HW238946   4.573   1.447  17.729  0.0002 -1.7432  0.6985
 9104SOL     OW38947   4.615   1.283   8.979 -0.4508  0.0244 -0.3830
 9104SOL    HW138948   4.670   1.263   9.055 -1.6045  0.8651  0.6728
 9104SOL    HW238949   4.666   1.293   8.898 -1.4616  2.8522 -0.7012
 9105SOL     OW38950   2.653   3.337   5.547 -0.1458  0.3413 -0.2769
 9105SOL    HW138951   2.625   3.250   5.517 -0.1986  0.2070  0.1493
 9105SOL    HW238952   2.572   3.375   5.581 -0.9456 -2.4006  0.9117
 9106SOL     OW38953   3.258   3.991   8.829 -0.1309  0.2007  0.1143
 9106SOL    HW138954   3.351   3.989   8.853 -0.1297  0.8723  0.1723
 9106SOL    HW238955   3.248   3.898   8.808  2.2290  0.2207 -1.0487
 9107SOL     OW38956   0.291   1.903   3.375  0.2040 -0.4189  0.5866
 9107SOL    HW138957   0.335   1.854   3.306 -1.6170 -0.3457 -0.6423
 9107SOL    HW238958   0.203   1.921   3.341  0.2042  0.3906  1.0068
 9108SOL     OW38959   0.054   1.604  15.716 -0.0698 -0.1357  0.3780
 9108SOL    HW138960   4.716   1.587  15.660 -0.6724  0.1496  1.1174
 9108SOL    HW238961   0.078   1.520  15.755 -0.1461 -0.5710 -0.4997
 9109SOL     OW38962   2.298   4.019   6.657 -0.1487  0.1936  0.5879
 9109SOL    HW138963   2.226   3.976   6.704  0.4569 -0.3098  1.0615
 9109SOL    HW238964   2.372   3.986   6.708 -1.0146 -0.7957  1.2108
 9110SOL     OW38965   4.437   1.524   6.077  0.2957 -0.4147  0.3165
 9110SOL    HW138966   4.467   1.537   5.987 -0.8451 -2.3516 -0.3439
 9110SOL    HW238967   4.509   1.473   6.112  1.3020  0.0602 -1.0635
 9111SOL     OW38968   1.357   2.806   0.262  0.3793  0.2875 -0.0686
 9111SOL    HW138969   1.287   2.870   0.275 -1.5839 -1.8802  0.0725
 9111SOL    HW238970   1.310   2.737   0.215  0.5574 -0.0990  0.3283
 9112SOL     OW38971   0.040   3.986   4.889  0.7932  0.3693  0.2480
 9112SOL    HW138972   4.687   4.014   4.903  0.4032  0.2048 -1.9547
 9112SOL    HW238973   0.071   3.954   4.974 -0.0539 -1.0487  0.0232
 9113SOL     OW38974   1.723   4.391   4.061 -0.4504 -0.1347  0.9468
 9113SOL    HW138975   1.726   4.384   4.156  2.3750 -1.4144  0.7742
 9113SOL    HW238976   1.672   4.470   4.043 -2.5278 -1.4920  0.8568
 9114SOL     OW38977   3.354   2.919   8.788 -0.0795  0.3514  0.3711
 9114SOL    HW138978   3.325   2.920   8.696 -3.3043  0.2513  1.3872
 9114SOL    HW238979   3.323   3.005   8.816  2.2806  1.2652  0.2124
 9115SOL     OW38980   4.153   3.139   4.620 -0.0130  0.5319  0.2922
 9115SOL    HW138981   4.059   3.130   4.639 -0.5080  1.2105 -1.8038
 9115SOL    HW238982   4.159   3.071   4.553  1.2138  1.5637 -0.6278
 9116SOL     OW38983   2.912   0.720  14.336 -0.2358 -0.0953  0.4385
 9116SOL    HW138984   2.917   0.654  14.267  1.8915 -0.9566  1.4193
 9116SOL    HW238985   2.964   0.678  14.405  0.6058  0.0654 -0.0935
 9117SOL     OW38986   1.867   0.362   3.885 -0.3460 -0.3655 -0.0980
 9117SOL    HW138987   1.792   0.356   3.827 -1.3398 -0.6906  1.2189
 9117SOL    HW238988   1.896   0.272   3.873  1.1191 -0.0109  0.7381
 9118SOL     OW38989   3.542   0.321   8.827 -0.6181 -0.5336  0.0027
 9118SOL    HW138990   3.529   0.407   8.786 -1.9076 -0.5493  0.3940
 9118SOL    HW238991   3.536   0.270   8.746  0.6561 -0.6427 -0.0192
 9119SOL     OW38992   3.680   2.938   5.563 -0.1735 -0.2968 -0.4362
 9119SOL    HW138993   3.594   2.939   5.605 -0.4567 -1.1184 -1.0050
 9119SOL    HW238994   3.667   3.015   5.507  0.4349  0.1879  0.0979
 9120SOL     OW38995   2.082   0.093   6.562  0.3320  0.6813 -0.8209
 9120SOL    HW138996   2.028   0.152   6.510  1.2903 -0.3534 -3.0049
 9120SOL    HW238997   2.012   0.039   6.599  0.7450  0.0375 -0.9925
 9121SOL     OW38998   3.913   2.998  10.459  0.0592  0.3597 -0.2646
 9121SOL    HW138999   3.831   3.003  10.507  0.3963  2.5355  0.0862
 9121SOL    HW239000   3.937   2.908  10.481  3.3855  1.3486  0.1731
 9122SOL     OW39001   4.318   2.594  17.251 -0.4019  0.0712 -0.0684
 9122SOL    HW139002   4.358   2.634  17.173 -2.3172 -0.4871 -1.3268
 9122SOL    HW239003   4.400   2.558  17.286 -0.4721  1.9839  2.0446
 9123SOL     OW39004   1.973   4.538   2.527 -0.1293  0.5514  0.4176
 9123SOL    HW139005   1.902   4.598   2.506  0.7801  1.1273 -0.9557
 9123SOL    HW239006   1.979   4.561   2.620  0.4566 -0.8698  0.7468
 9124SOL     OW39007   2.724   1.091   5.676  0.5499  0.1226 -0.1424
 9124SOL    HW139008   2.784   1.035   5.627  2.1018  1.2976  0.4225
 9124SOL    HW239009   2.752   1.071   5.766  1.4371 -1.6788 -0.8202
 9125SOL     OW39010   0.426   3.619  17.124 -0.2256 -0.1103 -0.1270
 9125SOL    HW139011   0.333   3.599  17.140 -0.3975  1.8452  1.3270
 9125SOL    HW239012   0.428   3.703  17.077 -0.0164 -0.3951 -0.6249
 9126SOL     OW39013   1.448   3.639  14.319  0.4056 -0.3539 -0.0494
 9126SOL    HW139014   1.370   3.691  14.335  0.2397 -0.6375  0.0573
 9126SOL    HW239015   1.407   3.557  14.293  1.4634 -0.3944 -1.6093
 9127SOL     OW39016   1.945   1.336  11.456 -0.3886  0.2170  0.1618
 9127SOL    HW139017   1.950   1.258  11.401 -1.5638  0.7184 -0.6470
 9127SOL    HW239018   1.869   1.325  11.512 -1.5745  0.1470 -1.4655
 9128SOL     OW39019   2.586   0.977   1.848 -0.1499 -0.0547  0.8026
 9128SOL    HW139020   2.501   0.944   1.879  0.3079 -1.6615  0.3107
 9128SOL    HW239021   2.641   0.971   1.926  0.8797 -3.0885 -0.1398
 9129SOL     OW39022   3.999   0.737   0.535 -0.0850  0.9401  0.1817
 9129SOL    HW139023   3.993   0.817   0.483 -2.5830 -0.3484 -1.5202
 9129SOL    HW239024   3.921   0.691   0.503  0.3756  0.5879 -0.4290
 9130SOL     OW39025   1.942   0.184   4.303  0.5370  0.4853 -0.3967
 9130SOL    HW139026   1.898   0.133   4.235 -0.9362  1.9974 -0.5690
 9130SOL    HW239027   1.980   0.111   4.353 -0.9554 -1.0855 -1.5622
 9131SOL     OW39028   4.260   4.030  17.677  0.1266  0.6787  0.4620
 9131SOL    HW139029   4.164   4.035  17.678  0.1283  1.0180 -0.4060
 9131SOL    HW239030   4.271   3.943  17.714 -4.3029 -0.7240 -1.5095
 9132SOL     OW39031   0.315   1.943   3.846 -0.4313  0.5525 -0.2896
 9132SOL    HW139032   0.275   1.856   3.845  0.3179  0.2240 -1.2200
 9132SOL    HW239033   0.348   1.957   3.934  0.6264 -1.0003 -0.4410
 9133SOL     OW39034   0.151   0.685  10.352  0.0508 -0.2532  0.7089
 9133SOL    HW139035   0.227   0.674  10.410  0.1254 -1.4450  0.3789
 9133SOL    HW239036   0.167   0.771  10.313  0.5458 -0.8482 -0.3955
 9134SOL     OW39037   4.108   2.033   5.963  0.1679 -0.5927  0.8919
 9134SOL    HW139038   4.028   2.009   5.915  0.8634 -1.0033 -0.0573
 9134SOL    HW239039   4.129   1.947   5.999  3.1922  0.0374  0.6326
 9135SOL     OW39040   3.908   0.678  13.774  0.2682 -0.0032  0.0861
 9135SOL    HW139041   3.921   0.645  13.685  3.4137 -1.5877  1.1430
 9135SOL    HW239042   3.880   0.598  13.820 -1.4783  0.7398  0.3319
 9136SOL     OW39043   1.674   1.280  11.881  0.7709  0.0490 -0.0759
 9136SOL    HW139044   1.588   1.318  11.862  0.0114 -0.8252  1.6539
 9136SOL    HW239045   1.723   1.348  11.927 -1.3004  0.7352  1.1216
 9137SOL     OW39046   3.106   0.196   3.397 -0.2248  0.1979 -0.4610
 9137SOL    HW139047   3.148   0.186   3.482 -1.3843 -2.7158 -0.2231
 9137SOL    HW239048   3.042   0.265   3.413 -0.2441 -0.7542  3.4905
 9138SOL     OW39049   1.039   1.969   8.309 -0.4338 -0.6350  0.0462
 9138SOL    HW139050   0.948   1.961   8.336 -0.3828 -1.1704  0.0712
 9138SOL    HW239051   1.061   2.053   8.350  0.8415 -0.2468 -1.4212
 9139SOL     OW39052   2.899   3.203   6.333  0.2052  0.4219 -0.0462
 9139SOL    HW139053   2.872   3.294   6.317  0.5064  0.4422 -0.4472
 9139SOL    HW239054   2.823   3.165   6.289  0.6116  1.3187 -1.5235
 9140SOL     OW39055   3.959   2.187  11.297 -0.9331  0.0373 -0.1146
 9140SOL    HW139056   4.022   2.254  11.272 -1.0916  1.4197  3.0760
 9140SOL    HW239057   3.995   2.111  11.251 -0.7196  0.5118 -0.7275
 9141SOL     OW39058   1.179   4.307   8.809 -0.3511 -0.0383  0.1622
 9141SOL    HW139059   1.263   4.270   8.836 -1.0724 -0.9643  1.1328
 9141SOL    HW239060   1.151   4.236   8.751 -0.5794 -1.0367  1.4895
 9142SOL     OW39061   1.314   3.242   6.904  0.5318  0.2164  0.1422
 9142SOL    HW139062   1.389   3.208   6.952  1.8329  0.2069 -1.9196
 9142SOL    HW239063   1.364   3.255   6.824  1.2751  2.8270  1.0312
 9143SOL     OW39064   4.505   0.575  14.646 -0.2504 -0.8467 -0.3388
 9143SOL    HW139065   4.587   0.526  14.646  0.1211 -0.2256 -1.5738
 9143SOL    HW239066   4.542   0.653  14.604  1.3933 -0.9088  0.9678
 9144SOL     OW39067   1.784   0.814   6.226 -0.0792  0.0166 -0.2594
 9144SOL    HW139068   1.768   0.720   6.239  2.4658 -0.2371  1.0663
 9144SOL    HW239069   1.874   0.810   6.257 -0.3797 -1.0855  0.4788
 9145SOL     OW39070   0.362   1.032   3.034  0.0025 -0.1302  1.0451
 9145SOL    HW139071   0.432   1.049   2.971 -2.7975 -0.3298 -2.0553
 9145SOL    HW239072   0.285   1.044   2.979 -0.1650  0.2081  1.3511
 9146SOL     OW39073   0.927   4.577  14.202  0.0005 -0.0436 -0.4381
 9146SOL    HW139074   0.888   4.513  14.143  2.7942 -1.1713 -1.0749
 9146SOL    HW239075   0.935   4.654  14.146  1.7897 -1.2622 -1.8577
 9147SOL     OW39076   3.902   0.749   7.875 -0.3818  0.3892 -0.6692
 9147SOL    HW139077   3.878   0.839   7.852  0.6748  0.4442 -1.5558
 9147SOL    HW239078   3.997   0.746   7.862 -0.4884  1.5489 -1.7029
 9148SOL     OW39079   2.677   2.189   4.756 -0.2282 -0.0588 -0.2377
 9148SOL    HW139080   2.689   2.191   4.661  0.4525  0.7169 -0.1445
 9148SOL    HW239081   2.715   2.274   4.779  0.9754 -0.0903 -2.0524
 9149SOL     OW39082   3.606   1.290   4.120 -0.3024  0.4035 -0.1531
 9149SOL    HW139083   3.644   1.284   4.208  0.6935 -1.1925 -0.6882
 9149SOL    HW239084   3.683   1.294   4.063 -1.7674 -1.2836 -2.2346
 9150SOL     OW39085   1.422   2.808   1.247 -0.0711  0.0143 -0.7124
 9150SOL    HW139086   1.327   2.801   1.239  0.0804 -0.8420 -1.7796
 9150SOL    HW239087   1.442   2.900   1.230 -0.4580 -0.0248 -1.3624
 9151SOL     OW39088   3.527   2.198   1.290  0.0889  0.2069 -0.5421
 9151SOL    HW139089   3.602   2.153   1.328 -1.6221 -1.0584  1.3555
 9151SOL    HW239090   3.564   2.280   1.259  1.9017 -0.7061 -0.8065
 9152SOL     OW39091   2.557   1.200   2.605 -0.2513 -0.1140  0.5489
 9152SOL    HW139092   2.496   1.274   2.601 -0.7846 -0.5113  1.2529
 9152SOL    HW239093   2.630   1.239   2.653 -0.0948 -1.0246  1.0452
 9153SOL     OW39094   1.076   3.116  13.493 -0.1524  0.0011 -0.5425
 9153SOL    HW139095   1.161   3.073  13.483 -0.2298 -0.2062 -0.3132
 9153SOL    HW239096   1.091   3.189  13.432  0.0816 -0.0216 -0.5115
 9154SOL     OW39097   0.447   2.455   6.376 -0.1330  0.4142  0.6194
 9154SOL    HW139098   0.380   2.470   6.309  0.5965 -2.0619 -0.6482
 9154SOL    HW239099   0.399   2.477   6.457  0.6102 -0.8961  1.4082
 9155SOL     OW39100   0.031   4.225   4.166 -0.0521  0.2067  0.5035
 9155SOL    HW139101   4.718   4.159   4.118  3.2253 -1.2691 -0.9867
 9155SOL    HW239102   4.698   4.283   4.192  0.9675  1.3685  0.6962
 9156SOL     OW39103   0.255   2.103   5.662 -0.4205  0.0732 -0.3007
 9156SOL    HW139104   0.333   2.077   5.613 -0.4478  1.6563 -1.2035
 9156SOL    HW239105   0.187   2.042   5.635  0.1194 -1.6066  2.1877
 9157SOL     OW39106   2.588   3.619   0.766  0.0415  0.2968 -0.0976
 9157SOL    HW139107   2.571   3.690   0.828  2.6961 -1.0740  2.2210
 9157SOL    HW239108   2.683   3.628   0.759  0.4175 -0.6659  3.8102
 9158SOL     OW39109   2.345   1.167   5.393 -0.7626  0.0356  0.4430
 9158SOL    HW139110   2.403   1.098   5.362 -0.0832  1.5527 -1.6787
 9158SOL    HW239111   2.268   1.112   5.403 -1.5831  1.2970  1.1276
 9159SOL     OW39112   1.463   2.070   4.106 -0.5794 -0.1448  0.5734
 9159SOL    HW139113   1.538   2.130   4.110 -0.4851 -0.2509  0.3846
 9159SOL    HW239114   1.505   1.999   4.058  1.5283  0.5490  1.3812
 9160SOL     OW39115   4.031   3.620   8.652 -0.6031 -0.1840  0.3461
 9160SOL    HW139116   3.953   3.586   8.695  0.5933 -0.9833  1.9285
 9160SOL    HW239117   4.098   3.555   8.674 -1.0109 -0.6571  0.1660
 9161SOL     OW39118   1.277   2.621   5.444  0.4395 -0.4586 -0.3351
 9161SOL    HW139119   1.247   2.646   5.356 -0.8591  0.0757  0.2627
 9161SOL    HW239120   1.202   2.648   5.496 -0.9565 -1.4870 -1.8086
 9162SOL     OW39121   3.426   2.765   0.966 -0.7057 -0.2380 -1.1421
 9162SOL    HW139122   3.519   2.751   0.978 -1.3688 -2.7780  0.8744
 9162SOL    HW239123   3.401   2.673   0.956 -1.2629 -0.2539  0.4799
 9163SOL     OW39124   1.896   4.578   3.756  0.6947  0.2762 -0.1111
 9163SOL    HW139125   1.931   4.489   3.760 -0.6896 -0.2161  1.1584
 9163SOL    HW239126   1.802   4.562   3.750  0.9838 -1.0448 -1.0892
 9164SOL     OW39127   4.011   3.379   2.881 -0.0670 -0.3343  0.1254
 9164SOL    HW139128   4.055   3.456   2.917  0.3068  0.3483 -1.7835
 9164SOL    HW239129   3.922   3.384   2.915  0.0473  2.1154  0.0563
 9165SOL     OW39130   3.930   4.704   2.662  0.2454  0.4047 -0.2218
 9165SOL    HW139131   3.900   4.641   2.728  0.0862 -0.5637 -1.2253
 9165SOL    HW239132   3.950   0.050   2.705 -2.3924  1.3529 -0.8397
 9166SOL     OW39133   2.808   1.223  14.558 -0.3765 -0.0404  0.2888
 9166SOL    HW139134   2.726   1.215  14.606 -1.6312 -0.8124 -1.9920
 9166SOL    HW239135   2.791   1.160  14.487 -1.9646  0.5674  0.1319
 9167SOL     OW39136   1.029   4.658   7.172 -0.1604  0.2167  0.0037
 9167SOL    HW139137   0.967   4.610   7.118 -0.3665 -0.6212  0.9647
 9167SOL    HW239138   1.105   4.678   7.119  0.1965 -3.3480 -0.8146
 9168SOL     OW39139   0.139   1.176  11.075  0.4724  0.1717  0.0812
 9168SOL    HW139140   0.113   1.256  11.120 -0.0749  0.3806 -0.6039
 9168SOL    HW239141   0.233   1.192  11.069  0.3304  1.3869  1.2065
 9169SOL     OW39142   1.101   0.863   6.544 -0.0477 -0.3917  0.6313
 9169SOL    HW139143   1.123   0.852   6.451 -0.9214 -0.6844  0.4572
 9169SOL    HW239144   1.073   0.954   6.550  2.0948  0.3875 -1.4321
 9170SOL     OW39145   2.077   0.216   1.687 -0.6400  0.1163  0.8283
 9170SOL    HW139146   2.051   0.163   1.762 -0.2886 -0.5154  0.4992
 9170SOL    HW239147   2.143   0.273   1.727 -0.4856 -0.4752  1.4308
 9171SOL     OW39148   4.379   2.651   8.264 -0.2374 -0.2610  0.5816
 9171SOL    HW139149   4.356   2.619   8.351  1.6309 -2.1023  0.4077
 9171SOL    HW239150   4.319   2.725   8.263  0.0609 -0.0777 -2.1177
 9172SOL     OW39151   3.021   0.262   7.543  0.4812  0.3873 -0.2791
 9172SOL    HW139152   2.929   0.237   7.530  0.4214  1.1979 -1.3519
 9172SOL    HW239153   3.013   0.357   7.541 -0.0653  0.2870 -2.5752
 9173SOL     OW39154   2.493   0.499   6.685  0.6377  0.3423  0.4448
 9173SOL    HW139155   2.476   0.593   6.687 -0.3035  0.1545  1.0020
 9173SOL    HW239156   2.465   0.479   6.774  0.8163 -0.9009  0.2160
 9174SOL     OW39157   2.392   1.874   1.893  0.3584  0.6666 -0.2684
 9174SOL    HW139158   2.483   1.903   1.890  0.4270  0.6379  1.3550
 9174SOL    HW239159   2.402   1.805   1.959 -1.6978  0.9283  0.3086
 9175SOL     OW39160   3.566   1.765   0.121  0.0559 -0.7664  0.7760
 9175SOL    HW139161   3.576   1.848   0.166  0.1395  1.0987 -2.7173
 9175SOL    HW239162   3.546   1.791   0.031  0.8885 -0.9526  0.5429
 9176SOL     OW39163   1.197   2.750   6.694 -0.3027 -0.2089 -0.0300
 9176SOL    HW139164   1.212   2.661   6.662 -1.7854  0.1210 -1.6510
 9176SOL    HW239165   1.237   2.797   6.621 -1.0444 -1.3937 -1.2164
 9177SOL     OW39166   3.183   2.069   2.152  0.5615  0.0036 -0.2124
 9177SOL    HW139167   3.133   2.081   2.071  2.4917  0.6355 -1.2938
 9177SOL    HW239168   3.141   2.117   2.224 -2.9843 -1.5189 -1.2339
 9178SOL     OW39169   2.340   2.746   5.260 -0.1317  0.9671 -0.2381
 9178SOL    HW139170   2.408   2.748   5.192 -1.9552  0.8177 -2.0486
 9178SOL    HW239171   2.389   2.771   5.339 -0.8404  0.8426  0.2370
 9179SOL     OW39172   2.245   3.290   9.528  0.2404  0.5099  0.3017
 9179SOL    HW139173   2.183   3.271   9.458  1.1645 -0.7794 -0.1759
 9179SOL    HW239174   2.242   3.386   9.521  2.9162  0.4701 -1.6890
 9180SOL     OW39175   0.381   2.921   0.715  0.1116 -0.4365 -0.1801
 9180SOL    HW139176   0.334   2.901   0.796 -1.7834  0.4126 -1.0600
 9180SOL    HW239177   0.316   2.879   0.658 -1.9637  0.9351  1.1723
 9181SOL     OW39178   1.283   0.794   2.971  0.3430 -0.0352  0.3489
 9181SOL    HW139179   1.331   0.711   2.978  2.4302  1.1620  0.0102
 9181SOL    HW239180   1.351   0.859   2.987 -0.3335  0.5692  0.8164
 9182SOL     OW39181   4.687   0.379   1.246  0.5964 -0.2650  0.0353
 9182SOL    HW139182   4.592   0.369   1.233  0.6595 -1.5955  0.6242
 9182SOL    HW239183   4.728   0.305   1.202  0.3014  0.2569 -1.1149
 9183SOL     OW39184   2.494   4.342  12.621 -0.0157  0.3040  0.6841
 9183SOL    HW139185   2.453   4.416  12.666 -0.4054  0.5966 -0.1638
 9183SOL    HW239186   2.574   4.393  12.608  0.2608 -0.8476 -2.0328
 9184SOL     OW39187   2.175   0.607  13.640  0.5324 -0.2764 -0.1598
 9184SOL    HW139188   2.205   0.690  13.602  1.9591 -0.5147  0.4484
 9184SOL    HW239189   2.138   0.637  13.723  0.6822 -0.4611 -0.0273
 9185SOL     OW39190   2.247   0.679  10.879 -0.1545  0.3057 -0.5481
 9185SOL    HW139191   2.329   0.726  10.895  0.1428  0.2972 -2.0746
 9185SOL    HW239192   2.287   0.607  10.831  0.2405  0.1021  0.0894
 9186SOL     OW39193   3.447   2.687   0.605  0.6251 -0.2166  0.0549
 9186SOL    HW139194   3.397   2.768   0.594 -0.1498 -1.0075 -2.2577
 9186SOL    HW239195   3.458   2.651   0.517 -2.3454 -0.0283 -0.3858
 9187SOL     OW39196   3.982   2.947   4.885  0.7180  0.0654 -0.3852
 9187SOL    HW139197   3.942   2.962   4.799  0.6176 -0.4487 -0.4264
 9187SOL    HW239198   3.919   2.991   4.943  0.4292 -1.7428  0.6480
 9188SOL     OW39199   3.424   3.407   0.720 -0.4589  0.3875  0.6461
 9188SOL    HW139200   3.333   3.433   0.705 -0.0038  0.9079 -1.1792
 9188SOL    HW239201   3.460   3.465   0.653  0.3815 -1.8765 -0.8407
 9189SOL     OW39202   4.678   4.551   2.966  0.2046  0.3511 -0.1928
 9189SOL    HW139203   4.690   4.460   2.937  1.3195  1.0972 -2.1063
 9189SOL    HW239204   4.653   4.592   2.883 -2.3799 -0.5182  0.1527
 9190SOL     OW39205   4.486   0.819   6.476 -0.1339  0.1697 -0.5638
 9190SOL    HW139206   4.482   0.745   6.538  0.6466  0.9316  0.3956
 9190SOL    HW239207   4.570   0.850   6.510  0.2789  0.4576 -1.8341
 9191SOL     OW39208   4.395   2.181   4.686  0.1301 -0.3114 -0.2325
 9191SOL    HW139209   4.483   2.211   4.709 -0.3192  1.4232 -0.7907
 9191SOL    HW239210   4.335   2.245   4.724  0.9958  0.6681 -0.5015
 9192SOL     OW39211   2.015   1.410   3.980  0.1067 -0.5664 -0.5046
 9192SOL    HW139212   2.072   1.344   3.942 -0.9958 -0.4521 -2.3212
 9192SOL    HW239213   1.965   1.345   4.029  0.5570  0.0666  0.8090
 9193SOL     OW39214   3.626   1.020   5.413  0.2905 -0.5717 -0.1743
 9193SOL    HW139215   3.712   1.014   5.456 -0.5952 -1.3734  1.4952
 9193SOL    HW239216   3.607   1.112   5.431 -0.7771 -1.2239  1.9724
 9194SOL     OW39217   4.115   4.415   9.013 -0.3895 -0.3280  0.4299
 9194SOL    HW139218   4.073   4.333   8.986  2.0350 -1.1040 -1.0500
 9194SOL    HW239219   4.194   4.414   8.959 -0.9817 -4.3615 -0.3992
 9195SOL     OW39220   4.644   4.383   3.879 -0.1040  0.1056  0.3615
 9195SOL    HW139221   4.691   4.316   3.830 -1.2237 -1.2495  1.1039
 9195SOL    HW239222   4.678   4.382   3.969  1.2164  3.2728 -0.1290
 9196SOL     OW39223   2.594   3.594   5.090 -0.7373  0.1630 -0.4717
 9196SOL    HW139224   2.597   3.605   5.185  0.6266  1.0128 -0.6159
 9196SOL    HW239225   2.615   3.501   5.089 -0.1160  0.3047  0.6298
 9197SOL     OW39226   1.585   1.880   7.050 -0.0571 -0.6561  0.2807
 9197SOL    HW139227   1.512   1.942   7.059 -1.5504 -2.5731  1.3612
 9197SOL    HW239228   1.561   1.843   6.965  0.0545  2.9213 -1.3008
 9198SOL     OW39229   4.337   4.598  16.597  0.3915  0.2780  0.5638
 9198SOL    HW139230   4.396   4.610  16.671  0.9960  3.5079 -0.4665
 9198SOL    HW239231   4.396   4.624  16.527 -1.6077  4.4855  0.4099
 9199SOL     OW39232   4.657   0.761   5.131  0.4207 -0.1495 -1.0177
 9199SOL    HW139233   4.735   0.780   5.079  0.3920  1.1691 -0.5861
 9199SOL    HW239234   4.598   0.737   5.060  0.7831 -1.1170 -0.9929
 9200SOL     OW39235   3.598   2.660  12.174 -0.5013 -0.1209 -0.2211
 9200SOL    HW139236   3.580   2.748  12.140 -2.0855  0.2669  1.6407
 9200SOL    HW239237   3.506   2.631  12.179 -0.4186 -0.1554  1.0224
 9201SOL     OW39238   0.444   3.856  10.325  0.0636  0.6250  0.1742
 9201SOL    HW139239   0.425   3.947  10.347 -0.1058  0.8134 -0.7485
 9201SOL    HW239240   0.357   3.816  10.320  1.5811 -2.7210  0.3308
 9202SOL     OW39241   1.768   1.775   2.878 -0.4241 -0.5183  0.5321
 9202SOL    HW139242   1.802   1.753   2.965 -1.0301 -1.4053  0.5470
 9202SOL    HW239243   1.732   1.687   2.869  1.4192 -1.2714  0.4966
 9203SOL     OW39244   2.132   3.021   8.272 -0.2339 -0.1023  0.5265
 9203SOL    HW139245   2.128   2.993   8.180 -1.5853 -1.9007  1.1308
 9203SOL    HW239246   2.036   3.021   8.281 -0.3429  0.1001 -0.5961
 9204SOL     OW39247   4.099   2.164   3.509 -0.4079 -0.2806  0.4420
 9204SOL    HW139248   4.123   2.245   3.464 -0.5993  0.5474  1.8543
 9204SOL    HW239249   4.108   2.116   3.426  1.9130 -1.1155  1.1830
 9205SOL     OW39250   3.444   1.862   2.492 -0.2039  0.3786  0.5035
 9205SOL    HW139251   3.539   1.851   2.486 -0.3535 -1.0584  0.7769
 9205SOL    HW239252   3.436   1.940   2.437 -0.2507  0.4430  0.6006
 9206SOL     OW39253   2.278   0.730  11.589 -0.1029  0.7239  0.3363
 9206SOL    HW139254   2.256   0.731  11.683  2.2808 -2.6632  0.9151
 9206SOL    HW239255   2.259   0.824  11.588  0.2397  0.7883 -0.3785
 9207SOL     OW39256   4.180   2.641   5.238 -0.1647  0.0819 -0.2378
 9207SOL    HW139257   4.088   2.619   5.226 -0.0974 -2.4019  3.9385
 9207SOL    HW239258   4.165   2.727   5.199 -1.4700 -0.0921 -0.1155
 9208SOL     OW39259   2.017   2.932  12.772  0.2074 -0.2182 -0.4920
 9208SOL    HW139260   1.952   2.863  12.783  0.2539 -0.0006  1.1422
 9208SOL    HW239261   2.083   2.904  12.836  0.1636  0.3605 -0.1944
 9209SOL     OW39262   4.556   1.224   6.141  0.1693 -0.2854 -0.1757
 9209SOL    HW139263   4.571   1.215   6.047 -0.5509 -0.8323 -0.2409
 9209SOL    HW239264   4.643   1.236   6.179 -0.2964 -0.0540  0.8188
 9210SOL     OW39265   4.658   4.258   3.567  0.3389 -0.1002  0.2304
 9210SOL    HW139266   4.612   4.179   3.539 -0.9823  0.7956 -0.1405
 9210SOL    HW239267   4.718   4.219   3.630 -0.2577 -2.4970 -0.6977
 9211SOL     OW39268   3.618   1.006  13.940  0.0836  0.7468  0.1631
 9211SOL    HW139269   3.550   0.938  13.940  1.1459 -0.3305  0.5034
 9211SOL    HW239270   3.585   1.062  14.010  0.1097  0.8342  0.1047
 9212SOL     OW39271   1.470   4.561   5.380 -0.4328 -0.4055  0.1278
 9212SOL    HW139272   1.552   4.587   5.422  0.5307 -1.7303 -0.9170
 9212SOL    HW239273   1.476   4.619   5.304 -2.3929  0.5595  0.7129
 9213SOL     OW39274   3.492   0.815   8.580 -0.1794  0.0062  0.3431
 9213SOL    HW139275   3.514   0.903   8.550  3.8908 -0.9404  0.5912
 9213SOL    HW239276   3.397   0.826   8.586 -0.1652 -0.4319  1.2763
 9214SOL     OW39277   0.803   1.616   5.320  0.1895  0.3730  0.0835
 9214SOL    HW139278   0.804   1.557   5.245 -1.2353 -1.7410  1.7254
 9214SOL    HW239279   0.867   1.584   5.383  0.0748 -1.8962 -0.9727
 9215SOL     OW39280   1.495   0.120   6.244 -0.1637  0.1956  0.4172
 9215SOL    HW139281   1.446   0.107   6.325 -0.3822 -3.0564 -0.2275
 9215SOL    HW239282   1.459   0.202   6.211  0.1340  0.7035  1.3568
 9216SOL     OW39283   3.473   3.010   4.403 -0.1734 -0.1331 -0.3672
 9216SOL    HW139284   3.435   2.950   4.467  1.0672 -1.6838 -1.0777
 9216SOL    HW239285   3.566   2.993   4.418  0.1513  2.9236  1.1257
 9217SOL     OW39286   2.010   0.171  16.441 -0.3967 -0.5400 -0.0743
 9217SOL    HW139287   1.964   0.187  16.524 -0.4872  3.4061 -0.9199
 9217SOL    HW239288   2.011   0.257  16.400  1.7633 -0.5707 -0.1025
 9218SOL     OW39289   4.435   3.866  17.504 -0.5753  0.5006  0.0875
 9218SOL    HW139290   4.450   3.857  17.598 -2.4483 -2.3662  0.0980
 9218SOL    HW239291   4.387   3.785  17.489  1.6890 -1.0139  1.1276
 9219SOL     OW39292   1.281   0.939   5.296  0.0253 -0.1697  0.3420
 9219SOL    HW139293   1.352   0.930   5.359 -0.8594 -2.4711  0.9878
 9219SOL    HW239294   1.257   1.031   5.312 -1.2095 -0.5175  0.4680
 9220SOL     OW39295   2.852   2.032  10.676  0.0523 -0.1742 -0.2703
 9220SOL    HW139296   2.795   2.079  10.615 -1.0117  1.3825  1.9392
 9220SOL    HW239297   2.880   2.109  10.725  1.4640  0.6075 -2.2999
 9221SOL     OW39298   2.599   4.087   7.462  0.1686 -0.6669 -0.1811
 9221SOL    HW139299   2.535   4.147   7.425  0.5342  0.4584  0.9690
 9221SOL    HW239300   2.575   4.103   7.554  1.1975  1.8232 -0.3441
 9222SOL     OW39301   0.685   0.099   6.300  0.2684  0.2720 -0.6210
 9222SOL    HW139302   0.771   0.059   6.290  0.3514  0.3192 -0.1006
 9222SOL    HW239303   0.662   0.130   6.213  1.0882  0.7884 -0.6513
 9223SOL     OW39304   2.626   0.655   1.524 -0.3586 -0.6072 -0.7477
 9223SOL    HW139305   2.643   0.663   1.618 -0.9995  2.3260 -0.8736
 9223SOL    HW239306   2.687   0.589   1.490 -0.9714 -1.4394 -0.2165
 9224SOL     OW39307   4.459   3.128   4.468 -0.5512  0.1845 -0.1618
 9224SOL    HW139308   4.473   3.091   4.555  1.4439  3.1121  0.7851
 9224SOL    HW239309   4.494   3.058   4.413 -0.3915 -0.6761  1.0496
 9225SOL     OW39310   1.693   2.858  13.035  0.1962 -1.2868  0.4391
 9225SOL    HW139311   1.694   2.917  13.110  1.9253  0.1448 -0.7176
 9225SOL    HW239312   1.604   2.826  13.046  0.0903 -0.1677  2.7953
 9226SOL     OW39313   2.782   4.475   3.178  0.1639 -0.0769 -0.4255
 9226SOL    HW139314   2.729   4.479   3.257 -2.3151 -0.9962 -2.0567
 9226SOL    HW239315   2.844   4.546   3.197 -2.2587  1.8385  0.3385
 9227SOL     OW39316   4.442   1.248   7.843  0.4743 -0.1519  0.0508
 9227SOL    HW139317   4.524   1.200   7.857 -0.3497 -1.2697  1.0053
 9227SOL    HW239318   4.468   1.336   7.869  0.1219 -0.3901  1.2356
 9228SOL     OW39319   4.220   1.816   1.382 -1.2272  0.1585  0.6591
 9228SOL    HW139320   4.306   1.778   1.398 -0.6876  0.4990 -1.4440
 9228SOL    HW239321   4.250   1.900   1.348 -0.8755 -0.6520 -1.0183
 9229SOL     OW39322   1.639   2.315  15.105 -0.4184  0.1807  0.3916
 9229SOL    HW139323   1.611   2.244  15.163  2.1013 -0.1828  1.1562
 9229SOL    HW239324   1.627   2.394  15.158  1.7226  0.0009  1.1538
 9230SOL     OW39325   1.766   0.563   7.299 -0.1724  0.1609  0.0853
 9230SOL    HW139326   1.843   0.620   7.288 -0.1443 -0.2314 -1.6487
 9230SOL    HW239327   1.707   0.613   7.355  0.1395  0.1018  0.4712
 9231SOL     OW39328   0.653   2.411   3.900  0.0530 -0.3393 -0.4760
 9231SOL    HW139329   0.732   2.359   3.917 -1.0512 -1.1210  2.2568
 9231SOL    HW239330   0.596   2.345   3.861 -1.2075  0.7456 -0.4462
 9232SOL     OW39331   3.230   4.458   4.263 -0.1665 -0.2811 -0.1028
 9232SOL    HW139332   3.138   4.480   4.247  0.0285  0.6391  0.0455
 9232SOL    HW239333   3.256   4.542   4.225 -1.3904  0.1116 -0.0891
 9233SOL     OW39334   2.388   0.303   5.883 -0.2111  0.0907  0.0844
 9233SOL    HW139335   2.470   0.267   5.916 -0.9565 -1.1580  0.5871
 9233SOL    HW239336   2.384   0.392   5.918 -2.9505 -0.2959  0.7537
 9234SOL     OW39337   0.174   3.785  10.400 -0.1764 -0.1185 -0.1086
 9234SOL    HW139338   0.085   3.767  10.368 -0.4904  1.0932  0.0645
 9234SOL    HW239339   0.193   3.717  10.464 -2.8144  1.5197  2.4378
 9235SOL     OW39340   3.407   3.898  10.214  0.1183 -0.2560 -0.3831
 9235SOL    HW139341   3.467   3.870  10.284 -0.1796 -0.3315 -0.1568
 9235SOL    HW239342   3.328   3.912  10.266  0.3105  1.9785 -0.6928
 9236SOL     OW39343   1.595   0.619   5.304 -0.7512 -0.0189 -0.2211
 9236SOL    HW139344   1.569   0.707   5.277 -1.0329 -1.1650 -3.6735
 9236SOL    HW239345   1.657   0.644   5.372  0.5312  0.2857 -1.4984
 9237SOL     OW39346   2.288   1.434  13.886  0.0481 -0.5339  0.0892
 9237SOL    HW139347   2.342   1.493  13.833 -0.0934 -1.5971 -1.2356
 9237SOL    HW239348   2.202   1.452  13.847  1.6502 -1.3758 -3.8728
 9238SOL     OW39349   2.230   3.790  15.611 -0.0429  0.7169  0.1072
 9238SOL    HW139350   2.228   3.876  15.568 -2.3951  0.3439 -0.5464
 9238SOL    HW239351   2.314   3.754  15.583  1.0362  3.4665 -0.2654
 9239SOL     OW39352   0.034   2.658   7.655 -0.6547 -0.1882 -0.6422
 9239SOL    HW139353   0.027   2.582   7.712 -0.0165 -1.1089 -1.7806
 9239SOL    HW239354   4.726   2.623   7.578  1.1593  0.2106 -1.8971
 9240SOL     OW39355   2.317   3.039   5.099  0.0401  0.8333  0.2015
 9240SOL    HW139356   2.389   3.013   5.042 -0.0976  0.0017  0.4043
 9240SOL    HW239357   2.249   3.060   5.036  0.7242  2.4087 -0.0040
 9241SOL     OW39358   0.962   3.600   2.887 -0.3582  0.2811  0.2347
 9241SOL    HW139359   0.998   3.619   2.800  0.2261 -0.1078  0.3917
 9241SOL    HW239360   0.901   3.528   2.872  2.8001 -2.1205 -0.8689
 9242SOL     OW39361   3.989   1.848   8.028  1.0377  0.2524 -0.0595
 9242SOL    HW139362   3.988   1.759   8.063  1.0773  0.8555  1.4553
 9242SOL    HW239363   4.008   1.839   7.934  0.9794  2.6178 -0.3199
 9243SOL     OW39364   4.039   4.032  17.123  0.1002 -0.7482 -0.7539
 9243SOL    HW139365   4.135   4.033  17.122  0.0626  0.7071 -2.1248
 9243SOL    HW239366   4.026   4.056  17.215 -0.3267 -2.0647 -0.4712
 9244SOL     OW39367   2.138   3.980   0.003  0.9111 -0.1469 -0.0790
 9244SOL    HW139368   2.090   3.897  17.746 -2.1937  1.6976 -0.4225
 9244SOL    HW239369   2.224   3.940  17.741  1.0545 -0.2635  1.4677
 9245SOL     OW39370   2.335   0.522   7.248 -0.0574  0.5040 -0.9169
 9245SOL    HW139371   2.296   0.437   7.267 -0.4563  0.6811 -0.9483
 9245SOL    HW239372   2.276   0.583   7.292 -2.1247 -2.7175  0.7374
 9246SOL     OW39373   1.681   3.402   7.131 -0.0944  0.1545 -0.5647
 9246SOL    HW139374   1.735   3.386   7.053  1.1118  0.7239  0.1427
 9246SOL    HW239375   1.744   3.438   7.193 -1.1346  0.5074  0.2800
 9247SOL     OW39376   2.693   2.231   2.758  0.2245 -0.0650  0.0325
 9247SOL    HW139377   2.751   2.158   2.780  1.5378  2.1478  3.8967
 9247SOL    HW239378   2.661   2.261   2.842 -0.1860  0.8922 -0.4686
 9248SOL     OW39379   1.961   3.996  13.136  0.2941 -0.2372  0.0145
 9248SOL    HW139380   1.933   3.947  13.213  0.0756 -0.6629 -0.3341
 9248SOL    HW239381   2.002   4.071  13.180 -0.7874  0.7194 -0.5814
 9249SOL     OW39382   1.093   0.363  16.203  0.2589 -0.4549 -0.4438
 9249SOL    HW139383   1.038   0.366  16.125 -0.8271 -0.6851  0.3230
 9249SOL    HW239384   1.047   0.428  16.258 -2.1857 -2.0475 -0.6280
 9250SOL     OW39385   2.913   1.765  11.191 -0.3600 -0.1335  0.1926
 9250SOL    HW139386   2.856   1.767  11.114  2.4524  0.9624 -1.8967
 9250SOL    HW239387   2.994   1.739  11.147 -0.5073 -1.0560  0.4847
 9251SOL     OW39388   4.650   3.254   2.129  0.0922  0.3837  0.2587
 9251SOL    HW139389   4.564   3.221   2.156  0.1499 -1.2281 -1.5111
 9251SOL    HW239390   4.664   3.302   2.210 -0.7493  0.1682  0.5312
 9252SOL     OW39391   1.240   3.466   2.916  0.0565 -0.2447 -0.3829
 9252SOL    HW139392   1.165   3.510   2.874  0.0091 -0.3314 -0.3889
 9252SOL    HW239393   1.206   3.377   2.925 -1.0367  0.1265 -0.8047
 9253SOL     OW39394   3.803   3.198  16.111 -0.2420 -0.6072 -0.7623
 9253SOL    HW139395   3.865   3.268  16.091 -1.0540  0.1897 -0.4828
 9253SOL    HW239396   3.865   3.144  16.160 -0.9833 -1.3835 -0.6878
 9254SOL     OW39397   0.442   3.382   5.153 -0.1080  0.2464  0.1550
 9254SOL    HW139398   0.393   3.384   5.235 -1.2220  1.1397 -0.5303
 9254SOL    HW239399   0.387   3.334   5.091 -1.6368 -0.0581  1.7543
 9255SOL     OW39400   3.345   2.280   6.863 -0.0465 -0.1001 -0.0802
 9255SOL    HW139401   3.418   2.220   6.846 -0.6054 -1.0745  0.9566
 9255SOL    HW239402   3.384   2.367   6.851 -0.7029 -0.0999 -2.2798
 9256SOL     OW39403   1.953   0.750   8.633 -0.1082 -0.5053  0.2819
 9256SOL    HW139404   1.931   0.833   8.592  0.3052 -1.0417 -1.0214
 9256SOL    HW239405   1.935   0.696   8.556 -0.6454 -0.3075  0.2675
 9257SOL     OW39406   2.497   4.207   7.696 -0.3074  0.4211 -0.0914
 9257SOL    HW139407   2.471   4.247   7.779 -2.1067  0.2996 -0.5828
 9257SOL    HW239408   2.549   4.133   7.728  0.4670  0.9805 -0.0643
 9258SOL     OW39409   4.703   0.516   7.691  0.7127 -0.2497  0.2920
 9258SOL    HW139410   4.658   0.592   7.653  0.3244 -0.5097  0.2369
 9258SOL    HW239411   4.655   0.508   7.773  0.6542 -0.2883  0.2543
 9259SOL     OW39412   0.445   1.486   0.652 -0.2564  0.4622  0.3447
 9259SOL    HW139413   0.383   1.415   0.665 -0.1195  0.1983 -0.4715
 9259SOL    HW239414   0.425   1.506   0.561 -0.1255  0.2175  0.2612
 9260SOL     OW39415   0.607   1.167   7.286  0.8177  0.6658  0.5367
 9260SOL    HW139416   0.594   1.102   7.354  0.9104  1.4413  1.2992
 9260SOL    HW239417   0.535   1.225   7.311  0.2001  0.6490 -1.1578
 9261SOL     OW39418   4.099   1.320   7.191 -0.3578  0.2986 -0.6212
 9261SOL    HW139419   4.107   1.279   7.277 -0.9463  1.0404 -0.2094
 9261SOL    HW239420   4.106   1.414   7.205 -3.2649  0.2355  1.2348
 9262SOL     OW39421   0.730   4.545  16.643  0.0295  0.4300  0.6436
 9262SOL    HW139422   0.784   4.481  16.596  0.2796  0.6956  0.5729
 9262SOL    HW239423   0.647   4.498  16.652 -1.3648  2.7693 -0.1066
 9263SOL     OW39424   2.788   0.119   7.526 -0.5175 -0.3008 -0.3474
 9263SOL    HW139425   2.732   0.076   7.462 -1.0545  2.5098 -1.7930
 9263SOL    HW239426   2.726   0.191   7.541  0.9356  1.2692 -1.7526
 9264SOL     OW39427   0.844   0.116   5.171 -0.2808  0.4990  0.3776
 9264SOL    HW139428   0.794   0.176   5.115 -0.7721  0.1400  0.4285
 9264SOL    HW239429   0.828   0.145   5.261 -0.6210  2.0482 -0.1852
 9265SOL     OW39430   2.728   4.134  11.902  0.1167  0.0086  0.2808
 9265SOL    HW139431   2.778   4.052  11.901  0.6364  0.3259  0.4755
 9265SOL    HW239432   2.788   4.191  11.854  2.9292 -0.2789  3.4828
 9266SOL     OW39433   3.677   1.877   5.060 -0.3325 -0.2312 -0.3693
 9266SOL    HW139434   3.608   1.937   5.087 -1.1674 -1.4432  0.2141
 9266SOL    HW239435   3.666   1.892   4.966  0.7709  1.4752 -0.2301
 9267SOL     OW39436   1.869   4.347   9.189  0.1825  0.3197  0.5763
 9267SOL    HW139437   1.868   4.387   9.102 -1.2343 -2.3073 -0.5803
 9267SOL    HW239438   1.912   4.263   9.174 -1.4051 -0.2748 -0.5564
 9268SOL     OW39439   1.017   2.988  14.390 -0.3763 -0.3926 -0.2870
 9268SOL    HW139440   1.000   3.068  14.440  0.1438 -1.0431  0.9375
 9268SOL    HW239441   1.055   2.933  14.459  0.6216 -2.2326 -2.3131
 9269SOL     OW39442   1.967   1.896   3.866  0.4079 -0.5866 -0.1132
 9269SOL    HW139443   2.036   1.962   3.878 -1.7249  1.8590 -1.0879
 9269SOL    HW239444   2.017   1.817   3.846  1.5478  0.1947 -0.3737
 9270SOL     OW39445   4.625   3.206   3.656 -0.6559 -0.2334 -0.0144
 9270SOL    HW139446   4.611   3.130   3.714 -1.0349 -0.9552 -1.0554
 9270SOL    HW239447   4.704   3.179   3.609  0.2651  0.0085  1.3784
 9271SOL     OW39448   0.295   2.794  17.298 -0.4051  0.9541  0.1140
 9271SOL    HW139449   0.254   2.771  17.381  1.9054 -0.7467  0.7805
 9271SOL    HW239450   0.350   2.859  17.341  0.3412  0.6741 -0.4135
 9272SOL     OW39451   4.546   4.267   6.115 -0.2187 -0.2102  0.3964
 9272SOL    HW139452   4.514   4.197   6.058 -0.1288  0.0876 -0.0175
 9272SOL    HW239453   4.579   4.220   6.192  1.1769 -0.0681 -0.1150
 9273SOL     OW39454   0.591   1.757   5.704 -0.3194 -0.3732  0.0293
 9273SOL    HW139455   0.626   1.771   5.616 -0.9373 -0.7424 -0.2762
 9273SOL    HW239456   0.667   1.709   5.737 -0.5544 -1.4967 -1.0410
 9274SOL     OW39457   4.275   1.501  13.110  0.2153 -0.6352  0.0133
 9274SOL    HW139458   4.192   1.452  13.115 -0.3393  0.2812 -0.2655
 9274SOL    HW239459   4.287   1.520  13.203  0.5283  0.5848 -0.2795
 9275SOL     OW39460   2.273   2.002   2.490  0.0948  0.1342 -0.3744
 9275SOL    HW139461   2.321   2.008   2.573 -0.4384  0.8666 -0.1208
 9275SOL    HW239462   2.311   2.074   2.440 -1.9372  1.5578  0.1171
 9276SOL     OW39463   2.108   0.865   6.859  0.1442 -0.1555 -0.0212
 9276SOL    HW139464   2.110   0.921   6.781 -0.2816 -0.3009 -0.1405
 9276SOL    HW239465   2.183   0.894   6.910  0.0437 -0.9808  0.6008
 9277SOL     OW39466   3.590   1.506   8.773  0.5672  0.1705  0.2047
 9277SOL    HW139467   3.531   1.440   8.809 -0.1934  1.6662  1.7601
 9277SOL    HW239468   3.560   1.574   8.834  0.6763  0.9002 -0.5643
 9278SOL     OW39469   4.550   0.116  11.254  0.3186  0.3373  0.2497
 9278SOL    HW139470   4.581   0.143  11.168  2.5246 -0.2858  0.8610
 9278SOL    HW239471   4.596   0.177  11.311  0.6867  0.8632 -0.6188
 9279SOL     OW39472   2.707   4.585  11.237  0.1161 -0.9295 -0.6775
 9279SOL    HW139473   2.632   4.532  11.264  1.0526 -1.0914  1.6375
 9279SOL    HW239474   2.667   4.615  11.156 -0.2798 -0.1527 -0.1936
 9280SOL     OW39475   4.720   4.656   6.220  0.3053  0.0373 -0.1629
 9280SOL    HW139476   4.709   4.610   6.303 -1.0623  0.6227 -0.0247
 9280SOL    HW239477   0.073   4.638   6.192  1.2264  0.9858  2.2530
 9281SOL     OW39478   3.635   4.278   6.319 -0.0177 -0.0834  0.3186
 9281SOL    HW139479   3.632   4.361   6.272  2.0247  0.6312  1.4611
 9281SOL    HW239480   3.691   4.223   6.264 -0.9216 -0.4022 -0.2831
 9282SOL     OW39481   2.272   1.602   6.030 -0.1246 -1.0412 -0.1772
 9282SOL    HW139482   2.323   1.522   6.020  0.0922 -1.0314  0.8343
 9282SOL    HW239483   2.334   1.656   6.078 -2.5186  1.8288 -0.3437
 9283SOL     OW39484   3.963   3.385   1.603  0.5529 -0.2495 -0.1833
 9283SOL    HW139485   4.018   3.354   1.531  0.9904  1.5046 -0.6057
 9283SOL    HW239486   3.874   3.384   1.569  0.9225 -0.2720 -1.1614
 9284SOL     OW39487   0.873   1.313  11.417  0.1160  0.0416  0.7575
 9284SOL    HW139488   0.896   1.243  11.478 -0.0124  0.2149  1.0058
 9284SOL    HW239489   0.889   1.271  11.333  1.2005  1.4951  0.2366
 9285SOL     OW39490   2.342   1.690   7.530  0.0002 -0.4921 -0.9430
 9285SOL    HW139491   2.296   1.770   7.555 -0.9605 -1.4854  0.4711
 9285SOL    HW239492   2.421   1.734   7.500 -0.7598  1.4470 -0.0861
 9286SOL     OW39493   4.129   3.576   2.122 -0.3006  0.0197  0.0929
 9286SOL    HW139494   4.204   3.547   2.175 -0.9834  0.6388  1.3903
 9286SOL    HW239495   4.083   3.492   2.115 -1.4326  0.4650  2.0730
 9287SOL     OW39496   4.251   2.451   6.284  0.5456 -0.6169 -0.5868
 9287SOL    HW139497   4.211   2.473   6.201  0.0089  0.4559 -0.0399
 9287SOL    HW239498   4.231   2.525   6.342  0.6914  0.0312 -1.3767
 9288SOL     OW39499   1.831   2.478   2.700 -0.0262 -0.2494 -0.6251
 9288SOL    HW139500   1.829   2.507   2.791 -0.7407 -2.7274  0.1534
 9288SOL    HW239501   1.799   2.558   2.658  0.2898  1.9139  3.3070
 9289SOL     OW39502   2.660   1.533  10.226  0.1536 -0.4470 -0.5424
 9289SOL    HW139503   2.653   1.625  10.250 -1.8930 -0.3888 -1.3693
 9289SOL    HW239504   2.665   1.533  10.131  0.7010 -1.0290 -0.5183
 9290SOL     OW39505   1.332   0.111  13.159  0.3600  0.4111 -0.2452
 9290SOL    HW139506   1.393   0.149  13.222  1.3302 -3.5209  1.1920
 9290SOL    HW239507   1.363   0.020  13.162 -0.1737  0.2137 -0.7684
 9291SOL     OW39508   1.675   4.275   4.753 -0.2829 -0.1158  0.7686
 9291SOL    HW139509   1.653   4.209   4.819 -0.3803  1.6585  2.5132
 9291SOL    HW239510   1.619   4.348   4.777 -1.1032  0.6151 -3.3702
 9292SOL     OW39511   0.455   1.072  15.785  0.2166 -0.6129 -0.3708
 9292SOL    HW139512   0.387   1.137  15.802  1.7446  0.8188  0.2784
 9292SOL    HW239513   0.406   1.019  15.722  2.0918 -3.9956  1.0000
 9293SOL     OW39514   0.704   2.869   4.189  0.1490  0.0531  0.2165
 9293SOL    HW139515   0.669   2.943   4.138 -0.8979 -0.3643  0.3421
 9293SOL    HW239516   0.692   2.796   4.129  0.6298 -1.8855  2.5046
 9294SOL     OW39517   2.364   4.343   8.898 -0.3278 -0.0680 -0.4383
 9294SOL    HW139518   2.417   4.271   8.863  0.7959 -0.3116  1.7880
 9294SOL    HW239519   2.432   4.409   8.890  1.4419 -1.5054  2.6714
 9295SOL     OW39520   0.200   0.671   4.292  0.4219 -0.2770 -0.0257
 9295SOL    HW139521   0.155   0.632   4.217 -0.1884  3.0534 -1.3624
 9295SOL    HW239522   0.133   0.671   4.360 -0.3589  0.2445 -0.7949
 9296SOL     OW39523   0.120   1.587  16.905  0.0653  0.1983  0.2923
 9296SOL    HW139524   0.103   1.511  16.849  0.6956  0.1356  0.1859
 9296SOL    HW239525   0.146   1.656  16.845  1.3275 -0.5959 -0.0634
 9297SOL     OW39526   2.882   2.110   1.268  0.2795 -0.7117  0.0971
 9297SOL    HW139527   2.956   2.130   1.325  1.0266  0.8173 -1.4129
 9297SOL    HW239528   2.933   2.077   1.194 -1.7629 -1.6701 -0.8762
 9298SOL     OW39529   2.339   1.567   0.066  0.2207 -0.3099 -0.3396
 9298SOL    HW139530   2.339   1.650   0.114  0.8039  0.3089 -1.4118
 9298SOL    HW239531   2.352   1.510   0.142  0.8838 -0.3550 -0.4871
 9299SOL     OW39532   0.800   1.413   2.798 -0.1820  0.6989 -0.1759
 9299SOL    HW139533   0.709   1.386   2.815  0.1573 -0.6299 -0.4572
 9299SOL    HW239534   0.832   1.324   2.782  1.7360  1.2771  0.6040
 9300SOL     OW39535   1.530   2.653   9.033 -0.6215  0.1353 -0.4474
 9300SOL    HW139536   1.506   2.560   9.036 -0.3284  0.0564 -0.5552
 9300SOL    HW239537   1.447   2.688   9.066 -0.7294 -1.0587  0.5653
 9301SOL     OW39538   4.606   1.161   2.198 -0.2878 -0.2038 -0.3209
 9301SOL    HW139539   4.546   1.120   2.135  0.4493 -0.1618 -1.0463
 9301SOL    HW239540   4.562   1.244   2.215  3.1542  1.9001 -1.7062
 9302SOL     OW39541   2.716   4.146   2.266  0.0818 -0.0872 -0.2434
 9302SOL    HW139542   2.622   4.138   2.278  0.2750 -1.1895  0.5004
 9302SOL    HW239543   2.729   4.240   2.252 -0.4685  0.2054  1.1793
 9303SOL     OW39544   2.204   0.928  13.231  0.0437 -0.2559 -0.3264
 9303SOL    HW139545   2.167   0.843  13.207 -1.4246 -0.7128  3.4602
 9303SOL    HW239546   2.137   0.980  13.188  0.9721  0.3505 -1.0140
 9304SOL     OW39547   4.715   2.680   5.716  0.3148  0.4006 -0.4239
 9304SOL    HW139548   4.666   2.623   5.776  0.1674 -1.2809 -2.1581
 9304SOL    HW239549   4.707   2.767   5.756 -0.0231 -0.5498  1.5614
 9305SOL     OW39550   0.339   0.983  11.874 -0.1713  0.1526 -0.7004
 9305SOL    HW139551   0.250   0.974  11.840  0.0604 -0.9965 -0.9990
 9305SOL    HW239552   0.362   0.892  11.857  1.7268  0.3347  0.8961
 9306SOL     OW39553   3.195   3.700  13.645 -0.2964  0.2532  0.4648
 9306SOL    HW139554   3.179   3.639  13.573  0.5723 -0.6890  1.0677
 9306SOL    HW239555   3.110   3.714  13.686 -0.9628  0.4036 -0.9596
 9307SOL     OW39556   3.654   2.524   0.736 -0.0809  0.3330 -0.0141
 9307SOL    HW139557   3.571   2.553   0.697 -0.1266 -1.7824 -1.4631
 9307SOL    HW239558   3.684   2.608   0.771 -0.6408  0.4567  0.1876
 9308SOL     OW39559   4.111   4.331   7.847 -0.1401 -0.1028 -0.5408
 9308SOL    HW139560   4.096   4.397   7.915  1.5627  0.5158 -0.7772
 9308SOL    HW239561   4.113   4.396   7.777  1.4920 -0.4367 -0.7852
 9309SOL     OW39562   3.148   0.913   3.432 -0.2733  0.9491 -0.3476
 9309SOL    HW139563   3.073   0.884   3.483  0.1871 -1.9287 -1.2848
 9309SOL    HW239564   3.165   0.832   3.382 -1.3585 -0.4258  1.5259
 9310SOL     OW39565   0.630   3.180   4.950  0.5536  0.0070  0.1933
 9310SOL    HW139566   0.627   3.188   4.854  0.2331 -2.8605 -0.0225
 9310SOL    HW239567   0.539   3.208   4.959  0.1316 -0.7099 -1.7022
 9311SOL     OW39568   2.379   2.030   3.097 -0.2025  0.4533 -0.1831
 9311SOL    HW139569   2.468   1.997   3.100 -0.4028  0.1881  3.0058
 9311SOL    HW239570   2.381   2.099   3.163  1.2475  1.2007 -1.0238
 9312SOL     OW39571   4.432   2.645   4.209 -0.2508 -0.7881 -1.2135
 9312SOL    HW139572   4.495   2.606   4.148  0.2780 -0.3844 -0.9286
 9312SOL    HW239573   4.386   2.570   4.247 -0.4514 -0.0398 -0.0051
 9313SOL     OW39574   3.334   3.158   5.632 -0.0466  0.2422  0.2559
 9313SOL    HW139575   3.423   3.169   5.599  0.0645 -0.3892  0.3527
 9313SOL    HW239576   3.274   3.162   5.558  1.5144 -2.7645 -1.1929
 9314SOL     OW39577   2.649   1.950   1.206 -0.1625  0.3261  0.2657
 9314SOL    HW139578   2.669   1.872   1.257 -0.9168 -1.0069 -1.4642
 9314SOL    HW239579   2.718   2.009   1.235 -0.0780 -0.6070  1.9399
 9315SOL     OW39580   0.546   3.285   2.434  0.1545 -0.4186  0.1863
 9315SOL    HW139581   0.510   3.358   2.384  1.0186 -1.0110 -1.2807
 9315SOL    HW239582   0.555   3.215   2.370  2.6649  0.2581 -0.2260
 9316SOL     OW39583   4.548   2.180   0.219  0.3586 -0.6952  0.0255
 9316SOL    HW139584   4.492   2.199   0.294  0.4092  0.7557 -0.3104
 9316SOL    HW239585   4.549   2.085   0.227 -1.1022 -0.4871  2.5889
 9317SOL     OW39586   1.878   4.403   8.037  0.2755 -0.3009 -0.7749
 9317SOL    HW139587   1.964   4.383   8.073  0.7097  0.7976 -1.1784
 9317SOL    HW239588   1.893   4.496   8.017 -0.6076  0.0514  0.1735
 9318SOL     OW39589   2.632   1.638   7.401  0.4086  0.7346  0.3025
 9318SOL    HW139590   2.703   1.653   7.340 -1.1564 -2.1820 -2.2233
 9318SOL    HW239591   2.559   1.676   7.351 -1.2846  0.1960  2.3596
 9319SOL     OW39592   2.546   3.364   4.792  0.3559 -0.7626  0.4078
 9319SOL    HW139593   2.454   3.347   4.810  0.3165 -2.8466 -1.9305
 9319SOL    HW239594   2.556   3.458   4.805  1.3272 -0.6086 -1.5486
 9320SOL     OW39595   3.052   0.420   4.699  0.0318  0.3738 -0.3796
 9320SOL    HW139596   2.998   0.466   4.634  0.9843  1.3182 -0.5132
 9320SOL    HW239597   3.034   0.327   4.689 -0.5959  0.4417  0.1920
 9321SOL     OW39598   2.958   1.053  16.598  0.0660  0.3952 -0.3866
 9321SOL    HW139599   3.046   1.018  16.587  0.5556  0.4749  3.3215
 9321SOL    HW239600   2.952   1.103  16.516  0.8461 -1.5065 -1.6185
 9322SOL     OW39601   2.097   3.898   5.593  0.8362 -0.1373 -0.5484
 9322SOL    HW139602   2.137   3.926   5.675  2.4425  0.7622 -1.6576
 9322SOL    HW239603   2.154   3.943   5.532  0.8007 -0.3779 -0.7608
 9323SOL     OW39604   4.732   3.014   7.959  0.1243  0.7194  0.0763
 9323SOL    HW139605   0.012   3.106   7.938  3.9511 -0.2612 -1.0253
 9323SOL    HW239606   4.656   2.990   7.905  0.3804 -0.6130  0.3131
 9324SOL     OW39607   4.576   3.993   3.579  0.0537  0.3976 -0.1168
 9324SOL    HW139608   4.636   3.934   3.534  1.2750 -1.3173  3.7735
 9324SOL    HW239609   4.527   3.927   3.628  1.3671 -0.6227 -0.1676
 9325SOL     OW39610   4.526   2.721  12.401 -0.5316 -0.1061  0.3475
 9325SOL    HW139611   4.537   2.662  12.475 -1.6806 -0.7133  0.0324
 9325SOL    HW239612   4.434   2.709  12.380 -0.5830  2.2749 -0.7625
 9326SOL     OW39613   0.931   1.216  11.878  0.3414 -0.1648  0.1036
 9326SOL    HW139614   0.887   1.243  11.959 -1.3506 -0.4184 -0.7492
 9326SOL    HW239615   0.860   1.232  11.816  2.2854 -0.0482 -2.0961
 9327SOL     OW39616   3.681   3.298   4.429 -0.8383 -0.1755  0.2621
 9327SOL    HW139617   3.624   3.351   4.374 -2.0652 -1.7350  0.0445
 9327SOL    HW239618   3.722   3.358   4.491 -1.4267 -1.2033  1.6477
 9328SOL     OW39619   0.178   1.722   3.884 -0.1465 -0.1339 -0.4411
 9328SOL    HW139620   0.231   1.643   3.882  0.5418  0.3795 -3.2178
 9328SOL    HW239621   0.142   1.725   3.972 -2.8440  3.1570 -1.6692
 9329SOL     OW39622   1.704   0.694  12.158  0.3248 -0.3311 -0.1570
 9329SOL    HW139623   1.715   0.693  12.253 -0.3154  0.9283 -0.0697
 9329SOL    HW239624   1.785   0.739  12.134  0.5269 -1.0314 -0.7856
 9330SOL     OW39625   3.217   0.326   5.043  0.1451  0.1679 -0.6386
 9330SOL    HW139626   3.170   0.243   5.034  0.1041  0.4230 -2.6853
 9330SOL    HW239627   3.147   0.377   5.002 -1.5264  0.1114  2.1383
 9331SOL     OW39628   3.030   3.956   4.408  0.0824 -0.1125 -0.2386
 9331SOL    HW139629   3.009   3.877   4.458 -0.4792 -0.7484 -1.4815
 9331SOL    HW239630   3.099   3.991   4.465 -0.1852  0.4536 -0.2661
 9332SOL     OW39631   1.111   2.006   3.163  0.4846 -0.6267  0.3094
 9332SOL    HW139632   1.203   2.023   3.141  0.7772 -0.9552  1.2351
 9332SOL    HW239633   1.065   2.061   3.101  1.5405  0.3227  0.3625
 9333SOL     OW39634   3.639   2.599  15.827 -0.4241  0.2414  0.1884
 9333SOL    HW139635   3.720   2.630  15.787  0.4665 -3.7509 -1.1259
 9333SOL    HW239636   3.605   2.543  15.757  2.9486 -0.3610 -0.9789
 9334SOL     OW39637   4.348   1.166   4.381  0.7441 -0.2714  0.1319
 9334SOL    HW139638   4.439   1.184   4.406  0.2927  0.4836  1.2418
 9334SOL    HW239639   4.304   1.200   4.459 -1.1951 -0.9776 -0.6541
 9335SOL     OW39640   3.043   2.962   3.327  0.7648 -0.2597 -0.4258
 9335SOL    HW139641   2.976   3.007   3.379  0.0390  1.0022 -2.4283
 9335SOL    HW239642   3.099   2.922   3.394  1.3807  0.5858 -0.4379
 9336SOL     OW39643   1.753   3.311   8.265 -0.5905  0.5136 -0.1275
 9336SOL    HW139644   1.801   3.255   8.325  2.3267  1.2078 -1.7926
 9336SOL    HW239645   1.682   3.337   8.323 -1.0164  1.8024 -1.2055
 9337SOL     OW39646   3.579   1.899  17.231  0.1210 -0.3911  0.2226
 9337SOL    HW139647   3.624   1.867  17.153  1.0207 -2.3758  1.5602
 9337SOL    HW239648   3.581   1.992  17.206 -2.2888 -0.4269 -0.1046
 9338SOL     OW39649   0.257   1.204   4.192 -0.0995 -0.1125  0.1778
 9338SOL    HW139650   0.257   1.192   4.287  1.6269  0.8743  0.3059
 9338SOL    HW239651   0.171   1.163   4.184 -1.8985  4.0856 -1.9282
 9339SOL     OW39652   3.771   3.656   5.933 -0.3290 -0.3039  0.0053
 9339SOL    HW139653   3.821   3.650   5.852 -0.0889 -0.7205  0.1843
 9339SOL    HW239654   3.690   3.608   5.917  0.1396 -0.0529 -2.9767
 9340SOL     OW39655   2.740   2.719   4.857  0.4760  0.1883  0.3138
 9340SOL    HW139656   2.788   2.783   4.805 -1.0361  0.1023 -1.1776
 9340SOL    HW239657   2.810   2.654   4.862  0.7968  0.5119  0.0257
 9341SOL     OW39658   0.780   3.251  12.557  0.6201  0.4821 -0.2789
 9341SOL    HW139659   0.763   3.334  12.513 -0.2930 -0.8995 -2.5704
 9341SOL    HW239660   0.703   3.248  12.613 -0.4450  1.6231 -1.6798
 9342SOL     OW39661   0.688   3.696   6.161 -0.6029  0.3074 -0.2929
 9342SOL    HW139662   0.722   3.780   6.190  0.3615 -0.2495  0.1944
 9342SOL    HW239663   0.599   3.727   6.144 -0.1255  1.6105 -0.3584
 9343SOL     OW39664   2.786   4.622   7.724  0.7253 -0.3024 -0.0351
 9343SOL    HW139665   2.846   4.617   7.650  0.5418  1.2043 -0.2996
 9343SOL    HW239666   2.762   4.715   7.724  2.7674  0.2229  0.3621
 9344SOL     OW39667   2.190   1.823   5.320 -0.7674 -0.5046 -0.6494
 9344SOL    HW139668   2.276   1.850   5.350 -0.9541  1.6099 -1.9746
 9344SOL    HW239669   2.132   1.895   5.348 -1.0290 -0.7110 -0.6649
 9345SOL     OW39670   2.278   0.683   8.011 -0.2210 -0.2468  0.8066
 9345SOL    HW139671   2.330   0.675   7.931 -1.4402  1.1556 -0.1246
 9345SOL    HW239672   2.201   0.632   7.984 -0.3999  0.0340  0.7790
 9346SOL     OW39673   3.295   1.771   6.754 -0.6431  0.1507  0.0281
 9346SOL    HW139674   3.353   1.708   6.796 -1.5979 -0.4587  0.4021
 9346SOL    HW239675   3.240   1.809   6.822  1.4585  5.1857 -0.9955
 9347SOL     OW39676   2.303   2.291   4.244  0.0527  0.3267  0.0373
 9347SOL    HW139677   2.323   2.359   4.309 -2.9034  1.9484 -0.7599
 9347SOL    HW239678   2.299   2.216   4.303  3.0720 -1.5014 -2.0509
 9348SOL     OW39679   3.924   0.927   3.043 -0.1459  0.2546 -0.1326
 9348SOL    HW139680   3.834   0.901   3.021 -0.7676  2.0321  0.2824
 9348SOL    HW239681   3.956   0.911   2.954  2.9614  1.0429  0.8723
 9349SOL     OW39682   3.394   2.993   6.261  0.5181 -0.4523 -0.2763
 9349SOL    HW139683   3.464   2.948   6.308 -0.9545  0.2359  2.5836
 9349SOL    HW239684   3.339   3.025   6.332  0.6481  2.4028 -1.4513
 9350SOL     OW39685   0.154   3.802   2.564  0.0266  0.2630 -0.5648
 9350SOL    HW139686   0.237   3.802   2.517  0.1441  0.0838 -0.3557
 9350SOL    HW239687   0.171   3.870   2.630  0.1811 -2.0581  1.7903
 9351SOL     OW39688   4.519   4.131  16.463  0.0651  0.1848  0.3047
 9351SOL    HW139689   4.549   4.117  16.552 -0.7874  3.1429  1.0545
 9351SOL    HW239690   4.444   4.072  16.474  1.4964 -1.9037 -1.0173
 9352SOL     OW39691   4.570   0.059   9.051 -0.6604  0.1299  0.1111
 9352SOL    HW139692   4.645   0.037   9.106 -0.7416  0.8534  0.5073
 9352SOL    HW239693   4.497   0.007   9.084 -0.5520  0.8053  1.4182
 9353SOL     OW39694   3.420   2.820  13.822 -0.5630  0.1329  0.0035
 9353SOL    HW139695   3.329   2.807  13.797 -0.6397 -1.4651  1.1435
 9353SOL    HW239696   3.411   2.864  13.906 -0.7929  0.4562 -0.1912
 9354SOL     OW39697   3.380   0.197  13.761 -0.0122 -0.0630 -0.1907
 9354SOL    HW139698   3.303   0.239  13.800  0.2266 -1.7077  2.0234
 9354SOL    HW239699   3.340   0.124  13.714  0.4661 -2.0666  2.5441
 9355SOL     OW39700   3.180   1.323   1.889 -0.2605  0.6384  0.2849
 9355SOL    HW139701   3.246   1.362   1.947 -0.0835  2.8356 -1.3644
 9355SOL    HW239702   3.234   1.277   1.825 -0.5103  0.7489 -0.0025
 9356SOL     OW39703   3.625   2.423   1.190  0.2709 -0.0671  0.4181
 9356SOL    HW139704   3.633   2.515   1.164  0.5146 -0.1419  0.2364
 9356SOL    HW239705   3.705   2.425   1.242 -0.0171 -1.1991  0.9137
 9357SOL     OW39706   2.593   1.757  12.685  0.5875  0.2452 -0.5313
 9357SOL    HW139707   2.586   1.725  12.595 -0.7018  0.0257 -0.3542
 9357SOL    HW239708   2.681   1.794  12.692  0.8057 -0.6537  1.3056
 9358SOL     OW39709   1.158   3.907   6.358 -0.1576 -0.5864  0.3941
 9358SOL    HW139710   1.181   3.936   6.446 -0.8674  2.9633 -0.5769
 9358SOL    HW239711   1.140   3.813   6.357  1.3680 -0.8927  1.8856
 9359SOL     OW39712   1.300   3.377  17.148  0.4955  0.5012 -0.6045
 9359SOL    HW139713   1.376   3.330  17.182  0.8717  0.4893 -1.4551
 9359SOL    HW239714   1.335   3.420  17.070 -1.9202  0.6173 -1.6440
 9360SOL     OW39715   3.209   0.124   3.624  0.7183 -0.1935  0.1957
 9360SOL    HW139716   3.228   0.165   3.709  0.1770  1.5470 -0.5155
 9360SOL    HW239717   3.200   0.032   3.648 -0.4396 -0.4068 -1.0157
 9361SOL     OW39718   3.816   4.465   9.117 -0.2083 -0.1009  0.0821
 9361SOL    HW139719   3.841   4.535   9.176  2.5705 -1.1416  0.1551
 9361SOL    HW239720   3.873   4.395   9.150 -0.0104  0.4470  0.8926
 9362SOL     OW39721   4.613   3.347   0.893 -0.5138  0.3338  0.5516
 9362SOL    HW139722   4.543   3.282   0.881  0.4725 -0.6712  0.2975
 9362SOL    HW239723   4.628   3.335   0.986 -0.4372  0.0128  0.4980
 9363SOL     OW39724   2.744   0.130   5.013  0.0751  0.2766  0.0753
 9363SOL    HW139725   2.725   0.086   4.930 -0.0272  1.2634 -0.4256
 9363SOL    HW239726   2.666   0.098   5.059  0.6054 -0.5263  0.4118
 9364SOL     OW39727   3.288   3.694   7.537 -0.3308 -0.1367 -0.0725
 9364SOL    HW139728   3.320   3.613   7.496 -2.5388 -1.8455  1.6076
 9364SOL    HW239729   3.287   3.754   7.462 -2.8286  0.2417  0.2826
 9365SOL     OW39730   0.548   4.567   9.158  0.6302  0.5590 -0.1201
 9365SOL    HW139731   0.598   4.613   9.226  0.0939 -0.8384  1.2163
 9365SOL    HW239732   0.483   4.635   9.136  0.1999  0.4445  0.7909
 9366SOL     OW39733   3.579   2.564   2.890 -0.5462 -0.6420 -0.3715
 9366SOL    HW139734   3.511   2.560   2.823 -1.7660  0.1767  0.8241
 9366SOL    HW239735   3.636   2.637   2.864 -0.8553  0.2495  1.4921
 9367SOL     OW39736   1.317   1.065  17.131  0.3467 -0.1784  0.0940
 9367SOL    HW139737   1.277   1.141  17.173 -1.3300 -1.5500  0.9842
 9367SOL    HW239738   1.301   1.080  17.038  0.1622  1.4928  0.4039
 9368SOL     OW39739   2.578   4.356   6.767 -0.2537 -0.0036 -0.0365
 9368SOL    HW139740   2.588   4.451   6.767  2.0748 -0.2342 -2.0260
 9368SOL    HW239741   2.567   4.337   6.673  1.5006  0.2814 -0.3018
 9369SOL     OW39742   2.436   0.589  13.437  0.3252 -0.4298  0.0673
 9369SOL    HW139743   2.450   0.503  13.477  1.1004 -0.4795 -0.2982
 9369SOL    HW239744   2.500   0.632  13.493 -0.6737  2.4337 -1.0002
 9370SOL     OW39745   4.070   1.422   9.693  0.0815 -0.6151 -0.0685
 9370SOL    HW139746   4.144   1.480   9.673 -0.5471 -0.2682 -1.4262
 9370SOL    HW239747   4.031   1.410   9.606 -0.3325  0.2930 -0.0017
 9371SOL     OW39748   3.849   4.259   6.597 -1.0606 -0.8487 -0.0362
 9371SOL    HW139749   3.821   4.336   6.646  0.4993 -0.4703  0.2434
 9371SOL    HW239750   3.801   4.261   6.514 -0.1591 -1.8420 -0.5897
 9372SOL     OW39751   1.823   1.941   8.984 -0.5760  0.1327 -0.0485
 9372SOL    HW139752   1.812   1.938   9.079  1.6444 -0.7276  0.1755
 9372SOL    HW239753   1.906   1.894   8.974  0.3601  1.4148  1.7808
 9373SOL     OW39754   1.349   3.538  13.524  0.5805  0.1421 -0.4245
 9373SOL    HW139755   1.398   3.459  13.500  2.0616  0.7828  0.5137
 9373SOL    HW239756   1.426   3.593  13.537 -0.2865  1.4143 -0.6946
 9374SOL     OW39757   4.203   3.428  10.988 -0.2808 -0.3116  0.2268
 9374SOL    HW139758   4.247   3.348  11.016 -0.8309 -0.7032 -0.0445
 9374SOL    HW239759   4.170   3.406  10.901  2.4505 -0.8403 -0.6753
 9375SOL     OW39760   4.168   1.598   2.295 -0.1200 -0.1702  0.0340
 9375SOL    HW139761   4.130   1.589   2.382 -0.2358 -0.8296 -0.0857
 9375SOL    HW239762   4.237   1.662   2.312 -1.7321  1.2465  1.1851
 9376SOL     OW39763   1.868   1.097   8.377  0.1235  0.2805 -0.5238
 9376SOL    HW139764   1.856   1.071   8.469  1.8458 -2.1301 -0.9756
 9376SOL    HW239765   1.963   1.108   8.371  0.1852  0.8736  1.3440
 9377SOL     OW39766   3.864   4.046   5.391 -0.2495  0.3602 -0.0459
 9377SOL    HW139767   3.788   4.004   5.349  0.1662  2.2268 -2.6915
 9377SOL    HW239768   3.869   3.992   5.470 -2.4859 -1.0303 -0.8426
 9378SOL     OW39769   0.861   0.913   7.243  0.1495  0.2773  0.3063
 9378SOL    HW139770   0.934   0.967   7.273 -0.7435  0.2735  2.5083
 9378SOL    HW239771   0.863   0.837   7.301  2.9705  0.9643  1.1420
 9379SOL     OW39772   4.579   0.545   8.361  0.4799 -0.2288  0.1917
 9379SOL    HW139773   4.542   0.560   8.448  0.1501  0.8692 -0.1298
 9379SOL    HW239774   4.535   0.469   8.323  0.4271  0.7774 -1.7966
 9380SOL     OW39775   2.149   3.657   9.245 -0.6128  0.3891 -0.6025
 9380SOL    HW139776   2.067   3.632   9.203 -0.6186 -0.4405 -0.0840
 9380SOL    HW239777   2.198   3.697   9.173 -0.3553  1.7522  0.3141
 9381SOL     OW39778   0.575   0.624  16.948  0.0702  0.2300 -0.4831
 9381SOL    HW139779   0.612   0.705  16.916  1.8649  0.3158  1.8271
 9381SOL    HW239780   0.658   0.590  16.982  0.9456  1.2495 -1.6125
 9382SOL     OW39781   3.766   0.601   3.061 -0.9543 -0.8590 -0.6042
 9382SOL    HW139782   3.688   0.582   3.010  0.0301 -0.9180 -2.0937
 9382SOL    HW239783   3.744   0.684   3.104  1.9891 -0.2518 -0.2382
 9383SOL     OW39784   3.519   3.146   0.795 -0.6229 -0.4538 -0.3098
 9383SOL    HW139785   3.500   3.240   0.804  1.1489 -0.0012 -1.2100
 9383SOL    HW239786   3.540   3.139   0.702 -0.3708  1.1025 -0.3815
 9384SOL     OW39787   0.334   2.620   9.166  0.8611  0.5173  0.3938
 9384SOL    HW139788   0.367   2.696   9.213  0.7521 -0.2480  1.7340
 9384SOL    HW239789   0.269   2.598   9.233 -1.0539 -0.3049 -1.7165
 9385SOL     OW39790   2.865   4.004   5.380 -0.4400 -0.1855 -0.3211
 9385SOL    HW139791   2.868   3.982   5.473  0.8069  1.0980 -0.0694
 9385SOL    HW239792   2.865   4.099   5.382  0.2995 -0.1098 -3.2546
 9386SOL     OW39793   1.743   0.127   7.804  0.2755  0.2511 -0.0762
 9386SOL    HW139794   1.703   0.211   7.781 -1.3050 -1.0288 -2.0137
 9386SOL    HW239795   1.812   0.127   7.737 -0.3106  0.7604 -0.6867
 9387SOL     OW39796   2.996   0.573   3.481  0.1690  0.0103 -0.6070
 9387SOL    HW139797   2.995   0.622   3.564  0.5197  0.4602 -0.8671
 9387SOL    HW239798   3.089   0.548   3.484 -0.1436 -1.0988 -0.3503
 9388SOL     OW39799   4.201   0.803  10.954  0.7789  0.0168  0.0214
 9388SOL    HW139800   4.240   0.718  10.931  0.3577 -0.3213  0.5425
 9388SOL    HW239801   4.121   0.797  10.901 -0.9641  1.1543  2.5316
 9389SOL     OW39802   0.421   3.342  13.647  0.3370  0.2816  0.1315
 9389SOL    HW139803   0.457   3.370  13.731 -0.5088  1.2285  0.1859
 9389SOL    HW239804   0.448   3.251  13.656 -3.0123 -0.8460 -1.3729
 9390SOL     OW39805   2.330   0.861   6.170  0.3732 -0.1225 -0.3638
 9390SOL    HW139806   2.403   0.801   6.176 -0.1868 -0.6184  1.5341
 9390SOL    HW239807   2.379   0.927   6.219 -0.1868  1.0978 -1.4473
 9391SOL     OW39808   0.905   1.782   5.594 -0.0251  0.2727 -0.6593
 9391SOL    HW139809   0.883   1.712   5.656  1.2837 -0.4638 -1.0384
 9391SOL    HW239810   0.924   1.853   5.655 -1.6152  0.0988  0.0510
 9392SOL     OW39811   2.105   4.331  10.759 -0.2700  0.2079  0.0297
 9392SOL    HW139812   2.099   4.427  10.750  1.2155  0.1277 -1.9869
 9392SOL    HW239813   2.041   4.308  10.692  1.0454 -2.6307 -0.2200
 9393SOL     OW39814   0.097   1.038   9.075 -0.4120  0.1362  0.0752
 9393SOL    HW139815   0.143   1.122   9.075  1.0262 -0.6402 -2.9536
 9393SOL    HW239816   0.068   1.038   8.983 -1.6049 -0.2276  0.4596
 9394SOL     OW39817   3.635   3.806  13.284  0.2548  0.2065  0.4498
 9394SOL    HW139818   3.543   3.828  13.275  0.9963  1.3672 -4.2401
 9394SOL    HW239819   3.655   3.853  13.365  1.6908  1.1292 -0.4323
 9395SOL     OW39820   0.830   4.527   7.024 -0.3797  0.5524  0.1794
 9395SOL    HW139821   0.835   4.486   6.938  2.0684  0.2714  0.4608
 9395SOL    HW239822   0.751   4.581   7.025 -0.8731 -0.1829  0.1306
 9396SOL     OW39823   2.561   1.912   3.554 -0.9468  0.3952 -0.3219
 9396SOL    HW139824   2.627   1.884   3.490 -1.0459 -2.7666  0.9634
 9396SOL    HW239825   2.591   1.996   3.587  2.2433  0.4508 -3.2912
 9397SOL     OW39826   0.300   1.648  13.921 -0.3615  0.1296 -0.3638
 9397SOL    HW139827   0.365   1.668  13.854 -0.0426  0.4885  0.0460
 9397SOL    HW239828   0.354   1.648  14.000  2.1299  0.7633 -2.0751
 9398SOL     OW39829   0.370   1.959   8.557 -0.2615 -0.2890  0.3033
 9398SOL    HW139830   0.404   1.883   8.604 -1.9247 -1.3130 -0.1517
 9398SOL    HW239831   0.276   1.941   8.553 -0.0177 -1.5987  0.4573
 9399SOL     OW39832   4.151   0.847   9.351 -0.7359  0.1988  0.0276
 9399SOL    HW139833   4.116   0.763   9.323  3.5542 -0.5024 -3.1506
 9399SOL    HW239834   4.245   0.839   9.338 -1.0703  1.5554 -3.3169
 9400SOL     OW39835   2.286   1.804   0.221  0.2549  0.4923 -0.0886
 9400SOL    HW139836   2.323   1.828   0.306  0.5688  1.2396 -0.4362
 9400SOL    HW239837   2.257   1.892   0.198 -0.0923  0.4369  0.1344
 9401SOL     OW39838   1.006   0.960   0.177  0.2171  0.4475  0.2860
 9401SOL    HW139839   1.056   0.965   0.095  0.3576  0.1742  0.3531
 9401SOL    HW239840   0.953   0.883   0.156 -0.1509  0.6530  0.4827
 9402SOL     OW39841   4.148   3.587   7.568 -0.0460 -0.2483  0.2276
 9402SOL    HW139842   4.101   3.669   7.558  1.7360  0.9021  1.2841
 9402SOL    HW239843   4.100   3.554   7.644 -0.9374  1.9117  0.6088
 9403SOL     OW39844   1.184   2.956   9.129 -0.7102  0.3323 -0.3550
 9403SOL    HW139845   1.100   2.975   9.172 -0.1984  1.6867  0.0465
 9403SOL    HW239846   1.237   2.920   9.200  2.3481  2.2915 -1.6338
 9404SOL     OW39847   3.038   2.733   9.666  0.1042  0.2234  0.3813
 9404SOL    HW139848   3.121   2.715   9.622  0.8421  2.8701  0.6701
 9404SOL    HW239849   2.989   2.658   9.633  0.8365  0.6669 -1.7164
 9405SOL     OW39850   3.085   4.597   9.649 -0.5009 -0.2655  0.6223
 9405SOL    HW139851   3.156   4.644   9.692 -0.5221 -0.5498  0.9741
 9405SOL    HW239852   3.060   4.529   9.711 -1.1420  1.0078  1.7730
 9406SOL     OW39853   2.514   0.035   4.292  0.2123 -0.5072 -0.2805
 9406SOL    HW139854   2.570   4.702   4.260  0.9185  1.0441 -2.4628
 9406SOL    HW239855   2.435   0.022   4.240 -1.4287  1.1535  1.8004
 9407SOL     OW39856   3.945   1.200   8.744  0.1224  0.3841 -0.1526
 9407SOL    HW139857   3.870   1.158   8.703  0.1418  1.3282 -1.1272
 9407SOL    HW239858   3.972   1.130   8.805  0.6610  1.0806  0.4092
 9408SOL     OW39859   0.096   4.605   1.943 -0.2596 -0.3142 -0.0631
 9408SOL    HW139860   0.052   4.520   1.941  0.9836 -0.9311 -1.7958
 9408SOL    HW239861   0.156   4.603   1.868  1.0798  2.8315  0.9219
 9409SOL     OW39862   1.542   2.130   4.709 -0.0166  0.4058  0.0364
 9409SOL    HW139863   1.554   2.140   4.615 -0.5902 -0.3114 -0.1206
 9409SOL    HW239864   1.458   2.171   4.729 -0.5385 -0.0380 -1.2386
 9410SOL     OW39865   0.022   2.039   3.524 -0.7137 -0.1982  0.2892
 9410SOL    HW139866   0.016   1.950   3.558 -1.8450  0.5848  2.1402
 9410SOL    HW239867   0.041   2.028   3.431  1.7145 -1.0180  0.8952
 9411SOL     OW39868   0.584   0.714   5.218 -0.1764  0.1546  0.2540
 9411SOL    HW139869   0.653   0.674   5.166 -0.4220 -0.3106  0.2807
 9411SOL    HW239870   0.603   0.805   5.197 -2.4406  0.3037 -1.1954
 9412SOL     OW39871   1.021   0.850   6.047 -0.0361 -0.5716 -0.1893
 9412SOL    HW139872   0.956   0.887   6.108  1.1519 -1.4084  1.5779
 9412SOL    HW239873   0.963   0.811   5.981 -2.4486  0.2694  1.4061
 9413SOL     OW39874   1.532   4.519   7.516  0.4394 -0.0584 -1.3701
 9413SOL    HW139875   1.446   4.481   7.497  1.1683 -1.7394 -1.3130
 9413SOL    HW239876   1.517   4.567   7.597  2.8225 -0.4490 -0.6849
 9414SOL     OW39877   1.826   2.178   1.834  0.3687 -0.4474 -0.1037
 9414SOL    HW139878   1.896   2.117   1.810  1.4836  0.6331  0.4268
 9414SOL    HW239879   1.762   2.114   1.865 -0.5195  0.4787 -0.0316
 9415SOL     OW39880   4.577   2.125  15.170 -0.2296 -0.5521 -0.3635
 9415SOL    HW139881   4.662   2.161  15.194 -0.3670 -0.0730 -0.5998
 9415SOL    HW239882   4.589   2.031  15.183  0.6820 -0.5790 -1.4927
 9416SOL     OW39883   4.279   4.526   9.670  0.6324  0.3429 -0.7098
 9416SOL    HW139884   4.226   4.606   9.681  0.2093 -0.0901  0.4858
 9416SOL    HW239885   4.330   4.535   9.751  0.4054 -1.9851 -0.3180
 9417SOL     OW39886   1.430   3.046   8.023  0.2193  0.3417 -0.2914
 9417SOL    HW139887   1.499   3.110   8.039  0.2509  0.2674 -0.1241
 9417SOL    HW239888   1.416   3.027   8.116  1.0374  1.9690  0.1582
 9418SOL     OW39889   4.562   3.849   4.968 -0.2769  0.0661 -1.0850
 9418SOL    HW139890   4.519   3.901   5.036 -0.8536 -0.7695 -0.8144
 9418SOL    HW239891   4.513   3.888   4.895  0.2420  1.4034 -0.7175
 9419SOL     OW39892   2.343   3.604   7.165 -0.1163 -0.2112 -0.0536
 9419SOL    HW139893   2.326   3.698   7.179 -0.2356 -0.0628 -1.2101
 9419SOL    HW239894   2.364   3.595   7.072 -1.4655  0.4305 -0.4203
 9420SOL     OW39895   1.052   3.364  14.806 -0.1016 -0.0306 -0.8709
 9420SOL    HW139896   1.117   3.334  14.869 -1.0833  1.3879  0.8236
 9420SOL    HW239897   0.985   3.327  14.865 -0.5075  0.2299 -1.1675
 9421SOL     OW39898   4.457   2.462  17.746  0.1294  0.3612  0.6404
 9421SOL    HW139899   4.416   2.393  17.694 -2.2549  2.2510 -0.0066
 9421SOL    HW239900   4.404   2.538  17.720  0.2230 -0.5781 -2.1883
 9422SOL     OW39901   1.739   1.505   2.844  0.8815  0.6723 -0.1548
 9422SOL    HW139902   1.706   1.453   2.918 -0.4669  1.1897 -0.3999
 9422SOL    HW239903   1.723   1.446   2.771 -2.3746  1.2918  0.0583
 9423SOL     OW39904   4.499   0.488  13.600 -0.3252 -0.1191  0.2037
 9423SOL    HW139905   4.474   0.541  13.676 -1.4866  1.7585 -1.5077
 9423SOL    HW239906   4.417   0.476  13.552  0.1037 -2.5228  0.0532
 9424SOL     OW39907   1.162   0.993   7.015  0.2045 -0.0484 -0.3964
 9424SOL    HW139908   1.191   0.924   6.957  1.1417 -1.5514  1.8612
 9424SOL    HW239909   1.079   1.023   6.977  0.6602  1.7228  0.0247
 9425SOL     OW39910   0.532   2.460  15.584  0.0356 -0.1323 -0.7422
 9425SOL    HW139911   0.470   2.493  15.649 -1.4959 -1.4291 -1.5228
 9425SOL    HW239912   0.521   2.365  15.593 -0.1598 -0.1673 -1.3324
 9426SOL     OW39913   1.766   0.064   7.283 -0.6055  0.7093  0.1645
 9426SOL    HW139914   1.810   4.728   7.325  0.1027  1.9848  1.6607
 9426SOL    HW239915   1.831   0.132   7.297  1.9310 -1.2082 -2.3112
 9427SOL     OW39916   0.871   0.631   5.409 -0.0326  0.2915 -0.1628
 9427SOL    HW139917   0.788   0.674   5.427 -0.0856 -0.4259  1.3486
 9427SOL    HW239918   0.915   0.702   5.362  2.0010 -1.2639 -0.6208
 9428SOL     OW39919   2.758   1.320   2.337 -0.1033 -0.0469 -0.2415
 9428SOL    HW139920   2.815   1.242   2.333  0.2965  0.1470  1.7170
 9428SOL    HW239921   2.679   1.286   2.294  0.1355 -1.0371  0.0853
 9429SOL     OW39922   0.267   1.861  11.706 -0.0136  0.1305  0.2536
 9429SOL    HW139923   0.249   1.847  11.799 -0.9171 -2.4461 -0.3205
 9429SOL    HW239924   0.275   1.957  11.704  3.0509 -0.0854  3.0613
 9430SOL     OW39925   3.260   2.413   5.672 -1.5255 -0.6311 -0.0910
 9430SOL    HW139926   3.224   2.327   5.692  0.1596 -0.7638  2.3099
 9430SOL    HW239927   3.287   2.431   5.762  1.9551  0.8210 -1.4378
 9431SOL     OW39928   2.044   3.091  17.443  0.4842  0.3029  0.2570
 9431SOL    HW139929   2.065   3.000  17.462 -2.5687  0.2253  3.1316
 9431SOL    HW239930   2.019   3.125  17.529  3.5788 -0.7893  1.5971
 9432SOL     OW39931   2.804   2.827   3.789  0.2906  0.1691  0.5453
 9432SOL    HW139932   2.888   2.873   3.780  0.8772 -0.4930  2.5891
 9432SOL    HW239933   2.809   2.796   3.880 -0.6334 -2.5808 -0.3664
 9433SOL     OW39934   0.315   1.869   0.270 -0.3250 -0.1830 -0.1512
 9433SOL    HW139935   0.250   1.937   0.253  2.0595  1.4197 -2.8731
 9433SOL    HW239936   0.321   1.834   0.181 -1.5455 -0.8007  0.0071
 9434SOL     OW39937   3.783   3.271   0.969 -0.1195  0.1786  0.0952
 9434SOL    HW139938   3.824   3.260   0.883 -0.3002  0.0676  0.0227
 9434SOL    HW239939   3.739   3.186   0.982 -1.6538  0.8877 -0.4391
 9435SOL     OW39940   2.774   3.770   7.725  0.2292 -0.1526 -0.4063
 9435SOL    HW139941   2.748   3.685   7.689 -1.5918  0.5018 -0.6736
 9435SOL    HW239942   2.791   3.811   7.640  2.1292 -0.0197  0.0382
 9436SOL     OW39943   4.205   4.733  13.789  0.1422 -0.3581  0.3245
 9436SOL    HW139944   4.199   4.648  13.833  3.2690 -0.9072 -0.2966
 9436SOL    HW239945   4.111   0.012  13.781 -0.3214 -2.6798  0.9490
 9437SOL     OW39946   1.765   2.989   2.068  0.0240  0.5695 -0.9112
 9437SOL    HW139947   1.802   2.926   2.007 -0.6190  0.7708 -1.4997
 9437SOL    HW239948   1.819   3.063   2.038  0.5445  0.4114 -0.3646
 9438SOL     OW39949   3.288   1.727   2.001 -0.4908 -0.7086 -0.4940
 9438SOL    HW139950   3.282   1.777   1.920 -1.8476 -0.2931 -0.1439
 9438SOL    HW239951   3.351   1.783   2.046 -1.7496 -0.2350  0.6791
 9439SOL     OW39952   1.541   1.601   4.468  0.1527 -0.4767  0.0371
 9439SOL    HW139953   1.609   1.562   4.523 -1.7895  1.2178  3.6188
 9439SOL    HW239954   1.538   1.689   4.506  0.2361 -0.4590  0.0020
 9440SOL     OW39955   3.713   4.043  14.708 -0.3905  0.0359  0.0775
 9440SOL    HW139956   3.786   3.983  14.705 -0.3840  0.0350  0.2730
 9440SOL    HW239957   3.762   4.125  14.714 -0.2118 -0.0571 -0.1308
 9441SOL     OW39958   3.256   0.544   1.564  0.4155 -0.2955  0.3923
 9441SOL    HW139959   3.188   0.600   1.600  0.4413  0.1884 -0.3079
 9441SOL    HW239960   3.301   0.593   1.496  1.1642 -1.7066 -0.1348
 9442SOL     OW39961   1.795   3.638   8.441  0.3292  0.3090 -0.1518
 9442SOL    HW139962   1.794   3.728   8.474 -1.1877  0.9074 -1.7812
 9442SOL    HW239963   1.702   3.621   8.454  0.4626 -1.0448 -0.9013
 9443SOL     OW39964   1.596   2.596   2.350 -0.3451 -0.2120  0.0516
 9443SOL    HW139965   1.573   2.656   2.421  1.9763 -0.7327  1.2304
 9443SOL    HW239966   1.668   2.645   2.311  0.6185  0.1032  2.2565
 9444SOL     OW39967   3.869   1.022   7.861  0.1285  0.8295 -0.6317
 9444SOL    HW139968   3.775   1.032   7.875  0.0397 -1.3748  0.3509
 9444SOL    HW239969   3.894   1.114   7.848 -1.1264  1.0942 -1.1820
 9445SOL     OW39970   0.380   1.547   3.773 -0.2841  0.2905  0.4098
 9445SOL    HW139971   0.458   1.543   3.716 -0.1704  1.6972  0.4607
 9445SOL    HW239972   0.335   1.576   3.693 -1.0034 -1.8880  0.0372
 9446SOL     OW39973   1.460   4.129   6.208 -0.8780 -0.0428  0.1087
 9446SOL    HW139974   1.477   4.215   6.170 -1.7499 -1.0743 -2.6288
 9446SOL    HW239975   1.385   4.149   6.264 -0.9112  1.3195 -0.4260
 9447SOL     OW39976   2.849   2.865   5.799 -0.0198  0.1403  0.2997
 9447SOL    HW139977   2.925   2.881   5.854  1.0357 -0.3508 -1.0178
 9447SOL    HW239978   2.816   2.955   5.794  2.9018  1.0085 -3.1697
 9448SOL     OW39979   2.838   3.735   2.065  0.0179 -0.0645  0.2712
 9448SOL    HW139980   2.795   3.818   2.045  1.5626  0.4605 -0.9138
 9448SOL    HW239981   2.788   3.672   2.014  0.0761  1.2112 -1.3333
 9449SOL     OW39982   2.635   3.040   3.745 -0.5330 -0.5820  0.4579
 9449SOL    HW139983   2.697   2.976   3.779 -2.1606 -0.7790  3.0331
 9449SOL    HW239984   2.554   2.989   3.749 -0.6973 -0.2955  0.8029
 9450SOL     OW39985   3.993   4.482  10.549 -0.6749 -0.4455 -0.0770
 9450SOL    HW139986   3.975   4.575  10.538  0.0558 -0.3530 -0.5205
 9450SOL    HW239987   3.921   4.460  10.608  0.2157  0.4989  1.3583
 9451SOL     OW39988   3.709   0.485   2.476  0.7006 -0.1708  0.2872
 9451SOL    HW139989   3.749   0.561   2.519 -0.1275  1.0967 -1.1600
 9451SOL    HW239990   3.766   0.415   2.508  1.7656  0.7549  0.4040
 9452SOL     OW39991   2.420   0.124   6.843 -0.3604  0.0034  0.7867
 9452SOL    HW139992   2.433   0.180   6.920  0.1374 -1.6683  1.9113
 9452SOL    HW239993   2.327   0.144   6.833 -0.2709  0.3630  0.6617
 9453SOL     OW39994   3.611   4.399   5.483 -0.1520  0.0337 -0.6550
 9453SOL    HW139995   3.699   4.387   5.449  0.3061 -3.7223  1.8809
 9453SOL    HW239996   3.624   4.475   5.540 -1.2461  1.5848 -2.4646
 9454SOL     OW39997   2.518   2.789  10.078 -0.0983 -0.6457  0.1412
 9454SOL    HW139998   2.587   2.753  10.022  0.4052  1.0819 -0.3498
 9454SOL    HW239999   2.557   2.769  10.163 -1.1027 -1.4984  0.4036
 9455SOL     OW40000   4.340   1.961   5.025  0.2961 -0.0030  0.3745
 9455SOL    HW140001   4.329   1.880   5.074 -0.4275 -0.9044 -1.2475
 9455SOL    HW240002   4.401   2.003   5.086  1.6322 -1.2782 -0.0816
 9456SOL     OW40003   4.321   3.265  15.957 -0.7527 -0.0910  0.4533
 9456SOL    HW140004   4.391   3.209  15.925 -1.6443 -2.1646  2.0894
 9456SOL    HW240005   4.348   3.293  16.045 -0.5458 -2.3008  1.0948
 9457SOL     OW40006   3.634   3.478   5.236  0.1542 -0.8889 -0.5220
 9457SOL    HW140007   3.576   3.511   5.167 -0.0915 -0.5384 -0.1477
 9457SOL    HW240008   3.593   3.393   5.253  1.0688 -1.2371 -0.1023
 9458SOL     OW40009   2.017   4.171   2.732 -0.3029  0.3660  0.8197
 9458SOL    HW140010   2.053   4.136   2.813 -0.0493  2.0230  1.4184
 9458SOL    HW240011   1.934   4.207   2.764 -1.6918 -0.4090 -1.9250
 9459SOL     OW40012   4.015   3.329   0.181  0.4413  0.0777 -0.0829
 9459SOL    HW140013   4.046   3.292   0.099 -0.2800  2.4753 -1.4352
 9459SOL    HW240014   3.990   3.417   0.153 -0.1577 -0.5395 -1.4632
 9460SOL     OW40015   4.616   0.620  12.010  0.0859 -0.1144 -0.5283
 9460SOL    HW140016   4.704   0.639  12.043 -0.3139  1.7533 -0.5477
 9460SOL    HW240017   4.616   0.631  11.915  0.8519  0.5956 -0.4479
 9461SOL     OW40018   0.804   2.870   0.843 -0.6557 -0.5001  0.4335
 9461SOL    HW140019   0.825   2.777   0.855 -1.6230 -0.8053 -0.3181
 9461SOL    HW240020   0.799   2.900   0.934  2.3121 -1.5216  0.9230
 9462SOL     OW40021   3.075   4.569   5.284  0.2199  0.1197  0.1226
 9462SOL    HW140022   3.036   4.652   5.311  1.8756  0.4767  1.3860
 9462SOL    HW240023   3.003   4.542   5.226  1.1114 -2.7186  0.3354
 9463SOL     OW40024   2.380   0.118   7.462  0.1803  0.0426  0.3538
 9463SOL    HW140025   2.384   0.026   7.434  1.2328 -0.1596  1.1960
 9463SOL    HW240026   2.426   0.127   7.545  1.5203 -0.8054 -0.3023
 9464SOL     OW40027   1.047   4.651   3.491 -0.4625  0.1284  0.2938
 9464SOL    HW140028   1.101   4.697   3.427  2.2531 -2.6357  0.5652
 9464SOL    HW240029   0.987   4.604   3.434  0.2966  1.2450 -1.4428
 9465SOL     OW40030   3.705   3.152  10.609  0.6773  0.2893  0.5527
 9465SOL    HW140031   3.661   3.129  10.691  1.0054 -1.0074  0.3518
 9465SOL    HW240032   3.629   3.153  10.550  2.4246  3.2375 -1.6365
 9466SOL     OW40033   0.547   2.568  12.710  0.3938 -0.5106  0.2021
 9466SOL    HW140034   0.505   2.593  12.628 -1.6183 -1.2353  1.0113
 9466SOL    HW240035   0.620   2.517  12.674  0.3005  0.0932 -0.8190
 9467SOL     OW40036   1.944   3.800  14.359  0.4307 -0.0490  0.2886
 9467SOL    HW140037   1.921   3.796  14.266  1.7945 -0.2292 -0.0349
 9467SOL    HW240038   1.872   3.753  14.402  0.0516 -0.4472 -0.7718
 9468SOL     OW40039   1.750   1.993   8.316  0.6046  0.0274  0.3704
 9468SOL    HW140040   1.723   2.013   8.406  0.2030  1.8143 -0.1415
 9468SOL    HW240041   1.729   1.900   8.311 -1.1031  0.4200  0.0150
 9469SOL     OW40042   0.059   3.409  13.293  0.2711 -0.0333  0.1408
 9469SOL    HW140043   0.133   3.426  13.352  0.4499  1.5787 -0.5442
 9469SOL    HW240044   0.023   3.331  13.334 -1.1655  0.8099  0.4795
 9470SOL     OW40045   1.999   3.717   4.954  0.1025  0.2863  0.3073
 9470SOL    HW140046   1.973   3.637   4.999  0.3485 -0.5462 -1.0202
 9470SOL    HW240047   2.013   3.777   5.028 -2.4453  0.2904  0.8012
 9471SOL     OW40048   0.270   1.428  10.336 -0.0723  0.3610 -0.1314
 9471SOL    HW140049   0.337   1.443  10.403 -0.4471 -1.1587  0.5768
 9471SOL    HW240050   0.286   1.508  10.285 -0.2180 -0.2689 -1.1647
 9472SOL     OW40051   1.517   4.524   6.415  0.0357 -0.0175  0.5328
 9472SOL    HW140052   1.599   4.478   6.435  0.0568 -0.9049 -1.6304
 9472SOL    HW240053   1.529   4.619   6.424  2.6538 -0.3831  0.9953
 9473SOL     OW40054   3.340   0.722   7.399  0.0142 -0.5060 -0.0133
 9473SOL    HW140055   3.259   0.684   7.432  1.4933 -1.3586  2.6587
 9473SOL    HW240056   3.332   0.697   7.307  0.0555 -3.0132  0.6599
 9474SOL     OW40057   4.669   3.589   6.973  0.0612 -0.0531  0.2635
 9474SOL    HW140058   4.624   3.613   6.892 -0.5865  0.3398  0.7419
 9474SOL    HW240059   4.632   3.662   7.021  0.8457 -0.6413  1.7724
 9475SOL     OW40060   1.410   4.141   9.703 -0.3742 -0.2637  0.4541
 9475SOL    HW140061   1.472   4.113   9.770  1.7803  2.8849 -0.2223
 9475SOL    HW240062   1.327   4.140   9.750 -0.8895 -2.8510 -0.4948
 9476SOL     OW40063   3.859   2.894   3.298  0.2905  0.1597  0.1876
 9476SOL    HW140064   3.888   2.900   3.208  2.6502  1.2372  1.0281
 9476SOL    HW240065   3.817   2.809   3.312 -1.2863  0.8436 -0.3727
 9477SOL     OW40066   2.722   2.006   6.585 -0.0332 -0.5686 -0.5347
 9477SOL    HW140067   2.646   1.948   6.596  1.0363 -2.0273 -0.7956
 9477SOL    HW240068   2.709   2.062   6.661  1.4104 -0.1955 -0.5628
 9478SOL     OW40069   0.783   2.284   0.613  0.0834  0.5501  0.0741
 9478SOL    HW140070   0.795   2.198   0.654  0.8075  0.0190 -1.2480
 9478SOL    HW240071   0.744   2.259   0.529 -3.0614 -0.1690  1.7368
 9479SOL     OW40072   3.354   1.424   3.065 -0.1147 -0.1699  0.1897
 9479SOL    HW140073   3.266   1.407   3.100  0.1986 -2.5445 -0.1784
 9479SOL    HW240074   3.358   1.346   3.010  0.0789 -1.7274  2.4423
 9480SOL     OW40075   3.962   4.727   6.827 -0.0821  0.1108 -0.0891
 9480SOL    HW140076   4.009   4.732   6.910  2.1558  1.5454 -1.4391
 9480SOL    HW240077   3.872   4.715   6.858 -0.5569  2.2214 -0.6494
 9481SOL     OW40078   3.404   0.995   7.075 -0.3502  0.0751  0.1521
 9481SOL    HW140079   3.329   1.041   7.111  1.0436  2.5645 -0.1052
 9481SOL    HW240080   3.457   1.064   7.035 -0.9204  1.0788  1.1326
 9482SOL     OW40081   1.420   4.601   2.741 -1.1162  0.0506 -0.1354
 9482SOL    HW140082   1.357   4.668   2.716 -1.3077  0.0790  0.4153
 9482SOL    HW240083   1.479   4.602   2.666 -1.3349 -0.2557 -0.3105
 9483SOL     OW40084   3.928   0.329   8.635 -0.4163 -0.1715  0.1831
 9483SOL    HW140085   3.876   0.373   8.567 -0.2008  1.2619  0.9466
 9483SOL    HW240086   3.979   0.261   8.591  1.3553  0.6520  0.9846
 9484SOL     OW40087   4.628   4.707  13.891  0.5051  0.3751 -0.1312
 9484SOL    HW140088   4.576   4.687  13.814  1.2062  2.3092 -1.1114
 9484SOL    HW240089   4.649   4.614  13.903 -0.3240  0.0150 -1.6087
 9485SOL     OW40090   0.987   3.395   0.564 -0.2357 -0.1119 -0.2242
 9485SOL    HW140091   0.916   3.335   0.590 -1.3450  1.0052 -0.6681
 9485SOL    HW240092   0.936   3.474   0.548 -1.8706 -0.8634  1.2753
 9486SOL     OW40093   3.656   3.108   5.963 -0.1099  0.5074  0.2751
 9486SOL    HW140094   3.585   3.169   5.942 -0.0222 -0.5389 -3.1696
 9486SOL    HW240095   3.645   3.105   6.058 -2.4820 -1.6635 -0.0595
 9487SOL     OW40096   3.808   3.923  13.653 -0.0561 -0.4114 -0.4185
 9487SOL    HW140097   3.758   3.849  13.686  2.0968 -0.5930  2.4028
 9487SOL    HW240098   3.741   3.954  13.592 -0.4754 -1.2164 -0.3656
 9488SOL     OW40099   4.650   1.263  15.519  0.5673  0.1345 -0.2170
 9488SOL    HW140100   4.678   1.273  15.428  0.3719 -1.5095 -0.4580
 9488SOL    HW240101   4.626   1.355  15.525 -1.3600 -0.3563 -0.5155
 9489SOL     OW40102   1.891   1.683   7.671  0.0044  0.1454  0.0196
 9489SOL    HW140103   1.917   1.707   7.760 -2.4994 -1.6517  1.2492
 9489SOL    HW240104   1.875   1.588   7.676  0.4554  0.0167 -1.0535
 9490SOL     OW40105   0.154   3.680  10.833  0.7131  0.8102 -0.4406
 9490SOL    HW140106   0.162   3.676  10.928  2.8932  2.1410 -0.5624
 9490SOL    HW240107   0.150   3.774  10.813  2.4804  0.4600 -2.5508
 9491SOL     OW40108   2.269   3.697   3.271 -0.1716  0.1197 -0.2799
 9491SOL    HW140109   2.204   3.628   3.278 -0.1475 -0.0462 -1.6714
 9491SOL    HW240110   2.328   3.672   3.342 -0.8083  0.3380  0.3248
 9492SOL     OW40111   0.378   1.192   5.583 -0.2208 -0.1602 -0.6232
 9492SOL    HW140112   0.328   1.247   5.522  0.8363 -0.8835 -2.1231
 9492SOL    HW240113   0.312   1.150   5.639 -1.3088  2.3117 -0.0282
 9493SOL     OW40114   1.567   4.109  16.182 -0.0148  0.0872 -0.0836
 9493SOL    HW140115   1.646   4.088  16.132  1.2269 -0.9867  2.3068
 9493SOL    HW240116   1.560   4.204  16.176  1.9540  0.2542  0.3616
 9494SOL     OW40117   4.735   4.673  12.939 -0.7916 -0.3923 -0.5355
 9494SOL    HW140118   0.033   0.024  12.928  0.2980 -0.6435  0.8375
 9494SOL    HW240119   0.061   4.631  12.997  0.3901  1.7987 -0.2462
 9495SOL     OW40120   4.165   1.475   1.230 -0.2109  0.2707 -0.0542
 9495SOL    HW140121   4.210   1.535   1.290 -1.2130  1.0590 -0.1078
 9495SOL    HW240122   4.078   1.468   1.270  0.2949 -2.5513  0.6117
 9496SOL     OW40123   3.050   3.961   1.692 -0.0175  1.2331  0.4439
 9496SOL    HW140124   3.065   3.866   1.688 -1.4363  1.0354 -0.1602
 9496SOL    HW240125   2.980   3.964   1.628 -0.8736  0.2655  1.3246
 9497SOL     OW40126   3.418   3.283   1.605  0.1477 -0.3233 -0.6528
 9497SOL    HW140127   3.373   3.320   1.529 -0.7030 -4.0819 -2.0240
 9497SOL    HW240128   3.502   3.327   1.611  0.9875 -1.5969 -3.2746
 9498SOL     OW40129   2.329   1.811   2.299 -0.1249 -0.9163 -0.2967
 9498SOL    HW140130   2.309   1.874   2.369  0.1167 -1.3281  0.1464
 9498SOL    HW240131   2.265   1.742   2.316  0.8097 -2.1314 -1.6915
 9499SOL     OW40132   3.223   4.381   1.192 -0.4130 -0.1489 -0.1053
 9499SOL    HW140133   3.246   4.295   1.228  0.6765  0.3733  0.4081
 9499SOL    HW240134   3.207   4.361   1.100 -0.1874  0.3610 -0.2543
 9500SOL     OW40135   1.380   4.050  15.015 -0.2217  0.2274  0.3273
 9500SOL    HW140136   1.469   4.053  14.980 -0.6683  1.0354 -0.7254
 9500SOL    HW240137   1.366   3.955  15.009 -0.7913  0.4336 -1.6915
 9501SOL     OW40138   3.418   2.585  12.614 -0.0348  0.2832  0.5569
 9501SOL    HW140139   3.481   2.637  12.663 -0.4295  1.7137 -0.4832
 9501SOL    HW240140   3.462   2.500  12.620  0.1360  0.3663  0.4645
 9502SOL     OW40141   1.650   3.275   3.280 -0.1194 -0.3509  0.2188
 9502SOL    HW140142   1.628   3.199   3.226 -0.1942 -0.4064  0.3294
 9502SOL    HW240143   1.583   3.256   3.346  1.5705 -2.3426  1.3498
 9503SOL     OW40144   2.904   0.730   2.108  0.3368 -0.4977  0.0417
 9503SOL    HW140145   2.889   0.636   2.121 -0.4415 -0.2216  1.1438
 9503SOL    HW240146   2.989   0.748   2.147  0.6743 -0.8067 -0.5567
 9504SOL     OW40147   1.131   0.884   4.699  0.1534 -0.2591 -0.1482
 9504SOL    HW140148   1.106   0.855   4.786  0.1704  0.1285 -0.0142
 9504SOL    HW240149   1.168   0.967   4.729 -3.8610  1.5335 -0.2105
 9505SOL     OW40150   2.496   3.470  12.685 -0.2907  0.9628  0.6320
 9505SOL    HW140151   2.409   3.498  12.657 -1.0170 -0.1515  1.7229
 9505SOL    HW240152   2.554   3.531  12.641 -0.5767  1.3680  0.8211
 9506SOL     OW40153   3.525   1.261  14.351  0.0138 -0.5395 -0.3093
 9506SOL    HW140154   3.501   1.340  14.399  1.2198  0.1631 -0.8558
 9506SOL    HW240155   3.602   1.291  14.301  0.5953 -2.2660 -0.4544
 9507SOL     OW40156   3.694   1.759   7.428 -0.5128 -0.1546  0.6480
 9507SOL    HW140157   3.748   1.834   7.452  0.4282 -0.0975 -1.6566
 9507SOL    HW240158   3.668   1.735   7.517 -0.6822  0.9321  0.8909
 9508SOL     OW40159   4.207   3.110  13.290 -0.1031  0.5473 -0.4118
 9508SOL    HW140160   4.165   3.196  13.301  0.0085  0.5145  0.2581
 9508SOL    HW240161   4.136   3.059  13.327  0.4487 -0.6175 -0.9784
 9509SOL     OW40162   4.534   2.546   7.433 -0.2512  0.3093 -0.4367
 9509SOL    HW140163   4.505   2.483   7.367 -2.3009  0.4171  0.3525
 9509SOL    HW240164   4.603   2.504   7.484 -0.6103  0.8526  0.4860
 9510SOL     OW40165   0.464   1.041   9.533 -0.1065  0.2035  0.2185
 9510SOL    HW140166   0.412   0.993   9.596 -2.2122  0.6750 -1.1469
 9510SOL    HW240167   0.490   0.975   9.469 -2.0686  0.1555 -0.5072
 9511SOL     OW40168   2.333   0.547   6.251  0.0048  0.2872  0.3348
 9511SOL    HW140169   2.353   0.525   6.342  0.4320 -0.2072  0.1187
 9511SOL    HW240170   2.246   0.509   6.246  0.9402 -1.4387 -2.4606
 9512SOL     OW40171   0.272   4.634  14.039 -0.1114 -0.3888 -0.2659
 9512SOL    HW140172   0.263   4.553  14.089 -0.5135 -1.0306 -1.3789
 9512SOL    HW240173   0.194   4.684  14.063 -0.9852 -1.1279 -1.5594
 9513SOL     OW40174   3.751   3.695   7.774  0.3923  0.3492 -0.3967
 9513SOL    HW140175   3.827   3.638   7.762  0.0458 -0.0346 -0.7923
 9513SOL    HW240176   3.708   3.647   7.845  2.6318  1.4501  1.6887
 9514SOL     OW40177   1.912   0.773  13.185 -0.3097  0.3709  0.3176
 9514SOL    HW140178   1.927   0.854  13.136 -1.0047  0.8851  0.9621
 9514SOL    HW240179   1.840   0.810  13.236 -0.9228  1.9595 -1.6884
 9515SOL     OW40180   0.237   2.256   0.448  0.4056 -0.3210  0.5792
 9515SOL    HW140181   0.260   2.202   0.524 -3.8906 -2.0141  0.6831
 9515SOL    HW240182   0.215   2.195   0.378  1.0325  2.2453 -1.8686
 9516SOL     OW40183   2.913   1.098   5.098  0.2801  1.0628 -0.3016
 9516SOL    HW140184   2.939   1.140   5.016  1.0633 -1.2371 -1.2389
 9516SOL    HW240185   2.931   1.006   5.079 -1.1572  0.3744  1.7240
 9517SOL     OW40186   3.317   1.840  13.389  0.7964  0.3385 -0.0467
 9517SOL    HW140187   3.322   1.896  13.311  0.5873  2.4469  1.4349
 9517SOL    HW240188   3.232   1.864  13.426  1.3120  0.1895  1.2346
 9518SOL     OW40189   3.929   4.251  16.094 -0.1345  0.1972  0.3301
 9518SOL    HW140190   3.893   4.315  16.032 -0.2317  1.3690  1.5845
 9518SOL    HW240191   3.941   4.306  16.172  1.8015 -0.2114  0.3208
 9519SOL     OW40192   4.598   0.950  11.872 -0.1633  0.2258  0.1365
 9519SOL    HW140193   4.528   1.005  11.837  1.3092  2.0390  0.0377
 9519SOL    HW240194   4.560   0.862  11.865  0.2959  0.1264 -1.0035
 9520SOL     OW40195   3.420   1.961   3.719  0.0737 -0.4571  0.4626
 9520SOL    HW140196   3.469   1.887   3.682 -2.0160 -0.6767 -1.8589
 9520SOL    HW240197   3.490   2.010   3.761  1.4899 -0.9604 -1.3191
 9521SOL     OW40198   3.377   1.167   0.381 -0.2191  0.3403 -0.0178
 9521SOL    HW140199   3.394   1.079   0.349 -0.0718 -0.4381  2.1863
 9521SOL    HW240200   3.444   1.213   0.330 -0.0384  2.6812  2.2815
 9522SOL     OW40201   0.315   0.927   9.730  0.1206 -0.4788  0.1658
 9522SOL    HW140202   0.225   0.945   9.701 -0.6852 -1.3870  2.1259
 9522SOL    HW240203   0.311   0.831   9.732 -0.5767 -0.3809  3.1038
 9523SOL     OW40204   3.111   0.443   1.855 -0.3442  0.2162 -0.6385
 9523SOL    HW140205   3.029   0.453   1.805 -0.6417 -0.3924 -0.2675
 9523SOL    HW240206   3.078   0.478   1.937 -1.9882 -0.8323 -0.8392
 9524SOL     OW40207   2.285   1.709  16.934 -0.3388 -0.0127  1.1425
 9524SOL    HW140208   2.332   1.688  17.015  1.1696  0.3439  0.3660
 9524SOL    HW240209   2.348   1.771  16.897  0.0255 -1.1478 -0.1647
 9525SOL     OW40210   0.194   4.460  10.160  0.0787  0.3738 -0.2429
 9525SOL    HW140211   0.145   4.399  10.104 -0.2084 -0.2114  0.6580
 9525SOL    HW240212   0.121   4.494  10.212  0.4141  0.1668  0.3599
 9526SOL     OW40213   2.016   3.681  15.755 -0.3197 -0.1952 -0.5516
 9526SOL    HW140214   2.046   3.592  15.776 -1.2896 -0.2554  0.6251
 9526SOL    HW240215   2.098   3.709  15.715  0.9588  0.3077  2.4052
 9527SOL     OW40216   2.016   3.528   1.540 -0.4357 -0.2576  0.4069
 9527SOL    HW140217   1.972   3.612   1.529  1.2077  0.9326  2.9350
 9527SOL    HW240218   2.104   3.552   1.510 -1.0239 -1.6214 -2.3583
 9528SOL     OW40219   2.801   2.446   3.020  0.3870  0.0998 -0.1427
 9528SOL    HW140220   2.835   2.379   3.079  0.0723  0.2617  0.2179
 9528SOL    HW240221   2.715   2.467   3.057  1.5320  1.4720  1.6965
 9529SOL     OW40222   0.911   0.332  10.735  0.1355  0.1690  0.2775
 9529SOL    HW140223   0.942   0.304  10.821  1.7872 -1.6829 -0.9124
 9529SOL    HW240224   0.962   0.412  10.721  0.1553  0.1200  0.0735
 9530SOL     OW40225   0.327   0.637  10.092 -0.3253 -0.0483  0.3778
 9530SOL    HW140226   0.237   0.644  10.060  1.1858  0.7934 -3.6837
 9530SOL    HW240227   0.338   0.724  10.131 -1.6302  0.7612 -1.0760
 9531SOL     OW40228   2.913   1.088   2.304  0.2184 -0.0548  0.3068
 9531SOL    HW140229   2.978   1.150   2.271  0.1454  0.6814  1.5214
 9531SOL    HW240230   2.971   1.013   2.288 -1.9304 -1.1802 -2.0814
 9532SOL     OW40231   2.827   0.897   3.258 -0.3080  0.0422  0.1470
 9532SOL    HW140232   2.751   0.906   3.315 -2.0449 -1.7922 -1.8948
 9532SOL    HW240233   2.824   0.972   3.199 -1.1995 -1.2419 -1.4573
 9533SOL     OW40234   0.333   4.018   5.576 -0.8500  0.4944 -0.2065
 9533SOL    HW140235   0.343   4.023   5.481 -1.0349  1.2436 -0.1840
 9533SOL    HW240236   0.305   4.106   5.600 -0.1703  0.5837  0.2549
 9534SOL     OW40237   1.294   1.701   6.662 -0.6746  0.3387 -0.0246
 9534SOL    HW140238   1.304   1.615   6.703 -1.9702  1.6502  3.0108
 9534SOL    HW240239   1.219   1.679   6.607 -0.8638 -0.4132  0.5281
 9535SOL     OW40240   3.587   1.131  15.800 -0.1242 -0.7755 -0.0799
 9535SOL    HW140241   3.531   1.201  15.833 -2.1940 -3.1835  1.4659
 9535SOL    HW240242   3.671   1.175  15.787 -0.9782  0.8797 -0.0324
 9536SOL     OW40243   2.143   0.286   9.319  0.4650  0.1825  0.2401
 9536SOL    HW140244   2.091   0.288   9.238 -1.0074  1.2946  1.2160
 9536SOL    HW240245   2.234   0.265   9.296 -0.0050  0.2372 -1.6958
 9537SOL     OW40246   1.865   4.671   6.323 -0.6711 -0.1762 -0.6889
 9537SOL    HW140247   1.835   4.729   6.252  0.7043  0.5011 -0.7176
 9537SOL    HW240248   1.834   4.712   6.404 -0.1967  0.9031 -1.0559
 9538SOL     OW40249   3.050   1.042   2.856  0.4195  0.4359  0.1336
 9538SOL    HW140250   3.083   1.120   2.811  1.1533  0.4171  0.6396
 9538SOL    HW240251   2.966   1.076   2.889  0.3693 -1.1071  1.6130
 9539SOL     OW40252   1.789   2.843  14.847 -0.5521 -0.1782  0.0389
 9539SOL    HW140253   1.815   2.876  14.761  1.4071 -1.2440  0.2147
 9539SOL    HW240254   1.871   2.852  14.896 -1.2432  1.3302  0.9412
 9540SOL     OW40255   4.651   3.555  17.433  0.4374  0.4459 -0.6024
 9540SOL    HW140256   4.631   3.486  17.370  0.3678  1.1168 -1.3021
 9540SOL    HW240257   4.720   3.602  17.388  1.5003 -2.0556 -1.5779
 9541SOL     OW40258   3.615   3.363   3.219 -0.0418  0.0180  0.3713
 9541SOL    HW140259   3.684   3.296   3.220 -0.1200 -0.0552  1.0898
 9541SOL    HW240260   3.616   3.402   3.307 -0.7469  1.2438 -0.1706
 9542SOL     OW40261   1.551   1.967  15.933  0.6996  0.4551  0.2164
 9542SOL    HW140262   1.641   1.986  15.906  0.8480  0.7148  0.8956
 9542SOL    HW240263   1.568   1.947  16.025 -1.3493  0.4701  0.6159
 9543SOL     OW40264   3.549   4.556   4.739  0.4282 -0.5723 -0.0955
 9543SOL    HW140265   3.588   4.640   4.716  1.4018 -0.9712  0.0977
 9543SOL    HW240266   3.534   4.518   4.652 -0.7437 -0.2353 -0.0514
 9544SOL     OW40267   0.302   3.290   1.330 -0.2791  0.2874  0.8274
 9544SOL    HW140268   0.298   3.342   1.410 -1.7667  0.0730  0.8965
 9544SOL    HW240269   0.386   3.246   1.341  0.6234  1.9256  0.5106
 9545SOL     OW40270   0.630   0.790   6.320 -0.1129  0.0522 -0.1615
 9545SOL    HW140271   0.593   0.873   6.353  2.4226  1.7684 -1.6405
 9545SOL    HW240272   0.550   0.738   6.321 -0.0979  0.0229 -0.4123
 9546SOL     OW40273   2.627   4.473   7.096  0.0110  0.3558 -0.1667
 9546SOL    HW140274   2.715   4.449   7.125  0.6091 -0.7790 -2.9104
 9546SOL    HW240275   2.602   4.385   7.067 -0.3890  0.3056  0.3368
 9547SOL     OW40276   4.131   2.434  10.200 -0.5563 -0.9161  0.0398
 9547SOL    HW140277   4.058   2.400  10.253 -0.7073  3.6993  2.7280
 9547SOL    HW240278   4.160   2.509  10.251 -0.8989  0.1763 -1.3980
 9548SOL     OW40279   3.417   3.632   1.645  0.1073  0.1373  0.0351
 9548SOL    HW140280   3.476   3.559   1.665 -0.7389 -0.1505  1.4512
 9548SOL    HW240281   3.404   3.636   1.551  0.1310  0.1665  0.0330
 9549SOL     OW40282   3.253   1.528   8.903  0.0017 -0.5305  0.2788
 9549SOL    HW140283   3.261   1.443   8.861 -1.6414 -0.2900 -0.5256
 9549SOL    HW240284   3.244   1.506   8.996 -2.0217  2.1077  0.7047
 9550SOL     OW40285   3.464   3.271   5.902  0.2271  0.0516 -1.0060
 9550SOL    HW140286   3.390   3.331   5.912 -1.1592 -1.7994 -0.0082
 9550SOL    HW240287   3.436   3.238   5.817 -0.2163 -0.2967 -0.7298
 9551SOL     OW40288   0.898   2.223   3.635 -0.1450  0.2283 -0.3563
 9551SOL    HW140289   0.945   2.203   3.555  1.3802 -2.7132  1.2826
 9551SOL    HW240290   0.960   2.280   3.680 -2.3002 -0.3685  3.3597
 9552SOL     OW40291   2.396   3.457   6.393  0.1309 -0.7637 -0.7058
 9552SOL    HW140292   2.475   3.499   6.427 -0.4500 -0.1564 -0.1103
 9552SOL    HW240293   2.422   3.368   6.370 -0.0842 -0.9144 -0.3530
 9553SOL     OW40294   2.795   2.541   9.024  1.1542  0.5474  0.3188
 9553SOL    HW140295   2.784   2.581   9.111 -0.5589 -0.3873  0.5316
 9553SOL    HW240296   2.706   2.554   8.991  1.1848  1.9519  0.7703
 9554SOL     OW40297   3.116   0.140   6.427  0.2613 -0.3271  0.0760
 9554SOL    HW140298   3.211   0.139   6.422  0.1790 -0.6281 -1.3472
 9554SOL    HW240299   3.107   0.219   6.481  1.5107  0.8492 -1.4450
 9555SOL     OW40300   2.152   4.402   5.551 -0.1594 -0.6013  0.5044
 9555SOL    HW140301   2.154   4.383   5.457  1.4600 -0.3082  0.4766
 9555SOL    HW240302   2.133   4.313   5.579 -2.5184 -0.2899 -0.1111
 9556SOL     OW40303   2.743   2.550  13.753 -0.4294  0.3675  0.3553
 9556SOL    HW140304   2.722   2.614  13.685  1.5233 -1.0338 -1.5353
 9556SOL    HW240305   2.651   2.523  13.763 -0.7588  1.1528 -0.6081
 9557SOL     OW40306   3.061   1.223   8.698  0.2710  0.3539 -0.3931
 9557SOL    HW140307   3.150   1.259   8.693 -0.1510  1.3889 -0.3018
 9557SOL    HW240308   3.055   1.204   8.604  1.6390  0.4095 -0.4880
 9558SOL     OW40309   2.274   0.755   2.840  0.7389 -0.2887 -0.5914
 9558SOL    HW140310   2.321   0.693   2.896 -0.0223  0.3665  0.7442
 9558SOL    HW240311   2.331   0.753   2.762  1.1378  2.5797 -0.3611
 9559SOL     OW40312   2.187   2.320   0.711 -0.3011  0.8557 -0.3373
 9559SOL    HW140313   2.210   2.392   0.770  2.6603  0.4056 -0.9358
 9559SOL    HW240314   2.231   2.248   0.756 -3.4491  0.0433  1.3769
 9560SOL     OW40315   4.657   2.264  17.728  0.0111  0.5055 -0.1306
 9560SOL    HW140316   4.592   2.245  17.660 -0.0850 -1.3936  0.5055
 9560SOL    HW240317   4.617   2.228   0.059 -0.0376 -0.2043 -0.4767
 9561SOL     OW40318   3.926   3.541   3.295 -0.2695  0.6655  0.3808
 9561SOL    HW140319   3.953   3.624   3.254 -0.3955 -0.0742 -1.2005
 9561SOL    HW240320   3.833   3.561   3.309 -1.1084 -2.3045 -1.0232
 9562SOL     OW40321   2.994   0.362   3.886 -0.2576 -0.6231 -0.3168
 9562SOL    HW140322   3.065   0.302   3.864 -0.9644 -1.7148  0.4045
 9562SOL    HW240323   3.006   0.437   3.827 -2.8783  2.2654  2.8699
 9563SOL     OW40324   0.632   3.231   7.302 -0.0757  0.0431 -0.0500
 9563SOL    HW140325   0.593   3.178   7.232 -1.0273  1.3167 -0.4846
 9563SOL    HW240326   0.721   3.197   7.294  0.4505  1.4049  0.0643
 9564SOL     OW40327   3.269   3.690   0.238 -0.1735  0.3586 -0.1011
 9564SOL    HW140328   3.244   3.648   0.320  0.4263  1.7362  0.7761
 9564SOL    HW240329   3.188   3.698   0.187  0.0225  0.5564 -0.3829
 9565SOL     OW40330   3.357   0.647   2.077 -0.1872 -0.0039 -0.2007
 9565SOL    HW140331   3.331   0.738   2.066 -0.2051  0.0948  0.6925
 9565SOL    HW240332   3.364   0.632   2.171  1.4719  1.2053 -0.1466
 9566SOL     OW40333   2.076   2.139   8.962 -0.4036  0.1792 -0.2054
 9566SOL    HW140334   2.048   2.048   8.949  0.3938  0.1357 -1.6054
 9566SOL    HW240335   1.994   2.187   8.949  0.4800  2.0007  0.9377
 9567SOL     OW40336   4.736   3.489  10.434 -0.1765 -0.0155  0.1081
 9567SOL    HW140337   0.031   3.417  10.488 -0.4592  0.0019  0.3061
 9567SOL    HW240338   4.684   3.441  10.369 -0.0510 -0.7853  0.5665
 9568SOL     OW40339   1.541   4.029   7.256 -0.6128  0.1529 -0.2286
 9568SOL    HW140340   1.501   3.986   7.181  0.3340 -0.7437 -0.2164
 9568SOL    HW240341   1.460   4.048   7.305 -0.2201  0.9876  0.1056
 9569SOL     OW40342   1.383   0.364   6.138 -0.4080  0.2907  0.1000
 9569SOL    HW140343   1.410   0.405   6.056 -3.3824  1.8217 -0.1335
 9569SOL    HW240344   1.301   0.413   6.145 -0.4588  0.5553 -2.1690
   4.73765   4.73765  17.74883
