Membrane in water
40344
    1TMC1    C1    1   0.934   2.796  11.314  0.2628 -0.4952 -0.1919
    1TMC1    C2    2   0.832   2.859  11.254 -0.3026 -0.0542  0.2046
    1TMC1    C3    3   0.845   2.992  11.231  0.3221  0.6403 -0.0338
    1TMC1    C4    4   1.051   2.852  11.359  0.1589  1.0905  0.4579
    1TMC1    C5    5   1.051   2.990  11.347 -0.2468 -0.3795  0.8763
    1TMC1    C6    6   0.955   3.060  11.281 -0.3817  0.2116 -0.6736
    1TMC1     C    7   0.900   2.672  11.378  0.0291 -0.0591 -0.2215
    1TMC1     O    8   0.783   2.647  11.403 -0.5649  0.1594  0.4408
    1TMC1     H    9   0.743   2.800  11.241 -0.2556  0.2451 -1.5923
    1TMC1    H1   10   1.129   2.793  11.406 -2.4064  0.7438  4.3286
    1TMC1    H2   11   0.975   3.166  11.267 -0.8322  0.4144  0.2471
    1TMC1    C7   12   1.170   3.066  11.365 -0.4028  0.1417 -0.0063
    1TMC1    C8   13   0.748   3.075  11.173  0.1035 -0.0886 -0.8423
    1TMC1    O1   14   1.211   3.153  11.290  0.1425  0.0965  0.5123
    1TMC1    O2   15   0.739   3.193  11.206  0.5481 -0.0680  0.2150
    1TMC1    O3   16   1.243   2.997  11.459  0.2268  0.4549  0.4830
    1TMC1    H3   17   1.181   2.944  11.514 -0.5769  1.0425  0.1504
    1TMC1    O5   18   0.637   3.003  11.151  0.1787  0.2492 -0.2640
    1TMC1    H5   19   0.650   2.910  11.123 -1.5833 -0.7380  2.1131
    2MPD2     C   20   1.026   2.225  11.594  0.3180  0.3526 -0.0212
    2MPD2    C1   21   0.916   2.308  11.621  0.3766 -0.2178  0.2473
    2MPD2    C2   22   0.902   2.426  11.548 -0.2209 -0.6002 -0.1398
    2MPD2    C3   23   0.997   2.457  11.453 -0.1136  0.3317 -0.1855
    2MPD2    C4   24   1.103   2.373  11.428  0.6926 -0.7296  0.0564
    2MPD2    C5   25   1.122   2.256  11.500  0.1934 -0.2265  0.2204
    2MPD2     H   26   0.814   2.485  11.573  1.0832  0.6561  1.4771
    2MPD2    H1   27   1.169   2.396  11.345 -1.3845  0.7731 -1.1735
    2MPD2    H2   28   1.047   2.143  11.661 -0.9671 -2.4226 -2.9824
    2MPD2    H3   29   1.206   2.187  11.496  0.8325  0.5919 -0.5143
    2MPD2     N   30   1.002   2.579  11.381  0.0352  0.0952  0.6584
    2MPD2    H5   31   1.074   2.588  11.310  1.0114 -1.7933  1.4229
    2MPD2    N1   32   0.810   2.282  11.712 -0.3728  0.2855  0.1207
    2MPD2    H7   33   0.732   2.348  11.711 -1.3477 -0.8509  0.8782
    3TMC1    C1   34   4.334   2.609  10.273  0.1939 -0.0046  0.0952
    3TMC1    C2   35   4.237   2.603  10.180 -0.3786  0.6086 -0.4418
    3TMC1    C3   36   4.248   2.523  10.074 -0.2802 -0.6565  0.3537
    3TMC1    C4   37   4.436   2.515  10.276 -0.0443 -0.4142  0.0602
    3TMC1    C5   38   4.431   2.419  10.181  0.1940 -0.2777  0.0827
    3TMC1    C6   39   4.342   2.424  10.077 -0.4770 -0.1291  0.9479
    3TMC1     C   40   4.339   2.712  10.383 -0.5528 -1.0244  0.5287
    3TMC1     O   41   4.424   2.692  10.468 -0.0449 -0.0119  0.2368
    3TMC1     H   42   4.148   2.664  10.175 -1.2116 -0.6703 -1.1274
    3TMC1    H1   43   4.523   2.520  10.340 -0.3879  0.4950  0.4678
    3TMC1    H2   44   4.378   2.378   9.986 -0.3109  0.5747  0.6510
    3TMC1    C7   45   4.541   2.340  10.171 -0.1765  0.8076  0.0563
    3TMC1    C8   46   4.213   2.583   9.945  0.1629 -0.0544 -0.1108
    3TMC1    O1   47   4.539   2.218  10.154 -0.8772  0.0260  0.4044
    3TMC1    O2   48   4.204   2.701   9.922  0.1392  0.2569  0.1676
    3TMC1    O3   49   4.645   2.422  10.165  0.6694 -0.0184  0.5998
    3TMC1    H3   50   4.613   2.512  10.142 -1.4483 -0.5845  1.3779
    3TMC1    O5   51   4.162   2.483   9.872  0.1825 -0.0907  0.6582
    3TMC1    H5   52   4.185   2.396   9.911 -2.4098 -0.7588  0.7439
    4MPD2     C   53   4.198   3.129  10.628 -0.4231  0.5264  0.5210
    4MPD2    C1   54   4.113   3.121  10.525 -0.3624  0.3260  0.6136
    4MPD2    C2   55   4.117   3.009  10.445  0.0596  0.4039  0.3773
    4MPD2    C3   56   4.216   2.912  10.465  0.2243 -0.0962 -0.3672
    4MPD2    C4   57   4.302   2.922  10.577 -0.0093 -0.1798  0.3403
    4MPD2    C5   58   4.285   3.028  10.661 -0.3400  0.6831  0.4168
    4MPD2     H   59   4.043   2.997  10.367 -1.7205  1.6046  1.8880
    4MPD2    H1   60   4.371   2.846  10.610  1.3683  1.1291  0.5051
    4MPD2    H2   61   4.196   3.212  10.698  0.8103  0.2950  0.8382
    4MPD2    H3   62   4.360   3.041  10.738  0.3035  0.0833 -0.1060
    4MPD2     N   63   4.236   2.804  10.371  0.1808 -0.6572 -0.0751
    4MPD2    H5   64   4.170   2.790  10.295  0.6614  3.0759 -1.1991
    4MPD2    N1   65   4.016   3.211  10.496  0.1063 -0.4593 -0.3502
    4MPD2    H7   66   3.955   3.189  10.418  0.0931 -1.2054 -0.1250
    5TCq1    O1   67   1.483   4.711  11.351 -0.1407  0.3475 -0.2524
    5TCq1    C1   68   1.407   4.721  11.464  0.0731  0.1527  0.3594
    5TCq1    O2   69   1.454   0.010  11.573 -0.5544 -0.3792  0.1721
    5TCq1    C2   70   1.268   0.011  11.428  0.6573 -0.3725 -0.6665
    5TCq1    C3   71   1.212   0.110  11.510 -0.3610  0.3018  0.1757
    5TCq1    C4   72   1.115   0.188  11.446  0.0742 -0.7908  1.0776
    5TCq1    C5   73   1.066   0.174  11.319  0.8462 -0.3483  0.9023
    5TCq1    C6   74   1.126   0.075  11.252  0.2567 -0.1687  0.4555
    5TCq1    C7   75   1.223   4.723  11.299 -0.2834  0.2040  0.2585
    5TCq1    C8   76   1.082   0.032  11.123  0.7668 -0.2302  0.9056
    5TCq1    O4   77   1.078   4.647  11.118 -0.1766  0.3151  0.1683
    5TCq1    C9   78   1.056   0.288  11.529  0.1449  0.5716 -0.5933
    5TCq1    O5   79   0.956   0.345  11.491  0.1930  0.3932  1.0631
    5TCq1    O6   80   1.077   0.266  11.651 -0.3336 -0.0417 -0.6462
    5TCq1    H1   81   1.446   4.725  11.261 -1.6845  0.7448  0.4475
    5TCq1    H2   82   1.250   0.131  11.609  0.6625  1.0303 -0.3663
    5TCq1    H3   83   0.980   0.233  11.291  1.0781 -0.9958 -1.1613
    5TCq1    H4   84   1.267   4.641  11.243 -0.3359  0.0896  0.3843
    6MPD2     C   85   0.834   0.205  10.901  0.3776  0.5795  0.3994
    6MPD2    C1   86   0.916   0.099  10.951  0.2206 -0.0595 -0.2428
    6MPD2    C2   87   0.908   4.712  10.889 -0.3345  0.3325 -0.4173
    6MPD2    C3   88   0.813   4.677  10.796 -0.5357  0.0378 -0.0403
    6MPD2    C4   89   0.742   0.043  10.738 -0.3774  0.0111  0.3214
    6MPD2    C5   90   0.746   0.170  10.804 -0.1984 -0.4892 -0.4412
    6MPD2     H   91   0.957   4.628  10.935  0.4789  2.2306  2.2013
    6MPD2    H1   92   0.667   0.019  10.663 -0.0881 -0.0924  0.0629
    6MPD2    H2   93   0.863   0.304  10.932  0.1166  0.3972  1.2141
    6MPD2    H3   94   0.687   0.253  10.768 -3.3129 -1.5111  2.3309
    6MPD2     N   95   0.796   4.537  10.763  0.2931  0.2036 -0.4452
    6MPD2    H5   96   0.862   4.470  10.803 -0.1407 -0.6642 -1.2095
    6MPD2    N1   97   1.002   0.124  11.055 -0.1423  0.0257 -0.1624
    6MPD2    H7   98   1.006   0.216  11.098 -0.0749 -0.0135 -0.0847
    7TCq1    O1   99   2.551   0.205  13.096  0.1084  0.4757  0.2118
    7TCq1    C1  100   2.678   0.165  13.105 -0.1201 -0.1996  0.4235
    7TCq1    O2  101   2.771   0.218  13.157  0.6106  0.0022  0.0436
    7TCq1    C2  102   2.679   0.023  13.069  0.8805 -0.4920  0.3625
    7TCq1    C3  103   2.576   4.705  12.986 -0.1798 -0.2391  0.3146
    7TCq1    C4  104   2.574   4.571  12.970  0.1966 -0.2291  0.2242
    7TCq1    C5  105   2.677   4.491  13.019  0.3644 -0.1803 -0.3159
    7TCq1    C6  106   2.770   4.543  13.105 -0.3595 -0.0413  0.3497
    7TCq1    C7  107   2.763   4.676  13.138 -0.4225  0.2646  0.5330
    7TCq1    C8  108   2.866   4.452  13.165 -0.6359 -0.3470 -0.0352
    7TCq1    O4  109   2.845   4.331  13.148  0.2292  0.6098 -0.4026
    7TCq1    C9  110   2.461   4.513  12.905 -0.3667 -0.0469 -0.0827
    7TCq1    O5  111   2.361   4.587  12.913  0.4607  0.1153 -0.2163
    7TCq1    O6  112   2.463   4.388  12.900 -0.2376 -0.2831 -0.1748
    7TCq1    H1  113   2.485   0.134  13.085  0.3341  0.3419 -0.3105
    7TCq1    H2  114   2.513   0.031  12.924  0.5769 -0.2735 -0.4909
    7TCq1    H3  115   2.692   4.388  12.987 -0.3616 -0.7552  1.1727
    7TCq1    H4  116   2.838   4.726  13.198 -0.3783  0.9580 -0.0942
    8MPD2     C  117   3.173   4.356  13.588 -0.5746  0.4054  0.6199
    8MPD2    C1  118   3.102   4.269  13.507 -0.9409 -0.9592  0.0771
    8MPD2    C2  119   3.031   4.317  13.393 -0.0147 -0.3339 -0.8188
    8MPD2    C3  120   3.030   4.449  13.355 -0.8873  0.1263 -0.4634
    8MPD2    C4  121   3.112   4.532  13.432 -0.6600 -0.0211  0.1615
    8MPD2    C5  122   3.173   4.488  13.548  0.3510 -0.1671  0.2329
    8MPD2     H  123   2.975   4.254  13.325 -1.0942  0.3633 -0.5817
    8MPD2    H1  124   3.127   4.638  13.414 -0.5513 -0.0800 -0.0939
    8MPD2    H2  125   3.213   4.323  13.684  2.6182  1.3146 -0.4139
    8MPD2    H3  126   3.235   4.555  13.607  1.6432 -2.6915  1.7633
    8MPD2     N  127   2.947   4.512  13.255  0.3588 -0.4385 -0.2263
    8MPD2    H5  128   2.946   4.613  13.246 -1.1495 -0.5704 -1.3830
    8MPD2    N1  129   3.101   4.131  13.552 -0.0945  0.4512 -0.3818
    8MPD2    H7  130   3.153   4.094  13.632  2.1406  0.0181 -2.0407
    9TMC1    C1  131   4.704   3.717  11.107  0.0941  0.4248 -0.9342
    9TMC1    C2  132   4.611   3.653  11.190  0.0268  0.4624 -0.6596
    9TMC1    C3  133   4.482   3.628  11.142 -0.2714 -0.6079 -1.0296
    9TMC1    C4  134   4.662   3.767  10.984  0.6353  0.1471 -0.5107
    9TMC1    C5  135   4.534   3.732  10.943 -0.5987 -0.7201  0.8824
    9TMC1    C6  136   4.449   3.655  11.013 -0.4763  0.0209  0.0119
    9TMC1     C  137   0.108   3.731  11.149 -0.4063  0.0789  0.4199
    9TMC1     O  138   0.168   3.796  11.065  0.1278  0.6605  0.8081
    9TMC1     H  139   4.618   3.610  11.289  1.5155 -0.3945 -1.1496
    9TMC1    H1  140   4.729   3.829  10.926  1.0740 -1.0175 -1.2474
    9TMC1    H2  141   4.353   3.627  10.974 -1.0816 -0.5525  1.9005
    9TMC1    C7  142   4.503   3.745  10.806 -0.0221  0.1294 -0.7385
    9TMC1    C8  143   4.383   3.573  11.235  0.8175  0.2470  0.0078
    9TMC1    O1  144   4.386   3.767  10.770  1.1175 -0.9887 -0.4560
    9TMC1    O2  145   4.415   3.477  11.304  0.5261  0.3206 -0.0464
    9TMC1    O3  146   4.588   3.663  10.735  0.2540  0.4449  0.3455
    9TMC1    H3  147   4.659   3.624  10.791 -1.3394  0.5615  2.4430
    9TMC1    O5  148   4.261   3.605  11.185 -0.4613 -0.0445 -0.6065
    9TMC1    H5  149   4.270   3.693  11.143 -0.0095 -0.1461 -0.7262
   10MPD2     C  150   0.360   3.746  11.289  0.8666 -0.1603 -0.4540
   10MPD2    C1  151   0.258   3.670  11.332  0.0486 -0.0159  0.1395
   10MPD2    C2  152   0.269   3.603  11.452  0.0457 -0.5081 -0.0662
   10MPD2    C3  153   0.377   3.619  11.533  0.5818 -0.3940  0.0306
   10MPD2    C4  154   0.488   3.693  11.486  0.2461  0.4356 -0.3244
   10MPD2    C5  155   0.473   3.754  11.368  0.3919 -0.6562  0.1288
   10MPD2     H  156   0.176   3.558  11.484  1.1918 -0.1395  3.7871
   10MPD2    H1  157   0.580   3.712  11.540 -0.3913  0.9924  0.5650
   10MPD2    H2  158   0.362   3.801  11.196 -1.5858 -1.1926 -1.0922
   10MPD2    H3  159   0.554   3.817  11.333 -0.6281  0.1548 -0.7764
   10MPD2     N  160   0.389   3.556  11.661  0.2997 -0.5980 -0.4555
   10MPD2    H5  161   0.469   3.588  11.714 -0.5117  2.0708 -0.8428
   10MPD2    N1  162   0.136   3.665  11.265 -0.4463 -0.1567  0.6065
   10MPD2    H7  163   0.063   3.603  11.298  0.9446 -2.7879 -1.2094
   11TCq1    O1  164   1.183   3.662  14.065  0.0630 -0.3509  0.1771
   11TCq1    C1  165   1.072   3.610  14.094 -0.2653  0.2424  0.3089
   11TCq1    O2  166   1.047   3.559  14.200 -0.0801  0.6389  0.8116
   11TCq1    C2  167   1.046   3.523  13.986 -0.0413 -0.2261  0.4323
   11TCq1    C3  168   1.146   3.461  13.904 -0.0654 -0.5161  0.1446
   11TCq1    C4  169   1.105   3.404  13.789  1.0376  0.4687 -0.1036
   11TCq1    C5  170   0.977   3.377  13.771  0.4050 -0.0130  1.0171
   11TCq1    C6  171   0.884   3.420  13.862 -0.1485 -0.6989 -0.1420
   11TCq1    C7  172   0.914   3.490  13.973 -0.4429  1.1907 -0.0694
   11TCq1    C8  173   0.742   3.382  13.852 -0.6822 -0.7447 -0.1058
   11TCq1    O4  174   0.668   3.444  13.920  0.1017  0.7130  0.1113
   11TCq1    C9  175   1.207   3.345  13.706 -0.8891  0.2536 -0.0298
   11TCq1    O5  176   1.174   3.261  13.622  0.5595 -0.4221  0.1075
   11TCq1    O6  177   1.326   3.383  13.731  0.3987  0.2423 -0.7085
   11TCq1    H1  178   1.203   3.691  13.974  1.6830 -0.3155  0.5416
   11TCq1    H2  179   1.252   3.483  13.911 -0.1250 -0.6766  1.5465
   11TCq1    H3  180   0.933   3.320  13.690 -0.4025  1.2910  0.5270
   11TCq1    H4  181   0.843   3.513  14.051 -0.9625  0.3583 -0.2930
   12MPD2     C  182   0.484   3.237  13.834 -0.1378  0.0853  1.0457
   12MPD2    C1  183   0.593   3.212  13.761 -0.4960 -0.0593  0.2200
   12MPD2    C2  184   0.596   3.101  13.673  0.4208  0.4733  0.1544
   12MPD2    C3  185   0.479   3.020  13.661 -0.3724  0.3193 -0.9266
   12MPD2    C4  186   0.371   3.046  13.734 -0.5548  0.2954  0.1018
   12MPD2    C5  187   0.386   3.144  13.827  0.0027 -0.1174  0.2616
   12MPD2     H  188   0.687   3.075  13.621 -0.2546  0.4278 -1.0034
   12MPD2    H1  189   0.274   2.997  13.730 -0.7720  0.4462  3.4074
   12MPD2    H2  190   0.481   3.317  13.907 -1.1242  0.2141  0.8649
   12MPD2    H3  191   0.293   3.162  13.881 -0.9102 -0.0016 -1.3369
   12MPD2     N  192   0.463   2.906  13.570  0.0279 -0.4652  0.6879
   12MPD2    H5  193   0.382   2.845  13.581  2.5712 -3.5586  2.1246
   12MPD2    N1  194   0.719   3.268  13.783 -0.1100 -0.4120 -0.0920
   12MPD2    H7  195   0.791   3.224  13.726 -0.5003  1.0580 -1.7223
   13TCq1    O1  196   0.107   2.793  10.197  0.1662  0.0616  0.4316
   13TCq1    C1  197   0.160   2.690  10.126  0.7215  0.8276 -0.4615
   13TCq1    O2  198   0.195   2.705  10.014  0.2945 -0.5235 -0.5281
   13TCq1    C2  199   0.209   2.590  10.221 -0.2646 -1.3068 -0.0346
   13TCq1    C3  200   0.310   2.504  10.182  0.6910 -0.2394 -0.2150
   13TCq1    C4  201   0.345   2.411  10.273  0.1394  0.0030  0.3411
   13TCq1    C5  202   0.269   2.392  10.383  0.1012  0.5113 -0.1035
   13TCq1    C6  203   0.168   2.469  10.408 -0.4846  0.0889  0.5326
   13TCq1    C7  204   0.128   2.570  10.326 -0.1355 -0.5719  0.5475
   13TCq1    C8  205   0.111   2.478  10.543 -0.0853  0.6032 -0.2501
   13TCq1    O4  206   0.010   2.548  10.562 -0.1602  0.0227  0.1283
   13TCq1    C9  207   0.466   2.334  10.252  0.3504 -0.2414  0.0064
   13TCq1    O5  208   0.509   2.262  10.348  0.1211 -0.3571 -0.3992
   13TCq1    O6  209   0.517   2.351  10.138 -0.4280 -0.2201 -0.1490
   13TCq1    H1  210   0.117   2.787  10.294 -1.4535 -0.1600  0.5911
   13TCq1    H2  211   0.370   2.520  10.093  0.5820 -0.0448 -0.2531
   13TCq1    H3  212   0.285   2.307  10.449  0.7932 -1.5355 -2.9452
   13TCq1    H4  213   0.055   2.643  10.359  2.0975  1.7817  0.2599
   14MPD2     C  214   0.272   2.381  10.860  0.1764 -0.0227  0.3958
   14MPD2    C1  215   0.175   2.429  10.781 -0.4970 -0.2910 -0.1684
   14MPD2    C2  216   0.058   2.478  10.839 -0.0090  0.0280 -0.5402
   14MPD2    C3  217   0.040   2.477  10.974 -0.1059  0.2968  0.1684
   14MPD2    C4  218   0.141   2.429  11.058  0.2666  0.0499  0.0589
   14MPD2    C5  219   0.259   2.382  11.003 -0.4562  0.3016 -0.1360
   14MPD2     H  220   4.708   2.505  10.782  0.1731  2.1537  0.1839
   14MPD2    H1  221   0.123   2.416  11.164  0.0560  0.8095  0.1172
   14MPD2    H2  222   0.368   2.345  10.826 -0.2240  0.1371 -0.9105
   14MPD2    H3  223   0.343   2.336  11.053  0.8476  2.1405 -0.5967
   14MPD2     N  224   4.662   2.541  11.019 -0.0913 -0.4341 -0.1259
   14MPD2    H5  225   4.593   2.583  10.957 -0.7282  1.1885  1.6606
   14MPD2    N1  226   0.197   2.427  10.636 -0.2867  0.5215 -0.2234
   14MPD2    H7  227   0.288   2.399  10.602 -0.1541  1.1113 -0.3467
   15TCq1    O1  228   3.142   2.287   1.133 -0.5469  0.5864 -0.1371
   15TCq1    C1  229   3.202   2.161   1.146  0.4160 -0.2810 -0.1436
   15TCq1    O2  230   3.229   2.081   1.058 -0.3509 -0.4469 -0.1791
   15TCq1    C2  231   3.231   2.132   1.284  0.5593  0.2101 -0.0744
   15TCq1    C3  232   3.223   2.237   1.378  0.7785 -0.2067 -0.6028
   15TCq1    C4  233   3.208   2.200   1.513 -0.4104 -0.0344  0.2379
   15TCq1    C5  234   3.218   2.064   1.548  1.1549 -0.1801  0.8771
   15TCq1    C6  235   3.215   1.971   1.450 -0.4250 -0.1735  0.0837
   15TCq1    C7  236   3.216   2.000   1.317  0.1502 -0.3802  0.0652
   15TCq1    C8  237   3.197   1.830   1.494  0.3256  0.2944  0.1131
   15TCq1    O4  238   3.236   1.754   1.408 -0.3604 -0.1834  0.9524
   15TCq1    C9  239   3.203   2.299   1.617  0.1981 -0.1615 -0.0393
   15TCq1    O5  240   3.210   2.260   1.733 -0.4200 -0.3598 -0.8389
   15TCq1    O6  241   3.191   2.418   1.579  0.1477  0.7037 -0.6299
   15TCq1    H1  242   3.109   2.309   1.223  1.2837 -0.1267  0.7228
   15TCq1    H2  243   3.238   2.342   1.353  1.3927 -0.4000 -1.0464
   15TCq1    H3  244   3.204   2.039   1.652  0.3340 -0.3380  0.7278
   15TCq1    H4  245   3.211   1.919   1.244 -3.1005  0.8326 -1.0638
   16MPD2     C  246   2.930   1.696   1.717 -0.3330  0.5609 -0.1092
   16MPD2    C1  247   3.044   1.697   1.638 -0.8331 -0.5038  0.0437
   16MPD2    C2  248   3.097   1.577   1.603  0.4228  0.2311 -0.3905
   16MPD2    C3  249   3.033   1.457   1.627  0.3704  0.2616  0.3841
   16MPD2    C4  250   2.914   1.464   1.689 -0.4370 -0.3522 -0.3511
   16MPD2    C5  251   2.870   1.578   1.747  1.0085 -0.7457 -0.1377
   16MPD2     H  252   3.196   1.575   1.561  0.8286 -0.4398  0.5889
   16MPD2    H1  253   2.871   1.369   1.719 -1.5783 -0.0518 -1.0456
   16MPD2    H2  254   2.881   1.785   1.754  0.1561  0.7957 -0.0330
   16MPD2    H3  255   2.780   1.570   1.807  1.4724 -0.4055  0.6034
   16MPD2     N  256   3.101   1.344   1.582  0.5506 -0.5028  0.5938
   16MPD2    H5  257   3.199   1.361   1.561  0.3571  1.2511  1.0718
   16MPD2    N1  258   3.103   1.817   1.591 -0.0334 -0.4112 -0.6281
   16MPD2    H7  259   3.057   1.905   1.610  0.7175  0.4093 -2.6138
   17TMC1    C1  260   0.248   2.198  11.743  0.0188  0.5512  0.6297
   17TMC1    C2  261   0.121   2.238  11.782 -0.1281  0.0011  0.1947
   17TMC1    C3  262   0.036   2.146  11.831 -0.1758 -0.4819  0.7397
   17TMC1    C4  263   0.284   2.067  11.747 -0.5637 -0.2146 -0.0360
   17TMC1    C5  264   0.199   1.977  11.799  0.1229  0.3262 -0.0053
   17TMC1    C6  265   0.076   2.016  11.851 -0.4752  0.5679  0.5761
   17TMC1     C  266   0.329   2.305  11.688 -0.1650  0.2385  0.1091
   17TMC1     O  267   0.280   2.419  11.698  1.1109  0.2093 -0.3870
   17TMC1     H  268   0.095   2.343  11.790 -0.4343 -0.0243 -0.4749
   17TMC1    H1  269   0.376   2.027  11.704 -0.8802 -1.7045  0.6565
   17TMC1    H2  270   0.008   1.937  11.880 -1.6868  1.7191  0.8958
   17TMC1    C7  271   0.178   1.850  11.740  0.1101  0.2071 -0.6369
   17TMC1    C8  272   4.648   2.195  11.882  0.5276 -0.2917 -0.3285
   17TMC1    O1  273   0.069   1.800  11.710  0.0122  0.4842  0.1403
   17TMC1    O2  274   4.605   2.304  11.851  0.5632 -0.0164  0.0293
   17TMC1    O3  275   0.297   1.788  11.750  0.3421 -0.5324 -0.2768
   17TMC1    H3  276   0.355   1.843  11.807  0.5243 -0.6161 -0.3791
   17TMC1    O5  277   4.623   2.134  11.993 -0.3335 -0.0689  0.2401
   17TMC1    H5  278   4.688   2.061  12.000 -1.3151 -1.0470 -0.9062
   18MPD2     C  279   0.398   2.427  11.424  0.4584  0.6297  0.5339
   18MPD2    C1  280   0.474   2.325  11.490 -0.0917  0.1870 -0.7099
   18MPD2    C2  281   0.592   2.280  11.431 -0.7241 -0.9145 -0.1122
   18MPD2    C3  282   0.640   2.350  11.322 -0.6222  0.1031  0.2315
   18MPD2    C4  283   0.566   2.456  11.268 -0.5778  0.4356 -0.0045
   18MPD2    C5  284   0.443   2.490  11.313  0.7679  0.8688 -0.6026
   18MPD2     H  285   0.656   2.212  11.486  2.2951  0.5078 -1.8623
   18MPD2    H1  286   0.617   2.499  11.182 -3.5368  2.3507 -0.7891
   18MPD2    H2  287   0.304   2.466  11.461  0.4594  0.6821  0.4807
   18MPD2    H3  288   0.393   2.573  11.264 -1.9977 -0.3583  0.0959
   18MPD2     N  289   0.757   2.309  11.251 -0.2616 -0.4812  0.9142
   18MPD2    H5  290   0.768   2.352  11.160 -0.3376 -3.0738 -0.3190
   18MPD2    N1  291   0.421   2.252  11.598  0.3818 -0.0767  0.3067
   18MPD2    H7  292   0.470   2.168  11.627 -0.6098 -1.3075 -1.6349
   19TMC2    C1  293   1.728   2.430  13.988  0.2090 -0.2880 -0.1154
   19TMC2    C2  294   1.753   2.559  13.997 -0.1398 -0.6666 -0.9885
   19TMC2    C3  295   1.646   2.640  14.002  1.1390 -0.4136  0.8116
   19TMC2    C4  296   1.604   2.377  13.983  0.3436 -0.1842  0.2522
   19TMC2    C5  297   1.496   2.456  13.992 -0.1967  0.4673  0.4495
   19TMC2    C6  298   1.520   2.591  14.006  0.2414  0.2331  0.0466
   19TMC2     C  299   1.839   2.338  13.983  0.7428 -0.1463  0.0509
   19TMC2     O  300   1.818   2.222  13.945 -0.1107  0.1243  0.1237
   19TMC2     H  301   1.851   2.597  13.970 -0.4951 -0.2497 -1.6909
   19TMC2    H1  302   1.591   2.270  13.989 -0.8048 -0.1864 -2.3372
   19TMC2    H2  303   1.433   2.656  14.004  0.2287  0.2086 -0.2268
   19TMC2    C7  304   1.364   2.392  13.985  0.0764 -0.1021 -0.3930
   19TMC2    C8  305   1.646   2.782  13.974  0.0071 -0.6734 -0.2475
   19TMC2    O1  306   1.359   2.276  13.954  0.4742 -0.6675 -0.0977
   19TMC2    O2  307   1.554   2.853  13.936  0.3380  0.5607 -0.3440
   19TMC2    O5  308   1.761   2.829  14.025 -0.3568  0.1026 -0.0702
   19TMC2    H5  309   1.809   2.763  14.079 -0.8005 -0.6511 -0.6101
   20MPD2     C  310   2.091   2.178  14.038 -0.0525  0.1781  0.6111
   20MPD2    C1  311   2.071   2.312  14.077 -0.3087 -0.0747 -0.4370
   20MPD2    C2  312   2.169   2.376  14.145  0.1241  1.0135 -0.2592
   20MPD2    C3  313   2.298   2.327  14.153 -0.1449 -0.2274  0.6234
   20MPD2    C4  314   2.319   2.203  14.095  0.2028 -0.2219 -0.7410
   20MPD2    C5  315   2.216   2.122  14.050  0.3406 -0.4018 -0.1440
   20MPD2     H  316   2.146   2.479  14.170  0.6331  1.5506 -2.0400
   20MPD2    H1  317   2.419   2.163  14.101  0.7487  1.2798  0.3645
   20MPD2    H2  318   2.021   2.111  13.991  1.4158 -0.4735 -0.6463
   20MPD2    H3  319   2.231   2.024  14.007  0.3469 -1.9146  3.3699
   20MPD2     N  320   2.400   2.396  14.220  0.2412 -0.1255 -0.0535
   20MPD2    H5  321   2.480   2.335  14.233 -0.8758 -1.8062 -1.0018
   20MPD2    N1  322   1.949   2.383  14.048  0.2593 -0.2092 -0.4314
   20MPD2    H7  323   1.942   2.479  14.079  0.4471 -0.1140 -0.6877
   21TMC2    C1  324   4.604   3.038  14.399  0.0579  0.3031 -0.4273
   21TMC2    C2  325   4.586   2.909  14.436 -0.2658 -0.2044 -0.0860
   21TMC2    C3  326   4.471   2.866  14.497  0.3555 -0.1714 -0.7825
   21TMC2    C4  327   4.519   3.134  14.451 -0.2818 -0.2217  0.3045
   21TMC2    C5  328   4.409   3.093  14.523  0.4291 -0.3212 -0.2643
   21TMC2    C6  329   4.383   2.961  14.542 -0.3685 -0.4944 -0.1885
   21TMC2     C  330   4.734   3.086  14.355  0.2079  0.3176 -0.2786
   21TMC2     O  331   0.092   3.012  14.371  0.1568  0.0595 -0.0912
   21TMC2     H  332   4.662   2.834  14.422 -0.7695 -0.4835 -1.3137
   21TMC2    H1  333   4.546   3.239  14.449  2.3734 -0.9373 -0.7725
   21TMC2    H2  334   4.292   2.941  14.598  0.8124  0.5914  2.1182
   21TMC2    C7  335   4.344   3.194  14.610  0.1023 -0.3639  0.5051
   21TMC2    C8  336   4.470   2.732  14.544 -0.0911 -0.3763 -0.2101
   21TMC2    O1  337   4.281   3.145  14.704 -0.1895 -0.1412 -0.3436
   21TMC2    O2  338   4.568   2.663  14.573 -0.4136  0.5821 -0.9772
   21TMC2    O5  339   4.345   2.690  14.558 -0.1815 -0.1695 -0.3153
   21TMC2    H5  340   4.271   2.748  14.530 -0.7637  0.2911  2.1930
   22MPD2     C  341   0.343   3.428  14.196 -0.4371 -0.0849 -0.3841
   22MPD2    C1  342   0.367   3.293  14.224  0.0687 -0.2066 -0.1395
   22MPD2    C2  343   0.254   3.220  14.246  0.1409 -0.2859  0.7622
   22MPD2    C3  344   0.124   3.273  14.250 -0.8712 -1.2763  0.0096
   22MPD2    C4  345   0.105   3.405  14.218  0.7002  0.5073 -0.6564
   22MPD2    C5  346   0.218   3.480  14.195 -0.3213  0.8235  0.4769
   22MPD2     H  347   0.266   3.117  14.279  0.5938  0.2425  2.2348
   22MPD2    H1  348   0.008   3.453  14.217 -0.7980 -2.5303  0.2522
   22MPD2    H2  349   0.426   3.495  14.179  1.5071 -2.4598 -0.3080
   22MPD2    H3  350   0.205   3.583  14.163 -2.7131 -0.4361 -2.5978
   22MPD2     N  351   4.737   3.202  14.285 -0.3727 -0.1005  0.3915
   22MPD2    H5  352   4.647   3.245  14.267 -0.4755  0.1074  1.4111
   22MPD2    N1  353   0.490   3.232  14.230 -0.1409  0.1752  0.1431
   22MPD2    H7  354   0.495   3.134  14.257  0.4284  0.0892 -0.2775
   23TMC2    C1  355   1.124   4.429  15.015 -0.7495 -0.5706  0.2433
   23TMC2    C2  356   1.097   4.548  14.951  0.0568 -0.5630  0.2609
   23TMC2    C3  357   0.989   4.554  14.864 -0.0958  0.3881 -0.2653
   23TMC2    C4  358   1.043   4.320  14.996 -0.7637  0.0376 -0.0375
   23TMC2    C5  359   0.934   4.326  14.913 -0.4736 -0.8214  0.2823
   23TMC2    C6  360   0.910   4.442  14.846  0.3364  0.5769  0.3640
   23TMC2     C  361   1.263   4.401  15.053  0.5446 -0.2022  0.6109
   23TMC2     O  362   1.282   4.294  15.109  0.2733  0.8596 -0.1096
   23TMC2     H  363   1.143   4.643  14.976 -0.4890 -0.7259  1.8963
   23TMC2    H1  364   1.078   4.226  15.038 -0.0903  0.0530 -0.5666
   23TMC2    H2  365   0.808   4.465  14.817 -0.4391 -0.9661  1.8657
   23TMC2    C7  366   0.859   4.201  14.878  0.2337  0.6727  0.5094
   23TMC2    C8  367   0.949   4.680  14.827 -0.1707  0.3384  0.5993
   23TMC2    O1  368   0.882   4.105  14.950 -0.1255  0.4140  0.5499
   23TMC2    O2  369   0.883   4.705  14.726  0.6286  0.3814  0.2710
   23TMC2    O5  370   0.943   4.736  14.946  0.5839 -0.1173 -0.4630
   23TMC2    H5  371   0.972   4.682  15.022  0.8760  3.0858  1.7361
   24MPD2     C  372   1.782   4.439  15.037 -0.0908 -0.2218 -0.4239
   24MPD2    C1  373   1.694   4.369  15.122 -0.1328  0.3060  0.3955
   24MPD2    C2  374   1.556   4.393  15.120 -0.1428 -0.4515 -0.3879
   24MPD2    C3  375   1.501   4.470  15.020  0.0671  0.3271  0.6688
   24MPD2    C4  376   1.584   4.529  14.919 -0.2193  0.1789  0.6238
   24MPD2    C5  377   1.725   4.509  14.934  0.2869 -0.0500 -0.1763
   24MPD2     H  378   1.487   4.359  15.197 -0.3600 -0.1487 -0.4463
   24MPD2    H1  379   1.543   4.582  14.834  2.7109 -0.5840 -1.2334
   24MPD2    H2  380   1.890   4.430  15.041 -0.1223  0.1225  1.4341
   24MPD2    H3  381   1.790   4.546  14.856 -0.3698  0.4755 -0.4698
   24MPD2     N  382   1.362   4.485  15.003 -0.1314 -0.5019  0.0148
   24MPD2    H5  383   1.331   4.549  14.930  1.6567  0.8505  0.4418
   24MPD2    N1  384   1.746   4.279  15.220  0.1401  0.5340 -0.0873
   24MPD2    H7  385   1.677   4.242  15.284 -0.2616 -0.4018 -1.0507
   25TMC2    C1  386   4.668   1.571  11.176 -0.3754 -0.5690  0.5231
   25TMC2    C2  387   0.035   1.650  11.221  0.1405  0.3372  0.1109
   25TMC2    C3  388   0.022   1.719  11.340 -0.3409  0.7174 -0.1370
   25TMC2    C4  389   4.554   1.560  11.252  0.3144 -0.0511  0.4594
   25TMC2    C5  390   4.548   1.629  11.371 -0.4517 -0.0729 -0.5379
   25TMC2    C6  391   4.649   1.706  11.416 -0.0587  0.2401  0.2127
   25TMC2     C  392   4.689   1.489  11.056 -0.3505  0.4823 -0.1029
   25TMC2     O  393   0.062   1.459  11.016 -0.0206 -0.5592 -0.1414
   25TMC2     H  394   0.134   1.638  11.179 -0.2554  0.5569 -0.8837
   25TMC2    H1  395   4.482   1.482  11.229  0.4638  0.0080 -0.2002
   25TMC2    H2  396   4.648   1.736  11.520  1.1418  2.2365 -0.3584
   25TMC2    C7  397   4.442   1.587  11.466  0.3587 -0.2613  0.1550
   25TMC2    C8  398   0.129   1.819  11.377  0.3079  1.2132  0.2478
   25TMC2    O1  399   4.464   1.613  11.584  0.7522 -0.7144  0.4564
   25TMC2    O2  400   0.239   1.811  11.324  0.6942 -0.6659 -0.7026
   25TMC2    O5  401   0.073   1.931  11.429 -0.0113  0.0750 -0.1022
   25TMC2    H5  402   4.716   1.928  11.453 -0.5350  2.4259 -1.8587
   26MPD2     C  403   4.538   1.294  10.601  0.3494 -0.4362  0.1014
   26MPD2    C1  404   4.435   1.274  10.695 -0.0362  0.1342  0.0052
   26MPD2    C2  405   4.452   1.336  10.820 -0.5361  0.4834 -0.1840
   26MPD2    C3  406   4.561   1.410  10.859 -0.5363 -0.4884 -0.6143
   26MPD2    C4  407   4.663   1.422  10.764  0.4764  0.0195 -0.8396
   26MPD2    C5  408   4.649   1.362  10.640 -0.0848 -0.4424 -0.3171
   26MPD2     H  409   4.381   1.328  10.902  1.8062  1.7995  1.9861
   26MPD2    H1  410   0.011   1.486  10.783  1.0007 -0.5818 -1.2121
   26MPD2    H2  411   4.533   1.256  10.500  1.0689  1.1217 -0.5240
   26MPD2    H3  412   4.729   1.361  10.567 -1.5568  2.7356 -2.0107
   26MPD2     N  413   4.572   1.469  10.988  0.3816  0.4126 -0.0797
   26MPD2    H5  414   4.488   1.483  11.044 -0.4407  0.8487 -1.4302
   26MPD2    N1  415   4.328   1.188  10.654  0.0886  0.3414  0.7126
   26MPD2    H7  416   4.358   1.130  10.576  0.2764 -1.3805  2.0743
   27TMC2    C1  417   3.572   4.176  11.888 -0.4774 -0.1520  0.5677
   27TMC2    C2  418   3.680   4.193  11.800  0.3660  0.3940  0.2007
   27TMC2    C3  419   3.785   4.271  11.846 -0.0651  0.3350 -0.1665
   27TMC2    C4  420   3.574   4.221  12.016 -0.4461  0.0907 -0.3533
   27TMC2    C5  421   3.685   4.293  12.055  0.6271  0.4831 -0.0787
   27TMC2    C6  422   3.789   4.327  11.970 -0.3241 -0.2116 -0.3486
   27TMC2     C  423   3.474   4.072  11.853 -0.1176 -0.5444  0.0839
   27TMC2     O  424   3.499   4.000  11.755 -0.1365 -0.6765 -0.2670
   27TMC2     H  425   3.687   4.141  11.705 -1.8782  0.2489  0.1090
   27TMC2    H1  426   3.501   4.182  12.085  0.6116 -0.4493  0.4637
   27TMC2    H2  427   3.868   4.398  11.991  0.0128 -0.9912  0.9851
   27TMC2    C7  428   3.714   4.292  12.196 -0.0831 -0.0218 -0.0499
   27TMC2    C8  429   3.903   4.280  11.764  0.1450 -0.2645 -0.3005
   27TMC2    O1  430   3.684   4.187  12.248  0.2777 -0.3220 -0.3227
   27TMC2    O2  431   3.978   4.377  11.770 -0.1576  0.0116  0.0096
   27TMC2    O5  432   3.952   4.156  11.780  0.6265 -0.4268  0.3204
   27TMC2    H5  433   3.888   4.091  11.815  0.1332 -0.9710 -1.5898
   28MPD2     C  434   3.065   3.777  11.968  0.6553  0.3662 -0.4064
   28MPD2    C1  435   3.061   3.899  12.037 -0.0270  0.2079  0.2803
   28MPD2    C2  436   3.153   3.998  12.009 -0.2345  0.2548  0.2349
   28MPD2    C3  437   3.268   3.975  11.937 -0.6258 -0.3028 -0.0777
   28MPD2    C4  438   3.268   3.856  11.868 -0.5519  0.3925 -0.0231
   28MPD2    C5  439   3.170   3.762  11.879 -0.6754 -0.5708  0.2703
   28MPD2     H  440   3.142   4.091  12.064 -0.2396  0.5329 -0.2391
   28MPD2    H1  441   3.341   3.834  11.791  0.0388 -1.6420  1.1225
   28MPD2    H2  442   2.985   3.707  11.984 -0.0506  1.4378  0.7337
   28MPD2    H3  443   3.185   3.671  11.821  3.0690  0.2754 -0.1188
   28MPD2     N  444   3.367   4.074  11.933  0.7961 -0.3861  0.0325
   28MPD2    H5  445   3.356   4.153  11.997 -3.5294  0.4559 -1.7177
   28MPD2    N1  446   2.951   3.916  12.123  0.4044 -0.1338  0.0764
   28MPD2    H7  447   2.910   3.828  12.152  0.0148  0.1675  0.4409
   29TMC2    C1  448   3.027   1.608  14.250  0.6859  0.5835 -0.8369
   29TMC2    C2  449   3.032   1.630  14.385  0.4477 -0.0396 -0.1920
   29TMC2    C3  450   3.120   1.726  14.425 -0.7531 -0.0106  0.0527
   29TMC2    C4  451   3.074   1.705  14.160 -0.4641  0.2374  0.4682
   29TMC2    C5  452   3.143   1.817  14.213  0.2184  0.2185  0.3365
   29TMC2    C6  453   3.161   1.828  14.348 -0.5435 -0.0156  0.0408
   29TMC2     C  454   3.017   1.466  14.210 -0.8365  0.1870 -0.2753
   29TMC2     O  455   3.014   1.383  14.301  0.0741  0.0071 -0.0928
   29TMC2     H  456   2.995   1.552  14.450  2.0985  0.2390  1.0902
   29TMC2    H1  457   3.081   1.696  14.052  0.0604 -0.4495  0.5542
   29TMC2    H2  458   3.193   1.918  14.399 -4.5636  2.8057 -2.3819
   29TMC2    C7  459   3.220   1.904  14.129  0.0450  0.1303 -0.1500
   29TMC2    C8  460   3.147   1.737  14.569 -0.2422  0.2343 -0.0582
   29TMC2    O1  461   3.191   1.907  14.012 -0.7288 -0.2222 -0.7256
   29TMC2    O2  462   3.167   1.847  14.624 -0.1683  0.5229  0.0143
   29TMC2    O5  463   3.167   1.616  14.615  0.6615  0.0418 -0.4835
   29TMC2    H5  464   3.193   1.558  14.540  1.1944 -0.0780 -0.2112
   30MPD2     C  465   2.898   1.100  13.874  0.4473 -0.8629 -0.2178
   30MPD2    C1  466   2.966   1.096  13.991 -0.1573 -0.5335  0.3126
   30MPD2    C2  467   3.003   1.217  14.045 -0.4249 -0.3201  0.8118
   30MPD2    C3  468   2.956   1.342  14.002  0.1006 -0.3972  0.2165
   30MPD2    C4  469   2.892   1.345  13.881  0.1825  0.2910  0.1026
   30MPD2    C5  470   2.869   1.224  13.821 -0.1415  0.6870  0.2367
   30MPD2     H  471   3.071   1.215  14.130  0.0726 -0.9157  0.4045
   30MPD2    H1  472   2.868   1.435  13.826 -5.1508 -0.8406  0.6534
   30MPD2    H2  473   2.881   1.007  13.821 -2.9316  0.0385 -0.6644
   30MPD2    H3  474   2.835   1.226  13.718  2.2007  2.7791 -0.4961
   30MPD2     N  475   2.972   1.460  14.081  0.2189 -0.3581 -0.5138
   30MPD2    H5  476   2.936   1.546  14.041  1.5607  0.4476  0.0185
   30MPD2    N1  477   3.017   0.982  14.050  0.5845  0.1709  0.0341
   30MPD2    H7  478   3.090   0.992  14.119  1.4305  3.1718 -1.2862
   31TMC2    C1  479   0.895   0.165  15.369  0.2586  0.1738  0.1048
   31TMC2    C2  480   0.768   0.216  15.359 -0.1301  0.0024  0.1963
   31TMC2    C3  481   0.690   0.226  15.467 -0.0537  0.1328 -0.1405
   31TMC2    C4  482   0.951   0.138  15.491 -0.1732 -0.6890 -0.1247
   31TMC2    C5  483   0.869   0.157  15.597  0.4234 -0.3616  0.7964
   31TMC2    C6  484   0.740   0.194  15.588  0.5934 -0.3512 -0.3827
   31TMC2     C  485   0.979   0.167  15.251  0.1692 -0.0792 -0.2974
   31TMC2     O  486   0.925   0.213  15.155 -0.5371 -0.2158 -0.7254
   31TMC2     H  487   0.739   0.261  15.264  0.3835 -0.2992 -0.1086
   31TMC2    H1  488   1.049   0.096  15.510  0.1865 -1.3488 -3.3913
   31TMC2    H2  489   0.682   0.193  15.680  1.0513 -0.9106 -0.1027
   31TMC2    C7  490   0.937   0.150  15.721  0.2161  0.5285  0.6135
   31TMC2    C8  491   0.586   0.331  15.450  0.1803  0.1687 -0.5273
   31TMC2    O1  492   1.028   0.069  15.729  0.0544 -0.1551  0.2531
   31TMC2    O2  493   0.550   0.387  15.348 -0.2983 -0.6796 -0.8525
   31TMC2    O5  494   0.540   0.365  15.571  0.4086  0.8018 -0.1856
   31TMC2    H5  495   0.597   0.339  15.646  1.7501 -1.2438 -1.9400
   32MPD2     C  496   1.416   0.142  14.983  0.2051  0.3986 -0.3382
   32MPD2    C1  497   1.289   0.189  14.957 -0.5295  0.2546 -0.5773
   32MPD2    C2  498   1.194   0.198  15.056  0.4740  0.9486 -1.3012
   32MPD2    C3  499   1.211   0.132  15.175 -0.3827 -0.1325 -0.2717
   32MPD2    C4  500   1.334   0.077  15.203 -0.0177  1.0069 -0.4811
   32MPD2    C5  501   1.436   0.093  15.110 -0.8301 -0.5358 -0.4073
   32MPD2     H  502   1.102   0.248  15.027 -0.9556 -1.5024 -1.0263
   32MPD2    H1  503   1.356   0.036  15.301 -1.4983 -1.1898 -1.0805
   32MPD2    H2  504   1.488   0.154  14.903  0.6615 -1.0955 -0.1666
   32MPD2    H3  505   1.530   0.044  15.134 -0.7514  0.9276  2.2221
   32MPD2     N  506   1.107   0.121  15.267  0.1654 -0.0157  0.4791
   32MPD2    H5  507   1.132   0.072  15.352 -0.9857 -0.6477  0.4524
   32MPD2    N1  508   1.264   0.240  14.824  0.4232 -0.9144 -0.3539
   32MPD2    H7  509   1.346   0.247  14.765  0.8288  0.5143  0.3937
   33TMC2    C1  510   0.881   2.839  10.456 -0.6163 -0.1329  0.1812
   33TMC2    C2  511   0.761   2.791  10.424  0.2908 -0.0388  0.3081
   33TMC2    C3  512   0.687   2.862  10.336  0.1305 -0.0968  0.3053
   33TMC2    C4  513   0.928   2.963  10.402 -0.3162  0.1308  0.2798
   33TMC2    C5  514   0.842   3.038  10.326  0.3160  0.5491  0.3144
   33TMC2    C6  515   0.719   2.989  10.294 -0.5578 -0.1077  0.1666
   33TMC2     C  516   0.952   2.763  10.560  0.2587  0.5324 -0.3269
   33TMC2     O  517   0.909   2.650  10.586  0.3517 -0.0011 -0.3390
   33TMC2     H  518   0.735   2.691  10.453 -0.0447  0.1545  0.6639
   33TMC2    H1  519   1.013   3.012  10.449 -0.1356 -2.1643  2.3462
   33TMC2    H2  520   0.660   3.041  10.219 -3.8939  0.5545  3.3077
   33TMC2    C7  521   0.875   3.179  10.315 -0.2544  0.3570  0.5210
   33TMC2    C8  522   0.586   2.779  10.272 -0.2953 -0.4576  0.3604
   33TMC2    O1  523   0.992   3.211  10.321  0.6267 -0.5379 -0.3367
   33TMC2    O2  524   0.589   2.657  10.268  0.3982  0.0125  0.4821
   33TMC2    O5  525   0.470   2.846  10.274  0.3121  0.1688  0.1945
   33TMC2    H5  526   0.474   2.936  10.313  0.0029  0.7705 -1.1636
   34MPD2     C  527   1.369   2.621  10.806 -0.4612 -0.6560 -0.2377
   34MPD2    C1  528   1.242   2.586  10.824 -0.2393 -0.2963 -0.2968
   34MPD2    C2  529   1.148   2.646  10.743 -0.2161 -0.4796  0.2447
   34MPD2    C3  530   1.181   2.747  10.655 -0.2825  0.7257 -0.0803
   34MPD2    C4  531   1.313   2.781  10.638  0.4298  0.5271  0.6908
   34MPD2    C5  532   1.407   2.724  10.719  0.1851 -0.2419  1.4191
   34MPD2     H  533   1.043   2.626  10.762 -0.2997 -0.7035 -0.4349
   34MPD2    H1  534   1.337   2.847  10.555 -2.2520  1.7931  0.9258
   34MPD2    H2  535   1.442   2.583  10.877 -2.3854  1.3962  2.8513
   34MPD2    H3  536   1.513   2.742  10.706 -0.4343  1.0547 -1.7869
   34MPD2     N  537   1.082   2.810  10.576  0.0586  0.2647 -0.1869
   34MPD2    H5  538   1.105   2.890  10.518  2.1695  0.1159  0.4554
   34MPD2    N1  539   1.215   2.483  10.918 -0.0807  0.0323  0.4837
   34MPD2    H7  540   1.291   2.439  10.969  0.0896  0.8074  0.9030
   35TMC2    C1  541   1.775   3.892  11.159 -0.8324  0.1033  0.2195
   35TMC2    C2  542   1.656   3.958  11.131  0.5784 -0.0046 -0.2633
   35TMC2    C3  543   1.546   3.916  11.198  0.0611  0.2998  0.6994
   35TMC2    C4  544   1.791   3.815  11.274  0.1756 -0.2270 -0.3472
   35TMC2    C5  545   1.680   3.784  11.345 -0.1624  0.5032  0.0468
   35TMC2    C6  546   1.552   3.824  11.304  0.5617  0.1656  0.1537
   35TMC2     C  547   1.895   3.953  11.098 -0.8413  1.0173  0.1452
   35TMC2     O  548   1.884   4.005  10.987 -0.7816  0.6967  0.0898
   35TMC2     H  549   1.645   4.019  11.042 -1.7441 -1.8546 -1.2367
   35TMC2    H1  550   1.880   3.754  11.286  0.3991  0.3177  0.7427
   35TMC2    H2  551   1.469   3.799  11.369  1.0470 -2.4144 -0.2321
   35TMC2    C7  552   1.695   3.681  11.440 -0.0658 -0.1945 -0.2100
   35TMC2    C8  553   1.423   3.990  11.176 -0.3276  0.0383  0.6227
   35TMC2    O1  554   1.601   3.608  11.463  0.2847 -0.0486 -0.0254
   35TMC2    O2  555   1.438   4.102  11.132 -0.4175  0.0629  0.0065
   35TMC2    O5  556   1.340   3.894  11.120 -0.1955  0.0921 -0.4526
   35TMC2    H5  557   1.342   3.809  11.170  3.3898  0.3436 -0.1116
   36MPD2     C  558   2.370   4.126  11.143 -0.0222 -0.4663  0.2374
   36MPD2    C1  559   2.333   4.086  11.264  0.3573 -0.7337 -0.4455
   36MPD2    C2  560   2.206   4.033  11.274 -0.1183  0.0130 -0.0359
   36MPD2    C3  561   2.126   4.006  11.162 -0.7108  0.6335  0.1750
   36MPD2    C4  562   2.170   4.049  11.039 -0.0803 -0.2737 -0.5285
   36MPD2    C5  563   2.294   4.106  11.031  0.4854 -0.0758 -0.6496
   36MPD2     H  564   2.170   3.989  11.366 -0.2990  0.5877  0.1668
   36MPD2    H1  565   2.112   4.039  10.948  1.5683  0.0155 -1.6006
   36MPD2    H2  566   2.471   4.160  11.123 -0.2791  0.9368  1.3696
   36MPD2    H3  567   2.323   4.137  10.931  1.1536  1.1235 -0.0879
   36MPD2     N  568   2.002   3.958  11.186  0.3206 -0.0629  0.3901
   36MPD2    H5  569   1.984   3.926  11.281 -0.8687 -3.0452 -0.8322
   36MPD2    N1  570   2.425   4.093  11.373 -0.3646 -0.1701 -0.6620
   36MPD2    H7  571   2.519   4.122  11.348 -1.0365  2.6962  0.2252
   37TMC2    C1  572   0.076   4.274  11.659 -0.1278 -0.1214  0.3585
   37TMC2    C2  573   0.007   4.272  11.770 -0.1386 -1.0527  0.1592
   37TMC2    C3  574   4.612   4.224  11.762 -0.0592  0.0432 -0.0535
   37TMC2    C4  575   0.020   4.228  11.543 -0.0780 -0.1718 -0.2584
   37TMC2    C5  576   4.632   4.172  11.537  0.1560 -0.3396 -0.3739
   37TMC2    C6  577   4.554   4.168  11.651 -0.3285 -0.2786 -0.0173
   37TMC2     C  578   0.203   4.338  11.637 -0.2590  0.2408 -0.2857
   37TMC2     O  579   0.232   4.359  11.524  0.0954 -0.3078 -0.5696
   37TMC2     H  580   0.033   4.324  11.861 -0.7763 -2.7950  1.3200
   37TMC2    H1  581   0.080   4.244  11.454  1.1193  0.5789  0.6761
   37TMC2    H2  582   4.446   4.157  11.646  0.0502 -4.2886  0.5885
   37TMC2    C7  583   4.564   4.177  11.412 -0.2299 -0.5317  0.1766
   37TMC2    C8  584   4.537   4.230  11.893  0.4616  0.3805 -0.0946
   37TMC2    O1  585   4.444   4.195  11.410 -0.2407 -0.2165  0.1175
   37TMC2    O2  586   4.603   4.209  11.997  0.6135 -0.5683 -0.4293
   37TMC2    O5  587   4.417   4.182  11.882 -0.5472  0.1525 -0.0701
   37TMC2    H5  588   4.373   4.205  11.797 -0.3080 -0.5641 -0.3864
   38MPD2     C  589   0.699   4.439  11.766 -0.3356  0.3895 -0.3228
   38MPD2    C1  590   0.625   4.433  11.885 -0.2978  0.7735  0.0503
   38MPD2    C2  591   0.490   4.395  11.876 -0.0120 -0.0468  0.6918
   38MPD2    C3  592   0.427   4.379  11.752  0.3843  0.0330  0.3487
   38MPD2    C4  593   0.498   4.407  11.639  0.3021  0.6670 -0.6780
   38MPD2    C5  594   0.631   4.429  11.653 -0.6469  0.0437  0.2506
   38MPD2     H  595   0.441   4.366  11.968 -0.1232 -1.3387  0.2196
   38MPD2    H1  596   0.454   4.399  11.540 -1.2836 -0.1024  0.0873
   38MPD2    H2  597   0.806   4.460  11.758 -0.3025  0.6091  0.6842
   38MPD2    H3  598   0.689   4.440  11.562 -0.0293  1.0651  0.7682
   38MPD2     N  599   0.287   4.343  11.747 -0.2022 -0.4034 -0.7821
   38MPD2    H5  600   0.258   4.305  11.837 -0.3072 -2.3661 -1.6297
   38MPD2    N1  601   0.688   4.453  12.012  0.3580  0.1744  0.0415
   38MPD2    H7  602   0.625   4.455  12.092  1.1268 -0.4825  0.6638
   39TMC2    C1  603   3.246   0.881   1.741 -0.2145  0.1249  0.2883
   39TMC2    C2  604   3.374   0.834   1.730  0.4615  0.7207 -0.6003
   39TMC2    C3  605   3.481   0.905   1.775 -0.3120 -0.0549 -0.6597
   39TMC2    C4  606   3.232   1.001   1.811  0.3288 -0.2638 -0.0585
   39TMC2    C5  607   3.339   1.064   1.865 -0.4029  0.0567  0.2873
   39TMC2    C6  608   3.468   1.021   1.843 -0.0141  0.1323  0.0107
   39TMC2     C  609   3.130   0.804   1.689 -0.0153  0.6756 -0.1305
   39TMC2     O  610   3.016   0.850   1.696 -0.5533 -0.5684 -0.3059
   39TMC2     H  611   3.392   0.754   1.659 -1.9803  0.7959 -1.3062
   39TMC2    H1  612   3.135   1.048   1.820 -0.3079 -1.5086 -0.4319
   39TMC2    H2  613   3.552   1.086   1.865 -1.5479  2.0195  0.3040
   39TMC2    C7  614   3.317   1.206   1.885  0.9748 -0.2361 -0.4271
   39TMC2    C8  615   3.608   0.865   1.708  0.0177 -0.7821  0.7560
   39TMC2    O1  616   3.206   1.237   1.931  0.2009  0.1082 -0.2901
   39TMC2    O2  617   3.613   0.796   1.609  0.2690  0.2762  0.7494
   39TMC2    O5  618   3.714   0.910   1.779 -1.0642  0.2828 -0.1627
   39TMC2    H5  619   3.680   0.937   1.867 -0.4470 -2.5985  0.9892
   40MPD2     C  620   3.134   0.466   1.560  0.1535 -0.8675 -0.2821
   40MPD2    C1  621   3.080   0.591   1.585 -0.2925 -0.4552  0.0957
   40MPD2    C2  622   2.952   0.615   1.533 -0.0466  0.5926 -0.0805
   40MPD2    C3  623   2.872   0.522   1.477 -0.1490  0.0563  0.1915
   40MPD2    C4  624   2.926   0.390   1.475  0.1495 -0.0350  0.1073
   40MPD2    C5  625   3.055   0.370   1.515  0.9113  0.8724  0.4261
   40MPD2     H  626   2.917   0.717   1.521 -0.8959  0.5525  2.0828
   40MPD2    H1  627   2.859   0.321   1.425 -0.3629 -0.2176  1.0432
   40MPD2    H2  628   3.233   0.433   1.590 -0.7868 -0.5465  3.1078
   40MPD2    H3  629   3.101   0.273   1.498 -2.4664 -0.3295 -1.7320
   40MPD2     N  630   2.737   0.549   1.432  0.3356 -0.6632  0.1612
   40MPD2    H5  631   2.700   0.464   1.390  0.0481 -0.7267  0.5411
   40MPD2    N1  632   3.167   0.682   1.646  0.6163  0.5468 -0.3317
   40MPD2    H7  633   3.259   0.650   1.672  0.3729  0.8266  0.8583
   41TMC2    C1  634   1.286   4.173  13.736 -0.1442  0.8642  0.5179
   41TMC2    C2  635   1.179   4.203  13.659  0.1415 -0.5929  0.0371
   41TMC2    C3  636   1.199   4.219  13.524 -0.2126  0.0281 -0.4090
   41TMC2    C4  637   1.411   4.175  13.689 -0.5208 -0.3548  0.3747
   41TMC2    C5  638   1.430   4.190  13.551 -0.4220 -0.1037  0.0270
   41TMC2    C6  639   1.325   4.226  13.468 -1.1445  0.1418 -0.2196
   41TMC2     C  640   1.254   4.130  13.875  0.4015 -0.0448 -0.3140
   41TMC2     O  641   1.136   4.112  13.896 -0.0142 -0.4137 -0.3771
   41TMC2     H  642   1.080   4.207  13.703  1.4421 -0.4994  2.9627
   41TMC2    H1  643   1.497   4.155  13.750  0.5180 -0.3074 -1.0685
   41TMC2    H2  644   1.333   4.225  13.360 -1.1802 -1.8662 -0.2144
   41TMC2    C7  645   1.568   4.188  13.508  0.3750 -0.3195 -0.1698
   41TMC2    C8  646   1.088   4.252  13.433 -0.4205 -0.3213 -0.6883
   41TMC2    O1  647   1.647   4.157  13.596  0.2708  0.2940 -0.3074
   41TMC2    O2  648   1.114   4.290  13.319  0.4535  0.0723  0.0070
   41TMC2    O5  649   0.965   4.235  13.489  0.1036  0.2166 -0.1057
   41TMC2    H5  650   0.965   4.202  13.581  0.2995 -0.7414 -0.4505
   42MPD2     C  651   1.245   4.039  14.151 -0.5066 -0.7790  0.8739
   42MPD2    C1  652   1.353   4.101  14.100 -0.2718 -0.1395  0.1569
   42MPD2    C2  653   1.461   4.134  14.179  0.2307  0.7541 -0.9676
   42MPD2    C3  654   1.467   4.093  14.306 -0.1126 -0.2935  0.0292
   42MPD2    C4  655   1.349   4.045  14.366 -0.6580  0.5706  0.3886
   42MPD2    C5  656   1.242   4.021  14.282 -0.9047  0.2235  0.6313
   42MPD2     H  657   1.537   4.201  14.139  0.1549  0.5536 -1.4519
   42MPD2    H1  658   1.344   4.017  14.471 -2.2942  1.0881  0.4489
   42MPD2    H2  659   1.155   4.016  14.096  0.3380  1.4343 -1.4654
   42MPD2    H3  660   1.146   3.991  14.323 -0.5667 -0.9242  0.5772
   42MPD2     N  661   1.574   4.118  14.396 -0.3224  0.6162 -0.0728
   42MPD2    H5  662   1.565   4.084  14.491  0.7990  1.2761  0.2699
   42MPD2    N1  663   1.358   4.144  13.966 -0.3584 -0.1954  0.1557
   42MPD2    H7  664   1.442   4.189  13.932  0.4313 -0.6338  1.5274
   43TMC2    C1  665   3.035   2.052   0.746  0.4013 -0.6565  0.2756
   43TMC2    C2  666   2.936   2.041   0.832 -0.4341  0.5828  0.6716
   43TMC2    C3  667   2.919   2.158   0.910  0.0830 -0.0856 -0.1467
   43TMC2    C4  668   3.106   2.166   0.721 -0.9753  0.0938 -0.1058
   43TMC2    C5  669   3.082   2.275   0.800 -0.2940 -0.0628  0.2890
   43TMC2    C6  670   2.986   2.268   0.893 -0.0058 -0.4469 -0.1212
   43TMC2     C  671   3.090   1.932   0.680  0.4260 -0.8825  0.4319
   43TMC2     O  672   3.162   1.942   0.584 -0.2331  0.3118 -0.1514
   43TMC2     H  673   2.873   1.954   0.843  0.3110 -0.1182 -0.6223
   43TMC2    H1  674   3.192   2.163   0.654 -1.8468 -1.0577 -1.1913
   43TMC2    H2  675   2.949   2.356   0.943  0.3413  0.1403 -0.8962
   43TMC2    C7  676   3.172   2.383   0.786 -0.2673 -0.0499  0.0243
   43TMC2    C8  677   2.809   2.170   1.005 -0.1682 -0.5395  0.8029
   43TMC2    O1  678   3.222   2.405   0.674  0.0508 -0.1482 -0.3070
   43TMC2    O2  679   2.819   2.229   1.113  0.2416  0.4766 -0.4989
   43TMC2    O5  680   2.703   2.167   0.926 -0.2332  0.0786 -0.2570
   43TMC2    H5  681   2.724   2.114   0.846  0.4009 -2.0766  1.3270
   44MPD2     C  682   3.203   1.422   0.741 -0.1513 -0.2516  0.0331
   44MPD2    C1  683   3.233   1.505   0.637 -0.2319  0.4574 -0.2670
   44MPD2    C2  684   3.201   1.643   0.641  0.4714  1.1982  0.2272
   44MPD2    C3  685   3.125   1.694   0.746 -0.2476 -0.6463 -0.7731
   44MPD2    C4  686   3.092   1.605   0.853 -0.0520 -0.6111  0.4055
   44MPD2    C5  687   3.145   1.479   0.851 -0.0439  0.3753  0.5832
   44MPD2     H  688   3.240   1.708   0.565 -2.4418  0.3355 -2.0180
   44MPD2    H1  689   3.032   1.638   0.936  2.0775  1.5692  1.0785
   44MPD2    H2  690   3.227   1.316   0.749 -1.3492 -0.4690  0.7590
   44MPD2    H3  691   3.123   1.411   0.932 -1.6860 -0.3776 -0.4928
   44MPD2     N  692   3.069   1.821   0.760 -0.1490 -0.4126 -0.5459
   44MPD2    H5  693   3.017   1.836   0.846 -2.6391 -1.4983 -1.8700
   44MPD2    N1  694   3.304   1.466   0.527 -0.7757 -0.9432  0.1871
   44MPD2    H7  695   3.334   1.539   0.464  3.1189 -2.8119 -0.1628
   45TMC2    C1  696   3.961   3.480   9.763 -0.0355 -0.2996  0.5519
   45TMC2    C2  697   4.076   3.420   9.803 -0.5322 -0.4723 -0.3411
   45TMC2    C3  698   4.183   3.497   9.835 -0.0645  0.4817  0.9270
   45TMC2    C4  699   3.952   3.617   9.756 -0.1832  0.2385 -0.4784
   45TMC2    C5  700   4.066   3.687   9.787 -0.2304  0.0713 -0.1489
   45TMC2    C6  701   4.188   3.629   9.815 -0.1368 -0.0984  0.3065
   45TMC2     C  702   3.860   3.393   9.718  0.4560 -0.4108 -1.1095
   45TMC2     O  703   3.879   3.275   9.725  0.3118 -0.4753  0.3985
   45TMC2     H  704   4.092   3.314   9.823  1.1587  0.0121  0.8130
   45TMC2    H1  705   3.866   3.675   9.724 -0.1317  2.1310  2.8990
   45TMC2    H2  706   4.281   3.684   9.816 -1.5993  2.3680 -0.1718
   45TMC2    C7  707   4.059   3.837   9.788  0.2585 -0.4110 -0.0486
   45TMC2    C8  708   4.305   3.434   9.886  0.1856  0.7985  0.0418
   45TMC2    O1  709   4.133   3.893   9.867  0.0662  0.0350 -0.1058
   45TMC2    O2  710   4.371   3.476   9.979 -0.4669  0.3207  1.1986
   45TMC2    O5  711   4.350   3.389   9.769  0.0854  0.3694 -0.3354
   45TMC2    H5  712   4.279   3.361   9.707  0.1472 -0.2571 -0.1215
   46MPD2     C  713   3.613   3.286   9.617 -1.1227  0.8886  0.4282
   46MPD2    C1  714   3.643   3.421   9.618 -0.0513  0.4050 -0.3032
   46MPD2    C2  715   3.546   3.509   9.589  0.8102  0.8704  0.2954
   46MPD2    C3  716   3.426   3.467   9.536 -0.1856  0.3852 -0.2656
   46MPD2    C4  717   3.404   3.331   9.527 -0.3196 -0.6071  0.0595
   46MPD2    C5  718   3.494   3.239   9.576  0.1261  1.1264 -0.6043
   46MPD2     H  719   3.557   3.617   9.586  1.6060  0.8053  1.0283
   46MPD2    H1  720   3.309   3.293   9.492 -0.8338 -0.8003  1.6926
   46MPD2    H2  721   3.676   3.207   9.655  0.0806  1.4147 -0.4808
   46MPD2    H3  722   3.461   3.136   9.571 -2.2818  1.9372 -1.3093
   46MPD2     N  723   3.332   3.567   9.493  0.1939  0.0886  0.2372
   46MPD2    H5  724   3.354   3.663   9.517  0.4683  0.1820 -0.3727
   46MPD2    N1  725   3.754   3.466   9.679  0.4119 -0.1348  0.2132
   46MPD2    H7  726   3.766   3.566   9.677  1.1080 -0.2182 -0.1277
   47TMC2    C1  727   1.113   0.476   8.856  0.1053 -0.5979  0.3150
   47TMC2    C2  728   1.088   0.562   8.756 -0.5380 -0.5046  0.2884
   47TMC2    C3  729   0.962   0.622   8.764  0.9383 -0.2210  0.0062
   47TMC2    C4  730   1.025   0.447   8.957 -0.0102 -0.2666  0.1235
   47TMC2    C5  731   0.913   0.521   8.961  0.0405 -0.2932 -0.7790
   47TMC2    C6  732   0.878   0.615   8.867 -0.0566  0.1393 -0.3051
   47TMC2     C  733   1.241   0.406   8.842  0.8980 -0.4774  0.3944
   47TMC2     O  734   1.284   0.414   8.729 -0.1434 -0.1782 -0.4540
   47TMC2     H  735   1.151   0.586   8.672 -1.9737  1.1326 -0.3161
   47TMC2    H1  736   1.048   0.374   9.034  1.3690 -0.3650 -0.3933
   47TMC2    H2  737   0.776   0.650   8.852 -0.5205 -2.0502 -2.1104
   47TMC2    C7  738   0.824   0.498   9.079  0.1569  0.2953 -0.2269
   47TMC2    C8  739   0.905   0.686   8.654  0.1482 -0.0721 -0.1512
   47TMC2    O1  740   0.860   0.408   9.147  0.0427  0.0924  0.3091
   47TMC2    O2  741   0.822   0.776   8.671  0.2119 -0.7356 -0.5209
   47TMC2    O5  742   0.928   0.624   8.540  0.0923  0.7088 -0.5589
   47TMC2    H5  743   0.978   0.540   8.549 -0.2496  0.6636  0.9833
   48MPD2     C  744   1.472   0.218   8.857 -0.1310  0.3072  1.1591
   48MPD2    C1  745   1.406   0.264   8.967 -0.1097  0.3947 -0.1302
   48MPD2    C2  746   1.438   0.211   9.088 -0.0433  0.3706 -0.7114
   48MPD2    C3  747   1.566   0.150   9.103  0.7521 -0.1161 -0.5534
   48MPD2    C4  748   1.652   0.140   8.998  0.0347 -0.4710  0.0906
   48MPD2    C5  749   1.596   0.159   8.871  0.2007  0.6166 -0.5266
   48MPD2     H  750   1.371   0.223   9.172 -0.4884  1.7174 -1.2548
   48MPD2    H1  751   1.746   0.086   9.001  1.5978  2.0633 -3.1969
   48MPD2    H2  752   1.446   0.242   8.755 -1.0951 -0.3223  1.2576
   48MPD2    H3  753   1.652   0.133   8.782 -0.6236  1.2403 -1.2252
   48MPD2     N  754   1.604   0.092   9.225  0.1730  0.2126  0.1339
   48MPD2    H5  755   1.530   0.071   9.291 -1.4074  1.1662 -1.3291
   48MPD2    N1  756   1.289   0.345   8.958  0.3439  0.6453  0.0201
   48MPD2    H7  757   1.239   0.370   9.043 -1.2798 -0.5159 -0.5840
   49TMC2    C1  758   4.176   2.105  10.181 -0.1445 -0.1731 -0.5777
   49TMC2    C2  759   4.214   2.070  10.302 -0.2492  0.2424  0.3616
   49TMC2    C3  760   4.307   1.974  10.313 -0.1226 -0.0756 -0.1807
   49TMC2    C4  761   4.227   2.038  10.068  0.1262 -0.0658 -0.3651
   49TMC2    C5  762   4.325   1.942  10.085  0.0508 -0.2351 -0.0819
   49TMC2    C6  763   4.373   1.916  10.212  0.0016  0.1235 -0.7819
   49TMC2     C  764   4.109   2.226  10.151 -0.4616  0.1896 -0.3261
   49TMC2     O  765   4.105   2.265  10.035  0.1139 -0.3382  0.4161
   49TMC2     H  766   4.165   2.084  10.397  0.8847  0.0384  0.9715
   49TMC2    H1  767   4.189   2.063   9.970  1.6482  0.9764 -0.6778
   49TMC2    H2  768   4.433   1.832  10.244  0.3990  0.8321  0.3265
   49TMC2    C7  769   4.393   1.893   9.965  0.1315 -0.0142  0.3032
   49TMC2    C8  770   4.383   1.972  10.432 -0.2136  0.0803 -0.2452
   49TMC2    O1  771   4.330   1.903   9.864  0.0002  0.0071 -0.5429
   49TMC2    O2  772   4.345   1.980  10.545  0.1618  0.1899 -0.3240
   49TMC2    O5  773   4.485   2.054  10.394  0.2993 -0.3086 -0.0934
   49TMC2    H5  774   4.473   2.064  10.297 -2.2623 -0.4315  0.2063
   50MPD2     C  775   3.912   2.445  10.165 -0.1645  0.4233 -0.3983
   50MPD2    C1  776   3.993   2.412  10.269 -0.1452 -0.0671  0.5064
   50MPD2    C2  777   3.981   2.479  10.383  0.0078  0.7674 -0.6233
   50MPD2    C3  778   3.906   2.589  10.404  0.1750  0.5728 -0.3445
   50MPD2    C4  779   3.816   2.613  10.302 -0.1757 -0.5407  0.6179
   50MPD2    C5  780   3.816   2.538  10.186 -0.3836  0.5547  0.0393
   50MPD2     H  781   4.046   2.447  10.464 -0.1625  0.3851 -0.6378
   50MPD2    H1  782   3.747   2.696  10.315 -0.2034 -0.5744  0.6864
   50MPD2    H2  783   3.910   2.387  10.073  0.1717 -0.2524  0.0175
   50MPD2    H3  784   3.745   2.552  10.106 -0.2957  0.8823  0.0187
   50MPD2     N  785   3.903   2.672  10.522  0.2306 -0.0236  0.5996
   50MPD2    H5  786   3.846   2.755  10.540 -0.8778 -0.7787  0.5439
   50MPD2    N1  787   4.083   2.300  10.262 -0.7770 -0.9586 -0.1402
   50MPD2    H7  788   4.126   2.280  10.352 -0.5695  0.1345  0.0061
   51TMC2    C1  789   0.596   0.776   1.389 -0.3659  0.0585 -0.5287
   51TMC2    C2  790   0.467   0.723   1.393 -0.5842 -0.3548  0.0504
   51TMC2    C3  791   0.364   0.800   1.352 -0.6397  0.3188  0.4631
   51TMC2    C4  792   0.624   0.890   1.323 -0.0343  0.1461 -0.2506
   51TMC2    C5  793   0.515   0.965   1.276  0.0146  0.4424 -1.1552
   51TMC2    C6  794   0.386   0.922   1.290  0.5230  0.3685 -0.0618
   51TMC2     C  795   0.699   0.674   1.386  0.1587 -0.0100  0.1793
   51TMC2     O  796   0.789   0.690   1.306 -0.0068 -0.8321  0.4700
   51TMC2     H  797   0.448   0.625   1.436  1.0039 -0.5400  0.3417
   51TMC2    H1  798   0.728   0.920   1.311  0.3278 -1.2941 -0.8028
   51TMC2    H2  799   0.299   0.980   1.262  0.2115  0.0782  0.2952
   51TMC2    C7  800   0.544   1.042   1.158  1.1152  0.1196  0.0425
   51TMC2    C8  801   0.220   0.762   1.368  0.1442 -0.1735 -0.2960
   51TMC2    O1  802   0.655   1.088   1.149  0.4830  0.0074  0.5960
   51TMC2    O2  803   0.134   0.845   1.349 -0.7620 -0.8186  0.6638
   51TMC2    O5  804   0.205   0.632   1.414 -0.0784  0.2493  0.9791
   51TMC2    H5  805   0.284   0.577   1.396 -0.0501  0.0544  1.6789
   52MPD2     C  806   0.799   0.161   1.443 -0.0717  0.5963  0.1517
   52MPD2    C1  807   0.855   0.253   1.356 -0.9707  0.5527  0.0701
   52MPD2    C2  808   0.815   0.385   1.364 -0.2381  0.3014 -0.9996
   52MPD2    C3  809   0.719   0.431   1.454 -0.2564 -0.5261  0.5323
   52MPD2    C4  810   0.662   0.332   1.531 -0.2358  0.6010  0.1636
   52MPD2    C5  811   0.696   0.200   1.524 -0.6084 -0.1161  0.5609
   52MPD2     H  812   0.869   0.452   1.298  0.3849 -0.8732 -1.6804
   52MPD2    H1  813   0.576   0.351   1.594 -0.4367  0.9233 -0.2099
   52MPD2    H2  814   0.822   0.056   1.428  0.2074  0.3469  2.2273
   52MPD2    H3  815   0.644   0.126   1.584 -0.1078 -0.4035  0.6385
   52MPD2     N  816   0.665   0.560   1.453  0.4843  0.0730 -0.0751
   52MPD2    H5  817   0.591   0.573   1.522 -0.3814  0.4833 -1.0788
   52MPD2    N1  818   0.956   0.230   1.261 -0.2782 -0.4638 -0.0263
   52MPD2    H7  819   0.997   0.308   1.211 -1.0822  0.6140  1.0124
   53TMC2    C1  820   4.261   4.536  10.887  0.6237  0.3303  0.5491
   53TMC2    C2  821   4.125   4.522  10.861 -0.2752  0.9133  0.5005
   53TMC2    C3  822   4.043   4.565  10.968  0.1185  0.7393 -0.5900
   53TMC2    C4  823   4.310   4.601  11.002  0.1760  0.4739  0.4737
   53TMC2    C5  824   4.220   4.658  11.090 -0.4048 -0.1157 -0.2754
   53TMC2    C6  825   4.080   4.638  11.081 -0.3990  0.7085 -0.3599
   53TMC2     C  826   4.344   4.421  10.844  0.8723  0.5464 -0.1299
   53TMC2     O  827   4.333   4.358  10.741 -0.4133 -0.4014  0.4363
   53TMC2     H  828   4.084   4.463  10.779 -4.0793  0.5323  2.6720
   53TMC2    H1  829   4.416   4.625  11.011 -0.0925  1.9069 -0.1661
   53TMC2    H2  830   4.008   4.657  11.160 -0.5420  1.2771 -0.6294
   53TMC2    C7  831   4.266   4.677  11.228  0.9806  0.1197 -0.2394
   53TMC2    C8  832   3.901   4.517  10.978 -0.2949 -0.3139 -0.1781
   53TMC2    O1  833   4.180   4.682  11.316 -0.0688 -0.1482  0.1214
   53TMC2    O2  834   3.850   4.516  11.089  1.0914 -0.2560  0.2466
   53TMC2    O5  835   3.850   4.586  10.877  0.2854  0.1863  0.7185
   53TMC2    H5  836   3.918   4.622  10.815  0.1147 -0.0821  0.3779
   54MPD2     C  837   4.542   4.201  10.895 -0.5887 -0.6292  0.1188
   54MPD2    C1  838   4.472   4.267  10.990  0.0124 -0.0118 -0.2599
   54MPD2    C2  839   4.494   4.247  11.126 -0.7180 -0.2879 -0.4184
   54MPD2    C3  840   4.604   4.172  11.165  0.0226  1.2944 -0.5401
   54MPD2    C4  841   4.670   4.101  11.068 -0.5158 -0.0320  0.2017
   54MPD2    C5  842   4.644   4.124  10.936 -0.1504 -0.7397 -0.7711
   54MPD2     H  843   4.437   4.301  11.200  0.1098 -0.8624  0.6366
   54MPD2    H1  844   0.018   4.041  11.096  1.3233  2.9203  0.9137
   54MPD2    H2  845   4.531   4.199  10.787 -2.3702 -1.2661  0.3145
   54MPD2    H3  846   4.718   4.078  10.871  0.7479 -0.0753 -0.2142
   54MPD2     N  847   4.642   4.152  11.301  0.0879 -0.0437 -0.7480
   54MPD2    H5  848   4.734   4.112  11.317 -0.1314  0.4402  1.7122
   54MPD2    N1  849   4.379   4.365  10.962 -0.1950 -0.4955  0.1517
   54MPD2    H7  850   4.334   4.412  11.041  0.5060 -2.2596  1.5826
   55TMC2    C1  851   1.803   2.155  17.520  0.2564  0.1265 -0.4083
   55TMC2    C2  852   1.797   2.110  17.396 -0.0481 -0.7880  0.5520
   55TMC2    C3  853   1.814   1.977  17.369  0.2201 -0.1865  0.3801
   55TMC2    C4  854   1.810   2.064  17.623 -0.5140  0.0992 -0.2878
   55TMC2    C5  855   1.811   1.930  17.592 -0.2467  0.7763 -0.0817
   55TMC2    C6  856   1.823   1.882  17.464  0.4922  0.6487  0.2081
   55TMC2     C  857   1.744   2.281  17.559  0.6913 -0.3238 -0.1209
   55TMC2     O  858   1.706   2.293  17.677 -0.6613  0.7444 -0.0498
   55TMC2     H  859   1.788   2.180  17.314  0.1463 -1.3751  0.0259
   55TMC2    H1  860   1.842   2.092  17.722  1.1579 -0.6871 -0.6109
   55TMC2    H2  861   1.836   1.778  17.436 -0.3405  0.8481 -0.9222
   55TMC2    C7  862   1.840   1.831  17.701 -0.0784 -0.6333 -0.5767
   55TMC2    C8  863   1.804   1.940  17.225 -0.3406 -0.1927  0.1038
   55TMC2    O1  864   1.880   1.723  17.668 -0.2001 -0.3447  0.3045
   55TMC2    O2  865   1.860   1.847  17.174  0.1868  0.0612  0.2155
   55TMC2    O5  866   1.688   1.994  17.185  0.2950  0.1336  0.5150
   55TMC2    H5  867   1.648   2.062  17.244 -1.7810  0.4023 -1.2274
   56MPD2     C  868   1.663   2.561  17.322 -0.1703  0.4166 -0.7306
   56MPD2    C1  869   1.671   2.492  17.448  0.0713 -0.7853 -0.0394
   56MPD2    C2  870   1.604   2.540  17.562 -0.6888  0.4789  0.0959
   56MPD2    C3  871   1.542   2.658  17.563 -0.7639 -0.3271 -0.0559
   56MPD2    C4  872   1.539   2.729  17.446  0.7226 -0.3288 -0.5971
   56MPD2    C5  873   1.595   2.681  17.329 -0.2460  0.2316 -0.2359
   56MPD2     H  874   1.598   2.481  17.652 -0.6055  1.6659  0.8826
   56MPD2    H1  875   1.506   2.830  17.425 -1.9781 -0.6522  2.1346
   56MPD2    H2  876   1.703   2.519  17.231 -0.4554 -1.2400 -0.0971
   56MPD2    H3  877   1.586   2.725  17.231 -2.1956 -1.3583 -0.7558
   56MPD2     N  878   1.478   2.710  17.676 -0.5207 -0.5834  0.3813
   56MPD2    H5  879   1.469   2.655   0.011  1.7062 -2.6437 -0.7290
   56MPD2    N1  880   1.737   2.373  17.447 -0.0597  0.3234 -0.5019
   56MPD2    H7  881   1.781   2.346  17.359 -0.6594 -3.1042  0.2312
   57TMC2    C1  882   0.255   3.390  13.018 -0.1295  0.3699 -0.0609
   57TMC2    C2  883   0.201   3.517  13.011  0.3967  0.5980 -0.9519
   57TMC2    C3  884   0.285   3.624  12.978  0.0802  0.1125  0.6780
   57TMC2    C4  885   0.396   3.376  13.006 -0.3390  0.3939 -0.1551
   57TMC2    C5  886   0.477   3.483  12.998 -0.2686 -0.7525 -0.9013
   57TMC2    C6  887   0.423   3.607  12.978  0.3432  0.0577  0.0533
   57TMC2     C  888   0.170   3.287  13.083  0.2224  0.9070 -0.0456
   57TMC2     O  889   0.056   3.325  13.112 -0.1042 -0.4440  0.0051
   57TMC2     H  890   0.094   3.530  13.021  0.2150  0.3677 -2.5996
   57TMC2    H1  891   0.433   3.279  13.037 -0.3954  0.4539  0.1064
   57TMC2    H2  892   0.495   3.688  12.971 -1.2289  1.6810  2.7782
   57TMC2    C7  893   0.620   3.469  12.980  0.2475  0.1154 -0.5091
   57TMC2    C8  894   0.227   3.758  12.962  0.3661 -0.0594 -0.4164
   57TMC2    O1  895   0.687   3.566  12.955  0.7070  0.3532  0.5933
   57TMC2    O2  896   0.290   3.860  12.962  0.2339 -0.1247  0.4201
   57TMC2    O5  897   0.131   3.731  12.867 -0.3221  0.1237  0.1275
   57TMC2    H5  898   0.111   3.636  12.853  2.2290 -0.4418  0.3415
   58MPD2     C  899   0.062   2.834  13.288 -0.4071 -0.6407  0.0397
   58MPD2    C1  900   0.012   2.964  13.311  0.0783 -0.4795  0.3639
   58MPD2    C2  901   0.067   3.068  13.242 -0.8609  0.4572 -0.2941
   58MPD2    C3  902   0.164   3.050  13.143 -0.1730  0.1824 -0.1811
   58MPD2    C4  903   0.208   2.920  13.114 -0.1284  0.1846 -0.2484
   58MPD2    C5  904   0.163   2.817  13.200 -0.1889 -0.1450 -0.1952
   58MPD2     H  905   0.037   3.165  13.280  1.6404  0.9245  0.4170
   58MPD2    H1  906   0.288   2.891  13.047  1.4183 -0.3341  1.8072
   58MPD2    H2  907   0.035   2.748  13.348  0.3912 -0.8135  0.1506
   58MPD2    H3  908   0.189   2.715  13.174 -0.2388  0.2846 -1.9013
   58MPD2     N  909   0.221   3.160  13.084 -0.2312 -0.7899  0.3485
   58MPD2    H5  910   0.307   3.139  13.035 -0.0195 -1.0634  0.8389
   58MPD2    N1  911   4.657   2.999  13.410  0.5003 -0.1724  0.0604
   58MPD2    H7  912   4.623   3.093  13.425 -2.0352 -0.7632 -1.9679
   59TMC2    C1  913   2.855   3.475  12.583  0.3580 -1.3806 -0.1786
   59TMC2    C2  914   2.826   3.355  12.642 -1.2039 -0.3403 -1.1633
   59TMC2    C3  915   2.788   3.254  12.565 -0.0633 -0.8586 -0.3423
   59TMC2    C4  916   2.840   3.497  12.448  0.0533  0.3233 -0.3858
   59TMC2    C5  917   2.806   3.389  12.371  0.5780 -0.4119 -0.1847
   59TMC2    C6  918   2.774   3.268  12.427 -0.3160  0.0994  0.1938
   59TMC2     C  919   2.868   3.595  12.664  0.4361 -0.1066  0.5923
   59TMC2     O  920   2.844   3.707  12.625 -0.0889  0.5279 -0.0807
   59TMC2     H  921   2.838   3.333  12.747 -1.0822 -0.7937 -1.2667
   59TMC2    H1  922   2.868   3.592  12.403 -1.0473  0.1401 -1.4501
   59TMC2    H2  923   2.736   3.192  12.360  0.3236  0.1794 -0.2517
   59TMC2    C7  924   2.810   3.390  12.225  0.6101 -0.0466 -0.2979
   59TMC2    C8  925   2.749   3.132  12.643 -0.4472 -0.5717  0.5347
   59TMC2    O1  926   2.818   3.276  12.171 -0.3108  0.2872  0.3960
   59TMC2    O2  927   2.757   3.120  12.763  0.3669  0.3567 -0.4306
   59TMC2    O5  928   2.666   3.058  12.566 -0.0773 -0.1928 -0.1476
   59TMC2    H5  929   2.673   3.073  12.470 -1.8499  0.0767 -0.2465
   60MPD2     C  930   2.902   3.783  12.902  0.3469 -0.1249 -0.1396
   60MPD2    C1  931   2.960   3.659  12.887  0.9165  0.2318 -1.0015
   60MPD2    C2  932   3.061   3.629  12.977 -0.0841  0.2036  0.0902
   60MPD2    C3  933   3.112   3.717  13.068  0.1764 -0.2792  0.1374
   60MPD2    C4  934   3.053   3.839  13.084  0.0600  0.7150 -0.7016
   60MPD2    C5  935   2.953   3.871  12.995 -0.4380 -0.0255 -0.3078
   60MPD2     H  936   3.101   3.529  12.964 -0.5477 -0.0714  0.8237
   60MPD2    H1  937   3.086   3.911  13.158 -2.1922  0.1079  0.8888
   60MPD2    H2  938   2.813   3.821  12.853 -0.7062 -0.9713  1.1422
   60MPD2    H3  939   2.903   3.967  12.995  0.2672  0.3435  0.7935
   60MPD2     N  940   3.229   3.698  13.144  0.6811  0.1394 -0.2396
   60MPD2    H5  941   3.247   3.766  13.217 -2.4939 -1.1074  1.7312
   60MPD2    N1  942   2.924   3.562  12.783  0.2993 -0.3009 -0.2116
   60MPD2    H7  943   2.970   3.472  12.788 -0.1562 -0.3911  2.2885
   61TMC2    C1  944   2.189   4.643  15.800  0.5549 -0.1612  0.0303
   61TMC2    C2  945   2.143   4.621  15.928 -0.1196  0.0212  0.9276
   61TMC2    C3  946   2.082   4.729  15.982  0.6570 -0.2666  0.2588
   61TMC2    C4  947   2.170   0.023  15.735 -0.1417 -0.1526  0.1237
   61TMC2    C5  948   2.092   0.121  15.796  0.4370 -0.0894  0.5201
   61TMC2    C6  949   2.046   0.107  15.921 -0.1290  0.9136  0.4933
   61TMC2     C  950   2.276   4.545  15.750  0.5361  0.0768  0.3186
   61TMC2     O  951   2.275   4.434  15.812 -0.2302 -0.3206  0.3381
   61TMC2     H  952   2.165   4.537  15.992 -0.2291 -1.5784 -1.1333
   61TMC2    H1  953   2.217   0.043  15.640  1.1182 -0.1747  0.7484
   61TMC2    H2  954   1.978   0.178  15.967  0.6770  1.1216  1.3431
   61TMC2    C7  955   2.096   0.253  15.739 -0.0059  0.5282  0.1500
   61TMC2    C8  956   2.047   4.709  16.127 -0.5978 -0.1132  0.2640
   61TMC2    O1  957   2.114   0.262  15.619 -0.7245 -0.8621 -0.1165
   61TMC2    O2  958   2.061   4.598  16.179 -0.0607 -0.1296  0.3110
   61TMC2    O5  959   1.943   0.053  16.159 -0.9470 -0.2768 -0.3237
   61TMC2    H5  960   1.949   0.146  16.128  1.2789 -0.5227 -0.6369
   62MPD2     C  961   2.479   4.374  15.629  0.5086  1.0188 -0.1297
   62MPD2    C1  962   2.457   4.500  15.583 -0.4714  0.4528  0.1276
   62MPD2    C2  963   2.533   4.551  15.478 -0.2380 -0.5319 -0.0614
   62MPD2    C3  964   2.619   4.473  15.407  0.4443 -0.2783 -0.4430
   62MPD2    C4  965   2.631   4.345  15.443  0.0384  0.0040  0.6371
   62MPD2    C5  966   2.578   4.299  15.562 -0.0521 -0.0813  0.3147
   62MPD2     H  967   2.533   4.657  15.453 -2.7218 -0.1850  1.4197
   62MPD2    H1  968   2.712   4.291  15.395  1.0974 -0.4364  2.8962
   62MPD2    H2  969   2.425   4.333  15.714  2.3010 -0.3545  0.3536
   62MPD2    H3  970   2.615   4.203  15.597  1.7179  0.5272  0.0840
   62MPD2     N  971   2.692   4.522  15.292  0.2713  0.1384 -0.1527
   62MPD2    H5  972   2.739   4.456  15.232  2.4520  2.5252 -1.0601
   62MPD2    N1  973   2.353   4.580  15.645  0.4011  0.3077  0.4316
   62MPD2    H7  974   2.339   4.671  15.603 -3.4686 -0.1457  0.7078
   63TMC2    C1  975   1.346   4.667  10.664  0.2164 -0.1863  0.2354
   63TMC2    C2  976   1.346   4.687  10.799  0.2645  0.1030 -0.3925
   63TMC2    C3  977   1.429   0.037  10.858 -0.2998  0.0947 -0.6476
   63TMC2    C4  978   1.422   0.012  10.583 -0.1442 -1.2580  0.3790
   63TMC2    C5  979   1.510   0.100  10.641 -1.1700  0.8719  0.3292
   63TMC2    C6  980   1.520   0.111  10.780  0.4981  0.0782  0.4867
   63TMC2     C  981   1.253   4.585  10.597 -0.2392 -0.2950 -0.4836
   63TMC2     O  982   1.257   4.591  10.475 -0.0791  0.0989  0.9638
   63TMC2     H  983   1.278   4.633  10.864 -0.0498  0.6968 -0.2273
   63TMC2    H1  984   1.419   4.736  10.476  0.2648 -2.3233  0.5118
   63TMC2    H2  985   1.592   0.177  10.826 -0.8257  1.8612  0.0199
   63TMC2    C7  986   1.592   0.182  10.555  0.1842 -0.0219  0.5146
   63TMC2    C8  987   1.430   0.044  11.007  0.0505  0.5210  0.0511
   63TMC2    O1  988   1.571   0.168  10.435  0.0428 -0.2887 -1.2409
   63TMC2    O2  989   1.418   4.684  11.081 -0.0528 -0.7059 -0.7769
   63TMC2    O5  990   1.436   0.174  11.043  0.1120  0.0843  0.2073
   63TMC2    H5  991   1.426   0.224  10.960  2.3935  0.3593  0.0875
   64MPD2     C  992   0.997   4.166  10.493  0.3196 -0.3468 -0.4942
   64MPD2    C1  993   1.051   4.152  10.621 -0.1983  0.2371 -0.1802
   64MPD2    C2  994   1.104   4.265  10.684  0.0878 -0.5848 -0.2727
   64MPD2    C3  995   1.123   4.385  10.615 -1.0614  0.3293  0.0663
   64MPD2    C4  996   1.056   4.400  10.497 -0.1075 -0.1861  0.6484
   64MPD2    C5  997   0.990   4.293  10.441 -0.0177  0.3385 -0.0007
   64MPD2     H  998   1.153   4.236  10.776 -2.8983  0.4265  1.6095
   64MPD2    H1  999   1.044   4.493  10.442  0.4166 -0.4950  0.0183
   64MPD2    H2 1000   0.949   4.089  10.433  0.6315 -1.2999  0.4716
   64MPD2    H3 1001   0.953   4.303  10.339  2.4516 -0.3996 -0.9614
   64MPD2     N 1002   1.202   4.487  10.674  0.8343  0.3558 -0.0585
   64MPD2    H5 1003   1.237   4.483  10.768  1.1839  0.4392 -0.1863
   64MPD2    N1 1004   1.083   4.035  10.685  0.0268  0.2615 -0.1937
   64MPD2    H7 1005   1.138   4.043  10.770  0.6282  2.0051 -0.7563
   65TMC2    C1 1006   3.329   4.312  15.629 -0.1494  0.0728 -0.3041
   65TMC2    C2 1007   3.405   4.274  15.734 -0.1794  0.0600 -0.3164
   65TMC2    C3 1008   3.421   4.358  15.833  0.3774  0.3989  0.3544
   65TMC2    C4 1009   3.284   4.444  15.613  0.0246 -0.1465  0.1690
   65TMC2    C5 1010   3.304   4.523  15.719 -0.1604 -0.7966  0.0866
   65TMC2    C6 1011   3.373   4.490  15.835  0.4722  0.2213 -0.2284
   65TMC2     C 1012   3.329   4.224  15.520 -0.6960 -0.2278  0.2691
   65TMC2     O 1013   3.419   4.139  15.521  0.0682  0.4766 -0.0501
   65TMC2     H 1014   3.447   4.175  15.746 -0.2828  0.2078  1.2770
   65TMC2    H1 1015   3.230   4.482  15.527 -0.6503 -0.5494  0.4158
   65TMC2    H2 1016   3.358   4.544  15.928 -0.5466 -0.2769 -0.0945
   65TMC2    C7 1017   3.246   4.654  15.718  0.3458 -0.0377 -0.2603
   65TMC2    C8 1018   3.465   4.295  15.958  0.7419 -0.5300 -0.1076
   65TMC2    O1 1019   3.258   4.719  15.613 -0.3774  0.9340 -0.6576
   65TMC2    O2 1020   3.463   4.173  15.981  0.0222 -0.2108  0.0618
   65TMC2    O5 1021   3.554   4.377  16.012 -0.1756  0.0544 -0.4445
   65TMC2    H5 1022   3.567   4.465  15.971  0.1270  0.5632  0.7366
   66MPD2     C 1023   3.262   4.016  15.315  0.2689 -0.2162 -0.2727
   66MPD2    C1 1024   3.185   4.131  15.350 -0.2176 -0.2860  0.0349
   66MPD2    C2 1025   3.064   4.135  15.291  0.0301  0.1027 -0.7147
   66MPD2    C3 1026   3.018   4.034  15.205  0.3861 -0.1625 -1.0145
   66MPD2    C4 1027   3.100   3.926  15.169 -0.2734  0.0408  0.7572
   66MPD2    C5 1028   3.224   3.929  15.221 -0.6381  0.0565 -0.0485
   66MPD2     H 1029   3.010   4.225  15.318 -1.5087 -1.2936  0.8142
   66MPD2    H1 1030   3.065   3.841  15.111 -1.1616  0.5628  0.5363
   66MPD2    H2 1031   3.359   3.992  15.357  1.2345  0.0531 -2.3437
   66MPD2    H3 1032   3.304   3.871  15.176  0.8638  0.4695  2.1068
   66MPD2     N 1033   2.891   4.030  15.160  0.2096  0.1806 -0.5034
   66MPD2    H5 1034   2.870   3.938  15.122  2.3139  0.1944 -1.7441
   66MPD2    N1 1035   3.223   4.238  15.436 -0.4363  0.1924  0.3069
   66MPD2    H7 1036   3.151   4.300  15.472 -1.7630 -0.4968 -1.2194
   67TMC2    C1 1037   3.188   3.703  14.320 -0.0300 -0.1539  0.3923
   67TMC2    C2 1038   3.152   3.837  14.353 -0.6808 -0.4874 -0.5284
   67TMC2    C3 1039   3.225   3.883  14.459 -0.5087  0.3872  0.3457
   67TMC2    C4 1040   3.281   3.632  14.390  0.3265  0.3319  0.6472
   67TMC2    C5 1041   3.347   3.687  14.494  0.5731 -0.1345  1.0168
   67TMC2    C6 1042   3.320   3.813  14.528 -0.3869  0.4109  0.4401
   67TMC2     C 1043   3.131   3.638  14.197 -0.2988  0.1021  0.0857
   67TMC2     O 1044   3.156   3.518  14.185 -0.2949  0.0977  0.1835
   67TMC2     H 1045   3.076   3.882  14.291 -1.2946  1.0249  1.3266
   67TMC2    H1 1046   3.298   3.526  14.377  0.9106  0.2858  1.7595
   67TMC2    H2 1047   3.369   3.867  14.608 -1.3800  0.0963  1.2526
   67TMC2    C7 1048   3.440   3.606  14.570  0.5967 -0.6611  0.0438
   67TMC2    C8 1049   3.204   4.023  14.504 -0.8427 -0.5487 -0.3025
   67TMC2    O1 1050   3.503   3.520  14.512 -0.4870 -0.0338 -0.1929
   67TMC2    O2 1051   3.274   4.077  14.587 -0.7066 -0.1150 -0.0126
   67TMC2    O5 1052   3.101   4.083  14.433  0.2279  0.0067  0.1902
   67TMC2    H5 1053   3.062   4.040  14.353 -0.8406 -0.2895  0.8720
   68MPD2     C 1054   2.975   3.580  13.957 -0.8730  0.0951  0.4701
   68MPD2    C1 1055   2.997   3.716  14.001 -0.3655 -0.6671 -0.1219
   68MPD2    C2 1056   2.937   3.819  13.931  0.0910 -0.2835  0.3185
   68MPD2    C3 1057   2.865   3.795  13.815  0.4025 -0.1692 -0.0701
   68MPD2    C4 1058   2.858   3.669  13.769  0.9426  0.3574  0.4455
   68MPD2    C5 1059   2.915   3.561  13.836  0.1793 -0.0723 -0.0622
   68MPD2     H 1060   2.947   3.919  13.971 -2.7355  0.7778 -1.5758
   68MPD2    H1 1061   2.799   3.643  13.681  0.8445 -0.5289  0.7716
   68MPD2    H2 1062   3.011   3.498  14.018  0.5875 -0.7375 -1.5198
   68MPD2    H3 1063   2.904   3.459  13.801  1.5316  0.6213 -2.5120
   68MPD2     N 1064   2.800   3.896  13.739 -0.6282 -0.2059  0.1613
   68MPD2    H5 1065   2.747   3.865  13.658 -0.4605  0.4157 -0.1864
   68MPD2    N1 1066   3.073   3.738  14.113 -0.5063 -0.1216 -0.7009
   68MPD2    H7 1067   3.092   3.837  14.127 -1.7078  0.0630 -0.3214
   69TMC2    C1 1068   0.198   0.030  11.933 -0.1064  0.2731 -0.3222
   69TMC2    C2 1069   0.095   0.082  11.865 -0.4816  0.0236 -1.0377
   69TMC2    C3 1070   0.121   0.151  11.752  0.3031  0.1325  0.0458
   69TMC2    C4 1071   0.326   0.048  11.896 -0.4233 -0.2881 -0.5143
   69TMC2    C5 1072   0.346   0.101  11.775 -0.0948  0.2451  0.0506
   69TMC2    C6 1073   0.250   0.160  11.702  0.2400  0.0848 -0.0239
   69TMC2     C 1074   0.180   4.715  12.065 -0.7029  0.1561  0.0288
   69TMC2     O 1075   0.271   4.643  12.101 -0.4253 -0.0030 -0.3194
   69TMC2     H 1076   4.731   0.083  11.901 -0.6563  0.6112 -1.5734
   69TMC2    H1 1077   0.403   0.019  11.967  0.0891 -1.6865 -1.6531
   69TMC2    H2 1078   0.282   0.211  11.612  0.2142  1.2293  0.6184
   69TMC2    C7 1079   0.467   0.052  11.709  0.8925  0.6469 -0.7187
   69TMC2    C8 1080   0.022   0.245  11.701  0.0651 -0.0489 -0.1983
   69TMC2    O1 1081   0.559   0.031  11.785 -0.2687  1.0149 -0.1952
   69TMC2    O2 1082   4.667   0.265  11.779  0.0227 -0.1745 -0.0131
   69TMC2    O5 1083   0.008   0.218  11.572 -0.4714  0.6025 -0.9998
   69TMC2    H5 1084   0.074   0.153  11.537 -0.5160 -0.1549  0.3178
   70MPD2     C 1085   4.633   0.038  12.284 -1.2999  0.1758  0.2166
   70MPD2    C1 1086   0.015   4.718  12.247 -0.0187 -0.4712  0.1517
   70MPD2    C2 1087   0.072   4.625  12.335 -0.1696  0.1302  0.5694
   70MPD2    C3 1088   0.012   4.596  12.459 -0.0766  0.2547 -0.2401
   70MPD2    C4 1089   4.626   4.651  12.488  0.3551  0.3388  0.1875
   70MPD2    C5 1090   4.573   0.007  12.401  0.4874  0.7683  0.6256
   70MPD2     H 1091   0.163   4.575  12.302  0.2050  1.8565 -1.0723
   70MPD2    H1 1092   4.580   4.619  12.580  0.9172 -0.9375  0.0276
   70MPD2    H2 1093   4.583   0.110  12.220 -0.6471  0.5457  0.1247
   70MPD2    H3 1094   4.481   0.057  12.429  0.5046  1.1340  0.0399
   70MPD2     N 1095   0.064   4.502  12.554 -0.8731 -0.5757 -0.6027
   70MPD2    H5 1096   0.005   4.488  12.635 -0.8140  1.4102 -0.2231
   70MPD2    N1 1097   0.057   0.009  12.115  0.3044 -0.5301 -0.7939
   70MPD2    H7 1098   0.007   0.081  12.064  0.7228 -0.5617 -1.2521
   71TMC2    C1 1099   2.666   4.118   1.694  0.0545  0.8929  0.4057
   71TMC2    C2 1100   2.724   4.026   1.782  0.6726 -0.1985  0.4435
   71TMC2    C3 1101   2.652   3.913   1.819  0.0695  0.4610  0.2921
   71TMC2    C4 1102   2.546   4.080   1.632 -1.1802 -0.3088  0.3344
   71TMC2    C5 1103   2.482   3.977   1.677 -0.0838 -0.2269  0.7657
   71TMC2    C6 1104   2.533   3.881   1.763 -0.2554  0.3315  0.4732
   71TMC2     C 1105   2.751   4.214   1.629 -0.4520  0.6247  0.4605
   71TMC2     O 1106   2.720   4.246   1.516  0.3642 -0.4523 -0.0100
   71TMC2     H 1107   2.827   4.035   1.815  0.8577  1.0041 -0.4803
   71TMC2    H1 1108   2.506   4.154   1.563 -2.5550  0.2487  1.7253
   71TMC2    H2 1109   2.479   3.790   1.783 -3.2166  2.3140  1.3321
   71TMC2    C7 1110   2.377   3.918   1.594  0.9753 -0.3853 -0.4701
   71TMC2    C8 1111   2.706   3.811   1.896  0.3394  0.1556  0.3958
   71TMC2    O1 1112   2.356   3.798   1.599 -0.3425 -0.2440  0.7625
   71TMC2    O2 1113   2.665   3.695   1.895  0.3680  0.3849  0.2793
   71TMC2    O5 1114   2.784   3.866   1.990  0.8118  0.1724 -0.0630
   71TMC2    H5 1115   2.768   3.963   1.986  0.6084  0.0088 -2.8368
   72MPD2     C 1116   3.179   4.492   1.587 -0.5717 -0.0407  0.3221
   72MPD2    C1 1117   3.078   4.471   1.499  0.1637  0.3534  0.0165
   72MPD2    C2 1118   2.962   4.402   1.541  0.2889  0.9217  0.0420
   72MPD2    C3 1119   2.957   4.346   1.665 -0.3293 -0.7505  0.6848
   72MPD2    C4 1120   3.062   4.368   1.749  0.4216 -0.0592 -0.8921
   72MPD2    C5 1121   3.174   4.442   1.711  0.1112 -0.5533  0.0378
   72MPD2     H 1122   2.890   4.384   1.461  0.0256  0.6882  0.3301
   72MPD2    H1 1123   3.062   4.341   1.854 -1.8818 -0.7700 -1.0597
   72MPD2    H2 1124   3.261   4.560   1.564 -0.1983 -0.1834  1.2451
   72MPD2    H3 1125   3.256   4.459   1.779 -0.6108 -0.1324  0.7993
   72MPD2     N 1126   2.854   4.261   1.714  1.2609 -0.1578  0.0144
   72MPD2    H5 1127   2.863   4.224   1.808 -1.4371 -1.8231 -0.3788
   72MPD2    N1 1128   3.062   4.546   1.378 -0.3256 -0.8411 -0.3569
   72MPD2    H7 1129   2.974   4.547   1.329  0.7979 -0.3128 -2.3715
   73TMC2    C1 1130   1.655   2.047  13.693  0.1306  0.1607  0.4232
   73TMC2    C2 1131   1.601   2.030  13.820 -0.0943  0.2038  0.7300
   73TMC2    C3 1132   1.675   1.953  13.909  0.4789 -1.0116 -0.6630
   73TMC2    C4 1133   1.768   1.976  13.659 -0.3460 -0.5501  0.2127
   73TMC2    C5 1134   1.836   1.910  13.751  0.0002  0.4263 -0.3720
   73TMC2    C6 1135   1.790   1.896  13.881  0.1188  0.2603 -0.2275
   73TMC2     C 1136   1.675   2.184  13.648 -0.1253 -0.2311  0.2744
   73TMC2     O 1137   1.793   2.205  13.624 -0.4498 -0.1211  0.0252
   73TMC2     H 1138   1.525   2.096  13.862 -0.7352  0.3813 -0.6956
   73TMC2    H1 1139   1.821   1.985  13.565  0.5492 -1.3766  0.6391
   73TMC2    H2 1140   1.857   1.849  13.954 -1.7763 -1.6976  0.2555
   73TMC2    C7 1141   1.984   1.927  13.741  0.4567  0.4260  0.3959
   73TMC2    C8 1142   1.601   1.941  14.040  0.1207  0.3813 -0.2246
   73TMC2    O1 1143   2.048   1.835  13.788 -0.9091  0.7044 -0.3001
   73TMC2    O2 1144   1.509   2.007  14.079  0.1895 -0.3977  0.1020
   73TMC2    O5 1145   1.621   1.817  14.089  0.4539  0.3965 -0.1016
   73TMC2    H5 1146   1.680   1.757  14.039 -1.6144 -1.8818  0.2291
   74MPD2     C 1147   1.552   2.678  13.623  0.5340  0.6238  0.0257
   74MPD2    C1 1148   1.674   2.615  13.644  0.2531 -0.3695 -0.4551
   74MPD2    C2 1149   1.672   2.481  13.670  0.2070  0.4435 -0.1477
   74MPD2    C3 1150   1.555   2.405  13.657  0.1325  0.3138  0.0404
   74MPD2    C4 1151   1.439   2.473  13.637  0.2584  0.8524  0.0797
   74MPD2    C5 1152   1.432   2.609  13.610 -0.3047  0.4662  0.4739
   74MPD2     H 1153   1.767   2.429  13.679  1.3093  1.9610 -2.9749
   74MPD2    H1 1154   1.347   2.420  13.614  0.3839  1.1378 -1.0771
   74MPD2    H2 1155   1.556   2.786  13.614 -0.6462  0.4810 -2.0786
   74MPD2    H3 1156   1.338   2.662  13.599 -1.0721 -1.7560 -3.7381
   74MPD2     N 1157   1.560   2.260  13.661 -0.2154 -0.7948 -0.0224
   74MPD2    H5 1158   1.470   2.212  13.657 -0.1904 -0.8984  0.6941
   74MPD2    N1 1159   1.792   2.700  13.636  0.0634 -0.2292  0.1663
   74MPD2    H7 1160   1.770   2.797  13.612 -0.6548 -0.8127 -1.5751
   75TMC2    C1 1161   2.702   4.105  13.691  0.1411 -0.3901 -0.6421
   75TMC2    C2 1162   2.728   4.225  13.637  0.2054 -0.1756  0.3473
   75TMC2    C3 1163   2.645   4.282  13.539 -0.4034  0.2297 -0.0554
   75TMC2    C4 1164   2.588   4.034  13.652  0.0811 -0.1278 -0.0611
   75TMC2    C5 1165   2.512   4.086  13.542 -0.5305 -0.3714  0.3243
   75TMC2    C6 1166   2.544   4.206  13.490 -0.8840 -0.5391 -0.4237
   75TMC2     C 1167   2.790   4.032  13.777  0.4382 -0.2787  0.6315
   75TMC2     O 1168   2.863   4.092  13.851  0.6850 -0.1510  0.2318
   75TMC2     H 1169   2.819   4.276  13.666  0.6311 -1.2143  0.8348
   75TMC2    H1 1170   2.557   3.945  13.705 -0.5520  0.7705  1.0816
   75TMC2    H2 1171   2.477   4.232  13.409 -1.5034 -0.7155  0.0282
   75TMC2    C7 1172   2.408   4.020  13.474 -0.0847  0.6804 -0.0791
   75TMC2    C8 1173   2.679   4.424  13.506 -0.0700 -0.8188  0.8689
   75TMC2    O1 1174   2.394   4.041  13.353  0.1136 -0.3335 -0.0318
   75TMC2    O2 1175   2.758   4.500  13.564  0.1410  0.1828  0.4920
   75TMC2    O5 1176   2.577   4.463  13.433 -0.0001  0.7226 -0.4383
   75TMC2    H5 1177   2.517   4.391  13.403 -1.6394  0.8394  2.5362
   76TMC2    C1 1178   1.772   3.677  11.952 -0.4263 -0.3281 -0.1787
   76TMC2    C2 1179   1.745   3.540  11.932 -0.0778 -0.7139  0.3206
   76TMC2    C3 1180   1.778   3.464  12.038 -0.1602 -0.2315  0.6100
   76TMC2    C4 1181   1.828   3.729  12.070 -0.2079 -0.1673  0.5943
   76TMC2    C5 1182   1.868   3.641  12.160 -0.6966  0.1291  0.1728
   76TMC2    C6 1183   1.849   3.506  12.142 -0.0623  0.0805  0.2074
   76TMC2     C 1184   1.698   3.775  11.866 -0.0549  0.4650  0.0161
   76TMC2     O 1185   1.592   3.741  11.810  0.2029 -0.6004  0.1403
   76TMC2     H 1186   1.710   3.498  11.839 -1.2991 -0.9097  0.8699
   76TMC2    H1 1187   1.839   3.835  12.092  0.8017  0.0663 -1.0757
   76TMC2    H2 1188   1.869   3.436  12.222  0.1175 -0.3164 -0.1860
   76TMC2    C7 1189   1.978   3.684  12.246 -0.1335  0.6241  1.0301
   76TMC2    C8 1190   1.724   3.329  12.038  0.3541  0.0156 -0.9303
   76TMC2    O1 1191   2.063   3.594  12.263 -0.3320 -0.1221  0.0249
   76TMC2    O2 1192   1.780   3.238  12.091 -0.3727  0.2025 -0.2477
   76TMC2    O5 1193   1.595   3.348  12.046 -0.8261 -0.4601 -0.3959
   76TMC2    H5 1194   1.561   3.435  12.017  0.4880  0.3223  0.3608
   77MPD2     C 1195   1.587   4.267  11.747 -0.4283 -0.2191 -0.4364
   77MPD2    C1 1196   1.508   4.158  11.755  0.3549 -0.1833  0.7865
   77MPD2    C2 1197   1.560   4.026  11.778 -0.2697  0.2144 -0.2267
   77MPD2    C3 1198   1.700   4.016  11.810  0.7786  0.0683 -0.1583
   77MPD2    C4 1199   1.775   4.129  11.807  0.2347 -0.5645  0.9193
   77MPD2    C5 1200   1.717   4.248  11.776  0.7013  0.3097  1.0105
   77MPD2     H 1201   1.491   3.943  11.790  0.0063  0.2374  1.5602
   77MPD2    H1 1202   1.883   4.124  11.816  0.2180 -2.2709  0.2508
   77MPD2    H2 1203   1.560   4.369  11.722 -0.8787  0.0417  1.1540
   77MPD2    H3 1204   1.789   4.329  11.767 -1.4665  2.1578  0.3394
   77MPD2     N 1205   1.764   3.898  11.850 -0.1488 -0.9703  0.3113
   77MPD2    H5 1206   1.860   3.907  11.883 -0.6105  2.9336  0.5131
   77MPD2    N1 1207   1.371   4.173  11.721  0.2229  0.2797 -0.0261
   77MPD2    H7 1208   1.312   4.092  11.703 -0.3754  0.6183  0.4199
   78TMC2    C1 1209   0.593   1.516   1.772 -0.0185  0.1163 -0.4550
   78TMC2    C2 1210   0.707   1.483   1.842  0.3588 -0.0234 -0.0030
   78TMC2    C3 1211   0.694   1.374   1.922  0.0699 -0.4095 -0.7250
   78TMC2    C4 1212   0.479   1.439   1.773 -0.0398  0.2279  0.1732
   78TMC2    C5 1213   0.476   1.326   1.857  0.7016 -0.1206 -0.8619
   78TMC2    C6 1214   0.584   1.289   1.937  0.0393  1.5433 -0.1872
   78TMC2     C 1215   0.599   1.643   1.703 -0.1452 -0.6051  0.4954
   78TMC2     O 1216   0.708   1.697   1.696 -0.2061 -0.0453  0.2778
   78TMC2     H 1217   0.799   1.540   1.848  0.9187 -0.9216 -0.0810
   78TMC2    H1 1218   0.390   1.465   1.717  0.8582 -0.7589 -1.7037
   78TMC2    H2 1219   0.581   1.200   1.999  0.7876 -0.1406 -2.5485
   78TMC2    C7 1220   0.374   1.218   1.834 -0.1064  0.5086  0.3210
   78TMC2    C8 1221   0.813   1.322   1.986  0.5213  0.0433  0.0787
   78TMC2    O1 1222   0.398   1.107   1.884  0.2183  0.2383 -0.4353
   78TMC2    O2 1223   0.916   1.315   1.927  0.7453 -0.0403 -0.4866
   78TMC2    O5 1224   0.801   1.359   2.113 -0.5788  0.0166  0.1075
   78TMC2    H5 1225   0.711   1.338   2.146  0.7251 -1.5609  2.6600
   79MPD1     C 1226   0.441   2.023   1.403  1.0883 -0.2100 -0.2621
   79MPD1    C1 1227   0.573   1.986   1.431 -0.1381 -0.3728  0.3215
   79MPD1    C2 1228   0.591   1.870   1.504  0.1811 -0.5413  0.8591
   79MPD1    C3 1229   0.481   1.803   1.557 -0.3876  0.3109 -0.2741
   79MPD1    C4 1230   0.354   1.851   1.540 -0.0300  0.0549 -0.0188
   79MPD1    C5 1231   0.331   1.960   1.461 -0.4038  0.3329  0.1746
   79MPD1     H 1232   0.692   1.830   1.506 -0.6450 -2.6572  0.4859
   79MPD1    H1 1233   0.275   1.797   1.591 -0.6568  2.6092  1.6743
   79MPD1    H2 1234   0.422   2.113   1.345  1.7445  0.9023  1.2250
   79MPD1    H3 1235   0.236   2.000   1.428 -1.1250 -0.1883  1.6284
   79MPD1     N 1236   0.482   1.689   1.637  0.4286  0.2012 -0.5315
   79MPD1    H5 1237   0.396   1.640   1.657  1.0814 -0.7717 -0.1146
   79MPD1    N1 1238   0.685   2.056   1.377 -0.4175 -0.4834  0.0921
   79MPD1    H6 1239   0.683   2.156   1.397  1.0671 -0.4644  0.1564
   79MPD1    H7 1240   0.777   2.030   1.412 -0.0818  0.3296 -0.1948
   80TMC2    C1 1241   0.759   4.093  11.447  0.4259  0.3426 -0.9415
   80TMC2    C2 1242   0.776   4.191  11.349  0.1172  0.3561  0.6298
   80TMC2    C3 1243   0.667   4.253  11.292 -0.7199 -0.1543  0.0627
   80TMC2    C4 1244   0.629   4.057  11.482  0.3664  0.2967  0.1040
   80TMC2    C5 1245   0.517   4.116  11.412  0.1537 -0.3807 -0.2078
   80TMC2    C6 1246   0.537   4.211  11.318 -0.1589 -0.1051 -0.5874
   80TMC2     C 1247   0.847   4.121  11.558 -0.0291  0.4759  0.2600
   80TMC2     O 1248   0.846   4.235  11.598  0.3160  0.4124 -0.3250
   80TMC2     H 1249   0.875   4.234  11.348  0.6088 -0.7719  0.3409
   80TMC2    H1 1250   0.607   3.982  11.556  0.4335 -0.5778 -0.7667
   80TMC2    H2 1251   0.452   4.257  11.269 -0.5451 -0.9602 -0.7087
   80TMC2    C7 1252   0.380   4.072  11.431  0.2485 -0.2465  0.0472
   80TMC2    C8 1253   0.695   4.328  11.178  0.2842  0.6412 -0.2423
   80TMC2    O1 1254   0.306   4.080  11.332 -0.5874  0.3671  0.2324
   80TMC2    O2 1255   0.808   4.373  11.160  0.0876 -0.5779 -0.0352
   80TMC2    O5 1256   0.631   4.270  11.081  0.8039  0.1434 -0.2996
   80TMC2    H5 1257   0.574   4.200  11.119 -0.9295  1.0064 -1.2941
   81MPD2     C 1258   1.021   3.893  11.782 -0.3704 -0.6457 -0.0172
   81MPD2    C1 1259   0.950   4.005  11.756 -0.3537 -0.4436 -0.6715
   81MPD2    C2 1260   0.950   4.115  11.844  0.0390 -0.1743 -0.0198
   81MPD2    C3 1261   1.009   4.096  11.972 -0.5347 -0.3501  0.5640
   81MPD2    C4 1262   1.076   3.974  12.002 -0.6166 -1.1875  0.2187
   81MPD2    C5 1263   1.069   3.877  11.908  0.7523  0.0480  0.2635
   81MPD2     H 1264   0.895   4.206  11.823 -2.2094 -1.5942 -0.2906
   81MPD2    H1 1265   1.130   3.957  12.095 -2.1303 -2.0866  0.9373
   81MPD2    H2 1266   1.029   3.812  11.710 -2.2680 -0.4451 -0.4700
   81MPD2    H3 1267   1.120   3.784  11.930 -1.0647 -0.8209  0.7263
   81MPD2     N 1268   1.007   4.205  12.065  0.0098  0.1041 -0.1215
   81MPD2    H5 1269   0.956   4.284  12.026  2.1244  1.2838 -0.4738
   81MPD2    N1 1270   0.890   4.009  11.627 -0.1306 -0.2136 -0.0144
   81MPD2    H7 1271   0.880   3.919  11.582 -0.1325 -0.5819  0.7229
   82TMC2    C1 1272   3.349   3.188  11.030  0.5336  0.6876 -0.6304
   82TMC2    C2 1273   3.452   3.266  11.063  0.7774  0.8660 -0.0198
   82TMC2    C3 1274   3.545   3.215  11.147  0.2886  0.2718  0.5057
   82TMC2    C4 1275   3.319   3.072  11.096 -0.0560  0.0815  0.1835
   82TMC2    C5 1276   3.411   3.026  11.191 -0.3070  0.5527 -0.2219
   82TMC2    C6 1277   3.524   3.102  11.222  0.5703 -0.4283 -0.0020
   82TMC2     C 1278   3.241   3.262  10.970  0.3008 -1.0005 -0.2069
   82TMC2     O 1279   3.130   3.243  11.017  0.3980  0.0313 -1.1331
   82TMC2     H 1280   3.466   3.367  11.026  0.0370 -0.0029 -2.6069
   82TMC2    H1 1281   3.227   3.018  11.076  0.6514 -0.2141 -2.3328
   82TMC2    H2 1282   3.577   3.065  11.309 -0.3594  2.2411  1.7076
   82TMC2    C7 1283   3.377   2.913  11.268  0.5841  0.4533  0.2254
   82TMC2    C8 1284   3.672   3.288  11.165  0.9418 -0.0001  0.0285
   82TMC2    O1 1285   3.395   2.912  11.390  0.0056 -0.2500 -0.1198
   82TMC2    O2 1286   3.689   3.402  11.136 -0.3998  0.6571  0.7910
   82TMC2    O5 1287   3.757   3.214  11.232  0.2041  0.2666 -0.5159
   82TMC2    H5 1288   3.739   3.117  11.238 -1.2892  0.5662 -0.1790
   83MPD2     C 1289   3.021   3.429  10.527 -0.2889 -0.2745 -0.5196
   83MPD2    C1 1290   2.957   3.377  10.635  0.1850  0.3696  0.1489
   83MPD2    C2 1291   3.043   3.336  10.745 -0.3671  0.7400 -0.0117
   83MPD2    C3 1292   3.183   3.367  10.751  0.0661 -1.1829  0.0627
   83MPD2    C4 1293   3.242   3.417  10.637 -0.4855 -0.1566 -0.7313
   83MPD2    C5 1294   3.157   3.452  10.535 -0.4677 -0.3403  0.0515
   83MPD2     H 1295   3.000   3.284  10.829 -0.7387 -0.8176 -1.1700
   83MPD2    H1 1296   3.349   3.431  10.627 -0.2056 -0.4732  1.8803
   83MPD2    H2 1297   2.965   3.444  10.436  0.3299 -0.1384 -0.8732
   83MPD2    H3 1298   3.190   3.463  10.432  1.2893 -1.4725  0.4919
   83MPD2     N 1299   3.276   3.325  10.854 -0.1659  0.0420  0.4076
   83MPD2    H5 1300   3.375   3.343  10.835 -0.4585  0.3761 -0.7974
   83MPD2    N1 1301   2.816   3.359  10.630 -0.0520  0.7743 -0.2744
   83MPD2    H7 1302   2.777   3.374  10.537 -0.7156 -1.4865 -0.3755
   84TMC2    C1 1303   3.986   2.809  10.964  0.1297  0.7045  0.1725
   84TMC2    C2 1304   3.891   2.912  10.948  0.4891 -0.0512  0.2018
   84TMC2    C3 1305   3.856   2.944  10.822  0.7376 -0.6199  0.6150
   84TMC2    C4 1306   4.010   2.719  10.863 -0.0049  0.0073 -0.1046
   84TMC2    C5 1307   3.958   2.742  10.736 -0.4746  0.4703 -0.0478
   84TMC2    C6 1308   3.892   2.861  10.715  0.0804  0.1071 -0.3291
   84TMC2     C 1309   4.017   2.770  11.098  0.1309  0.3097  0.4811
   84TMC2     O 1310   4.021   2.855  11.186  0.4372 -0.3375  0.3509
   84TMC2     H 1311   3.874   2.974  11.036 -0.1662 -1.2670  0.9276
   84TMC2    H1 1312   4.076   2.635  10.876 -0.2437 -0.1802 -0.1096
   84TMC2    H2 1313   3.877   2.885  10.610 -2.6554  0.3723  0.1351
   84TMC2    C7 1314   3.982   2.640  10.633  0.1509 -0.4776  0.2768
   84TMC2    C8 1315   3.775   3.063  10.789 -0.2530 -0.0802 -0.3469
   84TMC2    O1 1316   4.060   2.550  10.660  0.1076  0.2876 -0.0281
   84TMC2    O2 1317   3.711   3.076  10.684  0.1002 -0.0829  0.0736
   84TMC2    O5 1318   3.822   3.168  10.863 -0.1585 -0.1672  0.1623
   84TMC2    H5 1319   3.912   3.142  10.891 -0.7686 -0.8747  1.4539
   85TMC2    C1 1320   0.513   0.857  15.810  0.3726 -0.0369 -1.1185
   85TMC2    C2 1321   0.392   0.920  15.833  0.0622 -0.6228  0.6227
   85TMC2    C3 1322   0.347   1.010  15.738 -0.2539 -0.0305 -0.6095
   85TMC2    C4 1323   0.598   0.891  15.716 -0.3137 -0.4278  0.4555
   85TMC2    C5 1324   0.558   1.002  15.635  0.3345  0.0972 -0.8738
   85TMC2    C6 1325   0.428   1.051  15.643  0.0147  0.0699 -0.2545
   85TMC2     C 1326   0.563   0.756  15.897 -0.3998 -0.5523  0.6040
   85TMC2     O 1327   0.687   0.746  15.908 -0.0025  0.2577 -0.2294
   85TMC2     H 1328   0.332   0.912  15.923 -0.8519 -0.4153  0.0293
   85TMC2    H1 1329   0.688   0.835  15.694 -0.5354 -0.9719  0.9309
   85TMC2    H2 1330   0.415   1.145  15.589  1.9851  0.2834 -0.3613
   85TMC2    C7 1331   0.651   1.019  15.528 -0.5655  0.3759 -0.5355
   85TMC2    C8 1332   0.213   1.057  15.739 -0.3324  0.5970  0.3147
   85TMC2    O1 1333   0.745   0.940  15.524 -0.0405 -0.1053  0.1715
   85TMC2    O2 1334   0.123   1.052  15.821  0.2342 -0.3167 -0.2542
   85TMC2    O5 1335   0.180   1.075  15.613  0.3341 -1.1336  0.5169
   85TMC2    H5 1336   0.249   1.057  15.547  1.0133 -2.0289  1.4705
   86MPD2     C 1337   0.476   0.387  16.253 -0.0696  0.0446  0.6360
   86MPD2    C1 1338   0.383   0.375  16.153  0.1042 -0.1858 -0.5791
   86MPD2    C2 1339   0.395   0.461  16.047  0.3899 -0.3575 -0.4046
   86MPD2    C3 1340   0.490   0.560  16.034  0.2415  0.4387 -0.0479
   86MPD2    C4 1341   0.584   0.568  16.133 -0.2777  0.5382  0.4766
   86MPD2    C5 1342   0.569   0.492  16.247 -0.7705  0.4569 -0.5554
   86MPD2     H 1343   0.319   0.465  15.970 -0.3697  2.2351  0.4895
   86MPD2    H1 1344   0.664   0.641  16.126  0.4806 -0.3847 -0.3973
   86MPD2    H2 1345   0.484   0.307  16.327  0.8349 -2.0688 -1.7331
   86MPD2    H3 1346   0.641   0.498  16.328  0.6429  0.2090 -1.8104
   86MPD2     N 1347   0.468   0.661  15.937 -0.0646 -0.2915 -0.5139
   86MPD2    H5 1348   0.378   0.672  15.892  0.1782 -0.8987 -1.1629
   86MPD2    N1 1349   0.284   0.273  16.156 -0.1497  0.2660 -0.1471
   86MPD2    H7 1350   0.274   0.221  16.243  1.2488  3.0189  1.6382
   87TMC2    C1 1351   3.214   3.146   0.754  0.5520 -0.0755 -0.3459
   87TMC2    C2 1352   3.343   3.185   0.783 -0.0971 -0.6508  0.2164
   87TMC2    C3 1353   3.367   3.234   0.907  0.3218 -0.2434  0.1021
   87TMC2    C4 1354   3.109   3.165   0.850  0.3806 -0.9265 -0.4515
   87TMC2    C5 1355   3.139   3.213   0.979 -0.0221  0.1883  0.9071
   87TMC2    C6 1356   3.269   3.255   1.005 -0.7442 -0.3785 -0.9207
   87TMC2     C 1357   3.166   3.110   0.620 -0.3821  0.4216 -0.2806
   87TMC2     O 1358   3.051   3.084   0.604 -0.0404  0.8097 -0.4221
   87TMC2     H 1359   3.429   3.156   0.724  3.2508  0.6760  4.4172
   87TMC2    H1 1360   3.007   3.140   0.825  0.4318  1.0959 -2.7550
   87TMC2    H2 1361   3.283   3.316   1.093  1.5486  0.7578 -2.0545
   87TMC2    C7 1362   3.029   3.250   1.072  0.2431 -0.4530  0.4540
   87TMC2    C8 1363   3.510   3.250   0.944  0.3750  0.1352  0.1423
   87TMC2    O1 1364   3.072   3.299   1.176 -0.6467  0.0788 -0.1291
   87TMC2    O2 1365   3.593   3.300   0.865  0.1093  0.3046 -0.2836
   87TMC2    O5 1366   3.506   3.261   1.080  0.0848  0.2645 -0.2174
   87TMC2    H5 1367   3.437   3.201   1.116 -1.9537  0.6388 -3.4059
   88MPD2     C 1368   2.657   3.213   1.062  0.2495 -0.3599 -0.0317
   88MPD2    C1 1369   2.784   3.269   1.090  0.2261  0.0779 -0.1275
   88MPD2    C2 1370   2.781   3.379   1.177  0.1966  0.6225  0.2790
   88MPD2    C3 1371   2.664   3.438   1.225  0.2202  0.8799  0.4739
   88MPD2    C4 1372   2.543   3.394   1.181 -0.6024 -0.2805 -0.1824
   88MPD2    C5 1373   2.543   3.275   1.105  0.1666 -0.1165  0.7771
   88MPD2     H 1374   2.878   3.412   1.213  1.9323  0.2136 -4.0445
   88MPD2    H1 1375   2.450   3.440   1.212 -0.4579 -0.4917  0.5683
   88MPD2    H2 1376   2.651   3.121   1.005 -0.9258 -0.4190  0.1927
   88MPD2    H3 1377   2.446   3.228   1.092 -0.2306  1.2072 -0.9947
   88MPD2     N 1378   2.663   3.550   1.305  0.3540  0.2939 -0.3945
   88MPD2    H5 1379   2.576   3.588   1.341  0.3101  0.2621 -0.4671
   88MPD2    N1 1380   2.899   3.216   1.036 -0.6054 -0.4244 -0.1317
   88MPD2    H7 1381   2.880   3.144   0.966 -0.2615 -0.2345 -0.4212
   89TMC2    C1 1382   3.628   1.831   1.434  0.3048  0.3634  0.0524
   89TMC2    C2 1383   3.686   1.734   1.359 -0.0159 -0.3231  0.0565
   89TMC2    C3 1384   3.700   1.750   1.228  0.8509  0.6971  0.0622
   89TMC2    C4 1385   3.605   1.960   1.384 -0.3734  0.5228  0.0902
   89TMC2    C5 1386   3.613   1.972   1.250 -0.0957 -0.2277 -0.1582
   89TMC2    C6 1387   3.646   1.864   1.169  0.1431 -0.0794  0.5615
   89TMC2     C 1388   3.576   1.810   1.567 -0.1532 -0.2010  0.2861
   89TMC2     O 1389   3.573   1.905   1.644  0.3005 -0.1841  0.1588
   89TMC2     H 1390   3.730   1.656   1.419  1.8365 -0.7220 -1.8500
   89TMC2    H1 1391   3.552   2.029   1.448 -1.0983 -0.0930  0.1544
   89TMC2    H2 1392   3.644   1.885   1.063  0.3290  1.7261  0.9074
   89TMC2    C7 1393   3.581   2.102   1.195  0.3256 -0.1554 -0.5025
   89TMC2    C8 1394   3.711   1.633   1.151 -0.6994  0.3829 -0.4248
   89TMC2    O1 1395   3.523   2.183   1.268  0.0820 -0.7597  0.2511
   89TMC2    O2 1396   3.689   1.521   1.188  0.3200 -0.1932  0.4269
   89TMC2    O5 1397   3.802   1.660   1.064 -0.7823 -0.2023 -0.2832
   89TMC2    H5 1398   3.822   1.756   1.063 -1.7066 -0.0216 -0.8827
   90MPD2     C 1399   3.327   1.499   1.885  0.4735 -0.4805  0.0566
   90MPD2    C1 1400   3.408   1.423   1.806  0.1217 -0.2479  0.5363
   90MPD2    C2 1401   3.489   1.480   1.706  0.6551  0.1848 -0.5881
   90MPD2    C3 1402   3.487   1.621   1.694  0.2467 -0.2781 -0.0180
   90MPD2    C4 1403   3.412   1.691   1.781  0.2896 -0.4024  0.4507
   90MPD2    C5 1404   3.339   1.635   1.880  0.1346 -0.0784 -0.0023
   90MPD2     H 1405   3.562   1.424   1.648  0.1233 -1.6934  0.5706
   90MPD2    H1 1406   3.410   1.799   1.780  1.1120 -0.4067 -2.0174
   90MPD2    H2 1407   3.263   1.457   1.962  0.2110  2.2234  1.2882
   90MPD2    H3 1408   3.278   1.702   1.939  1.5919  0.8639  0.4231
   90MPD2     N 1409   3.553   1.673   1.588 -1.0302  0.3780  0.4380
   90MPD2    H5 1410   3.567   1.609   1.510 -0.1531  0.2486  0.6973
   90MPD2    N1 1411   3.406   1.281   1.808  0.4874 -0.1484  0.2981
   90MPD2    H7 1412   3.476   1.235   1.751  0.4851 -2.9409  2.5245
   91TMC2    C1 1413   0.401   1.107  16.353  0.2547 -0.5967  0.2847
   91TMC2    C2 1414   0.450   1.141  16.476  0.1742 -0.4375 -0.8369
   91TMC2    C3 1415   0.361   1.146  16.575  0.3422  0.1497  0.2681
   91TMC2    C4 1416   0.267   1.080  16.328 -0.8221  0.3077  0.0177
   91TMC2    C5 1417   0.182   1.098  16.432  0.4404  0.0686  0.2147
   91TMC2    C6 1418   0.228   1.122  16.556  0.7048 -0.9421  0.5293
   91TMC2     C 1419   0.489   1.089  16.240  0.3808  0.5683  0.1191
   91TMC2     O 1420   0.449   1.014  16.151 -0.1147 -0.3344  0.2208
   91TMC2     H 1421   0.556   1.160  16.487  0.0551 -0.7012  0.7988
   91TMC2    H1 1422   0.241   1.018  16.242  1.3578  0.7984 -0.9721
   91TMC2    H2 1423   0.165   1.132  16.644 -0.0338 -1.2414  0.0410
   91TMC2    C7 1424   0.057   1.031  16.424  0.2468 -0.1126 -0.4084
   91TMC2    C8 1425   0.414   1.201  16.697  0.2620 -0.9965  0.0653
   91TMC2    O1 1426   4.736   1.002  16.530 -0.4307  0.8371  0.5660
   91TMC2    O2 1427   0.370   1.150  16.797  0.5989 -0.0531  0.4099
   91TMC2    O5 1428   0.437   1.331  16.665 -0.4572  0.3753  0.1243
   91TMC2    H5 1429   0.450   1.344  16.569  1.2040 -0.7554  0.1967
   92MPD2     C 1430   0.703   1.115  16.023  0.3060  0.6046 -0.8676
   92MPD2    C1 1431   0.701   1.180  16.145 -0.3688  0.0467 -0.0184
   92MPD2    C2 1432   0.803   1.271  16.168 -0.2705  0.8036 -0.3522
   92MPD2    C3 1433   0.902   1.301  16.079  0.2191  0.4957  0.4543
   92MPD2    C4 1434   0.902   1.230  15.963 -0.0178  0.0160 -0.0994
   92MPD2    C5 1435   0.797   1.143  15.928 -0.0963  0.0062  0.2015
   92MPD2     H 1436   0.805   1.338  16.252 -0.8235  0.6930 -0.2447
   92MPD2    H1 1437   0.969   1.248  15.880  0.7009 -1.4803  0.1603
   92MPD2    H2 1438   0.621   1.045  16.005  0.6296 -0.1926  0.7423
   92MPD2    H3 1439   0.795   1.089  15.835  1.8575  0.3337 -0.0379
   92MPD2     N 1440   1.006   1.391  16.117 -0.0124  0.1652  0.8812
   92MPD2    H5 1441   1.012   1.414  16.216 -0.2592 -0.7443  1.1128
   92MPD2    N1 1442   0.600   1.174  16.241 -0.0307  0.5269 -0.6361
   92MPD2    H7 1443   0.602   1.225  16.328  0.6927  1.3952 -1.1677
   93TMC2    C1 1444   2.404   1.442  14.070  0.5065 -0.3015  0.2156
   93TMC2    C2 1445   2.328   1.484  14.177 -0.4028 -0.2255 -0.2087
   93TMC2    C3 1446   2.384   1.564  14.270 -0.3961  0.3030 -0.0972
   93TMC2    C4 1447   2.530   1.490  14.045  0.1409 -0.1436  0.4208
   93TMC2    C5 1448   2.573   1.583  14.138 -0.2383  0.1224  0.5905
   93TMC2    C6 1449   2.512   1.624  14.254  0.2541  0.6876  0.3209
   93TMC2     C 1450   2.344   1.354  13.970 -0.0900  0.0804  0.3818
   93TMC2     O 1451   2.413   1.332  13.875  0.2498 -0.0238 -0.2336
   93TMC2     H 1452   2.235   1.436  14.204 -1.1505  1.6008  0.4622
   93TMC2    H1 1453   2.572   1.476  13.946  0.8095 -0.3272  0.7336
   93TMC2    H2 1454   2.549   1.696  14.326 -1.2934 -0.2963  2.1187
   93TMC2    C7 1455   2.672   1.670  14.077 -0.7401  0.1692  0.1459
   93TMC2    C8 1456   2.296   1.594  14.385 -0.5861  0.3204 -0.6103
   93TMC2    O1 1457   2.760   1.615  14.011  0.2035 -0.3601 -0.8267
   93TMC2    O2 1458   2.177   1.598  14.377  0.1028  1.4234 -0.5472
   93TMC2    O5 1459   2.369   1.610  14.503  0.3672 -0.0916 -0.4857
   93TMC2    H5 1460   2.459   1.570  14.510  0.6718  0.4545 -1.3512
   94MPD2     C 1461   2.155   1.176  13.814 -0.6612 -0.2297  0.2563
   94MPD2    C1 1462   2.114   1.251  13.924  0.3322  0.4487  0.4346
   94MPD2    C2 1463   1.979   1.250  13.963 -0.0475 -0.2017 -0.1319
   94MPD2    C3 1464   1.890   1.176  13.885 -0.1481 -0.9084  0.4417
   94MPD2    C4 1465   1.935   1.095  13.779 -0.3795 -0.1679  0.1147
   94MPD2    C5 1466   2.065   1.098  13.747 -0.1480 -0.3543 -0.5387
   94MPD2     H 1467   1.939   1.313  14.041 -1.5259 -2.1659  0.6915
   94MPD2    H1 1468   1.861   1.034  13.728 -0.4557  1.4557 -1.7082
   94MPD2    H2 1469   2.252   1.183  13.767 -0.0385 -0.7203  1.4555
   94MPD2    H3 1470   2.100   1.036  13.665 -3.3845 -1.4331 -1.1388
   94MPD2     N 1471   1.747   1.180  13.906  0.2247 -0.5188  0.3112
   94MPD2    H5 1472   1.699   1.116  13.843 -2.0885  2.0066 -0.4931
   94MPD2    N1 1473   2.210   1.336  13.992 -0.3961 -0.0682  0.5275
   94MPD2    H7 1474   2.173   1.397  14.065  1.5779  2.2970 -0.4336
   95TMC2    C1 1475   2.321   0.265  15.168  0.0068 -0.5147  0.3786
   95TMC2    C2 1476   2.448   0.314  15.163  0.9923  0.0401 -0.1234
   95TMC2    C3 1477   2.466   0.442  15.139 -0.0958 -0.4322 -0.3650
   95TMC2    C4 1478   2.211   0.342  15.155  0.4398  0.3908  0.1002
   95TMC2    C5 1479   2.233   0.469  15.122 -0.5337  0.2222 -0.1314
   95TMC2    C6 1480   2.358   0.525  15.116  0.3943 -0.2809  0.4790
   95TMC2     C 1481   2.305   0.123  15.165  0.1315 -0.1625 -0.0292
   95TMC2     O 1482   2.390   0.060  15.108 -0.5307  0.3544  0.7591
   95TMC2     H 1483   2.521   0.235  15.180  0.2511 -0.7018 -0.3700
   95TMC2    H1 1484   2.112   0.298  15.154 -0.1564  1.6921  0.9133
   95TMC2    H2 1485   2.372   0.631  15.099 -0.2266 -0.6382 -2.2861
   95TMC2    C7 1486   2.122   0.559  15.101  0.6752  0.1406 -0.5804
   95TMC2    C8 1487   2.604   0.496  15.148 -0.3895 -0.6273  0.2788
   95TMC2    O1 1488   2.132   0.662  15.032 -0.4942 -0.0841 -0.3745
   95TMC2    O2 1489   2.633   0.605  15.094 -0.2130 -0.6396 -0.2792
   95TMC2    O5 1490   2.631   0.456  15.279  0.0092 -0.1062 -0.4839
   95TMC2    H5 1491   2.585   0.374  15.307  1.5738 -1.2645 -1.3017
   96MPD2     C 1492   2.134   4.453  15.426  0.1576  0.0687  0.2846
   96MPD2    C1 1493   2.231   4.462  15.325  0.2152  0.0028 -0.2688
   96MPD2    C2 1494   2.263   4.586  15.276 -0.1623 -0.2368 -1.3901
   96MPD2    C3 1495   2.187   4.693  15.309  0.6881 -0.3780  0.1924
   96MPD2    C4 1496   2.075   4.675  15.394  0.3444  0.1201 -0.6411
   96MPD2    C5 1497   2.055   4.555  15.460 -0.5047 -0.4466 -0.5608
   96MPD2     H 1498   2.355   4.596  15.221  0.1161  0.5434 -0.7823
   96MPD2    H1 1499   2.013   0.024  15.411 -2.4225 -2.0636  0.4510
   96MPD2    H2 1500   2.107   4.364  15.481 -1.7922 -0.8310 -2.1623
   96MPD2    H3 1501   1.971   4.553  15.529 -1.1205  1.1079 -1.2654
   96MPD2     N 1502   2.207   0.091  15.253 -0.1609  0.0134 -0.8563
   96MPD2    H5 1503   2.147   0.168  15.281  1.9115  1.6919 -1.0624
   96MPD2    N1 1504   2.306   4.346  15.298 -0.1466  0.0452  0.7098
   96MPD2    H7 1505   2.304   4.271  15.367  1.3297 -1.6032 -1.0579
   97TMC2    C1 1506   4.535   1.433   0.070 -0.6631 -0.1306 -0.1280
   97TMC2    C2 1507   4.435   1.525   0.065  0.4287  0.2928 -0.2257
   97TMC2    C3 1508   4.459   1.659   0.110 -0.4203  0.0385 -0.6794
   97TMC2    C4 1509   4.651   1.464   0.128  0.4241  0.8934  0.5962
   97TMC2    C5 1510   4.675   1.595   0.167 -0.2615  0.5814 -0.3329
   97TMC2    C6 1511   4.584   1.689   0.155 -0.8784 -0.1068  0.8164
   97TMC2     C 1512   4.507   1.296   0.074  0.1243  0.6051  0.2231
   97TMC2     O 1513   4.596   1.224   0.030  0.2354  0.0960 -0.2058
   97TMC2     H 1514   4.345   1.506   0.007 -0.2171 -0.1137  0.9075
   97TMC2    H1 1515   4.722   1.384   0.145 -0.1756  0.5897  1.6658
   97TMC2    H2 1516   4.609   1.793   0.174  0.6587 -0.0211 -1.7410
   97TMC2    C7 1517   0.068   1.638   0.206 -0.5372 -0.5396  0.5101
   97TMC2    C8 1518   4.360   1.767   0.111  0.1286  0.2487  0.1780
   97TMC2    O1 1519   0.102   1.751   0.174 -0.0956 -0.0064 -0.1428
   97TMC2    O2 1520   4.397   1.878   0.102 -0.0062 -0.0824 -0.1756
   97TMC2    O5 1521   4.228   1.726   0.112  0.0348 -0.2916  0.5106
   97TMC2    H5 1522   4.220   1.633   0.141 -1.6268 -0.8389 -1.6419
   98MPD2     C 1523   4.254   0.884   0.198 -0.7879  0.5278 -0.3537
   98MPD2    C1 1524   4.390   0.899   0.187  0.1223  0.2612 -0.2982
   98MPD2    C2 1525   4.432   1.024   0.150  0.8528  0.3059  0.0335
   98MPD2    C3 1526   4.341   1.130   0.139  0.3548 -0.0204 -0.0195
   98MPD2    C4 1527   4.207   1.103   0.143 -0.3560  0.5691 -0.2109
   98MPD2    C5 1528   4.158   0.981   0.170  0.2887 -0.6971  0.5323
   98MPD2     H 1529   4.537   1.045   0.170  0.8002  0.3620  0.2566
   98MPD2    H1 1530   4.134   1.180   0.124 -1.5103 -0.6564 -0.7752
   98MPD2    H2 1531   4.217   0.788   0.232 -0.2152  0.7767  0.9802
   98MPD2    H3 1532   4.052   0.960   0.184  0.6805 -1.6648  2.1094
   98MPD2     N 1533   4.385   1.265   0.127  0.1378  0.3727  0.2501
   98MPD2    H5 1534   4.317   1.338   0.142  0.0248  0.5250 -0.9623
   98MPD2    N1 1535   4.473   0.787   0.225 -0.3111  0.0768 -0.3647
   98MPD2    H7 1536   4.427   0.710   0.273 -1.6457  1.2195  0.1891
   99TMC2    C1 1537   3.331   2.960   1.370  0.7247  0.3282 -0.1008
   99TMC2    C2 1538   3.435   3.038   1.416  0.6588  0.0863  0.1241
   99TMC2    C3 1539   3.422   3.088   1.543 -0.4614 -1.1110  0.2705
   99TMC2    C4 1540   3.218   2.931   1.445  0.0435  0.1829  0.3277
   99TMC2    C5 1541   3.214   2.981   1.570  0.0946  0.5674  1.2624
   99TMC2    C6 1542   3.309   3.058   1.621  0.0556  0.2878 -0.5173
   99TMC2     C 1543   3.320   2.951   1.226 -0.6626 -0.2659 -0.6122
   99TMC2     O 1544   3.369   3.044   1.165 -0.6146  0.4169 -0.0711
   99TMC2     H 1545   3.523   3.051   1.354 -0.0064  0.2274 -0.7943
   99TMC2    H1 1546   3.136   2.873   1.404  0.0292  0.3469  0.1256
   99TMC2    H2 1547   3.298   3.107   1.717 -1.5155  0.1522 -0.6195
   99TMC2    C7 1548   3.092   2.964   1.649 -0.3411 -0.1504 -0.5369
   99TMC2    C8 1549   3.545   3.139   1.604  0.4656 -0.3510 -0.5971
   99TMC2    O1 1550   3.089   2.998   1.765  0.0097 -0.1220 -0.3368
   99TMC2    O2 1551   3.649   3.151   1.537  0.5628 -0.1330  0.4176
   99TMC2    O5 1552   3.548   3.125   1.741 -0.4124  1.1205  0.3913
   99TMC2    H5 1553   3.464   3.118   1.790 -2.1353 -4.2497 -3.2769
  100MPD2     C 1554   3.326   2.839   0.945  0.9352 -0.0592  0.2066
  100MPD2    C1 1555   3.274   2.770   1.052 -0.3841  0.2900 -0.4326
  100MPD2    C2 1556   3.210   2.649   1.032  0.2355  0.0727  0.1353
  100MPD2    C3 1557   3.224   2.591   0.905  0.3246  0.2399  0.6443
  100MPD2    C4 1558   3.291   2.657   0.804  0.7097 -0.2080 -0.5262
  100MPD2    C5 1559   3.334   2.782   0.822  0.7353  0.1151 -0.3458
  100MPD2     H 1560   3.165   2.588   1.108 -1.8564  1.9861  0.4263
  100MPD2    H1 1561   3.304   2.599   0.713  0.6463 -0.5073 -0.3468
  100MPD2    H2 1562   3.386   2.927   0.963 -1.8293  1.5786  1.4470
  100MPD2    H3 1563   3.388   2.832   0.743  0.8174 -0.5310 -0.6924
  100MPD2     N 1564   3.176   2.458   0.895  0.5835  0.7395 -0.3653
  100MPD2    H5 1565   3.138   2.419   0.980 -0.0000 -1.2055 -1.5301
  100MPD2    N1 1566   3.262   2.831   1.181  0.3864 -0.2301  0.1246
  100MPD2    H7 1567   3.219   2.782   1.259 -3.0604  1.6087 -0.6647
  101TMC2    C1 1568   4.080   4.185  13.025 -0.6514 -0.5957 -0.0301
  101TMC2    C2 1569   4.037   4.286  13.103  0.0930  1.4193  0.1244
  101TMC2    C3 1570   4.067   4.414  13.070 -0.1086 -0.3558  0.4360
  101TMC2    C4 1571   4.165   4.204  12.916 -0.3646  0.0945  0.0234
  101TMC2    C5 1572   4.209   4.335  12.899 -0.9444  0.9005  0.7606
  101TMC2    C6 1573   4.154   4.442  12.969 -0.3173 -0.1480 -0.3314
  101TMC2     C 1574   4.040   4.058  13.071 -0.0555 -0.4077  0.1664
  101TMC2     O 1575   3.955   4.048  13.158  0.9708 -0.4109 -0.8369
  101TMC2     H 1576   3.962   4.272  13.180 -0.1884  1.5949 -0.1181
  101TMC2    H1 1577   4.177   4.132  12.835  0.2187  1.3894 -1.0427
  101TMC2    H2 1578   4.181   4.544  12.945 -0.1092  0.0476  0.7101
  101TMC2    C7 1579   4.270   4.370  12.777 -0.0495 -0.0838  0.1444
  101TMC2    C8 1580   4.029   4.521  13.156  0.4976  0.0260 -0.1833
  101TMC2    O1 1581   4.260   4.483  12.738 -0.3306 -0.0507  0.1353
  101TMC2    O2 1582   4.002   4.631  13.106  0.3147  0.6942  0.0138
  101TMC2    O5 1583   3.985   4.485  13.275  0.1370  0.3128 -0.0424
  101TMC2    H5 1584   4.020   4.399  13.306 -3.4255 -0.5212  1.6604
  102MPD2     C 1585   4.114   3.741  12.917  0.2983  0.3128  0.0263
  102MPD2    C1 1586   4.058   3.829  13.012  0.3502  0.2966 -0.0531
  102MPD2    C2 1587   3.996   3.770  13.119  0.4753  0.0184 -0.2914
  102MPD2    C3 1588   3.952   3.645  13.117 -0.1595  0.0783  0.3856
  102MPD2    C4 1589   3.994   3.565  13.013  0.1857 -0.3068  0.0222
  102MPD2    C5 1590   4.083   3.609  12.917  0.6242 -0.1239  0.6650
  102MPD2     H 1591   3.974   3.827  13.209  2.7022 -2.8516  2.0660
  102MPD2    H1 1592   3.963   3.463  12.992  1.0419 -0.6925  0.6263
  102MPD2    H2 1593   4.189   3.772  12.846  1.5779  0.1886  1.3136
  102MPD2    H3 1594   4.120   3.553  12.832  0.0464  0.4133  0.0621
  102MPD2     N 1595   3.856   3.597  13.210  0.3117  0.1979 -0.2655
  102MPD2    H5 1596   3.827   3.658  13.286 -1.0895  0.6247 -1.1309
  102MPD2    N1 1597   4.089   3.963  12.994 -0.1977 -0.4180 -0.2196
  102MPD2    H7 1598   4.160   3.981  12.924 -1.7013 -0.7266 -1.8474
  103TMC2    C1 1599   1.876   4.385  12.597  0.1477  0.1604 -0.4048
  103TMC2    C2 1600   1.794   4.475  12.541  0.0729  0.8325  0.7832
  103TMC2    C3 1601   1.696   4.528  12.616  0.1534 -0.4572 -0.0531
  103TMC2    C4 1602   1.864   4.359  12.732  0.1095 -0.3399  0.2846
  103TMC2    C5 1603   1.768   4.424  12.800 -0.2923 -0.3912  0.4949
  103TMC2    C6 1604   1.680   4.512  12.748  0.4846  0.4344  0.1090
  103TMC2     C 1605   1.918   4.275  12.512  0.4862  0.2140 -0.4262
  103TMC2     O 1606   1.862   4.250  12.406  0.5504 -0.0590  0.3693
  103TMC2     H 1607   1.791   4.468  12.432  1.3184  2.4807  0.6274
  103TMC2    H1 1608   1.941   4.295  12.774 -0.0733 -1.4577 -1.1024
  103TMC2    H2 1609   1.605   4.566  12.805  0.2980 -0.5964  0.8212
  103TMC2    C7 1610   1.753   4.406  12.941  0.0509  0.4464 -0.1804
  103TMC2    C8 1611   1.578   4.591  12.548  0.0078 -0.2083  0.4041
  103TMC2    O1 1612   1.666   4.473  12.998  0.2567 -0.4214 -0.1286
  103TMC2    O2 1613   1.474   4.617  12.606 -0.0618 -0.0975 -0.4076
  103TMC2    O5 1614   1.619   4.650  12.432  0.2472 -0.4349  0.0936
  103TMC2    H5 1615   1.712   4.641  12.405  0.1023 -0.7759 -0.2806
  104MPD2     C 1616   2.183   4.017  12.574  0.3248 -0.2015 -0.2355
  104MPD2    C1 1617   2.068   4.070  12.528  0.4492  0.4347  0.9084
  104MPD2    C2 1618   1.993   3.991  12.445 -0.4454  0.0130 -0.1939
  104MPD2    C3 1619   2.039   3.867  12.400  0.0871 -0.1737 -0.3052
  104MPD2    C4 1620   2.144   3.809  12.454  0.1959  0.2584  0.0495
  104MPD2    C5 1621   2.212   3.887  12.538 -0.7109  0.1979 -0.0480
  104MPD2     H 1622   1.902   4.037  12.406 -1.8423  0.1315  3.1786
  104MPD2    H1 1623   2.185   3.712  12.429 -0.1628  0.1380 -0.0756
  104MPD2    H2 1624   2.258   4.075  12.626  1.3320  0.0450 -1.9402
  104MPD2    H3 1625   2.305   3.848  12.575 -0.5394  0.0626 -0.6130
  104MPD2     N 1626   1.959   3.802  12.303  0.3228  0.2452  0.1632
  104MPD2    H5 1627   1.870   3.844  12.278  0.2173  1.5764  2.8123
  104MPD2    N1 1628   2.027   4.204  12.560 -0.0045  0.2394 -0.3615
  104MPD2    H7 1629   2.070   4.250  12.640  2.0019  1.2396 -2.0397
  105TMC2    C1 1630   2.891   2.510  17.677  0.0698 -0.5488 -0.4403
  105TMC2    C2 1631   2.941   2.417   0.016 -0.7270  0.4192  0.5361
  105TMC2    C3 1632   2.969   2.456   0.143 -1.0673  0.2280 -0.0436
  105TMC2    C4 1633   2.865   2.639  17.718 -0.3116  0.1080  0.1542
  105TMC2    C5 1634   2.913   2.673   0.089  0.0507 -0.6054  0.2850
  105TMC2    C6 1635   2.967   2.586   0.176 -0.6479  0.1352  0.0040
  105TMC2     C 1636   2.928   2.493  17.535 -0.2634  0.6805 -0.1289
  105TMC2     O 1637   2.940   2.376  17.499  0.1258 -0.2439 -0.0808
  105TMC2     H 1638   2.966   2.315  17.738  3.5569  0.9517  2.5878
  105TMC2    H1 1639   2.816   2.708  17.650  0.7810  0.6928 -0.0337
  105TMC2    H2 1640   3.017   2.603   0.271 -1.6708  1.1417  0.3645
  105TMC2    C7 1641   2.979   2.804   0.084  0.1444  0.2947  0.8366
  105TMC2    C8 1642   3.066   2.378   0.207  0.3453  0.1348  0.3754
  105TMC2    O1 1643   3.010   2.847  17.719  0.0668  0.1792  0.5347
  105TMC2    O2 1644   3.070   2.373   0.329  0.1611  0.1114  0.2519
  105TMC2    O5 1645   3.159   2.329   0.125  0.2545 -0.0958  0.2987
  105TMC2    H5 1646   3.150   2.377   0.039  1.0418 -1.2572 -0.4317
  106MPD2     C 1647   3.242   2.638  17.147  0.7437  0.0028  0.6550
  106MPD2    C1 1648   3.245   2.742  17.242 -0.4669 -0.6837  0.2124
  106MPD2    C2 1649   3.167   2.722  17.362  0.4477  0.1106  0.4476
  106MPD2    C3 1650   3.084   2.614  17.381  0.4725 -0.8794  0.3437
  106MPD2    C4 1651   3.076   2.523  17.281 -0.0941 -0.9023  0.8103
  106MPD2    C5 1652   3.145   2.544  17.157  0.0702  0.1832 -0.0853
  106MPD2     H 1653   3.161   2.799  17.438  0.0596  1.1653 -0.6694
  106MPD2    H1 1654   3.010   2.437  17.277 -0.7768 -0.2912 -0.9485
  106MPD2    H2 1655   3.300   2.647  17.056 -0.6428  1.2001 -0.0995
  106MPD2    H3 1656   3.137   2.467  17.082  2.6275  0.7401 -0.9248
  106MPD2     N 1657   2.998   2.607  17.497  0.1931 -0.3424  0.4356
  106MPD2    H5 1658   3.010   2.681  17.566  1.4493  0.3723 -0.5551
  106MPD2    N1 1659   3.325   2.857  17.227 -0.3598  0.2242 -0.1536
  106MPD2    H7 1660   3.320   2.930  17.298 -3.2188  1.2175 -1.3911
  107TMC2    C1 1661   4.015   2.847  11.928  0.1649  0.5523 -0.5014
  107TMC2    C2 1662   4.105   2.834  12.038  0.1496 -1.2362 -0.4746
  107TMC2    C3 1663   4.200   2.736  12.032 -0.1956  0.3814  0.6012
  107TMC2    C4 1664   4.013   2.757  11.823 -0.1510  0.2154  0.4885
  107TMC2    C5 1665   4.119   2.669  11.827  1.1499 -0.1440  0.8066
  107TMC2    C6 1666   4.216   2.661  11.919 -0.3915  0.3172 -0.4836
  107TMC2     C 1667   3.925   2.955  11.942 -0.9071 -0.1781 -0.5851
  107TMC2     O 1668   3.898   3.001  12.055 -0.0723  0.0062  0.0011
  107TMC2     H 1669   4.107   2.903  12.121  1.2700 -1.7412 -0.0923
  107TMC2    H1 1670   3.930   2.753  11.753 -0.5743  0.4550  0.9722
  107TMC2    H2 1671   4.287   2.579  11.918  0.0794  0.7725 -3.4877
  107TMC2    C7 1672   4.113   2.565  11.715 -0.1875  0.2400  0.3953
  107TMC2    C8 1673   4.307   2.726  12.138  0.5833 -0.2439  0.5623
  107TMC2    O1 1674   4.181   2.465  11.732 -0.2293 -0.3367 -0.0489
  107TMC2    O2 1675   4.406   2.653  12.118 -0.1023  0.6576 -0.4717
  107TMC2    O5 1676   4.243   2.722  12.259 -0.0171  0.0947 -0.4498
  107TMC2    H5 1677   4.157   2.769  12.263  0.2723  0.5095  0.6930
  108MPD2     C 1678   3.841   3.181  11.668 -0.1824  1.6486 -0.2264
  108MPD2    C1 1679   3.827   3.119  11.789  0.7501  0.5159 -0.4610
  108MPD2    C2 1680   3.738   3.169  11.877  0.3487 -0.4505 -0.6272
  108MPD2    C3 1681   3.655   3.276  11.843  0.8986  0.5892  0.0362
  108MPD2    C4 1682   3.664   3.330  11.718 -0.1063 -0.3375  0.3636
  108MPD2    C5 1683   3.766   3.284  11.631 -0.0066  0.5522 -0.3200
  108MPD2     H 1684   3.730   3.126  11.976 -1.4320  1.3350  0.0191
  108MPD2    H1 1685   3.613   3.421  11.688  0.2932 -0.4014 -0.5102
  108MPD2    H2 1686   3.917   3.143  11.601 -0.8515 -1.6946  0.8918
  108MPD2    H3 1687   3.779   3.336  11.537 -1.0731  0.0654 -0.7418
  108MPD2     N 1688   3.561   3.338  11.932  0.8252  0.2392  0.7311
  108MPD2    H5 1689   3.511   3.420  11.899 -0.4794 -0.7714  0.2278
  108MPD2    N1 1690   3.905   3.009  11.819  0.0806  0.4864  0.3413
  108MPD2    H7 1691   3.950   2.952  11.748  2.6092  1.9457  0.7891
  109TMC2    C1 1692   4.043   0.249   1.063  0.5884 -0.5287 -0.0964
  109TMC2    C2 1693   3.925   0.226   1.008 -0.5370  0.4574 -0.1974
  109TMC2    C3 1694   3.921   0.226   0.867 -0.0481  0.5370  0.2854
  109TMC2    C4 1695   4.160   0.268   0.991  0.5025  0.7833  0.2651
  109TMC2    C5 1696   4.149   0.250   0.857 -0.2610  0.3952  0.1111
  109TMC2    C6 1697   4.035   0.235   0.792 -0.1665  0.9782  0.1606
  109TMC2     C 1698   4.039   0.316   1.196 -0.2792  0.0938 -0.8818
  109TMC2     O 1699   3.934   0.360   1.240  0.2913 -0.1469 -0.2557
  109TMC2     H 1700   3.836   0.212   1.069 -0.8199  0.2494 -0.6610
  109TMC2    H1 1701   4.251   0.291   1.046  1.9327 -1.6817 -1.0689
  109TMC2    H2 1702   4.032   0.244   0.684  2.0411 -1.5496 -0.1132
  109TMC2    C7 1703   4.267   0.251   0.785  0.5185  0.3381 -0.6086
  109TMC2    C8 1704   3.811   0.163   0.802 -0.5263 -0.0935  0.2415
  109TMC2    O1 1705   4.261   0.295   0.672  0.2905 -0.1715 -0.0970
  109TMC2    O2 1706   3.824   0.106   0.697  0.1842 -0.2304  0.1201
  109TMC2    O5 1707   3.702   0.233   0.844  0.6382 -0.0394 -0.2404
  109TMC2    H5 1708   3.719   0.279   0.929  0.0263 -2.0373  0.9500
  110MPD2     C 1709   4.239   0.490   1.646 -0.0179 -0.9629  0.0835
  110MPD2    C1 1710   4.332   0.452   1.558  0.0339 -0.0011 -0.3293
  110MPD2    C2 1711   4.305   0.381   1.442  0.6694  0.6607  0.0160
  110MPD2    C3 1712   4.176   0.360   1.405 -0.0921 -0.3530  0.5104
  110MPD2    C4 1713   4.080   0.417   1.488 -0.4144  0.2970  0.0857
  110MPD2    C5 1714   4.107   0.471   1.611  0.4804 -0.0001 -0.5182
  110MPD2     H 1715   4.388   0.355   1.377  0.3150 -0.2480 -0.0663
  110MPD2    H1 1716   3.974   0.414   1.467 -0.3215  0.8852 -0.4338
  110MPD2    H2 1717   4.264   0.537   1.740  0.6638  0.1526 -0.6494
  110MPD2    H3 1718   4.026   0.497   1.678  0.5127  1.7219 -1.1404
  110MPD2     N 1719   4.155   0.312   1.273  0.2263  0.6888  0.1843
  110MPD2    H5 1720   4.237   0.275   1.226  0.8619  0.9568  1.0797
  110MPD2    N1 1721   4.462   0.481   1.599 -0.1097 -0.2299 -0.1115
  110MPD2    H7 1722   4.468   0.542   1.679  0.1262 -2.3772  1.4940
  111TMC2    C1 1723   3.305   0.156  11.715  0.0970  0.8924 -0.2133
  111TMC2    C2 1724   3.215   0.159  11.818  0.0180  0.3983  0.4723
  111TMC2    C3 1725   3.234   0.226  11.938  0.8831 -0.1672 -0.4389
  111TMC2    C4 1726   3.427   0.221  11.726  0.3355  0.0367  0.2326
  111TMC2    C5 1727   3.449   0.281  11.848  0.5193 -0.0429  0.6740
  111TMC2    C6 1728   3.353   0.293  11.948  0.1927  0.0467 -0.2394
  111TMC2     C 1729   3.305   0.055  11.610 -0.0397  0.3015  0.5711
  111TMC2     O 1730   3.310   0.098  11.497  0.1071  0.2276  0.4207
  111TMC2     H 1731   3.121   0.108  11.804  1.1488 -1.7013  0.4553
  111TMC2    H1 1732   3.506   0.217  11.652  0.5146  0.8755  0.3754
  111TMC2    H2 1733   3.372   0.323  12.050  1.2888 -0.9004 -0.1669
  111TMC2    C7 1734   3.586   0.292  11.901 -0.2246  0.0407  0.2934
  111TMC2    C8 1735   3.139   0.226  12.044 -0.2532  0.1722  0.3435
  111TMC2    O1 1736   3.615   0.251  12.015 -0.1242 -0.0132  0.0269
  111TMC2    O2 1737   3.130   0.321  12.117  0.2781 -0.4563 -0.0968
  111TMC2    O5 1738   3.065   0.111  12.044 -0.2715  0.1543 -0.2261
  111TMC2    H5 1739   3.111   0.031  12.011  0.1412  0.0772  0.5323
  112MPD2     C 1740   3.319   4.313  11.423 -0.2046  0.8999 -0.1108
  112MPD2    C1 1741   3.345   4.431  11.358 -0.5104 -0.5967  0.2922
  112MPD2    C2 1742   3.331   4.554  11.434 -0.1770  0.6726 -0.0620
  112MPD2    C3 1743   3.312   4.553  11.572  0.0771 -0.4788  0.6235
  112MPD2    C4 1744   3.293   4.434  11.631 -0.1673 -0.5321 -0.8970
  112MPD2    C5 1745   3.302   4.317  11.560 -0.1896  0.5610  0.1413
  112MPD2     H 1746   3.345   4.649  11.383 -3.0550 -0.2907 -2.6428
  112MPD2    H1 1747   3.274   4.424  11.737 -1.0342 -2.2020 -1.1978
  112MPD2    H2 1748   3.312   4.216  11.374 -1.3226  0.9279 -0.0109
  112MPD2    H3 1749   3.284   4.227  11.618 -2.5219 -0.7492 -2.5730
  112MPD2     N 1750   3.299   4.664  11.657  0.0288  0.1823 -0.6167
  112MPD2    H5 1751   3.295   4.648  11.757  0.2553  2.4040 -0.2532
  112MPD2    N1 1752   3.372   4.433  11.219 -0.1294  0.5128 -0.2981
  112MPD2    H7 1753   3.365   4.524  11.176 -2.9051  2.0592  3.4616
  113TMC2    C1 1754   2.203   2.656   0.897 -1.0121  0.3806  0.4089
  113TMC2    C2 1755   2.115   2.745   0.840 -0.9318  0.2437 -0.2776
  113TMC2    C3 1756   2.016   2.697   0.758 -0.2882 -0.3191 -0.7359
  113TMC2    C4 1757   2.188   2.521   0.876  0.1993  0.1772  0.1320
  113TMC2    C5 1758   2.089   2.478   0.788  0.0947  0.0448  0.2947
  113TMC2    C6 1759   2.000   2.559   0.725 -0.3101 -0.3677 -0.0661
  113TMC2     C 1760   2.323   2.703   0.969  0.0919  0.9977 -0.2985
  113TMC2     O 1761   2.313   2.816   1.008 -0.2027 -0.1756 -0.0077
  113TMC2     H 1762   2.123   2.852   0.859 -0.2552  0.2935 -0.8284
  113TMC2    H1 1763   2.252   2.449   0.926  0.6263  0.7816  0.4570
  113TMC2    H2 1764   1.913   2.506   0.687 -0.0106 -0.1758 -1.0423
  113TMC2    C7 1765   2.097   2.334   0.751 -0.7274 -0.2116 -0.2465
  113TMC2    C8 1766   1.903   2.780   0.731 -0.0067  0.8725 -0.5500
  113TMC2    O1 1767   2.137   2.265   0.841 -0.5766 -0.4261  0.2347
  113TMC2    O2 1768   1.884   2.895   0.779 -0.0129 -0.0366  0.6017
  113TMC2    O5 1769   1.841   2.726   0.624  0.2555 -0.0205 -0.1374
  113TMC2    H5 1770   1.883   2.658   0.567 -1.4584 -1.5661  0.4679
  114MPD2     C 1771   2.822   2.686   1.123  0.5122 -0.4042 -0.0743
  114MPD2    C1 1772   2.726   2.782   1.140  0.4041  0.4093  0.6655
  114MPD2    C2 1773   2.596   2.767   1.085  0.2128 -0.0266 -0.9599
  114MPD2    C3 1774   2.563   2.648   1.025 -0.6159 -0.2563  0.3587
  114MPD2    C4 1775   2.662   2.548   1.012 -0.0560  0.6649  0.5517
  114MPD2    C5 1776   2.784   2.571   1.062  0.3292  0.0706  0.6303
  114MPD2     H 1777   2.518   2.842   1.095 -0.1167 -0.5426  0.3569
  114MPD2    H1 1778   2.638   2.449   0.975 -2.0013  1.3788 -0.1034
  114MPD2    H2 1779   2.921   2.687   1.168  1.0424 -1.4956 -1.2033
  114MPD2    H3 1780   2.858   2.491   1.058  1.6903  1.1866  2.9978
  114MPD2     N 1781   2.434   2.619   0.975  0.1186  0.3833  0.5995
  114MPD2    H5 1782   2.418   2.524   0.943 -1.9630  1.1586 -0.6813
  114MPD2    N1 1783   2.746   2.902   1.214  0.5646 -0.5341 -0.7929
  114MPD2    H7 1784   2.660   2.950   1.238  2.6801  3.3455 -0.7882
  115TMC2    C1 1785   3.128   0.490   0.411 -0.7088 -0.1118  0.4128
  115TMC2    C2 1786   3.246   0.444   0.474  0.3620 -0.4515 -0.7813
  115TMC2    C3 1787   3.320   0.532   0.543 -0.4411 -0.6859  0.0690
  115TMC2    C4 1788   3.087   0.620   0.419  0.8544 -0.4211 -1.2407
  115TMC2    C5 1789   3.173   0.712   0.482  0.1448  0.8117 -0.1510
  115TMC2    C6 1790   3.290   0.665   0.547 -0.3113  0.0668 -0.0199
  115TMC2     C 1791   3.072   0.396   0.309 -0.7314  0.1788 -0.1584
  115TMC2     O 1792   3.082   0.279   0.334 -0.2510 -0.4883 -0.1267
  115TMC2     H 1793   3.280   0.342   0.460  2.4051  0.2299 -0.7659
  115TMC2    H1 1794   2.991   0.652   0.380 -0.1911  0.1514  1.8306
  115TMC2    H2 1795   3.335   0.740   0.610  0.3342  1.8031 -2.5588
  115TMC2    C7 1796   3.126   0.848   0.505 -0.0427 -0.3863 -0.6585
  115TMC2    C8 1797   3.439   0.494   0.610  0.9704 -0.0623  0.0940
  115TMC2    O1 1798   3.112   0.892   0.621 -0.8690 -0.2560 -0.0511
  115TMC2    O2 1799   3.470   0.377   0.601  0.1525  0.0368 -0.3226
  115TMC2    O5 1800   3.516   0.602   0.638  0.1301 -0.1066  0.5110
  115TMC2    H5 1801   3.478   0.682   0.596  1.8274  0.2109 -0.4183
  116MPD2     C 1802   2.749   0.352  17.648 -0.2829 -0.7052 -0.3380
  116MPD2    C1 1803   2.801   0.255  17.728  0.5065 -0.5617  0.8425
  116MPD2    C2 1804   2.892   0.282   0.078  0.0178  0.1014  0.3714
  116MPD2    C3 1805   2.927   0.412   0.099 -0.7008  0.6776  1.1777
  116MPD2    C4 1806   2.881   0.510   0.017  0.4214  0.8922  0.5571
  116MPD2    C5 1807   2.795   0.483  17.665  0.0488  0.2773 -0.0747
  116MPD2     H 1808   2.926   0.207   0.149  0.5144  0.2295  0.2686
  116MPD2    H1 1809   2.913   0.613   0.032  3.8132 -0.3801  2.0486
  116MPD2    H2 1810   2.675   0.335  17.571  0.5014 -1.8905 -0.8204
  116MPD2    H3 1811   2.758   0.563  17.603  0.1524 -0.7784 -1.4891
  116MPD2     N 1812   3.010   0.464   0.203  0.0246 -0.9721 -0.2786
  116MPD2    H5 1813   3.001   0.564   0.218 -1.1503 -1.3247  1.3429
  116MPD2    N1 1814   2.759   0.130  17.681 -0.3924 -0.2842 -0.1974
  116MPD2    H7 1815   2.692   0.121  17.605 -0.6243 -1.7680  0.1782
  117TMC2    C1 1816   0.682   1.794  13.810 -0.5931  0.2743 -0.5453
  117TMC2    C2 1817   0.751   1.674  13.816 -0.0825 -0.2165  0.4688
  117TMC2    C3 1818   0.881   1.669  13.848  1.0512  0.3784  0.5286
  117TMC2    C4 1819   0.750   1.911  13.838 -0.5918  0.0338 -0.4946
  117TMC2    C5 1820   0.884   1.906  13.864  0.2437 -0.0368  0.3065
  117TMC2    C6 1821   0.954   1.786  13.868 -0.5391  0.0027  0.1907
  117TMC2     C 1822   0.561   1.793  13.731  0.2768 -0.0534  0.4992
  117TMC2     O 1823   0.511   1.690  13.696 -0.6260 -0.7203 -0.1757
  117TMC2     H 1824   0.679   1.592  13.822  0.2678 -0.3804  2.5252
  117TMC2    H1 1825   0.694   2.004  13.843 -0.0785  0.3267 -0.2323
  117TMC2    H2 1826   1.061   1.795  13.879 -0.7279  2.0795  0.4127
  117TMC2    C7 1827   0.962   2.033  13.883  0.1155  0.6353  0.3500
  117TMC2    C8 1828   0.947   1.544  13.875  1.0333  0.3040  0.4679
  117TMC2    O1 1829   1.085   2.013  13.874 -0.0073  0.2574  0.2808
  117TMC2    O2 1830   0.903   1.438  13.832  0.4521 -0.7059  0.8382
  117TMC2    O5 1831   1.030   1.561  13.978  0.3677  0.1259 -0.0310
  117TMC2    H5 1832   1.014   1.651  14.013  2.6902 -0.0493  1.4881
  118MPD2     C 1833   0.850   2.378  13.969 -0.2087 -0.5098  0.7377
  118MPD2    C1 1834   0.943   2.274  13.945 -0.1553  0.1560 -0.0271
  118MPD2    C2 1835   1.077   2.304  13.958  0.3408  0.8433 -0.4110
  118MPD2    C3 1836   1.118   2.435  13.986 -0.4701 -0.1552 -0.8071
  118MPD2    C4 1837   1.030   2.533  14.005  0.7120 -0.0254 -0.1695
  118MPD2    C5 1838   0.895   2.508  13.994 -0.0811 -0.4659  0.1992
  118MPD2     H 1839   1.146   2.220  13.952 -1.0286 -0.3084 -0.1714
  118MPD2    H1 1840   1.065   2.633  14.025  1.0060  0.1199 -1.4825
  118MPD2    H2 1841   0.743   2.361  13.966 -0.2724  0.3609 -1.5089
  118MPD2    H3 1842   0.819   2.582  14.013  1.3701  1.0720  0.0546
  118MPD2     N 1843   1.255   2.475  13.996 -0.5752  0.0596 -0.0450
  118MPD2    H5 1844   1.277   2.569  14.026 -2.4907  0.5155 -0.0862
  118MPD2    N1 1845   0.887   2.147  13.917  0.0248  0.3203 -0.0994
  118MPD2    H7 1846   0.787   2.130  13.923  0.3879 -1.5311  0.4993
  119TMC2    C1 1847   4.538   3.432  13.289 -0.6946 -0.0216  0.5818
  119TMC2    C2 1848   4.546   3.566  13.258  0.0749 -0.4926 -0.1316
  119TMC2    C3 1849   4.439   3.603  13.186  0.5324 -0.5092  0.0740
  119TMC2    C4 1850   4.431   3.348  13.268  0.1617  0.2981 -0.2443
  119TMC2    C5 1851   4.328   3.395  13.184  0.1521  0.4929  0.1521
  119TMC2    C6 1852   4.333   3.526  13.153 -0.8228  0.2567 -0.0682
  119TMC2     C 1853   4.630   3.387  13.395  0.2303 -0.4751  0.5364
  119TMC2     O 1854   4.621   3.268  13.432  0.0801 -0.1659  0.5799
  119TMC2     H 1855   4.631   3.632  13.272  2.4249 -3.0157 -2.5392
  119TMC2    H1 1856   4.435   3.246  13.305  0.4421  1.2379  2.3347
  119TMC2    H2 1857   4.254   3.572  13.094  0.8193  1.4541 -1.3487
  119TMC2    C7 1858   4.202   3.319  13.171 -0.2990 -0.2185 -0.9787
  119TMC2    C8 1859   4.434   3.732  13.129  0.0096 -1.0184 -0.0387
  119TMC2    O1 1860   4.148   3.320  13.060  0.1734  0.0297  0.0682
  119TMC2    O2 1861   4.494   3.820  13.189  0.0208 -0.6308 -0.7371
  119TMC2    O5 1862   4.438   3.715  12.999 -0.4825 -0.5115  0.4990
  119TMC2    H5 1863   4.434   3.623  12.966  2.2337 -0.5653  0.2525
  120MPD2     C 1864   0.087   3.510  13.859  0.1892 -0.0528 -0.6081
  120MPD2    C1 1865   0.042   3.390  13.805 -0.3881  0.7726 -0.1005
  120MPD2    C2 1866   4.735   3.376  13.679  0.2707 -1.0816  1.2883
  120MPD2    C3 1867   0.006   3.494  13.600  0.0362  0.6782  0.2854
  120MPD2    C4 1868   0.049   3.611  13.656  0.0545  0.6306  0.1075
  120MPD2    C5 1869   0.096   3.623  13.784  0.5416  0.5119 -0.9314
  120MPD2     H 1870   4.709   3.277  13.642 -2.3069  0.0252  0.1144
  120MPD2    H1 1871   0.043   3.701  13.597  2.5395  1.1675  0.6777
  120MPD2    H2 1872   0.124   3.518  13.960  2.9394  1.3534 -1.6984
  120MPD2    H3 1873   0.119   3.719  13.828 -1.0066  0.8283 -0.8012
  120MPD2     N 1874   4.682   3.490  13.468  0.2692  0.7185 -0.5132
  120MPD2    H5 1875   4.657   3.581  13.432  0.6698  1.2128  0.4639
  120MPD2    N1 1876   0.049   3.290  13.902  0.0540  0.4904 -1.1242
  120MPD2    H7 1877   0.086   3.324  13.990 -0.8384  1.3947 -1.0994
  121TMC2    C1 1878   1.335   0.124  14.097 -0.0684 -0.8913 -0.4465
  121TMC2    C2 1879   1.311   0.047  14.207 -0.2714 -0.2047  0.0343
  121TMC2    C3 1880   1.194   0.072  14.271 -0.7675 -0.1977 -0.0131
  121TMC2    C4 1881   1.272   0.243  14.069  0.0894 -0.2688 -0.1192
  121TMC2    C5 1882   1.161   0.258  14.142 -0.0922 -0.2969 -0.0860
  121TMC2    C6 1883   1.116   0.176  14.241 -0.3932 -1.1161  0.2170
  121TMC2     C 1884   1.450   0.088  14.011  0.2897  0.2981 -0.1411
  121TMC2     O 1885   1.541   0.025  14.052  0.0735 -0.5260 -0.1149
  121TMC2     H 1886   1.366   4.693  14.224  0.4706  0.3704  0.7432
  121TMC2    H1 1887   1.308   0.315  13.996 -0.5338  1.5534  1.3732
  121TMC2    H2 1888   1.017   0.186  14.284  0.0065 -1.5244  1.2322
  121TMC2    C7 1889   1.075   0.358  14.093  0.0921  0.3809 -0.5005
  121TMC2    C8 1890   1.161   4.730  14.377  0.0025  0.8604 -0.8098
  121TMC2    O1 1891   1.139   0.453  14.053 -0.1999  0.0063 -0.9762
  121TMC2    O2 1892   1.042   4.701  14.398 -0.7227  0.4906  0.0334
  121TMC2    O5 1893   1.234   0.043  14.473 -0.4996 -0.2940 -0.1977
  121TMC2    H5 1894   1.321   0.085  14.457 -0.6383 -0.4673 -1.4385
  122MPD2     C 1895   1.688   0.090  13.822  0.7405 -0.8929  0.8526
  122MPD2    C1 1896   1.567   0.152  13.796  0.1692  0.1075 -0.1710
  122MPD2    C2 1897   1.552   0.223  13.681 -0.1918 -0.1160 -0.2467
  122MPD2    C3 1898   1.656   0.241  13.590  0.4472  1.0641  0.1720
  122MPD2    C4 1899   1.764   0.164  13.604 -0.1802 -0.7640 -0.4269
  122MPD2    C5 1900   1.782   0.103  13.726  0.3559 -0.0178 -0.3561
  122MPD2     H 1901   1.469   0.292  13.684 -0.2027 -0.1056 -0.8042
  122MPD2    H1 1902   1.851   0.190  13.544 -1.3155  0.4873 -1.5199
  122MPD2    H2 1903   1.711   0.041  13.916  1.8269 -3.4428 -0.7324
  122MPD2    H3 1904   1.879   0.061  13.750 -0.0689 -1.1940 -0.7228
  122MPD2     N 1905   1.661   0.338  13.481 -0.1595  0.2219 -1.0153
  122MPD2    H5 1906   1.745   0.329  13.425  0.5808  2.5365 -0.2559
  122MPD2    N1 1907   1.454   0.153  13.881  0.3033  0.1782 -0.3105
  122MPD2    H7 1908   1.369   0.193  13.842 -0.3904  0.3926  1.3754
  123TMC2    C1 1909   4.689   3.466   9.960 -0.4768  0.3281  0.2518
  123TMC2    C2 1910   4.699   3.579  10.033 -0.1793 -0.3104  0.2141
  123TMC2    C3 1911   4.691   3.696   9.968  0.3064  0.9453  0.6561
  123TMC2    C4 1912   4.673   3.464   9.819  0.5353  0.2212  0.0408
  123TMC2    C5 1913   4.649   3.585   9.765 -0.0586  0.5514 -0.8415
  123TMC2    C6 1914   4.659   3.704   9.833 -0.1530 -0.4685  0.5816
  123TMC2     C 1915   4.668   3.345  10.034 -0.4655 -0.5124  0.2098
  123TMC2     O 1916   4.724   3.324  10.141 -0.2409 -0.5307 -0.2591
  123TMC2     H 1917   4.684   3.577  10.140  1.1657  0.1889  0.4041
  123TMC2    H1 1918   4.662   3.374   9.759  0.8211 -0.3119  0.7868
  123TMC2    H2 1919   4.630   3.792   9.777 -1.2598 -1.0580  0.2384
  123TMC2    C7 1920   4.606   3.571   9.624 -0.3103  0.0325 -0.1710
  123TMC2    C8 1921   0.000   3.805  10.044  0.2184  0.8554  0.3630
  123TMC2    O1 1922   4.623   3.464   9.566  0.4261 -0.5553  0.0726
  123TMC2    O2 1923   4.717   3.821  10.165 -0.1708 -0.1289 -0.6901
  123TMC2    O5 1924   0.058   3.893   9.957  0.2040 -0.4663  0.2586
  123TMC2    H5 1925   0.070   3.857   9.866 -0.6571 -0.2834  0.0767
  124MPD2     C 1926   4.354   2.933  10.040  0.3479  0.4969 -0.2420
  124MPD2    C1 1927   4.345   2.995   9.919  0.0369  0.0879  0.2320
  124MPD2    C2 1928   4.417   3.110   9.897 -0.4124 -0.1697  0.3820
  124MPD2    C3 1929   4.520   3.148   9.986  0.0240  0.7233  0.6714
  124MPD2    C4 1930   4.542   3.079  10.098  1.1688 -0.4592 -0.3387
  124MPD2    C5 1931   4.463   2.966  10.120  0.0974  0.7084 -0.1784
  124MPD2     H 1932   4.405   3.179   9.813  0.5013 -1.3624 -0.7193
  124MPD2    H1 1933   4.617   3.113  10.168  0.5757 -0.6621  0.3959
  124MPD2    H2 1934   4.293   2.853  10.081  0.9784 -0.3529 -0.9691
  124MPD2    H3 1935   4.470   2.914  10.215 -1.4726  1.6482  0.4529
  124MPD2     N 1936   4.588   3.266   9.951  0.1158 -0.1036  0.8279
  124MPD2    H5 1937   4.553   3.301   9.862 -0.2597  0.3074  1.1345
  124MPD2    N1 1938   4.243   2.956   9.832 -0.6205  0.0725  0.2203
  124MPD2    H7 1939   4.179   2.883   9.859 -0.5828  0.5347  1.5669
  125TMC2    C1 1940   0.332   0.147   9.782  0.1795 -0.2991  0.2494
  125TMC2    C2 1941   0.395   0.035   9.739  0.0879 -0.1224  0.3744
  125TMC2    C3 1942   0.418   0.024   9.604 -0.8697  0.5056  0.1966
  125TMC2    C4 1943   0.286   0.249   9.700  0.0386  0.0237  0.5788
  125TMC2    C5 1944   0.319   0.230   9.567 -0.3488 -0.2255 -0.1094
  125TMC2    C6 1945   0.392   0.127   9.515  0.0302 -0.2058 -0.1626
  125TMC2     C 1946   0.298   0.144   9.922 -0.9406  0.1731 -0.6765
  125TMC2     O 1947   0.324   0.035   9.981 -0.0608  0.1517  0.0161
  125TMC2     H 1948   0.423   4.697   9.812  2.5450  0.3098 -0.1343
  125TMC2    H1 1949   0.236   0.338   9.738 -1.1359  0.6039 -2.3471
  125TMC2    H2 1950   0.415   0.112   9.410 -1.5224 -1.9014 -0.2522
  125TMC2    C7 1951   0.328   0.354   9.488  0.3103 -0.1406 -0.5704
  125TMC2    C8 1952   0.496   4.652   9.553 -0.1746  0.2148  0.2228
  125TMC2    O1 1953   0.236   0.438   9.505 -0.3830 -0.5600 -0.1484
  125TMC2    O2 1954   0.577   4.665   9.461 -0.2465 -0.0380  0.3107
  125TMC2    O5 1955   0.417   4.543   9.570 -0.3452  0.6116  0.1598
  125TMC2    H5 1956   0.351   4.544   9.643 -3.8624  0.1827 -3.0602
  126MPD1     C 1957   0.091   0.321  10.345  0.0657  0.3595 -0.1824
  126MPD1    C1 1958   0.105   0.428  10.259  0.5718 -0.4288 -0.6045
  126MPD1    C2 1959   0.169   0.412  10.138 -0.1456  0.0862  0.4683
  126MPD1    C3 1960   0.193   0.284  10.096  0.1303 -0.2244 -0.5881
  126MPD1    C4 1961   0.175   0.177  10.180 -0.1581 -0.5342 -0.7936
  126MPD1    C5 1962   0.133   0.199  10.305  0.1658  0.2282 -0.3238
  126MPD1     H 1963   0.175   0.494  10.068 -1.2192  0.2499  0.5591
  126MPD1    H1 1964   0.193   0.073  10.155  0.7109 -0.4730 -0.4292
  126MPD1    H2 1965   0.053   0.330  10.446 -0.3247 -1.0545 -0.1961
  126MPD1    H3 1966   0.105   0.116  10.368  0.2303 -0.7108 -1.5346
  126MPD1     N 1967   0.249   0.261   9.974  0.3508  0.0925  0.6020
  126MPD1    H5 1968   0.271   0.346   9.922 -1.7363 -0.0375 -0.5049
  126MPD1    N1 1969   0.087   0.560  10.307  0.3398 -0.4635  0.1469
  126MPD1    H6 1970   0.009   0.568  10.371 -0.3552 -0.4731 -0.7019
  126MPD1    H7 1971   0.062   0.617  10.226 -1.7338 -2.8855 -0.9213
  127TMC2    C1 1972   1.272   3.986  10.104 -0.1578  0.1624 -0.3501
  127TMC2    C2 1973   1.341   3.975  10.221 -0.1003  0.0343 -0.3899
  127TMC2    C3 1974   1.269   3.909  10.320 -0.0492  0.5295  0.7994
  127TMC2    C4 1975   1.144   3.948  10.086  0.1252 -0.1696 -0.8185
  127TMC2    C5 1976   1.081   3.880  10.186 -0.2386 -0.1078  0.6702
  127TMC2    C6 1977   1.145   3.857  10.299 -0.3668 -0.4665  0.2805
  127TMC2     C 1978   1.339   4.064   9.997  0.0146 -0.3003 -0.0415
  127TMC2     O 1979   1.450   4.105  10.023 -0.1128 -0.2023  0.2398
  127TMC2     H 1980   1.447   3.996  10.232  0.3355 -1.2226 -2.1588
  127TMC2    H1 1981   1.089   3.991  10.003  2.4357  0.9911 -1.7660
  127TMC2    H2 1982   1.101   3.800  10.381 -1.2689  0.1011  0.1910
  127TMC2    C7 1983   0.954   3.815  10.157  0.0245  0.7827  0.2790
  127TMC2    C8 1984   1.338   3.886  10.444  0.2274  0.5325 -0.2425
  127TMC2    O1 1985   0.881   3.868  10.074  0.3535 -0.5775  0.1023
  127TMC2    O2 1986   1.326   3.797  10.528  0.2412 -0.0489  0.3260
  127TMC2    O5 1987   1.368   4.011  10.479  0.1331  0.1698 -0.6630
  127TMC2    H5 1988   1.334   4.080  10.419  1.2315 -0.4498 -1.9688
  128MPD2     C 1989   1.233   4.058   9.654 -0.7171 -0.0622 -0.6061
  128MPD2    C1 1990   1.309   4.098   9.758  0.3129  0.1851 -0.3195
  128MPD2    C2 1991   1.400   4.205   9.742 -0.3317 -1.2178  0.3756
  128MPD2    C3 1992   1.439   4.249   9.607 -0.0996  0.2290 -0.1171
  128MPD2    C4 1993   1.359   4.195   9.505 -0.2645  0.0365 -0.0400
  128MPD2    C5 1994   1.261   4.106   9.522  0.0209  1.0850 -0.4337
  128MPD2     H 1995   1.452   4.247   9.827  0.3186 -1.5036  0.1141
  128MPD2    H1 1996   1.381   4.206   9.399  0.6742  1.6029  0.3093
  128MPD2    H2 1997   1.156   3.983   9.667  0.0362 -0.6525  0.4790
  128MPD2    H3 1998   1.208   4.061   9.440  1.4585 -3.6777  1.2015
  128MPD2     N 1999   1.535   4.353   9.591 -0.0890  0.8372 -0.1483
  128MPD2    H5 2000   1.580   4.388   9.675 -0.4635  1.5483 -0.2486
  128MPD2    N1 2001   1.272   4.041   9.878  0.0760 -0.5544 -0.2194
  128MPD2    H7 2002   1.193   3.978   9.873  0.5953 -1.2231 -0.0718
  129TMC2    C1 2003   1.178   3.856   1.282 -0.3084 -1.0189 -0.2895
  129TMC2    C2 2004   1.152   3.908   1.409 -0.6637 -0.5368  0.4745
  129TMC2    C3 2005   1.054   3.853   1.484 -0.4282 -1.1305  0.0755
  129TMC2    C4 2006   1.092   3.766   1.223  0.2839 -0.6248 -0.2176
  129TMC2    C5 2007   0.993   3.715   1.306  0.8525  0.1113 -0.6955
  129TMC2    C6 2008   0.968   3.761   1.432 -0.2450 -0.2101 -0.9975
  129TMC2     C 2009   1.283   3.918   1.210 -0.2899  0.1434  0.0621
  129TMC2     O 2010   1.358   3.852   1.140 -0.1982 -0.5606 -0.4784
  129TMC2     H 2011   1.217   3.983   1.453 -1.2561  0.6376 -0.6593
  129TMC2    H1 2012   1.098   3.743   1.118 -2.0021 -0.5780 -0.3658
  129TMC2    H2 2013   0.895   3.708   1.493  1.3190 -0.4930  0.6284
  129TMC2    C7 2014   0.876   3.657   1.249  0.0676  0.2019 -0.4762
  129TMC2    C8 2015   1.026   3.912   1.617 -0.1682 -0.0217 -0.2311
  129TMC2    O1 2016   0.774   3.669   1.311 -0.1728 -0.4649  0.0383
  129TMC2    O2 2017   0.923   3.928   1.688 -0.0550 -0.1315 -0.0789
  129TMC2    O5 2018   1.149   3.927   1.667  0.2489 -0.2927  0.0286
  129TMC2    H5 2019   1.220   3.871   1.629 -0.2537 -0.4610 -0.6584
  130MPD2     C 2020   1.442   4.107   1.042  0.0424  0.1171  0.5356
  130MPD2    C1 2021   1.338   4.143   1.122  0.3367 -0.7726  0.4350
  130MPD2    C2 2022   1.301   4.280   1.122 -0.1172  0.1584  0.0389
  130MPD2    C3 2023   1.367   4.365   1.044 -0.2106 -0.3256 -0.4641
  130MPD2    C4 2024   1.460   4.323   0.950 -0.4750 -0.2692 -0.0697
  130MPD2    C5 2025   1.498   4.195   0.957 -0.4630 -0.3744  0.0625
  130MPD2     H 2026   1.211   4.307   1.177  0.6809  0.1964  1.3396
  130MPD2    H1 2027   1.520   4.394   0.894 -0.4436 -0.6410 -0.5058
  130MPD2    H2 2028   1.483   4.007   1.027 -0.6652 -0.5721  3.2076
  130MPD2    H3 2029   1.575   4.152   0.894  1.1629 -0.8032  2.3800
  130MPD2     N 2030   1.319   4.499   1.054  0.1664 -0.1230  0.2022
  130MPD2    H5 2031   1.239   4.504   1.117  0.5638  2.6559  0.4770
  130MPD2    N1 2032   1.266   4.052   1.201 -0.2131  0.0731  0.4976
  130MPD2    H7 2033   1.190   4.090   1.257 -0.5809  0.1458 -0.0415
  131TMC2    C1 2034   4.171   3.865   9.414  0.3431 -0.3073 -0.2910
  131TMC2    C2 2035   4.126   3.961   9.326 -0.2783 -0.5775  0.1601
  131TMC2    C3 2036   4.160   4.088   9.356  0.8252  0.5638 -0.4054
  131TMC2    C4 2037   4.251   3.896   9.524  0.1740 -0.0376  0.8970
  131TMC2    C5 2038   4.295   4.023   9.532 -0.4969 -0.1215 -0.0940
  131TMC2    C6 2039   4.247   4.123   9.458  0.0942 -0.0578  0.9095
  131TMC2     C 2040   4.124   3.729   9.400  0.3919  0.5611  1.2564
  131TMC2     O 2041   4.132   3.658   9.501  0.0364  0.0062  0.4356
  131TMC2     H 2042   4.061   3.954   9.240  0.7680 -1.1734 -0.5855
  131TMC2    H1 2043   4.286   3.820   9.593  1.4164 -0.5534 -0.3049
  131TMC2    H2 2044   4.286   4.224   9.469  0.9860 -0.0805 -2.0360
  131TMC2    C7 2045   4.391   4.045   9.630 -0.3021 -0.7283 -0.4010
  131TMC2    C8 2046   4.117   4.192   9.267  0.7616 -0.2726 -0.0448
  131TMC2    O1 2047   4.461   3.951   9.660  0.6535  0.2031  0.7528
  131TMC2    O2 2048   4.075   4.166   9.157  0.7861 -0.7217  0.1256
  131TMC2    O5 2049   4.106   4.308   9.333 -0.1986 -0.0320  0.0124
  131TMC2    H5 2050   4.153   4.303   9.419 -1.0226  2.0962  0.6016
  132MPD2     C 2051   3.956   3.552   9.117  0.4109  0.5182 -0.0834
  132MPD2    C1 2052   3.996   3.581   9.248  0.6845  0.5435 -0.7301
  132MPD2    C2 2053   3.975   3.475   9.343 -0.1801  0.2823  0.3700
  132MPD2    C3 2054   3.925   3.352   9.308 -0.0401  0.2730  0.1542
  132MPD2    C4 2055   3.884   3.332   9.182 -0.0339  0.2499 -0.6428
  132MPD2    C5 2056   3.897   3.434   9.082 -0.8128 -0.1572 -0.1020
  132MPD2     H 2057   3.996   3.494   9.448 -1.4726 -0.4700  0.7590
  132MPD2    H1 2058   3.834   3.241   9.152  1.1146 -1.2387  1.9954
  132MPD2    H2 2059   3.980   3.623   9.038  0.5213  1.5097  0.8448
  132MPD2    H3 2060   3.866   3.419   8.979  0.1576  1.7995 -0.6617
  132MPD2     N 2061   3.912   3.264   9.418  0.2085  0.2601 -0.0564
  132MPD2    H5 2062   3.957   3.283   9.507  0.1971 -0.0164  0.0071
  132MPD2    N1 2063   4.056   3.704   9.287 -0.2508  0.6365 -0.2193
  132MPD2    H7 2064   4.062   3.768   9.208 -0.4015 -0.0856 -0.8058
  133TMC2    C1 2065   3.256   4.712   9.351  0.3792 -0.1054 -0.0703
  133TMC2    C2 2066   3.140   0.036   9.333 -0.4955  0.2992 -0.8200
  133TMC2    C3 2067   3.122   0.170   9.331  0.5284 -0.1850  0.1233
  133TMC2    C4 2068   3.365   0.052   9.376 -0.0079  0.3751  0.0820
  133TMC2    C5 2069   3.355   0.187   9.383  0.2088 -0.7350 -0.4108
  133TMC2    C6 2070   3.238   0.245   9.347 -0.1009  0.0650 -0.2873
  133TMC2     C 2071   3.270   4.570   9.338 -0.6391  0.3037  0.6206
  133TMC2     O 2072   3.168   4.508   9.310  0.3116  0.3815  0.1355
  133TMC2     H 2073   3.054   4.711   9.313 -1.8875  2.1190 -0.4741
  133TMC2    H1 2074   3.455   0.007   9.417 -0.0230 -1.0197 -1.3957
  133TMC2    H2 2075   3.235   0.354   9.339  0.0439  0.1352  0.6285
  133TMC2    C7 2076   3.469   0.250   9.446  0.8827  0.0778 -0.2851
  133TMC2    C8 2077   2.989   0.223   9.350 -0.3563 -0.7174  0.4691
  133TMC2    O1 2078   3.570   0.185   9.463 -0.0315 -0.1808 -0.0280
  133TMC2    O2 2079   2.890   0.154   9.330  0.3992  0.2333 -0.3621
  133TMC2    O5 2080   3.002   0.310   9.455  0.5109 -0.3823 -0.3160
  133TMC2    H5 2081   3.085   0.361   9.452 -0.1650  0.6775 -1.1215
  134MPD2     C 2082   3.566   4.369   9.262  0.6908  0.2172  0.2683
  134MPD2    C1 2083   3.437   4.385   9.296  0.1442 -0.0509 -0.3090
  134MPD2    C2 2084   3.355   4.276   9.320 -0.0071 -0.0978  0.2824
  134MPD2    C3 2085   3.401   4.152   9.303  0.1259  0.0502 -0.0421
  134MPD2    C4 2086   3.534   4.135   9.269 -0.0431 -0.0161 -0.6269
  134MPD2    C5 2087   3.615   4.243   9.246  0.3042 -0.5237  0.0621
  134MPD2     H 2088   3.256   4.295   9.359 -0.2191  0.1362 -0.3810
  134MPD2    H1 2089   3.584   4.039   9.266 -2.2432 -1.1412 -1.2864
  134MPD2    H2 2090   3.625   4.454   9.230  0.2719  0.6259  0.5739
  134MPD2    H3 2091   3.711   4.230   9.196  0.6574  1.8007  0.1457
  134MPD2     N 2092   3.316   4.042   9.332 -0.1894  0.7693 -0.1843
  134MPD2    H5 2093   3.363   3.952   9.327 -2.3397 -0.2024 -2.8407
  134MPD2    N1 2094   3.400   4.516   9.325 -0.4098 -0.2650 -0.5427
  134MPD2    H7 2095   3.482   4.572   9.348  0.9308 -2.0280 -1.0739
  135TMC2    C1 2096   0.502   0.506  10.196  0.3075 -0.8292  0.2075
  135TMC2    C2 2097   0.556   0.405  10.116  0.3900  0.0564  0.1552
  135TMC2    C3 2098   0.587   0.288  10.184 -0.4325 -0.4916 -0.8474
  135TMC2    C4 2099   0.469   0.480  10.327 -0.6483  1.4269 -0.0374
  135TMC2    C5 2100   0.486   0.354  10.386  0.0976  0.7074  0.3414
  135TMC2    C6 2101   0.556   0.251  10.316 -0.3008 -0.3056 -0.8479
  135TMC2     C 2102   0.480   0.642  10.147 -0.2113  0.3815 -0.1046
  135TMC2     O 2103   0.399   0.705  10.215 -0.2012  0.4592 -0.1516
  135TMC2     H 2104   0.577   0.421  10.011 -1.8881  1.0214 -0.1558
  135TMC2    H1 2105   0.406   0.548  10.385 -1.5348 -0.5852  1.3582
  135TMC2    H2 2106   0.567   0.150  10.354  0.4331 -0.1305 -0.6099
  135TMC2    C7 2107   0.437   0.338  10.520 -0.7248  0.1630 -0.0396
  135TMC2    C8 2108   0.630   0.188  10.091  0.2592  0.9603 -0.0229
  135TMC2    O1 2109   0.412   0.436  10.590 -0.9418 -0.5244  0.0550
  135TMC2    O2 2110   0.610   0.195   9.972 -0.1161  0.0815  0.2043
  135TMC2    O5 2111   0.741   0.142  10.150 -0.0657  0.1221  0.0952
  135TMC2    H5 2112   0.768   0.202  10.223 -0.6547 -0.0252  0.4341
  136MPD2     C 2113   0.480   0.898  10.016 -0.1737 -0.6843  0.3625
  136MPD2    C1 2114   0.565   0.797   9.976 -0.1007 -0.4143 -0.1325
  136MPD2    C2 2115   0.654   0.818   9.870  0.3297  0.3430 -0.4035
  136MPD2    C3 2116   0.648   0.937   9.799  0.2982  0.3561 -0.2430
  136MPD2    C4 2117   0.560   1.032   9.843  0.1173  0.0654 -0.2692
  136MPD2    C5 2118   0.475   1.015   9.952  0.2269  0.2814  0.0767
  136MPD2     H 2119   0.718   0.735   9.844  0.8517  0.9582 -1.0711
  136MPD2    H1 2120   0.555   1.128   9.792  1.0593 -0.3833 -1.1956
  136MPD2    H2 2121   0.417   0.892  10.104 -0.3512  1.7940  0.4237
  136MPD2    H3 2122   0.410   1.095   9.985  1.2681  1.1954 -0.1031
  136MPD2     N 2123   0.726   0.975   9.684 -0.3776 -0.3164  0.1699
  136MPD2    H5 2124   0.709   1.061   9.633 -2.2868  0.4339  2.0749
  136MPD2    N1 2125   0.567   0.677  10.044 -0.5599 -0.3049  0.0850
  136MPD2    H7 2126   0.622   0.597  10.013  1.6710  0.4964  2.0284
  137TMC2    C1 2127   0.393   0.682   9.702  0.4200  0.3352 -0.1142
  137TMC2    C2 2128   0.407   0.757   9.583 -0.0363 -0.5343 -0.1244
  137TMC2    C3 2129   0.344   0.873   9.570  0.8931  0.0863  0.2241
  137TMC2    C4 2130   0.303   0.722   9.795 -0.1096  0.8474 -0.3633
  137TMC2    C5 2131   0.250   0.845   9.780  0.0276 -0.1705 -0.1577
  137TMC2    C6 2132   0.266   0.918   9.675 -0.1249 -0.2645  0.0301
  137TMC2     C 2133   0.480   0.570   9.726  0.3301  0.1699 -0.0421
  137TMC2     O 2134   0.438   0.486   9.805 -0.0333  1.1732 -0.1291
  137TMC2     H 2135   0.478   0.734   9.504 -0.0725 -0.3142 -0.2232
  137TMC2    H1 2136   0.300   0.666   9.888 -0.9944  1.7820  0.1667
  137TMC2    H2 2137   0.229   1.020   9.668 -0.7672 -0.5839 -1.2319
  137TMC2    C7 2138   0.139   0.875   9.868 -0.3988 -0.4268  0.2995
  137TMC2    C8 2139   0.382   0.958   9.456  0.0956  0.0591 -0.6045
  137TMC2    O1 2140   0.137   0.988   9.920  0.8584  0.0702  0.9481
  137TMC2    O2 2141   0.493   0.943   9.411 -0.3326 -0.0730 -0.1774
  137TMC2    O5 2142   0.268   0.943   9.381  0.0671 -0.4363  0.5643
  137TMC2    H5 2143   0.186   0.917   9.429 -2.2924  1.1607 -2.5503
  138MPD2     C 2144   0.795   0.501   9.545  0.4335 -0.2701 -0.4632
  138MPD2    C1 2145   0.691   0.481   9.638 -0.1275 -1.1133  0.5049
  138MPD2    C2 2146   0.688   0.355   9.693 -0.0266  0.1831  0.0070
  138MPD2    C3 2147   0.790   0.257   9.670 -0.0438 -0.0696 -0.2554
  138MPD2    C4 2148   0.888   0.276   9.574 -0.6672  0.3732  0.3605
  138MPD2    C5 2149   0.889   0.400   9.521  0.0832  0.4815  0.1708
  138MPD2     H 2150   0.614   0.335   9.770 -0.7634  3.4919  0.1698
  138MPD2    H1 2151   0.966   0.202   9.556 -0.5949  0.9416 -1.6077
  138MPD2    H2 2152   0.816   0.597   9.501 -2.2084 -0.0829 -1.3046
  138MPD2    H3 2153   0.966   0.420   9.447 -2.4132  1.5292 -2.1106
  138MPD2     N 2154   0.782   0.141   9.754 -0.3229 -0.2010  0.3350
  138MPD2    H5 2155   0.710   0.145   9.825  1.0620  0.4314  1.7122
  138MPD2    N1 2156   0.594   0.583   9.655  0.1257  0.6702 -0.2347
  138MPD2    H7 2157   0.594   0.668   9.599 -1.8162  0.3388 -0.7389
  139TMC2    C1 2158   1.046   2.999  13.272  0.1682 -0.3883 -0.2093
  139TMC2    C2 2159   1.163   3.056  13.228  0.5241  0.0468  0.0981
  139TMC2    C3 2160   1.190   3.182  13.274 -0.4386 -0.5709 -0.7356
  139TMC2    C4 2161   0.945   3.073  13.330 -0.1746  0.4167 -0.0087
  139TMC2    C5 2162   0.969   3.210  13.339 -0.0772  0.6506 -0.3265
  139TMC2    C6 2163   1.085   3.269  13.307 -0.1074 -0.3205  0.3016
  139TMC2     C 2164   1.049   2.860  13.311 -0.7992 -0.2842  0.2815
  139TMC2     O 2165   1.155   2.801  13.279  0.0559  0.2562 -0.9817
  139TMC2     H 2166   1.243   2.996  13.186  1.1466 -1.1839  3.0479
  139TMC2    H1 2167   0.845   3.033  13.348 -0.2425  0.3593 -0.5082
  139TMC2    H2 2168   1.095   3.375  13.328 -3.9239  0.2103 -0.4937
  139TMC2    C7 2169   0.860   3.294  13.373  0.0319 -0.0969  0.1438
  139TMC2    C8 2170   1.327   3.214  13.295 -0.0245 -0.1418  0.0903
  139TMC2    O1 2171   0.882   3.412  13.365 -0.1855  0.4238  0.4091
  139TMC2    O2 2172   1.416   3.196  13.210  0.3576 -0.8292  0.4036
  139TMC2    O5 2173   1.343   3.258  13.421  0.6904 -0.2706  0.3479
  139TMC2    H5 2174   1.266   3.248  13.481 -0.3012  0.1752 -0.8689
  140MPD2     C 2175   0.844   2.638  13.526 -0.0336  0.5849 -0.3555
  140MPD2    C1 2176   0.934   2.670  13.425 -0.2193  0.1297  0.2834
  140MPD2    C2 2177   1.020   2.571  13.379 -0.1135 -0.3808  0.0187
  140MPD2    C3 2178   1.028   2.442  13.433  0.1404  0.2726 -0.6395
  140MPD2    C4 2179   0.938   2.417  13.541 -0.5887 -0.5566  0.6529
  140MPD2    C5 2180   0.844   2.514  13.583 -0.5351 -0.1230  0.1757
  140MPD2     H 2181   1.094   2.589  13.302 -0.3638 -2.6922 -0.7769
  140MPD2    H1 2182   0.939   2.324  13.597  0.3447  0.6741  2.6795
  140MPD2    H2 2183   0.777   2.716  13.558 -1.1257 -0.4642 -0.0826
  140MPD2    H3 2184   0.772   2.493  13.661 -0.6944 -1.3988 -0.3124
  140MPD2     N 2185   1.128   2.350  13.395 -0.2653 -0.8799 -0.7286
  140MPD2    H5 2186   1.173   2.376  13.308 -2.3674  0.3912 -1.4515
  140MPD2    N1 2187   0.939   2.806  13.378  0.1765 -0.0913  0.1423
  140MPD2    H7 2188   0.868   2.864  13.423 -0.7310  0.3511 -1.8584
  141TMC2    C1 2189   1.782   4.200  14.484 -0.4700 -0.0157 -0.1189
  141TMC2    C2 2190   1.747   4.149  14.616  0.2076  0.5824 -0.5081
  141TMC2    C3 2191   1.849   4.162  14.703  0.4467  0.3738  0.0438
  141TMC2    C4 2192   1.910   4.252  14.458  0.4430 -0.1166 -0.4465
  141TMC2    C5 2193   2.006   4.246  14.554 -0.1319  0.0878 -0.0597
  141TMC2    C6 2194   1.979   4.210  14.684 -0.0677  0.1741 -0.9862
  141TMC2     C 2195   1.693   4.187  14.368  0.0001  0.3860  0.0854
  141TMC2     O 2196   1.727   4.238  14.263  0.9489  0.7310 -0.3361
  141TMC2     H 2197   1.649   4.115  14.649  0.3685  1.3802  0.7841
  141TMC2    H1 2198   1.929   4.286  14.357  1.0313  0.3500 -0.1794
  141TMC2    H2 2199   2.057   4.214  14.759 -1.3302  0.9079  0.2927
  141TMC2    C7 2200   2.140   4.283  14.511 -0.1131  0.1053 -0.4486
  141TMC2    C8 2201   1.810   4.125  14.836 -0.0507  0.3419  0.9231
  141TMC2    O1 2202   2.162   4.301  14.392 -0.1183  0.1706  0.2844
  141TMC2    O2 2203   1.690   4.127  14.869  0.1721 -0.4185  0.5970
  141TMC2    O5 2204   1.906   4.041  14.884 -0.7375  0.3711 -0.0924
  141TMC2    H5 2205   1.966   4.014  14.811  1.5888  1.3063  1.4643
  142TMC2    C1 2206   4.139   3.087   9.077  0.4715 -0.3439  0.3903
  142TMC2    C2 2207   4.158   3.092   8.941  0.2665 -1.0672 -0.0462
  142TMC2    C3 2208   4.225   3.198   8.883  0.3394  0.5496  0.4289
  142TMC2    C4 2209   4.199   3.177   9.160  0.7736  0.1835  0.0174
  142TMC2    C5 2210   4.271   3.279   9.100  0.0482  0.1311  0.1458
  142TMC2    C6 2211   4.280   3.299   8.966  0.1292  0.0216  0.7440
  142TMC2     C 2212   4.069   2.969   9.139 -0.4613 -0.5074 -0.5697
  142TMC2     O 2213   3.969   2.929   9.077 -0.0168 -0.5506  0.8657
  142TMC2     H 2214   4.120   3.008   8.883 -0.4201 -1.3035  0.7331
  142TMC2    H1 2215   4.191   3.155   9.266  1.1879  1.3442  0.2820
  142TMC2    H2 2216   4.331   3.385   8.924  1.3366 -1.6273 -1.1894
  142TMC2    C7 2217   4.318   3.372   9.197 -0.3838 -0.1848  0.2373
  142TMC2    C8 2218   4.221   3.213   8.742  0.6656 -0.1677 -0.1826
  142TMC2    O1 2219   4.331   3.329   9.309 -0.6558 -0.2538  0.4750
  142TMC2    O2 2220   4.209   3.318   8.678  0.0421 -0.6507  0.3406
  142TMC2    O5 2221   4.196   3.093   8.689 -0.4692 -0.5094  0.0622
  142TMC2    H5 2222   4.246   3.031   8.747  1.2050  0.1928 -0.6270
  143MPD2     C 2223   4.041   2.615   9.506 -0.1490  0.6933  0.2414
  143MPD2    C1 2224   3.941   2.665   9.415 -0.8274  0.9240 -0.1492
  143MPD2    C2 2225   3.971   2.768   9.330  0.5969 -0.4612 -0.4995
  143MPD2    C3 2226   4.109   2.802   9.317  0.0367  0.1190 -0.3885
  143MPD2    C4 2227   4.195   2.770   9.418  0.3626 -0.4578  0.1578
  143MPD2    C5 2228   4.162   2.672   9.508 -0.3514 -0.2736  0.2676
  143MPD2     H 2229   3.896   2.818   9.271  1.3708  0.9793 -0.2616
  143MPD2    H1 2230   4.298   2.801   9.425  0.2450 -0.5322  2.4957
  143MPD2    H2 2231   4.031   2.539   9.582  1.1134  1.5271  1.2402
  143MPD2    H3 2232   4.234   2.620   9.569 -3.0592 -0.2191  3.5097
  143MPD2     N 2233   4.145   2.916   9.240  0.0224  0.2104  0.0744
  143MPD2    H5 2234   4.233   2.963   9.256  0.3488 -0.2294 -0.4419
  143MPD2    N1 2235   3.810   2.611   9.434  0.1895 -0.2224  0.8114
  143MPD2    H7 2236   3.816   2.527   9.492 -0.2852 -0.4936  0.4653
  144TMC2    C1 2237   2.410   1.340   0.883  0.2553  0.5770  0.3063
  144TMC2    C2 2238   2.419   1.206   0.908  0.2331  0.4581 -0.5238
  144TMC2    C3 2239   2.469   1.171   1.028 -0.3725 -0.2252 -0.0073
  144TMC2    C4 2240   2.452   1.435   0.968  0.5509  0.4730 -0.3572
  144TMC2    C5 2241   2.510   1.390   1.085  0.0061  0.7226 -0.2797
  144TMC2    C6 2242   2.516   1.257   1.116  0.0535  0.2919  0.2859
  144TMC2     C 2243   2.380   1.359   0.740 -0.1238 -0.2819  0.3930
  144TMC2     O 2244   2.342   1.270   0.666 -0.1358  1.0683  0.4655
  144TMC2     H 2245   2.385   1.131   0.837  1.2299  0.6253 -1.1766
  144TMC2    H1 2246   2.442   1.539   0.941 -0.4651  0.3670 -0.3832
  144TMC2    H2 2247   2.545   1.222   1.215  0.5090  1.9279  0.7410
  144TMC2    C7 2248   2.600   1.478   1.155 -0.2571  0.5318 -0.2378
  144TMC2    C8 2249   2.494   1.025   1.049 -0.1192 -0.0759 -0.2890
  144TMC2    O1 2250   2.704   1.426   1.196 -0.1757 -0.7370 -0.6315
  144TMC2    O2 2251   2.571   0.978   1.137  0.2077  0.0784 -0.1721
  144TMC2    O5 2252   2.403   0.954   0.984  0.5765  0.7978  0.9545
  144TMC2    H5 2253   2.317   0.994   0.958  0.1729 -0.5185  0.3102
  145MPD2     C 2254   2.324   1.689   0.335 -0.5484 -0.1345  0.5316
  145MPD2    C1 2255   2.305   1.553   0.345  0.2120 -0.2811 -0.2038
  145MPD2    C2 2256   2.319   1.490   0.465 -0.3626  0.0924 -0.7192
  145MPD2    C3 2257   2.363   1.549   0.578 -0.0737  0.3734 -0.3328
  145MPD2    C4 2258   2.381   1.680   0.570 -0.3272 -0.0676 -0.3029
  145MPD2    C5 2259   2.355   1.749   0.458  0.0829  0.5641  1.0748
  145MPD2     H 2260   2.294   1.385   0.478 -3.1661  0.7106 -1.1967
  145MPD2    H1 2261   2.400   1.741   0.658 -3.3873  0.6414 -0.1204
  145MPD2    H2 2262   2.320   1.741   0.240 -4.2531 -0.9948  0.2142
  145MPD2    H3 2263   2.364   1.857   0.466 -0.3294  0.6641  0.1529
  145MPD2     N 2264   2.390   1.489   0.706 -0.2685 -0.1206 -0.0724
  145MPD2    H5 2265   2.420   1.554   0.778 -0.4985 -1.5255  1.2855
  145MPD2    N1 2266   2.274   1.479   0.233 -0.4948 -0.1616  0.3334
  145MPD2    H7 2267   2.278   1.378   0.241  1.3907  0.0643  2.2203
  146TMC2    C1 2268   3.370   0.753  12.736  0.7061  0.2155  0.2447
  146TMC2    C2 2269   3.239   0.733  12.687  0.6203 -0.2408  0.4807
  146TMC2    C3 2270   3.215   0.649  12.585 -0.4295  0.0938 -0.0709
  146TMC2    C4 2271   3.474   0.674  12.690  0.0191 -0.3493 -0.3665
  146TMC2    C5 2272   3.444   0.594  12.581 -0.1206  0.5599  0.6605
  146TMC2    C6 2273   3.319   0.576  12.533  0.1166  0.3357 -0.1898
  146TMC2     C 2274   3.381   0.828  12.862  0.3544 -0.3760 -0.1623
  146TMC2     O 2275   3.291   0.913  12.885 -0.0736 -0.8772  0.3330
  146TMC2     H 2276   3.164   0.789  12.742  0.2781 -1.2889  1.0870
  146TMC2    H1 2277   3.574   0.696  12.725  0.7861 -2.3492 -1.3776
  146TMC2    H2 2278   3.304   0.514  12.446  1.9060  1.1126 -1.0492
  146TMC2    C7 2279   3.550   0.519  12.515  0.6867  0.0119 -0.5632
  146TMC2    C8 2280   3.094   0.668  12.504 -0.2012 -0.4975  0.2947
  146TMC2    O1 2281   3.531   0.487  12.396  0.1788 -0.5670  0.1734
  146TMC2    O2 2282   3.082   0.633  12.388 -0.5306  0.0710  0.2455
  146TMC2    O5 2283   2.993   0.665  12.597  0.1041 -0.0744 -0.0915
  146TMC2    H5 2284   3.018   0.651  12.691 -0.4113  2.1256  0.3595
  147MPD2     C 2285   3.990   0.266  12.511 -0.6434  0.5070 -0.3408
  147MPD2    C1 2286   3.961   0.286  12.640 -0.2318  0.1218 -0.1463
  147MPD2    C2 2287   3.853   0.363  12.667  0.0945 -0.5587 -0.0206
  147MPD2    C3 2288   3.760   0.398  12.567  0.6205 -0.0505 -0.5661
  147MPD2    C4 2289   3.785   0.361  12.438 -0.1140  0.3866 -0.0542
  147MPD2    C5 2290   3.901   0.292  12.414  0.0457  0.3843  0.2502
  147MPD2     H 2291   3.829   0.402  12.765 -1.6944  0.0176 -0.6747
  147MPD2    H1 2292   3.713   0.379  12.359  0.3496  0.3431 -0.4864
  147MPD2    H2 2293   4.074   0.207  12.478 -0.5936  0.5510 -0.2919
  147MPD2    H3 2294   3.922   0.241  12.321  0.5559  0.8882  0.0905
  147MPD2     N 2295   3.648   0.473  12.603  0.3747  0.4332 -0.1332
  147MPD2    H5 2296   3.649   0.510  12.697 -0.2298 -0.5897  0.2700
  147MPD2    N1 2297   4.056   0.238  12.736  0.1594 -0.0002 -0.5385
  147MPD2    H7 2298   4.142   0.203  12.697  0.9787  0.8294  0.5377
  148TMC2    C1 2299   3.865   4.005  10.313  0.0903 -0.2370  0.1718
  148TMC2    C2 2300   3.964   4.082  10.252  0.4068 -0.4807  0.0753
  148TMC2    C3 2301   4.090   4.027  10.230 -0.4082 -0.6977  0.1519
  148TMC2    C4 2302   3.888   3.870  10.341  0.0910  0.8114  0.2470
  148TMC2    C5 2303   4.004   3.813  10.303  0.3730 -0.0689  0.6275
  148TMC2    C6 2304   4.102   3.893  10.243 -0.7137  0.1566 -0.2867
  148TMC2     C 2305   3.735   4.054  10.306  0.5714  0.7351  0.1414
  148TMC2     O 2306   3.729   4.178  10.314  0.1679  0.1342 -0.2121
  148TMC2     H 2307   3.946   4.181  10.212  0.8171 -0.0617  0.9191
  148TMC2    H1 2308   3.805   3.807  10.370 -0.8457  2.1921  0.6105
  148TMC2    H2 2309   4.170   3.842  10.175 -0.5366  1.3097 -0.9687
  148TMC2    C7 2310   3.987   3.682  10.246 -0.1378  0.3326 -0.5042
  148TMC2    C8 2311   4.167   4.092  10.121 -0.3117 -0.2860 -0.2479
  148TMC2    O1 2312   3.870   3.648  10.222  0.7118 -0.6802  0.4256
  148TMC2    O2 2313   4.125   4.176  10.046  0.3281 -0.1257 -0.0329
  148TMC2    O5 2314   4.296   4.075  10.159  0.4723  0.2467 -0.1785
  148TMC2    H5 2315   4.312   4.015  10.236 -1.2253 -0.4421 -0.3536
  149MPD2     C 2316   3.455   4.095  10.214  0.0833 -0.6461 -0.0758
  149MPD2    C1 2317   3.505   3.971  10.240  0.4503  0.2127  0.1891
  149MPD2    C2 2318   3.424   3.865  10.223  0.1164  0.3864  0.1959
  149MPD2    C3 2319   3.293   3.881  10.173 -0.1572  0.3725 -0.1550
  149MPD2    C4 2320   3.251   4.006  10.135  0.2852 -0.6652  0.1304
  149MPD2    C5 2321   3.332   4.112  10.162 -0.3529  0.5183 -0.4161
  149MPD2     H 2322   3.458   3.766  10.252  0.2618  0.7176  1.1358
  149MPD2    H1 2323   3.148   4.023  10.108  1.0311 -1.4065 -3.1688
  149MPD2    H2 2324   3.506   4.189  10.233  1.4911 -1.9936  2.8618
  149MPD2    H3 2325   3.305   4.216  10.146  1.6599  1.3049  1.2396
  149MPD2     N 2326   3.202   3.773  10.178 -0.2921 -0.1780 -0.5165
  149MPD2    H5 2327   3.110   3.802  10.145 -0.3686 -0.1252 -0.2513
  149MPD2    N1 2328   3.644   3.954  10.289 -0.2472 -0.3178 -0.3202
  149MPD2    H7 2329   3.669   3.859  10.315  2.2965  0.2490 -0.6272
  150TMC2    C1 2330   1.379   3.409  12.258  0.3400 -0.3689  0.2128
  150TMC2    C2 2331   1.325   3.535  12.249 -0.0583 -0.4295 -0.4084
  150TMC2    C3 2332   1.382   3.636  12.332 -0.3806 -0.2110 -0.3848
  150TMC2    C4 2333   1.491   3.386  12.333 -0.4889 -0.1908  0.6013
  150TMC2    C5 2334   1.551   3.485  12.406 -0.0156  0.2291  0.5814
  150TMC2    C6 2335   1.498   3.612  12.402 -0.6229 -0.2581  0.5015
  150TMC2     C 2336   1.294   3.291  12.235 -0.7244 -0.6257 -0.3074
  150TMC2     O 2337   1.328   3.191  12.291  0.3654  0.3189 -0.0330
  150TMC2     H 2338   1.233   3.545  12.193 -1.5158 -1.8890  1.7288
  150TMC2    H1 2339   1.538   3.289  12.342  0.3053  0.0687 -0.8160
  150TMC2    H2 2340   1.538   3.691  12.465 -1.8638  0.7520 -0.0001
  150TMC2    C7 2341   1.686   3.477  12.439 -0.0321  0.7975 -0.4057
  150TMC2    C8 2342   1.358   3.776  12.294 -0.0805  0.3904  0.4983
  150TMC2    O1 2343   1.749   3.583  12.434 -0.1030  0.5476  1.1471
  150TMC2    O2 2344   1.364   3.870  12.369 -0.7527  0.0099  0.0520
  150TMC2    O5 2345   1.357   3.765  12.162  0.3597 -0.4693  0.9062
  150TMC2    H5 2346   1.370   3.670  12.142  1.2480 -0.1620  0.0404
  151MPD2     C 2347   0.900   3.021  12.056 -0.3452 -0.8071 -0.1414
  151MPD2    C1 2348   0.866   3.157  12.035  1.2769  0.2704  0.8578
  151MPD2    C2 2349   0.952   3.262  12.074  1.1263 -1.0347 -0.1972
  151MPD2    C3 2350   1.071   3.223  12.139 -0.5908 -0.3888  0.4957
  151MPD2    C4 2351   1.102   3.094  12.144 -0.6203 -0.9026 -0.7930
  151MPD2    C5 2352   1.017   2.991  12.107  0.4624 -0.2624  0.4056
  151MPD2     H 2353   0.918   3.365  12.075 -1.0312 -1.7279 -0.5257
  151MPD2    H1 2354   1.190   3.056  12.194 -0.1130  1.1337 -0.1407
  151MPD2    H2 2355   0.843   2.936  12.021  0.0250 -2.8373  4.2824
  151MPD2    H3 2356   1.044   2.888  12.128  0.4206 -0.4491 -0.4986
  151MPD2     N 2357   1.172   3.323  12.177 -0.4573 -0.1159  0.1984
  151MPD2    H5 2358   1.149   3.420  12.157  0.3905 -0.0149 -0.3074
  151MPD2    N1 2359   0.738   3.181  11.984  0.3048 -0.5558 -0.3380
  151MPD2    H7 2360   0.681   3.097  11.976  0.0809 -0.3585 -0.8233
  152TMC2    C1 2361   0.828   3.201  12.375  0.4214 -0.1461 -0.5683
  152TMC2    C2 2362   0.860   3.075  12.411  0.7485  0.2660  0.3932
  152TMC2    C3 2363   0.975   3.065  12.484 -0.2241  0.0196  0.2268
  152TMC2    C4 2364   0.909   3.311  12.399  0.1388 -0.2197 -0.0716
  152TMC2    C5 2365   1.024   3.300  12.475 -0.1650  0.0869  0.6203
  152TMC2    C6 2366   1.051   3.172  12.518 -0.0607 -0.8110  0.4755
  152TMC2     C 2367   0.689   3.250  12.334  0.5923 -0.9536  0.7819
  152TMC2     O 2368   0.676   3.361  12.285  0.5249 -0.2329 -0.2479
  152TMC2     H 2369   0.797   2.988  12.397 -0.2025  0.7958  1.4576
  152TMC2    H1 2370   0.874   3.407  12.363 -0.0563 -0.2266  0.0993
  152TMC2    H2 2371   1.143   3.156  12.574 -0.2268 -1.6990  0.5047
  152TMC2    C7 2372   1.089   3.423  12.516 -0.3377  0.2062  0.0493
  152TMC2    C8 2373   0.982   2.948  12.563  0.1569 -0.1676  0.2048
  152TMC2    O1 2374   1.052   3.517  12.446 -0.3030 -0.1240  0.2546
  152TMC2    O2 2375   0.897   2.859  12.569 -0.2262  0.4173  0.1784
  152TMC2    O5 2376   1.107   2.919  12.605  0.6630 -0.3299 -0.7830
  152TMC2    H5 2377   1.179   2.977  12.572 -2.0252  2.2861 -2.0260
  153MPD2     C 2378   0.376   3.060  12.372  0.1866  0.1924  0.5840
  153MPD2    C1 2379   0.456   3.164  12.333  0.5282 -0.0156  0.0381
  153MPD2    C2 2380   0.395   3.275  12.277 -0.5972 -0.1104  0.2163
  153MPD2    C3 2381   0.254   3.288  12.280 -0.3569 -0.8240  0.0868
  153MPD2    C4 2382   0.174   3.177  12.310  0.8289 -0.5072 -0.3631
  153MPD2    C5 2383   0.240   3.073  12.366  0.7400 -0.1804 -0.8971
  153MPD2     H 2384   0.463   3.349  12.236  0.5594 -0.1653  2.0816
  153MPD2    H1 2385   0.066   3.180  12.303  1.0610  1.3154 -2.8391
  153MPD2    H2 2386   0.427   2.976  12.417  1.7121 -0.8540 -3.1639
  153MPD2    H3 2387   0.184   2.997  12.418  0.8049  1.3212  1.3554
  153MPD2     N 2388   0.203   3.412  12.239  0.5028  0.1120  0.5566
  153MPD2    H5 2389   0.271   3.485  12.221 -0.8264  1.0496 -0.6695
  153MPD2    N1 2390   0.594   3.149  12.355  0.7666  0.0561  0.2830
  153MPD2    H7 2391   0.622   3.061  12.397  0.6164  1.0426  2.4327
  154TMC2    C1 2392   2.518   2.618   0.488  0.4252  0.1706  0.3557
  154TMC2    C2 2393   2.614   2.599   0.581  0.2820 -0.2534 -0.1197
  154TMC2    C3 2394   2.711   2.511   0.541  0.8735  0.3278 -0.3049
  154TMC2    C4 2395   2.517   2.568   0.355 -0.1015 -0.0507 -0.1892
  154TMC2    C5 2396   2.626   2.498   0.317 -0.3993  0.0408 -0.1478
  154TMC2    C6 2397   2.722   2.467   0.411 -0.2390  0.5326  0.2240
  154TMC2     C 2398   2.434   2.728   0.522 -0.3090 -0.1402 -0.2090
  154TMC2     O 2399   2.457   2.796   0.625  0.4734  0.2546 -0.1861
  154TMC2     H 2400   2.602   2.627   0.685  0.5874 -0.9703  0.1041
  154TMC2    H1 2401   2.433   2.558   0.288  0.2088 -0.5802 -0.4938
  154TMC2    H2 2402   2.806   2.402   0.390  1.1168  3.1358 -2.4512
  154TMC2    C7 2403   2.636   2.449   0.185  0.6070 -0.2835  0.1904
  154TMC2    C8 2404   2.784   2.434   0.641  0.4917 -0.4171 -0.0547
  154TMC2    O1 2405   2.682   2.336   0.171  0.1119  0.0688 -0.8385
  154TMC2    O2 2406   2.832   2.325   0.618 -0.2634 -0.4530  0.6583
  154TMC2    O5 2407   2.816   2.522   0.740  0.0594 -0.0188  0.2063
  154TMC2    H5 2408   2.796   2.613   0.710  0.8254  0.2266  0.4436
  155MPD2     C 2409   2.158   2.854   0.326 -0.5654  0.1944  0.2566
  155MPD2    C1 2410   2.239   2.843   0.432  0.2120 -0.7646 -0.3739
  155MPD2    C2 2411   2.233   2.940   0.533  0.6504 -0.0909  0.2863
  155MPD2    C3 2412   2.125   3.034   0.534 -0.1512 -0.4270  0.1744
  155MPD2    C4 2413   2.039   3.038   0.427  0.0212  0.4092 -0.1856
  155MPD2    C5 2414   2.054   2.948   0.325  0.4134 -0.4410  0.3127
  155MPD2     H 2415   2.295   2.947   0.622  0.4933  0.0239  0.3895
  155MPD2    H1 2416   1.953   3.104   0.430 -1.3882 -1.2828 -3.3608
  155MPD2    H2 2417   2.176   2.794   0.238 -2.4300 -0.4454  0.3335
  155MPD2    H3 2418   1.981   2.946   0.245 -1.6348 -2.3403  2.2269
  155MPD2     N 2419   2.109   3.132   0.643 -1.7151 -0.1946  0.7353
  155MPD2    H5 2420   2.164   3.127   0.729 -0.6353  0.7992  0.0911
  155MPD2    N1 2421   2.333   2.739   0.431 -0.0514 -0.0579 -0.5401
  155MPD2    H7 2422   2.331   2.679   0.349  1.6303  1.6592 -1.8337
  156TMC2    C1 2423   0.381   0.670  12.215 -0.4695  0.3198 -0.5475
  156TMC2    C2 2424   0.310   0.554  12.191  0.7392 -1.0416  0.0982
  156TMC2    C3 2425   0.220   0.558  12.078 -0.6571 -0.1394  0.5344
  156TMC2    C4 2426   0.364   0.785  12.139  0.3287 -0.0234 -0.1657
  156TMC2    C5 2427   0.285   0.780  12.030 -1.5169  0.4318 -0.6996
  156TMC2    C6 2428   0.215   0.669  11.996  0.5953 -0.0372 -0.2788
  156TMC2     C 2429   0.465   0.684  12.337  0.2448 -0.5183  0.0884
  156TMC2     O 2430   0.531   0.789  12.340  0.0192  0.3783 -0.4673
  156TMC2     H 2431   0.309   0.467  12.256 -3.1974 -0.5763  0.6577
  156TMC2    H1 2432   0.425   0.874  12.151  1.6027 -0.6945 -1.6472
  156TMC2    H2 2433   0.149   0.674  11.910  0.2398 -0.8781 -0.0485
  156TMC2    C7 2434   0.272   0.905  11.954 -0.4608 -0.0813  0.0524
  156TMC2    C8 2435   0.136   0.440  12.049  0.1967  0.6595 -0.2630
  156TMC2    O1 2436   0.345   0.996  11.983  0.5318 -0.4486 -0.7905
  156TMC2    O2 2437   0.019   0.464  12.021  0.2554 -0.3577 -0.6063
  156TMC2    O5 2438   0.184   0.329  12.110  0.7308 -0.1215 -0.2981
  156TMC2    H5 2439   0.281   0.331  12.097  0.8375  1.1188  0.6380
  157MPD2     C 2440   0.491   0.458  12.629  0.4654  0.3610 -0.4725
  157MPD2    C1 2441   0.528   0.565  12.547  0.1347  0.4811  0.1965
  157MPD2    C2 2442   0.626   0.648  12.592  0.0991 -0.3547 -0.1690
  157MPD2    C3 2443   0.694   0.624  12.709  0.5210  0.4723 -0.9977
  157MPD2    C4 2444   0.666   0.511  12.785  0.1342  0.4644 -0.0289
  157MPD2    C5 2445   0.559   0.435  12.745  0.7490  0.8805  0.1278
  157MPD2     H 2446   0.653   0.736  12.534  2.1820 -1.1635 -0.4192
  157MPD2    H1 2447   0.704   0.493  12.885  0.4617  0.2032 -0.1993
  157MPD2    H2 2448   0.418   0.387  12.591  0.9900  0.5411 -1.7991
  157MPD2    H3 2449   0.528   0.352  12.808 -0.6248  1.8379  0.7146
  157MPD2     N 2450   0.787   0.718  12.754  0.2384  0.5717  0.2879
  157MPD2    H5 2451   0.779   0.810  12.712  0.9456 -0.2388 -1.6158
  157MPD2    N1 2452   0.447   0.585  12.434  0.0140 -0.5529 -0.3402
  157MPD2    H7 2453   0.371   0.519  12.418 -0.5280  0.0431 -0.2282
  158TMC2    C1 2454   1.011   0.063  13.185 -0.4428 -0.0105 -0.6919
  158TMC2    C2 2455   1.045   0.121  13.062  0.3799 -0.2669 -0.8499
  158TMC2    C3 2456   0.945   0.170  12.983  0.8467 -0.2513 -0.2118
  158TMC2    C4 2457   0.881   0.032  13.217  0.3282  0.7166  0.8472
  158TMC2    C5 2458   0.789   0.085  13.133  0.4723 -0.0958  0.2146
  158TMC2    C6 2459   0.812   0.168  13.028 -0.1322 -0.1999  0.2271
  158TMC2     C 2460   1.125   4.733  13.254  0.5460  0.2398 -0.0631
  158TMC2     O 2461   1.234   4.718  13.198  0.4261  0.2147  0.1593
  158TMC2     H 2462   1.148   0.130  13.028  1.0876 -0.0438  1.3985
  158TMC2    H1 2463   0.853   4.705  13.299 -0.9872 -0.3731 -0.4478
  158TMC2    H2 2464   0.732   0.220  12.977 -0.1646  0.2561  0.7437
  158TMC2    C7 2465   0.659   0.028  13.123 -0.0836 -0.6740  0.0828
  158TMC2    C8 2466   0.981   0.270  12.889 -0.5130 -0.4167  0.1303
  158TMC2    O1 2467   0.578   0.096  13.060 -0.3789  0.1299  0.5790
  158TMC2    O2 2468   1.091   0.322  12.893  0.2762 -0.5077 -0.4963
  158TMC2    O5 2469   0.902   0.253  12.779 -0.1928 -0.0208 -0.4405
  158TMC2    H5 2470   0.841   0.177  12.784 -1.8392  1.4028  1.1183
  159MPD2     C 2471   1.354   4.586  13.687 -0.1462 -0.2429  0.2287
  159MPD2    C1 2472   1.221   4.547  13.703  0.8387 -0.4799 -0.4946
  159MPD2    C2 2473   1.141   4.584  13.596  0.0606 -0.1380 -0.3817
  159MPD2    C3 2474   1.186   4.659  13.485  0.4720 -0.3517 -0.0477
  159MPD2    C4 2475   1.319   4.686  13.470  0.0588 -0.1099 -0.0274
  159MPD2    C5 2476   1.398   4.655  13.584 -0.4620  0.2665  0.2166
  159MPD2     H 2477   1.035   4.562  13.597  0.0838 -0.3223 -2.1506
  159MPD2    H1 2478   1.366   0.003  13.389 -0.4050 -1.4059 -1.1764
  159MPD2    H2 2479   1.422   4.587  13.772  2.6435  1.5018 -1.9991
  159MPD2    H3 2480   1.494   4.704  13.583 -0.1438 -0.2996  3.0736
  159MPD2     N 2481   1.096   4.692  13.382 -0.0419  0.1936  0.0869
  159MPD2    H5 2482   1.001   4.656  13.383 -0.0508  0.1542 -3.1876
  159MPD2    N1 2483   1.177   4.494  13.823 -0.2567 -0.5508  0.5513
  159MPD2    H7 2484   1.245   4.477  13.895  1.8541  0.9730 -1.0957
  160TMC2    C1 2485   0.548   1.707   1.208  0.2719 -0.1900  1.0297
  160TMC2    C2 2486   0.554   1.596   1.289 -0.1165  0.3770 -0.2992
  160TMC2    C3 2487   0.679   1.561   1.335  0.7559  0.0633  0.2445
  160TMC2    C4 2488   0.657   1.776   1.171  0.5203  0.5328 -0.1037
  160TMC2    C5 2489   0.779   1.746   1.228 -0.2174  0.3717 -0.3977
  160TMC2    C6 2490   0.796   1.629   1.299 -0.1542  0.0463 -0.6529
  160TMC2     C 2491   0.419   1.734   1.143 -0.6033 -0.5148 -0.5176
  160TMC2     O 2492   0.339   1.645   1.150 -0.2456  0.0989 -0.2980
  160TMC2     H 2493   0.461   1.553   1.326  0.2126  0.9371  1.1991
  160TMC2    H1 2494   0.650   1.860   1.103  1.4021  0.6449 -0.0516
  160TMC2    H2 2495   0.889   1.604   1.349 -0.3997  1.1449  0.3606
  160TMC2    C7 2496   0.891   1.831   1.191 -0.2937  0.7074  0.4232
  160TMC2    C8 2497   0.694   1.442   1.414  0.0111 -0.3496 -0.3123
  160TMC2    O1 2498   0.853   1.932   1.129 -0.2887 -0.0427 -0.1026
  160TMC2    O2 2499   0.772   1.438   1.505  0.6272  0.1381  0.3621
  160TMC2    O5 2500   0.593   1.352   1.389  0.6678  0.0788 -0.2571
  160TMC2    H5 2501   0.538   1.363   1.309  1.2015 -0.1376 -0.6548
  161MPD2     C 2502   0.179   1.819   0.975 -0.7007  0.7363  0.3702
  161MPD2    C1 2503   0.298   1.892   0.997 -0.5137 -0.1598 -1.1632
  161MPD2    C2 2504   0.300   2.022   0.945 -0.8446  0.3887  0.4302
  161MPD2    C3 2505   0.203   2.072   0.861  0.0276 -0.4555  0.1332
  161MPD2    C4 2506   0.094   1.990   0.834  0.0346  0.5149  0.4818
  161MPD2    C5 2507   0.074   1.876   0.906 -0.2687  0.0287  0.3586
  161MPD2     H 2508   0.382   2.091   0.961 -0.1414  0.2199 -2.4867
  161MPD2    H1 2509   0.009   2.022   0.774 -1.1514 -0.5002  1.6282
  161MPD2    H2 2510   0.164   1.721   1.019  1.4299  0.7635  1.2047
  161MPD2    H3 2511   4.726   1.810   0.895 -0.8371  0.5858  1.4403
  161MPD2     N 2512   0.199   2.207   0.820 -0.1186  0.1736  0.0918
  161MPD2    H5 2513   0.125   2.222   0.752  0.0924  1.5132  0.1662
  161MPD2    N1 2514   0.406   1.853   1.075  0.3295  0.5276  0.3753
  161MPD2    H7 2515   0.485   1.916   1.080  0.9237 -0.3998  2.4759
  162TMC2    C1 2516   4.476   4.610   1.297 -0.1177  0.1000  0.4477
  162TMC2    C2 2517   4.466   4.722   1.379 -0.1171  0.0278 -0.7490
  162TMC2    C3 2518   4.572   4.735   1.464  0.2538  0.1539  0.7253
  162TMC2    C4 2519   4.570   4.510   1.312 -0.0596  0.1894  0.3278
  162TMC2    C5 2520   4.675   4.536   1.402 -0.0508 -1.1683 -0.6012
  162TMC2    C6 2521   4.679   4.650   1.470  0.1747  0.0992 -0.0721
  162TMC2     C 2522   4.371   4.596   1.195  0.8032  0.5784 -0.2455
  162TMC2     O 2523   4.401   4.526   1.100  0.1906  0.6164 -1.1183
  162TMC2     H 2524   4.402   0.064   1.342  1.2160  0.7852 -1.4247
  162TMC2    H1 2525   4.585   4.438   1.232 -1.2838  0.6415 -0.3180
  162TMC2    H2 2526   0.017   4.673   1.544  0.6424 -0.9941 -0.2121
  162TMC2    C7 2527   0.037   4.435   1.435 -0.5753 -0.4221  0.2039
  162TMC2    C8 2528   4.567   0.088   1.572 -0.0695 -1.5984  0.0455
  162TMC2    O1 2529   0.120   4.478   1.515 -0.3978  0.6485  0.0444
  162TMC2    O2 2530   4.667   0.120   1.638  0.0040 -0.1830 -0.1870
  162TMC2    O5 2531   4.437   0.093   1.602 -0.0686 -0.5465 -0.2706
  162TMC2    H5 2532   4.379   0.048   1.537  3.4445 -1.6322 -2.6027
  163MPD2     C 2533   3.895   4.618   1.039 -0.2481 -0.7899 -0.0067
  163MPD2    C1 2534   4.006   4.608   0.968 -0.3811  0.1614  0.9685
  163MPD2    C2 2535   4.132   4.609   1.028  0.1171  1.0409 -0.1992
  163MPD2    C3 2536   4.141   4.649   1.161  0.4061 -0.3985 -0.2157
  163MPD2    C4 2537   4.028   4.676   1.236  0.4051 -0.0200  0.7268
  163MPD2    C5 2538   3.907   4.656   1.170  0.1935 -0.2417  0.2272
  163MPD2     H 2539   4.218   4.580   0.968 -1.4885 -3.0608 -0.5730
  163MPD2    H1 2540   4.028   4.708   1.339 -2.9253  1.3649  0.3044
  163MPD2    H2 2541   3.797   4.614   0.992 -0.4226 -1.6484  0.4360
  163MPD2    H3 2542   3.815   4.667   1.225 -0.3558 -0.0410 -0.7258
  163MPD2     N 2543   4.257   4.647   1.240  0.6523 -0.2834 -0.2293
  163MPD2    H5 2544   4.249   4.683   1.334  3.1649  0.0109 -0.1296
  163MPD2    N1 2545   3.984   4.604   0.826 -0.2980 -0.2513  0.3020
  163MPD2    H7 2546   3.890   4.572   0.807  0.3137  0.0340 -3.2161
  164TMC2    C1 2547   3.875   3.396  10.513 -0.5587 -0.2908 -0.2310
  164TMC2    C2 2548   3.800   3.348  10.404  0.0812 -0.3341 -0.2012
  164TMC2    C3 2549   3.695   3.420  10.357  0.1267  0.7532 -0.0426
  164TMC2    C4 2550   3.831   3.507  10.575 -0.3713  0.3750  0.1737
  164TMC2    C5 2551   3.722   3.582  10.533 -0.3792  0.5603 -0.0722
  164TMC2    C6 2552   3.649   3.532  10.426 -0.0723 -0.6040 -0.2924
  164TMC2     C 2553   3.979   3.319  10.574  1.2293  0.4140 -0.2033
  164TMC2     O 2554   4.023   3.361  10.678  0.1363  0.0299  0.3780
  164TMC2     H 2555   3.818   3.256  10.349 -2.1879 -0.7637 -0.1871
  164TMC2    H1 2556   3.879   3.536  10.668  1.8682 -1.1839 -0.5047
  164TMC2    H2 2557   3.571   3.593  10.382 -0.1541  0.1961  0.9738
  164TMC2    C7 2558   3.673   3.708  10.596  0.7083 -0.9626 -0.2771
  164TMC2    C8 2559   3.603   3.357  10.260 -1.0860  0.0250  0.7289
  164TMC2    O1 2560   3.579   3.762  10.547  0.1306  0.7523  0.3755
  164TMC2    O2 2561   3.610   3.388  10.142  0.0555 -0.0007  0.3459
  164TMC2    O5 2562   3.543   3.252  10.315  0.6262 -0.0093  0.1280
  164TMC2    H5 2563   3.546   3.255  10.413  3.0927  1.0325  0.0195
  165TMC2    C1 2564   0.914   1.354   0.686  0.0360  0.3538  0.8470
  165TMC2    C2 2565   0.874   1.448   0.590 -0.1921 -0.5908 -0.5892
  165TMC2    C3 2566   0.969   1.524   0.526 -1.0091  0.8628  0.3152
  165TMC2    C4 2567   1.046   1.342   0.715 -0.0376  1.2926 -0.0988
  165TMC2    C5 2568   1.136   1.414   0.642 -0.2183  0.4476  0.5820
  165TMC2    C6 2569   1.105   1.505   0.544 -1.0649 -0.2658  0.1961
  165TMC2     C 2570   0.819   1.269   0.758 -1.0960  0.9153  0.4990
  165TMC2     O 2571   0.851   1.219   0.864 -0.7078 -0.7321  0.0438
  165TMC2     H 2572   0.771   1.479   0.586  0.1004  0.5870  1.0121
  165TMC2    H1 2573   1.070   1.259   0.781 -0.2489 -0.2343 -1.9132
  165TMC2    H2 2574   1.178   1.571   0.497  0.4805 -0.3149  2.5438
  165TMC2    C7 2575   1.272   1.373   0.647 -0.2927  0.2642  0.1912
  165TMC2    C8 2576   0.919   1.620   0.432  0.3735 -0.4787  0.0985
  165TMC2    O1 2577   1.315   1.327   0.755  0.1324  0.4149  0.2171
  165TMC2    O2 2578   0.824   1.701   0.459  0.6333 -0.0968 -0.3115
  165TMC2    O5 2579   0.908   1.542   0.322  0.6742  0.3424  0.4884
  165TMC2    H5 2580   0.970   1.467   0.314 -0.3422 -0.1903 -2.4496
  166MPD2     C 2581   0.379   1.044   0.829  0.0795  0.0933 -0.7205
  166MPD2    C1 2582   0.471   1.078   0.925  0.0561  0.8135 -0.1606
  166MPD2    C2 2583   0.576   1.163   0.882 -0.5777  0.0041  0.1136
  166MPD2    C3 2584   0.593   1.190   0.747  0.4459  0.2342 -0.1307
  166MPD2    C4 2585   0.494   1.158   0.659 -0.0788 -0.1489 -0.1027
  166MPD2    C5 2586   0.384   1.083   0.701 -0.0118  0.4370 -0.1006
  166MPD2     H 2587   0.646   1.210   0.951 -1.4647  0.4016  0.7502
  166MPD2    H1 2588   0.492   1.183   0.554  1.4204  1.6536  0.3063
  166MPD2    H2 2589   0.297   0.981   0.862  1.4518 -0.9661  0.7154
  166MPD2    H3 2590   0.314   1.033   0.636  0.4549 -0.0905 -0.2035
  166MPD2     N 2591   0.698   1.266   0.695 -0.2671  0.2694  0.2643
  166MPD2    H5 2592   0.689   1.298   0.599  0.6120  1.7310  0.6720
  166MPD2    N1 2593   0.452   1.030   1.056  0.0660  0.4193 -0.5600
  166MPD2    H7 2594   0.369   0.973   1.071  0.1509  0.2053 -0.9065
  167TMC2    C1 2595   3.725   4.117  12.890 -0.2197  0.0572 -0.5270
  167TMC2    C2 2596   3.694   4.125  13.030 -0.4363  0.1013  0.2186
  167TMC2    C3 2597   3.672   4.004  13.093 -0.2427 -0.4764 -1.3533
  167TMC2    C4 2598   3.740   3.994  12.828  0.1360  0.0365 -0.6254
  167TMC2    C5 2599   3.724   3.878  12.908  0.2707  0.5468 -0.5345
  167TMC2    C6 2600   3.678   3.881  13.039 -0.1103 -0.4806 -0.6808
  167TMC2     C 2601   3.783   4.240  12.831 -0.0349 -0.5342 -0.4608
  167TMC2     O 2602   3.788   4.343  12.897  0.3139  0.6973  0.3536
  167TMC2     H 2603   3.670   4.223  13.069 -2.2902 -0.5439  0.6997
  167TMC2    H1 2604   3.762   3.989  12.722 -2.3464  1.0422 -1.1839
  167TMC2    H2 2605   3.666   3.792  13.100  0.3062  0.4602  0.7759
  167TMC2    C7 2606   3.717   3.745  12.846  0.4259 -0.5364 -0.3759
  167TMC2    C8 2607   3.632   4.017  13.225  0.5129  0.5700  0.3623
  167TMC2    O1 2608   3.630   3.672  12.893 -0.4905  0.2816 -0.1298
  167TMC2    O2 2609   3.523   3.994  13.269  0.1598  0.4994 -0.5649
  167TMC2    O5 2610   3.728   4.089  13.284 -0.3278 -0.5361  0.1405
  167TMC2    H5 2611   3.814   4.071  13.240 -0.1164 -0.0787  0.3636
  168MPD2     C 2612   3.909   4.431  12.642 -0.7137 -0.0348  0.5175
  168MPD2    C1 2613   3.824   4.330  12.602  0.3591 -0.0596  0.4325
  168MPD2    C2 2614   3.782   4.308  12.473 -0.1725  0.1197 -1.3489
  168MPD2    C3 2615   3.826   4.399  12.383 -0.2792  0.3144  0.1075
  168MPD2    C4 2616   3.909   4.503  12.421 -0.0807 -0.2903  0.2995
  168MPD2    C5 2617   3.949   4.524  12.551  0.4885 -0.5918  0.1289
  168MPD2     H 2618   3.702   4.237  12.456  0.6688 -1.0498 -0.4272
  168MPD2    H1 2619   3.936   4.583  12.353 -1.0382 -0.5575 -0.3865
  168MPD2    H2 2620   3.950   4.442  12.742 -1.7187 -0.2293  0.9550
  168MPD2    H3 2621   4.012   4.606  12.582  0.1225 -0.2549 -0.0111
  168MPD2     N 2622   3.793   4.390  12.245  0.2396 -1.0390  0.4573
  168MPD2    H5 2623   3.825   4.469  12.190  0.4464 -0.4125  1.4689
  168MPD2    N1 2624   3.779   4.229  12.692 -0.9896 -0.4747 -0.1895
  168MPD2    H7 2625   3.711   4.158  12.667  1.7664 -2.4912 -2.1198
  169MPD1     C 2626   0.420   4.213   9.625 -0.1689  0.2422  0.8638
  169MPD1    C1 2627   0.554   4.217   9.615 -0.0864 -0.1205  0.9334
  169MPD1    C2 2628   0.630   4.106   9.648  0.3516 -0.2169  0.0985
  169MPD1    C3 2629   0.577   3.989   9.695 -0.1252 -1.1054 -0.3228
  169MPD1    C4 2630   0.441   3.983   9.717 -0.0540 -0.6623  0.1113
  169MPD1    C5 2631   0.364   4.094   9.676 -0.3538  0.9892 -0.2136
  169MPD1     H 2632   0.736   4.097   9.627  0.2549 -1.4955  0.1185
  169MPD1    H1 2633   0.378   3.901   9.749 -0.5106 -0.7328 -0.9763
  169MPD1    H2 2634   0.356   4.289   9.582 -0.6678 -0.2518  0.7400
  169MPD1    H3 2635   0.256   4.084   9.678 -0.4605  1.5317 -3.3771
  169MPD1     N 2636   0.665   3.880   9.730  0.6148 -0.2940 -0.2114
  169MPD1    H5 2637   0.764   3.899   9.735  0.3782  1.5809 -2.7007
  169MPD1    N1 2638   0.618   4.324   9.549 -0.7427  0.0319 -0.8292
  169MPD1    H6 2639   0.566   4.411   9.546  0.4719  0.6860 -2.4208
  169MPD1    H7 2640   0.717   4.330   9.568 -0.6080 -1.5115 -1.0069
  170MPD1     C 2641   0.356   1.192  12.911  0.2694 -0.4310  0.2452
  170MPD1    C1 2642   0.266   1.283  12.863  1.0802 -0.2015  0.4092
  170MPD1    C2 2643   0.143   1.306  12.914  0.1271  0.3330  0.1709
  170MPD1    C3 2644   0.113   1.244  13.030 -0.3567 -0.0154  0.0940
  170MPD1    C4 2645   0.199   1.147  13.079 -0.3514 -0.0256 -0.3076
  170MPD1    C5 2646   0.319   1.126  13.023  0.2447 -0.1965 -0.8795
  170MPD1     H 2647   0.075   1.377  12.868 -2.2521 -0.8304  1.9183
  170MPD1    H1 2648   0.167   1.076  13.155  1.9338 -0.7330 -0.0039
  170MPD1    H2 2649   0.451   1.177  12.861  0.1344  1.8859 -0.7369
  170MPD1    H3 2650   0.389   1.054  13.065 -1.0015  0.2039  1.8728
  170MPD1     N 2651   4.729   1.279  13.088 -0.0666  0.9827  0.3834
  170MPD1    H5 2652   4.687   1.360  13.043 -1.3301 -0.9296 -1.9145
  170MPD1    N1 2653   0.292   1.339  12.739  0.9923  0.0100  0.2595
  170MPD1    H6 2654   0.389   1.372  12.736  1.2095 -0.7899 -1.3541
  170MPD1    H7 2655   0.242   1.425  12.716  1.6778  0.2470 -0.3409
  171MPD1     C 2656   2.730   2.415  15.169 -0.0034 -0.1038  0.1935
  171MPD1    C1 2657   2.758   2.279  15.189  0.9974 -0.3710 -0.3570
  171MPD1    C2 2658   2.874   2.237  15.251 -0.1845 -0.2229 -0.4482
  171MPD1    C3 2659   2.974   2.328  15.298 -0.5722 -0.1154  0.3493
  171MPD1    C4 2660   2.945   2.462  15.275  0.5302  0.6793  0.4924
  171MPD1    C5 2661   2.825   2.501  15.213  0.0153  0.2253  0.4746
  171MPD1     H 2662   2.890   2.130  15.256  0.5309 -0.0280  1.5976
  171MPD1    H1 2663   3.016   2.539  15.301  1.6510 -0.0680 -0.3073
  171MPD1    H2 2664   2.643   2.454  15.118 -0.1000  0.9467  1.1682
  171MPD1    H3 2665   2.814   2.608  15.200 -1.5886 -0.2803 -2.3249
  171MPD1     N 2666   3.099   2.286  15.353  0.1302  0.4552  0.3072
  171MPD1    H5 2667   3.152   2.357  15.403 -2.3856  2.4980  0.0771
  171MPD1    N1 2668   2.690   2.187  15.109 -0.7892  0.0991 -0.9975
  171MPD1    H6 2669   2.594   2.215  15.086 -0.5532  3.0376  1.6438
  171MPD1    H7 2670   2.697   2.093  15.148  0.7477  0.7292  0.2486
  172MPD1     C 2671   2.697   1.017   0.712 -0.1292 -0.0280 -0.4923
  172MPD1    C1 2672   2.742   1.117   0.787 -1.1004  0.4963 -0.4352
  172MPD1    C2 2673   2.752   1.252   0.736 -0.3631 -0.1644  0.1773
  172MPD1    C3 2674   2.707   1.277   0.606  0.1064 -0.3320  0.4880
  172MPD1    C4 2675   2.669   1.170   0.528  0.1300 -0.1472 -0.2017
  172MPD1    C5 2676   2.666   1.039   0.578 -0.3954  0.1744  0.4611
  172MPD1     H 2677   2.789   1.331   0.800 -2.2458  0.8281  0.0385
  172MPD1    H1 2678   2.638   1.177   0.424 -0.3989 -0.1538 -0.0454
  172MPD1    H2 2679   2.700   0.913   0.743 -1.0267  0.2485  0.4896
  172MPD1    H3 2680   2.623   0.963   0.514 -1.0020  2.3757 -1.7468
  172MPD1     N 2681   2.714   1.405   0.545  0.0353 -0.3372 -0.3200
  172MPD1    H5 2682   2.690   1.413   0.447 -0.1767  0.0957 -0.2300
  172MPD1    N1 2683   2.800   1.091   0.911  0.6536  0.3552  0.0391
  172MPD1    H6 2684   2.759   1.165   0.966 -0.3093 -0.4344  0.3839
  172MPD1    H7 2685   2.750   1.009   0.946  1.8858 -0.8816 -1.0538
  173MPD1     C 2686   3.724   2.102  13.660 -0.0538  0.5013  0.0806
  173MPD1    C1 2687   3.763   1.980  13.625 -0.7667 -0.0723 -0.9170
  173MPD1    C2 2688   3.777   1.886  13.724 -0.3334 -0.0030  0.0417
  173MPD1    C3 2689   3.722   1.900  13.849 -0.3302 -0.6044  0.0654
  173MPD1    C4 2690   3.663   2.019  13.882 -0.1019 -0.1863  0.9932
  173MPD1    C5 2691   3.673   2.120  13.785 -0.6433 -0.2354 -0.3067
  173MPD1     H 2692   3.823   1.791  13.699 -1.2339 -0.6764  0.9489
  173MPD1    H1 2693   3.629   2.045  13.981 -0.4111 -1.5531  1.2431
  173MPD1    H2 2694   3.708   2.177  13.584 -0.0064  0.1778 -0.2480
  173MPD1    H3 2695   3.615   2.211  13.800  1.8168  2.0403 -4.8147
  173MPD1     N 2696   3.743   1.799  13.948  0.3799 -0.4353 -0.1291
  173MPD1    H5 2697   3.755   1.707  13.908  0.6397 -0.4350 -0.0530
  173MPD1    N1 2698   3.797   1.935  13.495 -0.1334 -0.6601  0.3134
  173MPD1    H6 2699   3.785   2.004  13.421 -2.1235 -0.5801  0.7145
  173MPD1    H7 2700   3.742   1.855  13.465 -1.5696  1.1071 -1.7603
  174MPD1     C 2701   3.659   0.967  13.716  0.0188  0.2539  0.7886
  174MPD1    C1 2702   3.673   0.948  13.854  0.1809  0.6268 -0.0487
  174MPD1    C2 2703   3.705   1.065  13.925 -0.0321 -0.7658  0.0014
  174MPD1    C3 2704   3.688   1.193  13.878  0.4011  0.1825  0.6486
  174MPD1    C4 2705   3.670   1.204  13.741  1.0549 -0.3132  0.2401
  174MPD1    C5 2706   3.674   1.089  13.665 -0.2183 -0.9476  0.5500
  174MPD1     H 2707   3.739   1.055  14.028 -2.3842  0.1658  0.8690
  174MPD1    H1 2708   3.684   1.299  13.689 -0.8168 -0.1716 -0.0108
  174MPD1    H2 2709   3.647   0.880  13.654 -0.3312  0.6709  0.2687
  174MPD1    H3 2710   3.671   1.096  13.557 -0.3450 -1.3910  0.5266
  174MPD1     N 2711   3.714   1.308  13.957 -0.0776 -0.1461 -0.9491
  174MPD1    H5 2712   3.682   1.388  13.904 -0.4444  0.8983  0.8648
  174MPD1    N1 2713   3.663   0.816  13.911  0.1654  0.6166 -0.2891
  174MPD1    H6 2714   3.584   0.759  13.881  1.9475 -1.6611 -0.6061
  174MPD1    H7 2715   3.662   0.823  14.013 -2.3777 -1.2775 -0.1611
  175MPD1     C 2716   2.652   2.266  15.539  0.6370 -0.4002  0.2121
  175MPD1    C1 2717   2.515   2.284  15.513 -0.1369  0.2711 -0.5613
  175MPD1    C2 2718   2.426   2.240  15.611  0.2038  0.2609  0.6745
  175MPD1    C3 2719   2.463   2.166  15.717 -0.9762  0.5722 -0.5152
  175MPD1    C4 2720   2.598   2.132  15.723 -0.6334 -0.6469 -0.1431
  175MPD1    C5 2721   2.694   2.183  15.641  0.4907  0.9645  0.1904
  175MPD1     H 2722   2.327   2.282  15.616  1.1721  2.8160 -1.3260
  175MPD1    H1 2723   2.630   2.068  15.804 -3.4262  2.0129  3.0276
  175MPD1    H2 2724   2.729   2.307  15.474  0.7446  1.5066  1.5172
  175MPD1    H3 2725   2.798   2.157  15.650  0.9508  2.3630 -1.0334
  175MPD1     N 2726   2.377   2.113  15.813 -0.2444  0.0943 -0.5840
  175MPD1    H5 2727   2.418   2.043  15.875  3.3749  2.4211 -0.3516
  175MPD1    N1 2728   2.480   2.385  15.426 -0.2383  0.1454  0.0312
  175MPD1    H6 2729   2.536   2.380  15.342 -0.8732  0.3783 -0.4101
  175MPD1    H7 2730   2.383   2.379  15.396 -0.3737  0.2591  0.4379
  176MPD1     C 2731   3.485   4.400   0.673 -0.4763  0.0792  0.3777
  176MPD1    C1 2732   3.526   4.514   0.735  0.8197 -0.8791  0.1103
  176MPD1    C2 2733   3.602   4.609   0.666  0.2282  0.0072 -0.5652
  176MPD1    C3 2734   3.627   4.596   0.532 -0.2045  0.1881  0.4917
  176MPD1    C4 2735   3.568   4.489   0.465  0.3548 -0.0866  0.1870
  176MPD1    C5 2736   3.497   4.394   0.539  0.0578 -0.0729  0.3357
  176MPD1     H 2737   3.637   4.693   0.725 -2.2381  0.1432  0.7298
  176MPD1    H1 2738   3.573   4.463   0.360 -4.2731  0.8978 -0.2832
  176MPD1    H2 2739   3.438   4.317   0.724 -2.6683  2.0077  1.4859
  176MPD1    H3 2740   3.460   4.305   0.489  1.5459 -0.0010 -0.9308
  176MPD1     N 2741   3.726   4.678   0.474  0.1991 -0.2169 -0.3747
  176MPD1    H5 2742   3.762   0.013   0.535 -3.8409  0.8194  0.7793
  176MPD1    N1 2743   3.525   4.515   0.874 -0.1713  0.5719  0.1705
  176MPD1    H6 2744   3.451   4.461   0.919 -1.8297  0.8037 -2.1974
  176MPD1    H7 2745   3.517   4.612   0.904  2.1335  1.2138 -1.2778
  177MPD1     C 2746   2.173   4.620  10.131 -0.0005  0.4634  0.0244
  177MPD1    C1 2747   2.080   4.518  10.121 -0.8835  0.5693 -0.0634
  177MPD1    C2 2748   2.017   4.508   9.997  0.6382  0.2944 -0.2075
  177MPD1    C3 2749   2.027   4.609   9.900  0.0267  0.0925 -0.0832
  177MPD1    C4 2750   2.110   4.714   9.920  0.4788 -0.0866  0.3827
  177MPD1    C5 2751   2.183   4.717  10.040  0.2568  0.4827  0.2542
  177MPD1     H 2752   1.953   4.420   9.990  2.7650 -1.0126 -3.6404
  177MPD1    H1 2753   2.123   0.050   9.843 -0.9916 -1.2774 -0.9978
  177MPD1    H2 2754   2.242   4.634  10.214 -0.0512 -1.4703  0.3904
  177MPD1    H3 2755   2.253   0.062  10.045  2.3538 -1.1775 -1.3755
  177MPD1     N 2756   1.948   4.590   9.783 -0.4922 -0.6342 -0.1267
  177MPD1    H5 2757   1.896   4.503   9.778  0.2259 -1.0699 -0.1403
  177MPD1    N1 2758   2.074   4.418  10.225 -0.2869 -0.1486  0.2723
  177MPD1    H6 2759   2.073   4.448  10.322 -0.9478  0.2923  0.1269
  177MPD1    H7 2760   1.996   4.354  10.208 -2.8889  2.3635  2.6147
  178MPD1     C 2761   0.437   0.724   0.396 -0.7164  0.6513  0.2433
  178MPD1    C1 2762   0.428   0.839   0.323  0.2377 -0.2687  0.1249
  178MPD1    C2 2763   0.425   0.831   0.182  1.1728  0.3691 -0.2160
  178MPD1    C3 2764   0.401   0.702   0.120  1.1331  0.2109 -0.8656
  178MPD1    C4 2765   0.391   0.596   0.203  1.1378 -0.0102 -0.2109
  178MPD1    C5 2766   0.405   0.606   0.338  0.3347 -0.0687  0.0743
  178MPD1     H 2767   0.434   0.914   0.113  0.3068  0.0540 -0.7039
  178MPD1    H1 2768   0.367   0.497   0.166  0.8245 -0.6913  1.8653
  178MPD1    H2 2769   0.460   0.721   0.501  2.1293 -0.8845 -0.4173
  178MPD1    H3 2770   0.394   0.509   0.385 -2.7323 -0.2971 -1.0802
  178MPD1     N 2771   0.384   0.692  17.728 -0.4603  0.5817 -0.1781
  178MPD1    H5 2772   0.415   0.774  17.676 -0.5906  0.6902 -0.0836
  178MPD1    N1 2773   0.435   0.968   0.374 -0.2527 -0.0747  0.1869
  178MPD1    H6 2774   0.408   0.972   0.472  3.8129 -2.4514  1.4071
  178MPD1    H7 2775   0.373   1.037   0.332 -1.0201 -0.0929  1.3005
  179MPD1     C 2776   4.585   3.823  15.568 -0.6897 -0.7521 -0.2512
  179MPD1    C1 2777   4.470   3.819  15.491  0.5982 -0.3299 -0.1202
  179MPD1    C2 2778   4.380   3.721  15.539  0.2694 -0.1310 -0.2711
  179MPD1    C3 2779   4.407   3.638  15.652 -0.3454  0.4577 -0.5992
  179MPD1    C4 2780   4.525   3.655  15.718 -0.3010  0.7554 -0.1999
  179MPD1    C5 2781   4.616   3.747  15.675 -0.1163 -0.4091 -0.1611
  179MPD1     H 2782   4.280   3.736  15.500  0.9802  2.8442 -0.9207
  179MPD1    H1 2783   4.562   3.586  15.793  1.0823  0.7872 -0.8351
  179MPD1    H2 2784   4.653   3.905  15.546 -0.7818 -1.6514 -3.8217
  179MPD1    H3 2785   4.714   3.757  15.720  0.0678  0.9104 -0.8633
  179MPD1     N 2786   4.317   3.535  15.696 -0.5447 -0.2075  0.4083
  179MPD1    H5 2787   4.327   3.497  15.789  2.3913 -0.2622  0.0872
  179MPD1    N1 2788   4.432   3.920  15.406  0.0600  0.0064  0.4226
  179MPD1    H6 2789   4.369   3.893  15.332 -0.7205  1.4365  0.5510
  179MPD1    H7 2790   4.514   3.967  15.368  2.0096 -2.8561  1.1236
  180MPD1     C 2791   4.433   0.989  14.572  0.0742 -0.2831  0.1470
  180MPD1    C1 2792   4.436   0.942  14.444  0.8235 -0.1300 -0.2128
  180MPD1    C2 2793   4.413   0.807  14.422  0.1699  0.2391 -0.3045
  180MPD1    C3 2794   4.355   0.732  14.519 -0.2027  0.2739  0.6341
  180MPD1    C4 2795   4.332   0.784  14.645 -0.5185 -0.0915 -0.3072
  180MPD1    C5 2796   4.376   0.911  14.671 -0.4391  0.4247 -0.6248
  180MPD1     H 2797   4.421   0.755  14.327  1.3363 -0.2098  0.0330
  180MPD1    H1 2798   4.290   0.730  14.729  1.8212  1.5985  1.9431
  180MPD1    H2 2799   4.456   1.092  14.596 -1.5895  0.1005  0.1455
  180MPD1    H3 2800   4.361   0.958  14.768 -1.7066  1.9104 -1.5365
  180MPD1     N 2801   4.316   0.604  14.477 -0.1254  0.2723  0.1784
  180MPD1    H5 2802   4.350   0.578  14.386 -2.0322  0.8859 -0.7176
  180MPD1    N1 2803   4.494   1.024  14.340  0.3193 -0.5992  0.6477
  180MPD1    H6 2804   4.464   1.122  14.340 -3.2694 -1.7129  6.0972
  180MPD1    H7 2805   4.460   0.987  14.252 -2.9398  0.5605  1.4263
  181MPD1     C 2806   0.190   1.530  10.295  0.7110  0.1979 -0.2061
  181MPD1    C1 2807   0.260   1.579  10.400 -0.0001  0.6630  0.1177
  181MPD1    C2 2808   0.385   1.631  10.367 -0.2853 -0.0618 -0.1634
  181MPD1    C3 2809   0.437   1.637  10.240 -0.0155  0.3293  0.2229
  181MPD1    C4 2810   0.362   1.580  10.141 -0.3169  0.4764 -0.6193
  181MPD1    C5 2811   0.234   1.538  10.165 -0.0341 -0.3249  0.5806
  181MPD1     H 2812   0.429   1.677  10.454  0.1248  1.8294 -1.3623
  181MPD1    H1 2813   0.403   1.574  10.041  0.3520  0.1500 -0.3296
  181MPD1    H2 2814   0.095   1.482  10.309  1.4119 -1.0482  0.2687
  181MPD1    H3 2815   0.168   1.506  10.085  0.9892  0.0662 -0.4139
  181MPD1     N 2816   0.565   1.691  10.207 -0.0155 -0.2823 -0.7009
  181MPD1    H5 2817   0.596   1.676  10.111  0.8318 -0.5200 -0.3911
  181MPD1    N1 2818   0.230   1.545  10.534 -0.4874 -0.0745  0.1950
  181MPD1    H6 2819   0.129   1.544  10.544 -0.4955 -0.5211  0.0619
  181MPD1    H7 2820   0.266   1.608  10.606 -0.2122 -0.5259  0.4550
  182MPD1     C 2821   2.226   4.437   1.083  0.2100 -0.5665  0.4752
  182MPD1    C1 2822   2.161   4.550   1.138  0.4102  0.7080 -0.4797
  182MPD1    C2 2823   2.192   4.663   1.074  0.6262  0.0674 -0.7485
  182MPD1    C3 2824   2.241   4.674   0.946 -0.6096  0.1267  0.5787
  182MPD1    C4 2825   2.289   4.560   0.889  0.3845 -0.1337  0.0046
  182MPD1    C5 2826   2.288   4.443   0.963 -0.0536 -0.5664  0.2838
  182MPD1     H 2827   2.166   0.015   1.129 -0.9014 -0.0157 -1.3193
  182MPD1    H1 2828   2.334   4.575   0.791  0.7811  0.2096  0.2361
  182MPD1    H2 2829   2.225   4.340   1.131  0.6076  0.4623  2.5271
  182MPD1    H3 2830   2.335   4.359   0.912 -1.3858 -0.2840 -1.4144
  182MPD1     N 2831   2.242   0.058   0.871  0.7094 -0.1094 -0.3982
  182MPD1    H5 2832   2.265   0.043   0.773  0.8855  2.2551 -0.6987
  182MPD1    N1 2833   2.114   4.552   1.273 -0.6463  0.1826  0.0998
  182MPD1    H6 2834   2.089   4.465   1.319  0.9427  0.8039  2.1507
  182MPD1    H7 2835   2.044   4.624   1.288  1.3272  2.1174  0.0209
  183MPD1     C 2836   0.975   0.349   9.996  0.8201  0.6156  0.4855
  183MPD1    C1 2837   0.932   0.485   9.999  0.3646 -0.2711 -0.4065
  183MPD1    C2 2838   0.969   0.573   9.892  0.5660  0.1249  0.4679
  183MPD1    C3 2839   1.066   0.539   9.800  0.0281 -0.7987 -0.3594
  183MPD1    C4 2840   1.110   0.408   9.809 -0.7083 -0.5663 -0.1162
  183MPD1    C5 2841   1.068   0.313   9.902  0.0432 -0.4165 -0.6339
  183MPD1     H 2842   0.933   0.675   9.898  0.1812  0.0429 -0.4588
  183MPD1    H1 2843   1.181   0.370   9.737 -1.2332 -2.0499  0.1423
  183MPD1    H2 2844   0.930   0.272  10.059  1.4653  0.4452  0.7366
  183MPD1    H3 2845   1.110   0.213   9.906  0.6029 -0.2406 -2.2891
  183MPD1     N 2846   1.108   0.636   9.710  0.1285 -0.2237  0.0225
  183MPD1    H5 2847   1.051   0.717   9.687  1.3627  0.5794 -0.1832
  183MPD1    N1 2848   0.836   0.517  10.092 -0.1360 -0.5268 -0.3870
  183MPD1    H6 2849   0.853   0.460  10.175 -0.0061 -0.0879 -0.1138
  183MPD1    H7 2850   0.838   0.616  10.113 -1.1147 -0.6743  0.3844
  184MPD1     C 2851   0.926   4.211  10.086 -0.1737  0.3905  0.4897
  184MPD1    C1 2852   0.835   4.229   9.982 -0.1523  0.0323 -0.0576
  184MPD1    C2 2853   0.877   4.281   9.862  0.3104  0.6210 -0.2335
  184MPD1    C3 2854   1.005   4.338   9.857  0.6880 -0.7337 -0.0999
  184MPD1    C4 2855   1.086   4.336   9.968  0.6736  1.2190  0.8025
  184MPD1    C5 2856   1.047   4.274  10.080  0.3748  0.0064  0.7094
  184MPD1     H 2857   0.803   4.301   9.785 -1.6585  0.1613  1.5287
  184MPD1    H1 2858   1.182   4.385   9.965  0.1112  2.2959  0.2215
  184MPD1    H2 2859   0.901   4.164  10.181 -0.2037 -0.7781 -0.1001
  184MPD1    H3 2860   1.126   4.276  10.154 -0.1936 -1.7726  1.3711
  184MPD1     N 2861   1.059   4.409   9.747 -0.5580  0.5386 -0.4149
  184MPD1    H5 2862   1.151   4.451   9.743 -0.9006  1.3332  0.0716
  184MPD1    N1 2863   0.705   4.172   9.999  0.2224  0.0756 -0.3552
  184MPD1    H6 2864   0.671   4.179  10.095 -0.7393 -1.2744 -0.5868
  184MPD1    H7 2865   0.628   4.202   9.940  1.0324  3.5958  0.3970
  185MPD1     C 2866   1.338   4.319   8.687 -0.2221 -0.0497 -0.0501
  185MPD1    C1 2867   1.279   4.233   8.772  0.4150 -0.2873  0.3865
  185MPD1    C2 2868   1.221   4.274   8.892 -0.5184  0.4581 -0.1085
  185MPD1    C3 2869   1.242   4.406   8.931 -0.5816 -0.3448 -0.4641
  185MPD1    C4 2870   1.304   4.487   8.840  0.6397 -0.4229 -1.0031
  185MPD1    C5 2871   1.351   4.448   8.721  0.4136 -0.3125 -0.8144
  185MPD1     H 2872   1.167   4.207   8.957 -0.5853 -1.8025 -2.4616
  185MPD1    H1 2873   1.318   4.593   8.860  1.4434 -1.0603  1.7440
  185MPD1    H2 2874   1.369   4.308   8.583 -1.7335  1.6210 -0.6780
  185MPD1    H3 2875   1.388   4.517   8.647 -1.5963  0.7171 -0.8511
  185MPD1     N 2876   1.215   4.446   9.063  0.1905  0.1114 -0.0292
  185MPD1    H5 2877   1.244   4.541   9.081 -0.9839  0.4717 -0.0589
  185MPD1    N1 2878   1.272   4.097   8.729  0.0611  0.2153 -0.2639
  185MPD1    H6 2879   1.339   4.088   8.652  0.0223  0.9064 -0.3855
  185MPD1    H7 2880   1.293   4.024   8.796 -2.3481 -1.8638 -1.7674
  186MPD1     C 2881   4.655   3.450  16.031 -0.7772 -0.8644  0.2438
  186MPD1    C1 2882   4.530   3.509  16.048 -0.1792  0.4414 -0.5186
  186MPD1    C2 2883   4.522   3.644  16.048  0.2389 -0.9124  0.5269
  186MPD1    C3 2884   4.636   3.727  16.038  0.4804  0.2452  0.1225
  186MPD1    C4 2885   0.019   3.667  16.032 -0.4857  0.6912 -0.5566
  186MPD1    C5 2886   0.024   3.533  16.031  0.4740 -0.2045  0.0337
  186MPD1     H 2887   4.424   3.691  16.051  0.0787 -1.3151  1.5369
  186MPD1    H1 2888   0.112   3.722  16.040 -0.1242 -0.0942  0.6135
  186MPD1    H2 2889   4.666   3.342  16.025  0.7644 -0.8229  2.2577
  186MPD1    H3 2890   0.123   3.490  16.021  0.9806  0.7184  1.1043
  186MPD1     N 2891   4.644   3.868  16.037 -0.1311 -0.2794  0.4285
  186MPD1    H5 2892   4.738   3.905  16.052  0.1908 -0.3570 -1.3935
  186MPD1    N1 2893   4.420   3.419  16.027  0.0408  0.0018  0.3626
  186MPD1    H6 2894   4.438   3.326  16.062 -0.7460 -0.8088 -1.3748
  186MPD1    H7 2895   4.337   3.459  16.072  1.6996  1.9982  1.6570
  187MPD1     C 2896   4.493   0.432  17.748  0.1082 -0.0220  0.1896
  187MPD1    C1 2897   4.380   0.420   0.080 -0.1847 -0.1270 -0.1899
  187MPD1    C2 2898   4.266   0.492   0.055 -0.0892 -0.2566  0.3576
  187MPD1    C3 2899   4.262   0.577  17.694  0.1496  0.1186  0.3959
  187MPD1    C4 2900   4.372   0.590  17.615 -0.1597  0.3867  0.3573
  187MPD1    C5 2901   4.483   0.510  17.637  0.4345  0.5619  0.1052
  187MPD1     H 2902   4.184   0.468   0.122 -2.8563  0.8025 -2.6309
  187MPD1    H1 2903   4.373   0.661  17.533  1.6710  0.4979  0.4879
  187MPD1    H2 2904   4.573   0.362   0.020 -1.6983 -1.1020  3.3342
  187MPD1    H3 2905   4.566   0.516  17.568 -0.4016  0.4151 -0.9161
  187MPD1     N 2906   4.146   0.655  17.659  0.0270  0.2321  0.0641
  187MPD1    H5 2907   4.163   0.729  17.591 -1.4528 -2.0923 -2.8247
  187MPD1    N1 2908   4.383   0.323   0.182  0.0766 -0.3544 -0.3152
  187MPD1    H6 2909   4.474   0.282   0.203  0.7957  0.5396 -1.6600
  187MPD1    H7 2910   4.316   0.351   0.252 -0.5372  1.2203 -1.5327
  188MPD1     C 2911   3.648   0.754  10.726  0.5564 -0.1545  0.4828
  188MPD1    C1 2912   3.601   0.820  10.617 -0.4578  0.6032  0.7092
  188MPD1    C2 2913   3.581   0.742  10.504 -0.1925  0.0584 -0.3674
  188MPD1    C3 2914   3.587   0.606  10.513  0.9126  0.5609  0.6680
  188MPD1    C4 2915   3.625   0.539  10.629 -0.2683 -0.1466  0.2343
  188MPD1    C5 2916   3.656   0.616  10.738 -0.1095  1.1945 -0.0228
  188MPD1     H 2917   3.557   0.791  10.410 -1.5579 -0.4153 -0.2761
  188MPD1    H1 2918   3.641   0.432  10.633  0.0830 -0.0666  0.8959
  188MPD1    H2 2919   3.670   0.816  10.812  1.7977 -0.1105  0.1278
  188MPD1    H3 2920   3.691   0.569  10.830 -1.6402  0.8106  0.3676
  188MPD1     N 2921   3.566   0.525  10.399 -0.4298 -0.3377  0.3309
  188MPD1    H5 2922   3.574   0.425  10.416 -1.2095 -0.5136 -0.3803
  188MPD1    N1 2923   3.625   0.957  10.604  0.4308 -0.0676 -0.5180
  188MPD1    H6 2924   3.621   1.005  10.693  1.1490 -1.6465  0.3685
  188MPD1    H7 2925   3.557   0.993  10.537 -0.0505 -0.6623 -0.3456
  189MPD1     C 2926   1.383   1.615   0.214 -0.3664 -0.1944  1.0127
  189MPD1    C1 2927   1.286   1.582   0.125  0.1488 -0.5971 -0.0696
  189MPD1    C2 2928   1.171   1.656   0.128  0.1573 -0.0440  0.0729
  189MPD1    C3 2929   1.158   1.773   0.197 -0.2750 -0.4715  0.0721
  189MPD1    C4 2930   1.252   1.807   0.285 -0.5737  0.0125  0.3500
  189MPD1    C5 2931   1.368   1.731   0.284  0.1249 -0.0903 -0.1086
  189MPD1     H 2932   1.085   1.628   0.068  0.2764 -0.0066 -0.1159
  189MPD1    H1 2933   1.245   1.899   0.343 -0.0626  0.9714 -1.1265
  189MPD1    H2 2934   1.471   1.553   0.225  0.9889  1.3806 -1.0397
  189MPD1    H3 2935   1.449   1.752   0.352  0.0143  0.0643 -0.0238
  189MPD1     N 2936   1.032   1.846   0.180 -0.2823  0.6153 -0.5577
  189MPD1    H5 2937   0.965   1.800   0.119 -1.7867  0.4699  1.2056
  189MPD1    N1 2938   1.289   1.455   0.064  1.0008  0.5338  0.0790
  189MPD1    H6 2939   1.240   1.455  17.725 -0.0680  0.1551  0.6657
  189MPD1    H7 2940   1.384   1.423   0.043  0.2000 -1.0436 -1.0777
  190MPD1     C 2941   3.595   0.002  15.367  0.2475 -0.1008 -0.7005
  190MPD1    C1 2942   3.658   0.122  15.360 -0.3502 -0.2700 -0.2655
  190MPD1    C2 2943   3.750   0.155  15.461  0.3945 -0.1689 -0.0255
  190MPD1    C3 2944   3.774   0.066  15.565 -0.0574  0.3535 -0.4151
  190MPD1    C4 2945   3.690   4.696  15.576  0.0955  0.4341  0.6698
  190MPD1    C5 2946   3.605   4.661  15.476  0.4278  0.0314  0.1906
  190MPD1     H 2947   3.816   0.240  15.446 -1.5738  0.9788 -2.1678
  190MPD1    H1 2948   3.690   4.629  15.661  0.6188 -2.2840 -1.4692
  190MPD1    H2 2949   3.523   4.702  15.295 -2.4336  2.0962  0.8399
  190MPD1    H3 2950   3.538   4.576  15.488 -0.0199  0.5341  1.1898
  190MPD1     N 2951   3.866   0.103  15.664  0.3862  0.3573  0.7714
  190MPD1    H5 2952   3.925   0.185  15.656 -0.4493  1.0018  1.2184
  190MPD1    N1 2953   3.619   0.215  15.264 -0.2084  0.1718 -0.4630
  190MPD1    H6 2954   3.690   0.288  15.258 -0.5340  0.5770  0.6567
  190MPD1    H7 2955   3.619   0.173  15.171  0.0615  0.0901 -0.4250
  191MPD1     C 2956   3.562   1.353  12.195 -0.5526 -0.5747  0.5327
  191MPD1    C1 2957   3.505   1.314  12.080 -0.1777 -0.1278 -0.0632
  191MPD1    C2 2958   3.543   1.376  11.964 -0.1322  0.0524  0.0041
  191MPD1    C3 2959   3.639   1.483  11.971 -0.3330 -0.2873 -0.0961
  191MPD1    C4 2960   3.694   1.513  12.090 -0.0284 -0.2040 -0.2396
  191MPD1    C5 2961   3.658   1.452  12.204  0.0862 -0.4377 -0.0233
  191MPD1     H 2962   3.510   1.345  11.866 -0.2037  2.0752 -0.6051
  191MPD1    H1 2963   3.773   1.586  12.104  0.7506 -0.8636 -1.1823
  191MPD1    H2 2964   3.533   1.296  12.283  0.2058  0.9022  1.7421
  191MPD1    H3 2965   3.699   1.488  12.298  1.0306  0.7465 -0.8944
  191MPD1     N 2966   3.672   1.542  11.847 -0.0799 -0.0589 -0.1774
  191MPD1    H5 2967   3.625   1.506  11.765  3.8616 -0.2743 -2.3661
  191MPD1    N1 2968   3.429   1.198  12.062  0.2581 -0.5084 -0.2877
  191MPD1    H6 2969   3.361   1.212  11.988 -0.4634  1.0985  0.6603
  191MPD1    H7 2970   3.396   1.162  12.151  0.5888 -0.1955 -0.0374
  192MPD1     C 2971   3.098   1.552  11.231 -0.0844  0.0364 -0.4559
  192MPD1    C1 2972   3.087   1.685  11.273  0.9057  0.1110 -0.1338
  192MPD1    C2 2973   3.188   1.727  11.346 -0.2534 -0.1745  0.1968
  192MPD1    C3 2974   3.295   1.640  11.392  0.4062 -0.3619  0.2633
  192MPD1    C4 2975   3.298   1.509  11.350 -0.4447  0.5253  0.0164
  192MPD1    C5 2976   3.199   1.465  11.265 -0.1209  0.0810 -0.2484
  192MPD1     H 2977   3.180   1.830  11.377 -1.1410 -0.6248  1.4225
  192MPD1    H1 2978   3.371   1.438  11.388 -0.8414  1.0489  1.7499
  192MPD1    H2 2979   3.018   1.509  11.172  0.7152 -2.4151  0.2417
  192MPD1    H3 2980   3.203   1.362  11.232  0.3766  0.7983 -2.4028
  192MPD1     N 2981   3.402   1.685  11.476  0.2185 -0.1832 -0.6872
  192MPD1    H5 2982   3.468   1.614  11.506  2.2566  2.1613  0.2480
  192MPD1    N1 2983   2.988   1.776  11.217 -0.2581  0.0008 -0.3174
  192MPD1    H6 2984   2.975   1.847  11.289  0.7263 -0.3343  0.2005
  192MPD1    H7 2985   2.906   1.728  11.181 -0.9119  0.0907  1.0448
  193MPD1     C 2986   3.450   1.607  16.554  0.2670  0.5863 -0.1036
  193MPD1    C1 2987   3.447   1.706  16.656  0.5453  0.8797 -0.0010
  193MPD1    C2 2988   3.432   1.837  16.618  0.0246  0.0131 -0.0400
  193MPD1    C3 2989   3.407   1.872  16.484 -0.6749  0.2807  0.1421
  193MPD1    C4 2990   3.392   1.768  16.396 -0.3467  0.3518 -0.0463
  193MPD1    C5 2991   3.429   1.642  16.422  0.0336 -0.1074  0.1456
  193MPD1     H 2992   3.450   1.913  16.694  0.6604 -2.3563  2.1681
  193MPD1    H1 2993   3.346   1.795  16.301  1.3492  0.0111 -0.9614
  193MPD1    H2 2994   3.470   1.505  16.582  1.9809  1.3439  1.4313
  193MPD1    H3 2995   3.417   1.559  16.355  1.0284 -0.5987  0.5817
  193MPD1     N 2996   3.387   2.006  16.437 -0.7445 -0.0899 -0.1649
  193MPD1    H5 2997   3.378   2.010  16.336 -0.4846 -2.5234 -0.2849
  193MPD1    N1 2998   3.487   1.674  16.789 -0.2055  0.2356 -0.0485
  193MPD1    H6 2999   3.452   1.581  16.811  0.2470  0.1946  0.4948
  193MPD1    H7 3000   3.430   1.732  16.850 -1.2783 -1.0997  0.2170
  194MPD1     C 3001   1.656   4.078  16.387 -0.4430  0.9683  0.1168
  194MPD1    C1 3002   1.606   4.151  16.492  0.4720 -0.1240 -0.7675
  194MPD1    C2 3003   1.580   4.081  16.607 -0.2607  0.7455 -0.7687
  194MPD1    C3 3004   1.586   3.943  16.622  0.4650 -0.8196 -0.1669
  194MPD1    C4 3005   1.632   3.874  16.509 -0.1311  0.2169  0.1226
  194MPD1    C5 3006   1.664   3.945  16.396 -0.0920  0.2539  0.0649
  194MPD1     H 3007   1.545   4.139  16.691  1.1016  0.0123  0.2997
  194MPD1    H1 3008   1.633   3.766  16.503  2.4486  0.2893 -0.5677
  194MPD1    H2 3009   1.687   4.134  16.299 -1.5239  1.0459 -0.2089
  194MPD1    H3 3010   1.706   3.897  16.308 -1.0225 -1.8798  0.7987
  194MPD1     N 3011   1.549   3.869  16.736 -0.2967 -0.1631 -0.6521
  194MPD1    H5 3012   1.551   3.768  16.722 -0.9159  0.2349 -3.4390
  194MPD1    N1 3013   1.613   4.291  16.491  0.0134  0.2431 -0.5571
  194MPD1    H6 3014   1.591   4.320  16.396 -2.4540  1.8564  0.5045
  194MPD1    H7 3015   1.543   4.330  16.554 -0.7245 -1.3361 -0.4116
  195MPD1     C 3016   3.093   1.418   1.270  0.4532 -0.3271  0.1784
  195MPD1    C1 3017   3.232   1.403   1.279 -0.2946 -0.0264 -0.7469
  195MPD1    C2 3018   3.288   1.296   1.212 -0.3931  0.4181  0.1517
  195MPD1    C3 3019   3.218   1.207   1.132 -0.0477  0.3553  0.5219
  195MPD1    C4 3020   3.088   1.220   1.118  0.5489 -0.6747 -0.0318
  195MPD1    C5 3021   3.022   1.324   1.188  0.5382  0.3721 -0.1852
  195MPD1     H 3022   3.396   1.290   1.222 -0.2514 -1.4042 -2.3376
  195MPD1    H1 3023   3.033   1.143   1.066  0.0778  0.3359 -1.0445
  195MPD1    H2 3024   3.030   1.494   1.315  1.5414  1.7417 -1.8066
  195MPD1    H3 3025   2.913   1.322   1.184  0.5603 -0.6105 -0.2770
  195MPD1     N 3026   3.277   1.099   1.056 -0.4217  0.8246 -0.1594
  195MPD1    H5 3027   3.213   1.045   0.998 -0.7565  1.5533 -0.4690
  195MPD1    N1 3028   3.296   1.484   1.369 -0.4001  0.3305 -0.1902
  195MPD1    H6 3029   3.397   1.498   1.368 -0.3844  0.2427  0.1277
  195MPD1    H7 3030   3.258   1.576   1.388  0.0143  0.9401 -2.2546
  196MPD1     C 3031   2.550   4.289   0.781 -0.1958  0.2933 -0.1119
  196MPD1    C1 3032   2.620   4.380   0.714  0.5952 -0.3902 -0.1236
  196MPD1    C2 3033   2.714   4.450   0.786 -0.5693  0.0767 -0.6152
  196MPD1    C3 3034   2.726   4.430   0.920  0.3127  0.0576 -0.3462
  196MPD1    C4 3035   2.668   4.329   0.987  0.4299 -0.2206 -0.0121
  196MPD1    C5 3036   2.578   4.266   0.912  0.1866  0.1721 -0.5365
  196MPD1     H 3037   2.778   4.514   0.727 -1.3129  2.0963  0.7713
  196MPD1    H1 3038   2.686   4.305   1.092  0.7858 -0.9557 -0.2380
  196MPD1    H2 3039   2.474   4.226   0.737  0.9073 -1.3047  0.2825
  196MPD1    H3 3040   2.525   4.180   0.954  0.7299  0.8789  1.6004
  196MPD1     N 3041   2.811   4.516   1.000  0.2574 -0.2157  0.0705
  196MPD1    H5 3042   2.831   4.483   1.094 -1.7589  1.1835  1.0200
  196MPD1    N1 3043   2.612   4.378   0.573 -0.2744  0.0662  0.2103
  196MPD1    H6 3044   2.519   4.354   0.538 -0.4565 -0.4066  1.0267
  196MPD1    H7 3045   2.643   4.461   0.523 -1.4264  0.3622 -0.0103
  197MPD1     C 3046   1.733   2.185  16.897  0.2433  0.3567 -0.4793
  197MPD1    C1 3047   1.787   2.314  16.892  0.1326 -0.2313 -0.3938
  197MPD1    C2 3048   1.892   2.352  16.811  0.3258  0.0606  0.4605
  197MPD1    C3 3049   1.950   2.256  16.722  0.2874 -0.1385  0.4349
  197MPD1    C4 3050   1.899   2.134  16.730  0.5802  0.1211 -0.4753
  197MPD1    C5 3051   1.793   2.102  16.814 -0.4625  0.1450 -0.0105
  197MPD1     H 3052   1.929   2.453  16.826 -0.6084  0.2958  1.1819
  197MPD1    H1 3053   1.921   2.053  16.660  1.1451 -0.9626  0.9597
  197MPD1    H2 3054   1.650   2.160  16.963 -0.1906  1.9513 -0.4209
  197MPD1    H3 3055   1.739   2.009  16.799  0.9060 -0.5548 -0.5967
  197MPD1     N 3056   2.061   2.272  16.634 -0.4679 -0.7868  0.0009
  197MPD1    H5 3057   2.092   2.196  16.575 -1.8624 -0.4133 -1.2385
  197MPD1    N1 3058   1.731   2.399  16.978 -1.2294 -0.4786  0.1652
  197MPD1    H6 3059   1.767   2.493  16.963 -2.1487  0.1714  2.0935
  197MPD1    H7 3060   1.629   2.396  16.983 -1.2764  2.1786  1.0452
  198MPD1     C 3061   3.903   0.387  15.221 -0.4386 -0.1304 -0.0589
  198MPD1    C1 3062   4.018   0.363  15.296 -0.2344 -0.1731 -0.2354
  198MPD1    C2 3063   4.056   0.450  15.394 -0.9203 -0.6075  0.4635
  198MPD1    C3 3064   3.978   0.569  15.420 -0.3296  0.2697 -0.0558
  198MPD1    C4 3065   3.864   0.590  15.343  0.2719  0.2036  0.8598
  198MPD1    C5 3066   3.828   0.495  15.253 -0.9703 -0.1537  0.2470
  198MPD1     H 3067   4.140   0.420  15.455 -0.8207  0.6648  0.9671
  198MPD1    H1 3068   3.792   0.671  15.350 -0.4351 -0.5111  1.8729
  198MPD1    H2 3069   3.875   0.314  15.146 -1.2204  0.0238  0.0741
  198MPD1    H3 3070   3.744   0.522  15.190 -1.9345  1.3060  2.1502
  198MPD1     N 3071   4.038   0.658  15.519  0.1836 -0.1266  0.2596
  198MPD1    H5 3072   4.111   0.618  15.578  0.4755  0.2133  0.1297
  198MPD1    N1 3073   4.087   0.239  15.293  0.0385 -0.0962  0.0689
  198MPD1    H6 3074   4.094   0.188  15.205  1.0550  0.3907 -0.1323
  198MPD1    H7 3075   4.179   0.246  15.337  1.0647  0.7497 -2.1913
  199MPD1     C 3076   2.005   2.495  10.350 -0.0238 -0.5124  0.3876
  199MPD1    C1 3077   1.942   2.603  10.403  0.3428 -0.1810  0.5398
  199MPD1    C2 3078   1.813   2.626  10.357  0.3688 -0.9427  0.5062
  199MPD1    C3 3079   1.740   2.537  10.278 -0.2698  0.0617 -0.4445
  199MPD1    C4 3080   1.809   2.424  10.235 -0.6493  0.7720  0.1660
  199MPD1    C5 3081   1.939   2.405  10.275  0.2510  0.3626 -0.0432
  199MPD1     H 3082   1.752   2.710  10.391  1.1762 -0.8501  1.7302
  199MPD1    H1 3083   1.750   2.343  10.192  0.6045 -0.0772  0.0335
  199MPD1    H2 3084   2.109   2.481  10.377  0.3846  0.8962 -0.4540
  199MPD1    H3 3085   1.991   2.313  10.251  2.6196  0.8328  3.2066
  199MPD1     N 3086   1.601   2.549  10.242  0.3070 -0.0037 -0.0377
  199MPD1    H5 3087   1.567   2.471  10.186 -1.4667  2.4081 -2.3239
  199MPD1    N1 3088   2.019   2.702  10.475 -0.2300  0.1622 -0.1757
  199MPD1    H6 3089   1.958   2.751  10.539 -0.8958 -1.4671  0.4270
  199MPD1    H7 3090   2.100   2.669  10.527 -0.0549 -0.9016 -1.1290
  200MPD1     C 3091   0.277   2.205  15.267 -1.0235 -0.5108 -0.0099
  200MPD1    C1 3092   0.225   2.227  15.146  0.7456 -0.4805  0.4021
  200MPD1    C2 3093   0.322   2.260  15.050  0.6813 -0.3348  0.0402
  200MPD1    C3 3094   0.455   2.291  15.080  0.2061 -0.2347 -0.0736
  200MPD1    C4 3095   0.500   2.276  15.205 -0.9056  0.0530  0.8074
  200MPD1    C5 3096   0.409   2.227  15.294  0.0036 -0.4798  0.8001
  200MPD1     H 3097   0.290   2.271  14.947  0.9845 -1.3991 -0.1670
  200MPD1    H1 3098   0.596   2.308  15.242 -0.5091 -0.9672  0.6772
  200MPD1    H2 3099   0.209   2.171  15.345 -1.6781  3.7188  1.2441
  200MPD1    H3 3100   0.439   2.215  15.398  2.1145  3.4086  0.6474
  200MPD1     N 3101   0.541   2.336  14.977  0.1248  0.2062  0.4128
  200MPD1    H5 3102   0.510   2.336  14.880  0.9809  0.4407  0.1383
  200MPD1    N1 3103   0.103   2.169  15.112  0.5746 -0.0359  0.1054
  200MPD1    H6 3104   0.029   2.183  15.180  0.2403 -3.2508  0.3837
  200MPD1    H7 3105   0.065   2.197  15.021  2.3370 -1.9219 -1.2122
  201MPD1     C 3106   3.263   0.187  13.953 -0.3196  0.1621  0.3640
  201MPD1    C1 3107   3.141   0.236  13.941  0.6489 -0.0690  0.9789
  201MPD1    C2 3108   3.132   0.366  13.886  0.7039  0.3639 -0.2813
  201MPD1    C3 3109   3.245   0.447  13.863 -0.2552 -0.5704 -0.1343
  201MPD1    C4 3110   3.370   0.394  13.896 -0.1022  0.3149 -0.2909
  201MPD1    C5 3111   3.370   0.267  13.940  0.2840 -0.0106 -0.7791
  201MPD1     H 3112   3.033   0.405  13.867  0.7317 -0.7548 -2.6801
  201MPD1    H1 3113   3.466   0.443  13.890 -0.7892  1.4167 -2.2885
  201MPD1    H2 3114   3.279   0.087  13.992  4.1039  1.1563  1.0582
  201MPD1    H3 3115   3.468   0.228  13.968 -0.5603 -2.3693 -1.0704
  201MPD1     N 3116   3.231   0.577  13.809 -0.9509 -0.8776 -0.3329
  201MPD1    H5 3117   3.137   0.602  13.780 -0.3077  1.8423 -0.0724
  201MPD1    N1 3118   3.032   0.142  13.943  0.4909 -0.3750  0.1529
  201MPD1    H6 3119   2.944   0.192  13.957  0.7871  0.4562 -0.9231
  201MPD1    H7 3120   3.037   0.065  14.009 -1.4000  0.2186  1.0037
  202MPD1     C 3121   2.830   0.399   8.747  0.1666  0.0073 -0.0307
  202MPD1    C1 3122   2.843   0.377   8.879 -1.0245  0.0079 -0.2360
  202MPD1    C2 3123   2.727   0.356   8.952  0.7222  0.1549 -0.2391
  202MPD1    C3 3124   2.606   0.389   8.899 -0.0160  1.2588 -0.1885
  202MPD1    C4 3125   2.595   0.434   8.766  0.3239  0.2399 -0.2639
  202MPD1    C5 3126   2.709   0.420   8.690  0.4916  0.2751 -0.5073
  202MPD1     H 3127   2.737   0.345   9.060  3.4634  1.5216 -0.3463
  202MPD1    H1 3128   2.502   0.460   8.718  0.0884  0.4792  0.3200
  202MPD1    H2 3129   2.918   0.404   8.684  0.3264  0.6694  0.2446
  202MPD1    H3 3130   2.715   0.434   8.582  1.4452 -0.9889 -0.6133
  202MPD1     N 3131   2.484   0.397   8.971 -0.1153 -0.3686 -0.6477
  202MPD1    H5 3132   2.407   0.431   8.915 -1.2961 -0.9040  0.6742
  202MPD1    N1 3133   2.965   0.318   8.928  0.0665  0.7380 -0.5179
  202MPD1    H6 3134   2.969   0.335   9.028 -1.5914  0.2888 -0.3846
  202MPD1    H7 3135   3.039   0.375   8.886  0.8945  1.9511  2.5824
  203MPD1     C 3136   1.721   2.367  12.964 -0.1769  0.5957  0.3463
  203MPD1    C1 3137   1.610   2.321  12.895 -0.2940  0.8590  0.1049
  203MPD1    C2 3138   1.595   2.186  12.892 -0.0031 -0.2050  0.4657
  203MPD1    C3 3139   1.690   2.095  12.938 -0.2436  0.0052 -0.3863
  203MPD1    C4 3140   1.809   2.149  12.999 -0.1036  0.1406  0.5196
  203MPD1    C5 3141   1.818   2.287  13.012  0.1410 -0.6860 -0.3235
  203MPD1     H 3142   1.497   2.149  12.863  0.0395 -0.2472  0.3762
  203MPD1    H1 3143   1.891   2.086  13.033 -1.4507 -0.5014  2.5650
  203MPD1    H2 3144   1.737   2.474  12.971  1.8941  0.3114  0.1700
  203MPD1    H3 3145   1.908   2.329  13.056 -0.1112 -0.1469 -0.3185
  203MPD1     N 3146   1.655   1.961  12.913  0.9614  0.5182 -0.1214
  203MPD1    H5 3147   1.574   1.942  12.856 -0.2869 -1.9727  2.5019
  203MPD1    N1 3148   1.504   2.412  12.868  0.1460  0.3394 -0.1542
  203MPD1    H6 3149   1.526   2.511  12.858  3.0109 -0.4682 -1.9377
  203MPD1    H7 3150   1.438   2.382  12.795 -2.0627  2.0798  1.1262
  204MPD1     C 3151   0.928   3.058  17.561  0.0299  1.0841 -0.4186
  204MPD1    C1 3152   1.000   3.088  17.443  0.1281 -0.0424 -0.0100
  204MPD1    C2 3153   1.077   2.991  17.381 -0.2401  0.5455  0.6014
  204MPD1    C3 3154   1.068   2.862  17.436  0.1990  0.3877 -0.0960
  204MPD1    C4 3155   0.992   2.833  17.548  0.4922  0.6192  0.1667
  204MPD1    C5 3156   0.923   2.935  17.611 -0.0773  0.4677 -0.7789
  204MPD1     H 3157   1.151   3.013  17.304  0.3954  0.4148  1.1704
  204MPD1    H1 3158   0.976   2.731  17.583 -2.3045  0.7403 -0.7896
  204MPD1    H2 3159   0.883   3.136  17.621 -1.2264  0.0940 -0.0855
  204MPD1    H3 3160   0.865   2.906  17.698 -0.9281  0.7400 -1.2500
  204MPD1     N 3161   1.151   2.763  17.373  0.2818 -1.0557 -0.4633
  204MPD1    H5 3162   1.201   2.785  17.288 -0.4545 -1.1936 -0.9330
  204MPD1    N1 3163   1.018   3.223  17.413  0.1367 -0.3261  0.3705
  204MPD1    H6 3164   1.053   3.241  17.319 -0.2202  2.6638  0.8181
  204MPD1    H7 3165   0.934   3.278  17.431  1.5264  1.7161  0.6423
  205MPD1     C 3166   1.556   0.933  16.686  0.9389  0.2275  0.3377
  205MPD1    C1 3167   1.473   1.035  16.707  0.3637  0.1887 -0.2486
  205MPD1    C2 3168   1.509   1.134  16.798 -0.2728  0.1585  0.3777
  205MPD1    C3 3169   1.593   1.104  16.899 -0.3785  0.3376  0.4121
  205MPD1    C4 3170   1.670   0.987  16.891  0.5102  0.6055 -0.6914
  205MPD1    C5 3171   1.652   0.907  16.781  0.5196  0.1412 -0.3749
  205MPD1     H 3172   1.456   1.228  16.788 -1.1993 -0.2303  1.6763
  205MPD1    H1 3173   1.750   0.965  16.962  0.6139  1.7110 -0.4535
  205MPD1    H2 3174   1.546   0.858  16.609 -3.2054 -1.3565  2.3929
  205MPD1    H3 3175   1.715   0.819  16.768  1.6736  0.7036  1.3928
  205MPD1     N 3176   1.615   1.202  17.004 -0.1597  0.5025  0.1027
  205MPD1    H5 3177   1.697   1.178  17.060  0.6832  0.6277 -1.0746
  205MPD1    N1 3178   1.386   1.073  16.598 -0.1489  0.0202  0.2593
  205MPD1    H6 3179   1.326   0.993  16.579 -0.2580 -0.0597  0.9346
  205MPD1    H7 3180   1.319   1.137  16.639  1.1267  1.7613 -0.3292
  206MPD1     C 3181   1.367   4.640  17.122  0.0534 -0.2505 -0.7679
  206MPD1    C1 3182   1.445   4.555  17.062 -0.0731 -0.0540  0.7840
  206MPD1    C2 3183   1.410   4.509  16.937  0.0581 -0.5046 -0.0599
  206MPD1    C3 3184   1.281   4.547  16.883 -0.4167 -0.5150  0.3180
  206MPD1    C4 3185   1.197   4.633  16.955 -0.4907 -0.7882  0.3152
  206MPD1    C5 3186   1.244   4.678  17.074 -0.3598  0.2845  0.2835
  206MPD1     H 3187   1.469   4.435  16.884  0.7040 -0.1196  0.1166
  206MPD1    H1 3188   1.095   4.654  16.925  0.0125 -0.9406 -1.5096
  206MPD1    H2 3189   1.387   4.686  17.218  0.3180 -0.5951 -0.6595
  206MPD1    H3 3190   1.173   0.001  17.128 -2.0310 -0.4952 -1.0231
  206MPD1     N 3191   1.238   4.524  16.754 -0.1850 -0.2018 -0.7035
  206MPD1    H5 3192   1.150   4.567  16.727  0.1131 -0.0337 -1.3907
  206MPD1    N1 3193   1.570   4.516  17.114  0.9091 -0.1047  0.8551
  206MPD1    H6 3194   1.597   4.424  17.079 -0.7693 -0.5308  0.6967
  206MPD1    H7 3195   1.552   4.512  17.213 -2.2375  0.2661  0.2814
  207MPD1     C 3196   2.755   2.476   9.205  0.5854 -0.7986  0.3224
  207MPD1    C1 3197   2.857   2.500   9.116  0.1795 -0.7679 -0.0665
  207MPD1    C2 3198   2.978   2.540   9.164  0.9196  0.4481 -0.4762
  207MPD1    C3 3199   3.000   2.531   9.303 -0.3739 -0.4469  0.6997
  207MPD1    C4 3200   2.894   2.501   9.387  0.4432 -0.1500  0.3492
  207MPD1    C5 3201   2.773   2.469   9.336 -0.4599  0.6493  0.1265
  207MPD1     H 3202   3.051   2.581   9.095  0.1389  0.2172 -1.4441
  207MPD1    H1 3203   2.900   2.484   9.494  1.3944 -2.0138 -0.0039
  207MPD1    H2 3204   2.655   2.450   9.173  0.9885 -2.3950  0.3376
  207MPD1    H3 3205   2.687   2.446   9.398  0.6183  0.5281  1.5774
  207MPD1     N 3206   3.123   2.546   9.370  0.5059  0.1137  0.3248
  207MPD1    H5 3207   3.121   2.532   9.470  0.8608 -0.2958  0.2728
  207MPD1    N1 3208   2.836   2.510   8.978  0.4808  0.1880 -0.0402
  207MPD1    H6 3209   2.926   2.494   8.934 -0.1921 -2.8043 -0.3480
  207MPD1    H7 3210   2.769   2.441   8.945  2.3291 -0.9672 -1.3597
  208MPD1     C 3211   2.117   0.224  16.737 -0.4477 -0.3563  0.0728
  208MPD1    C1 3212   2.192   0.331  16.789 -0.3231  0.4330  0.4230
  208MPD1    C2 3213   2.168   0.366  16.920  0.2862 -0.2630  0.7904
  208MPD1    C3 3214   2.087   0.290  17.005  0.2977  0.1191 -0.0335
  208MPD1    C4 3215   2.022   0.174  16.956  0.6163 -0.1514  0.5660
  208MPD1    C5 3216   2.044   0.143  16.819  0.0778  0.7887 -0.7954
  208MPD1     H 3217   2.224   0.454  16.950  2.8551 -2.2328  1.7666
  208MPD1    H1 3218   1.963   0.108  17.018 -0.5935  0.5736  0.1884
  208MPD1    H2 3219   2.134   0.198  16.633  0.9337 -0.6868  0.3822
  208MPD1    H3 3220   1.994   0.062  16.767 -1.8375  1.5115 -0.0573
  208MPD1     N 3221   2.052   0.349  17.129 -0.0640  0.5817 -0.1338
  208MPD1    H5 3222   2.080   0.443  17.154 -0.4220  0.4243  0.8661
  208MPD1    N1 3223   2.257   0.420  16.703 -0.4774 -0.1375 -0.2323
  208MPD1    H6 3224   2.295   0.391  16.613 -0.2336  1.7263 -0.7352
  208MPD1    H7 3225   2.339   0.467  16.742 -0.9398  0.2631  0.2516
  209MPD1     C 3226   3.902   1.231   9.527 -0.2793  0.2919  0.3008
  209MPD1    C1 3227   3.777   1.276   9.505  0.2193  0.0003 -0.3028
  209MPD1    C2 3228   3.740   1.386   9.585 -0.1859  0.5182  0.2218
  209MPD1    C3 3229   3.811   1.421   9.701  0.5939 -0.5172 -0.1530
  209MPD1    C4 3230   3.938   1.371   9.721  0.1243  0.4151  0.3927
  209MPD1    C5 3231   3.982   1.277   9.630  0.0378 -0.6436 -0.0679
  209MPD1     H 3232   3.642   1.433   9.586 -0.2874  0.3052  0.2761
  209MPD1    H1 3233   4.013   1.402   9.793  0.5850  0.3114 -0.0511
  209MPD1    H2 3234   3.937   1.149   9.466 -1.2314  0.1147 -0.0092
  209MPD1    H3 3235   4.077   1.226   9.642  0.3121  0.1975  1.3310
  209MPD1     N 3236   3.755   1.506   9.796 -0.5475  0.5975 -0.8853
  209MPD1    H5 3237   3.666   1.549   9.776 -1.8763 -2.5678 -1.7407
  209MPD1    N1 3238   3.703   1.244   9.392 -0.1192  0.1454 -0.0255
  209MPD1    H6 3239   3.605   1.261   9.413  0.0756  0.9909  0.1977
  209MPD1    H7 3240   3.702   1.142   9.385  0.2909  0.1447 -0.0813
  210MPD1     C 3241   3.832   1.346  10.751  0.4420 -0.1069  0.3851
  210MPD1    C1 3242   3.817   1.479  10.744 -0.1659 -0.0340  0.4051
  210MPD1    C2 3243   3.755   1.537  10.639 -0.0560  0.6660 -0.6477
  210MPD1    C3 3244   3.721   1.461  10.523  0.0240  0.6479  0.1706
  210MPD1    C4 3245   3.736   1.323  10.530 -0.3415 -1.0500  0.0479
  210MPD1    C5 3246   3.781   1.267  10.648 -0.2522 -0.4809 -0.2543
  210MPD1     H 3247   3.753   1.645  10.638  2.5438  0.7358  2.0260
  210MPD1    H1 3248   3.695   1.265  10.448  2.0664 -1.3067 -0.9699
  210MPD1    H2 3249   3.885   1.297  10.831 -2.1238  1.9481  3.3382
  210MPD1    H3 3250   3.805   1.161  10.653 -1.1742 -0.6807 -0.0573
  210MPD1     N 3251   3.680   1.512  10.400  0.1326 -0.7814 -0.5644
  210MPD1    H5 3252   3.684   1.447  10.322  0.5434 -1.4065 -0.0236
  210MPD1    N1 3253   3.877   1.559  10.844 -0.0224  0.0481  0.0693
  210MPD1    H6 3254   3.889   1.518  10.936 -1.6787  2.8432  1.5270
  210MPD1    H7 3255   3.832   1.650  10.850 -0.6222 -0.2282 -0.2633
  211MPD1     C 3256   1.845   1.383  16.505  0.2638 -0.3436  0.2130
  211MPD1    C1 3257   1.855   1.476  16.402  0.3044 -0.3477 -0.4545
  211MPD1    C2 3258   1.742   1.533  16.360  0.4116 -0.2623  0.8143
  211MPD1    C3 3259   1.619   1.493  16.404 -0.3027 -0.2328  0.2642
  211MPD1    C4 3260   1.607   1.385  16.491  0.3628  0.9397 -0.7374
  211MPD1    C5 3261   1.724   1.338  16.554  0.0248 -0.3284 -0.3387
  211MPD1     H 3262   1.753   1.614  16.288  0.5212  0.3015  1.4666
  211MPD1    H1 3263   1.516   1.347  16.534  0.7649 -0.6315 -1.2657
  211MPD1    H2 3264   1.938   1.347  16.548  0.5786 -0.3590 -0.4810
  211MPD1    H3 3265   1.711   1.270  16.638  2.0214  0.1778  0.3867
  211MPD1     N 3266   1.501   1.559  16.356  0.3454  0.4548  0.2341
  211MPD1    H5 3267   1.521   1.637  16.295  0.0876 -0.5537 -1.1433
  211MPD1    N1 3268   1.980   1.521  16.363 -0.0245 -0.2037 -0.1528
  211MPD1    H6 3269   2.039   1.438  16.367 -1.2489 -1.1903 -3.0289
  211MPD1    H7 3270   1.979   1.543  16.264 -3.2965 -1.1316 -0.3104
  212MPD1     C 3271   0.818   0.261  16.525  0.3683 -0.7106 -0.1877
  212MPD1    C1 3272   0.734   0.321  16.611  0.1076  0.5264  0.3117
  212MPD1    C2 3273   0.625   0.249  16.660 -0.1866 -0.0157 -0.2072
  212MPD1    C3 3274   0.601   0.119  16.607  0.1472 -0.0357 -0.6936
  212MPD1    C4 3275   0.680   0.067  16.509  0.2258  0.3552 -0.1429
  212MPD1    C5 3276   0.794   0.136  16.469 -0.3409 -0.1373 -0.8345
  212MPD1     H 3277   0.573   0.287  16.747 -1.0742 -0.1564 -0.6826
  212MPD1    H1 3278   0.671   4.707  16.465 -0.4037 -1.0075  2.9759
  212MPD1    H2 3279   0.908   0.312  16.490 -0.2843  1.2748  1.0222
  212MPD1    H3 3280   0.858   0.096  16.391 -3.5490 -0.2692 -3.3802
  212MPD1     N 3281   0.511   0.032  16.661 -0.1757 -0.1497 -0.5618
  212MPD1    H5 3282   0.519   4.678  16.618  0.7608  0.8153 -2.4386
  212MPD1    N1 3283   0.782   0.431  16.688  0.2297 -0.0141 -0.7912
  212MPD1    H6 3284   0.829   0.505  16.636  0.2638  0.4406 -0.1079
  212MPD1    H7 3285   0.711   0.485  16.737  0.6937 -0.0096 -0.1293
  213MPD1     C 3286   3.327   0.470  15.759 -0.5519  0.1258 -0.0436
  213MPD1    C1 3287   3.370   0.349  15.711 -1.0284 -0.0704 -0.2495
  213MPD1    C2 3288   3.390   0.340  15.579 -0.0152 -0.2114  0.5678
  213MPD1    C3 3289   3.352   0.439  15.489 -0.0953 -0.1242 -0.0525
  213MPD1    C4 3290   3.292   0.553  15.542 -0.1164 -0.0001  0.2000
  213MPD1    C5 3291   3.276   0.566  15.676  0.5282  1.3347 -0.4367
  213MPD1     H 3292   3.436   0.250  15.541  1.8319 -0.0302  2.4000
  213MPD1    H1 3293   3.249   0.633  15.483  1.9964 -0.1796 -1.5585
  213MPD1    H2 3294   3.312   0.501  15.862  3.2496 -3.2988  1.4955
  213MPD1    H3 3295   3.234   0.656  15.719  1.1197  1.5822 -0.3776
  213MPD1     N 3296   3.397   0.420  15.358 -0.1760  0.5838 -0.3326
  213MPD1    H5 3297   3.421   0.323  15.338 -1.8885 -0.2779  1.6882
  213MPD1    N1 3298   3.444   0.262  15.795  0.1290  0.2797  0.2934
  213MPD1    H6 3299   3.392   0.257  15.882  1.5668 -2.8724  0.9743
  213MPD1    H7 3300   3.473   0.171  15.759 -2.7525 -1.1504  1.5904
  214MPD1     C 3301   3.093   4.424  15.065  0.8203 -0.0886 -0.2306
  214MPD1    C1 3302   3.131   4.485  14.948  0.4281 -0.0150 -0.0142
  214MPD1    C2 3303   3.189   4.607  14.952  0.1913 -0.4170 -1.2789
  214MPD1    C3 3304   3.215   4.673  15.073  0.4762 -0.1556  0.5772
  214MPD1    C4 3305   3.183   4.604  15.191  0.6588 -0.4089 -0.4265
  214MPD1    C5 3306   3.126   4.478  15.181  0.4171  0.9044 -0.1197
  214MPD1     H 3307   3.221   4.648  14.857  1.0163  1.7621 -0.0687
  214MPD1    H1 3308   3.205   4.643  15.290 -0.0038 -0.4728 -0.2564
  214MPD1    H2 3309   3.048   4.326  15.071  1.4323 -0.5611 -3.2504
  214MPD1    H3 3310   3.091   4.430  15.271  0.5628  2.2036  0.6350
  214MPD1     N 3311   3.284   0.058  15.077  0.4151 -0.0075 -0.4729
  214MPD1    H5 3312   3.272   0.114  15.160  0.1487  0.7710 -1.0315
  214MPD1    N1 3313   3.104   4.414  14.829 -0.7393 -0.1579  0.0635
  214MPD1    H6 3314   3.149   4.462  14.752  0.3704 -0.0844  0.7559
  214MPD1    H7 3315   3.007   4.438  14.808 -1.1117 -2.0057 -0.3218
  215MPD1     C 3316   3.113   0.840  10.160  0.1284 -0.3675 -0.1012
  215MPD1    C1 3317   3.021   0.919  10.220  0.7657  0.2850 -0.1200
  215MPD1    C2 3318   3.059   1.024  10.297  0.0062  0.1293  0.1819
  215MPD1    C3 3319   3.196   1.046  10.325 -0.1784  0.6722 -1.0817
  215MPD1    C4 3320   3.283   0.954  10.277 -0.1539 -0.6517  0.0519
  215MPD1    C5 3321   3.241   0.850  10.195  0.2898 -0.2007 -0.1958
  215MPD1     H 3322   2.990   1.095  10.340  0.3919  0.8010 -0.2980
  215MPD1    H1 3323   3.392   0.955  10.281 -0.0937  1.9885 -1.7146
  215MPD1    H2 3324   3.085   0.756  10.098 -0.5694 -0.2222  0.0152
  215MPD1    H3 3325   3.314   0.782  10.152 -1.1745 -2.2237  0.4897
  215MPD1     N 3326   3.229   1.158  10.403 -0.0590  0.1934  0.0688
  215MPD1    H5 3327   3.149   1.214  10.431  1.6933  3.1545 -0.8227
  215MPD1    N1 3328   2.888   0.912  10.179  0.2419  0.1135 -0.7802
  215MPD1    H6 3329   2.871   0.815  10.154  0.4754 -0.3573  0.8436
  215MPD1    H7 3330   2.827   0.948  10.253 -0.4526 -0.7784 -0.9128
  216MPD1     C 3331   0.863   4.467  17.573 -0.0916 -0.2793 -0.1153
  216MPD1    C1 3332   0.877   4.386  17.689 -0.4840  0.8652  0.1326
  216MPD1    C2 3333   0.821   4.262  17.683 -0.1257  1.1173 -0.2420
  216MPD1    C3 3334   0.747   4.218  17.577  0.2274 -0.2022  0.2614
  216MPD1    C4 3335   0.736   4.298  17.465  0.4122  0.2381 -0.2450
  216MPD1    C5 3336   0.798   4.415  17.468 -0.7936  0.7366  0.9207
  216MPD1     H 3337   0.827   4.195   0.018 -0.0997  1.7531  0.2638
  216MPD1    H1 3338   0.686   4.272  17.372  2.9585  0.6568 -1.7319
  216MPD1    H2 3339   0.914   4.561  17.558 -0.6429  0.3851  2.1449
  216MPD1    H3 3340   0.796   4.482  17.383  2.6329  0.8361  0.9022
  216MPD1     N 3341   0.683   4.094  17.586 -0.3268 -0.3103  0.0880
  216MPD1    H5 3342   0.676   4.054  17.679 -0.9119 -0.1278  0.1240
  216MPD1    N1 3343   0.974   4.425   0.043 -0.3315  0.2525 -0.0245
  216MPD1    H6 3344   0.973   4.526   0.041  0.6208  0.2535 -0.3040
  216MPD1    H7 3345   0.943   4.378   0.128 -0.5336  0.2031 -0.1262
  217MPD1     C 3346   0.706   1.719   9.305  0.3941 -0.6446  0.1521
  217MPD1    C1 3347   0.814   1.664   9.233  0.0712 -1.1860  0.6710
  217MPD1    C2 3348   0.849   1.526   9.256 -0.1786 -0.0469 -0.2012
  217MPD1    C3 3349   0.780   1.450   9.345 -1.0269  0.2574 -0.4077
  217MPD1    C4 3350   0.669   1.507   9.412 -0.0513  0.3018 -0.4060
  217MPD1    C5 3351   0.630   1.635   9.387  0.5092  0.1239 -0.1058
  217MPD1     H 3352   0.930   1.482   9.199  0.7274 -0.2220  1.2147
  217MPD1    H1 3353   0.594   1.454   9.470 -0.1250  0.0780 -0.7034
  217MPD1    H2 3354   0.676   1.823   9.295  0.4543 -0.6348  0.0723
  217MPD1    H3 3355   0.539   1.674   9.430  0.0991  0.8777 -1.6753
  217MPD1     N 3356   0.797   1.311   9.365  0.3153  0.2942  0.3688
  217MPD1    H5 3357   0.744   1.266   9.439 -3.4927  3.2689 -0.5341
  217MPD1    N1 3358   0.860   1.737   9.129 -0.5763  0.4215 -0.6105
  217MPD1    H6 3359   0.955   1.717   9.099 -1.2787 -1.4063 -1.6481
  217MPD1    H7 3360   0.872   1.835   9.151  2.3723 -0.1012  0.0580
  218MPD1     C 3361   3.782   2.714  12.220 -0.3098 -0.3177  0.1255
  218MPD1    C1 3362   3.861   2.636  12.298 -0.6491 -0.9113  0.4692
  218MPD1    C2 3363   3.850   2.501  12.288 -0.6392 -1.1539 -0.5152
  218MPD1    C3 3364   3.752   2.446  12.207  0.1971  0.5256  0.5456
  218MPD1    C4 3365   3.663   2.531  12.149 -0.1514 -0.1867 -0.2053
  218MPD1    C5 3366   3.682   2.664  12.144 -0.3378 -0.2321  0.0615
  218MPD1     H 3367   3.917   2.439  12.347 -0.6994 -1.5522 -0.8686
  218MPD1    H1 3368   3.575   2.502  12.092 -0.2126 -0.9177  0.2698
  218MPD1    H2 3369   3.788   2.822  12.209 -2.1318 -0.4402 -2.1671
  218MPD1    H3 3370   3.620   2.732  12.087 -0.9328  0.4470  1.5257
  218MPD1     N 3371   3.737   2.302  12.201 -0.0657 -0.6076 -0.0777
  218MPD1    H5 3372   3.811   2.251  12.247 -0.3217  0.7401  1.8139
  218MPD1    N1 3373   3.966   2.700  12.379  0.3210 -0.0227  0.2105
  218MPD1    H6 3374   3.995   2.649  12.462 -0.3138 -1.6220 -0.5400
  218MPD1    H7 3375   3.938   2.791  12.414 -1.7086 -0.0015 -1.4980
  219MPD1     C 3376   3.155   1.438  11.834 -0.2613 -0.5776 -0.8003
  219MPD1    C1 3377   3.186   1.553  11.772 -0.0578 -0.0277 -0.3854
  219MPD1    C2 3378   3.277   1.643  11.829 -0.1957 -0.2982  0.2142
  219MPD1    C3 3379   3.308   1.633  11.967  0.6984 -0.3503 -0.4259
  219MPD1    C4 3380   3.249   1.525  12.041 -0.2888 -0.2700 -0.2962
  219MPD1    C5 3381   3.188   1.423  11.965  0.6191 -0.4055 -0.6078
  219MPD1     H 3382   3.314   1.727  11.772 -0.6033 -0.0057  0.3781
  219MPD1    H1 3383   3.275   1.511  12.145  0.6652  3.0948 -0.0962
  219MPD1    H2 3384   3.112   1.350  11.786  0.4539 -1.2155 -0.2707
  219MPD1    H3 3385   3.160   1.339  12.028 -0.8142 -1.2297 -2.3473
  219MPD1     N 3386   3.404   1.715  12.037 -1.1180  0.5639  0.4353
  219MPD1    H5 3387   3.416   1.686  12.134  1.8087 -2.3652 -0.7880
  219MPD1    N1 3388   3.149   1.553  11.636  0.5811  0.1728 -0.1006
  219MPD1    H6 3389   3.142   1.648  11.600 -2.7086  1.6644  4.4685
  219MPD1    H7 3390   3.054   1.516  11.625  0.4811  0.4125 -0.0421
  220MPD1     C 3391   1.570   1.845  10.200 -0.1197 -0.4151 -0.3921
  220MPD1    C1 3392   1.674   1.931  10.210 -0.1671  0.0895  0.1049
  220MPD1    C2 3393   1.790   1.875  10.263 -0.5356 -0.7888 -0.4516
  220MPD1    C3 3394   1.809   1.735  10.285 -0.7213 -0.4714 -0.1088
  220MPD1    C4 3395   1.707   1.653  10.256  0.4684  0.5082 -0.1513
  220MPD1    C5 3396   1.594   1.708  10.211  0.1738 -0.7359 -0.0425
  220MPD1     H 3397   1.874   1.938  10.291 -1.3813  1.0837 -2.1456
  220MPD1    H1 3398   1.706   1.546  10.273  0.1444  0.2934 -1.5065
  220MPD1    H2 3399   1.471   1.881  10.177 -0.2907 -0.3579  0.4220
  220MPD1    H3 3400   1.509   1.644  10.192 -0.5275 -0.1817  1.1889
  220MPD1     N 3401   1.920   1.679  10.347 -0.3054 -0.4632 -0.2263
  220MPD1    H5 3402   1.924   1.577  10.354  0.0160 -0.4139  0.3602
  220MPD1    N1 3403   1.653   2.069  10.206  0.3711 -0.4058 -0.4402
  220MPD1    H6 3404   1.578   2.090  10.139  0.1735 -1.7636 -0.6402
  220MPD1    H7 3405   1.739   2.109  10.169  1.2623 -3.0598 -1.2266
  221MPD1     C 3406   1.502   1.428  15.974 -0.6823  0.0559  0.2784
  221MPD1    C1 3407   1.416   1.352  15.908  0.2650  0.3814 -0.2155
  221MPD1    C2 3408   1.383   1.223  15.958  0.3290  0.2723 -0.2139
  221MPD1    C3 3409   1.434   1.179  16.078  0.1987  0.2002  0.3315
  221MPD1    C4 3410   1.527   1.252  16.142  0.3299 -0.1147  0.2023
  221MPD1    C5 3411   1.554   1.379  16.094 -0.3403 -0.8759  0.0642
  221MPD1     H 3412   1.304   1.166  15.910  0.4496  2.2398 -2.7429
  221MPD1    H1 3413   1.581   1.210  16.226  0.9420 -1.0546 -0.6525
  221MPD1    H2 3414   1.522   1.530  15.943 -0.9209  0.7178  2.3349
  221MPD1    H3 3415   1.627   1.440  16.146 -2.4690  0.1334  1.9049
  221MPD1     N 3416   1.413   1.048  16.137  0.5897  0.5761 -0.6427
  221MPD1    H5 3417   1.467   1.020  16.218 -0.3029  1.0903  0.1273
  221MPD1    N1 3418   1.360   1.396  15.787 -0.4341 -0.2825  0.0415
  221MPD1    H6 3419   1.348   1.497  15.782  0.1285 -0.2501 -0.5565
  221MPD1    H7 3420   1.263   1.370  15.769  0.2173 -2.1916 -0.6576
  222MPD1     C 3421   0.163   3.899  17.230 -0.0381  0.3697  0.0357
  222MPD1    C1 3422   0.255   3.996  17.192 -0.0835  0.7613 -0.2905
  222MPD1    C2 3423   0.301   4.090  17.287  0.5384 -0.4262  0.1430
  222MPD1    C3 3424   0.244   4.086  17.416 -0.5498 -0.0931  0.6680
  222MPD1    C4 3425   0.166   3.979  17.457 -0.7448  0.3933  0.1666
  222MPD1    C5 3426   0.128   3.890  17.364  0.0338 -0.0585 -0.5330
  222MPD1     H 3427   0.362   4.173  17.254 -1.6737  1.8157  1.6345
  222MPD1    H1 3428   0.157   3.970  17.565 -0.2413  1.1675  0.2748
  222MPD1    H2 3429   0.132   3.823  17.160  1.1986 -0.4653  0.3970
  222MPD1    H3 3430   0.073   3.800  17.390 -0.3492  0.4843  0.5261
  222MPD1     N 3431   0.288   4.183  17.512  0.8216  1.2692  0.2064
  222MPD1    H5 3432   0.249   4.172  17.605 -1.2446  1.3641 -0.6447
  222MPD1    N1 3433   0.307   4.000  17.060  0.2597 -0.1981  1.0902
  222MPD1    H6 3434   0.240   3.942  17.009  0.7544 -0.1679  0.4144
  222MPD1    H7 3435   0.294   4.093  17.019 -1.3444 -0.6611  0.5557
  223MPD1     C 3436   0.811   4.115   0.568  0.5462  0.4720  0.2485
  223MPD1    C1 3437   0.737   4.232   0.600 -0.3741 -0.4272 -0.5106
  223MPD1    C2 3438   0.661   4.290   0.497 -0.6998 -0.4081 -0.2570
  223MPD1    C3 3439   0.658   4.230   0.374  0.8024 -0.7112  0.1105
  223MPD1    C4 3440   0.734   4.118   0.341  0.4236  0.3887  0.0676
  223MPD1    C5 3441   0.798   4.057   0.445  0.4987 -0.0259  0.3005
  223MPD1     H 3442   0.615   4.387   0.509 -0.3262 -0.3056  0.3573
  223MPD1    H1 3443   0.724   4.061   0.249  3.7038 -1.1881  0.6962
  223MPD1    H2 3444   0.874   4.068   0.642  1.7310 -0.4695 -1.3656
  223MPD1    H3 3445   0.853   3.965   0.426 -1.3737 -1.2089  0.6318
  223MPD1     N 3446   0.572   4.297   0.284 -0.3275  0.2433  0.7639
  223MPD1    H5 3447   0.544   4.391   0.309  2.1603  1.4223 -0.7690
  223MPD1    N1 3448   0.762   4.299   0.719 -0.5594 -0.2239  0.7650
  223MPD1    H6 3449   0.683   4.360   0.741  1.9218  2.2726  2.6794
  223MPD1    H7 3450   0.793   4.242   0.798 -1.0076  1.0578  1.8701
  224MPD1     C 3451   0.778   0.662  10.421 -0.3260 -0.7158 -0.2454
  224MPD1    C1 3452   0.903   0.609  10.438  0.2412 -0.1469 -0.5669
  224MPD1    C2 3453   1.002   0.659  10.346  0.2747  0.7154 -0.6364
  224MPD1    C3 3454   0.976   0.770  10.262 -0.3740 -0.1613 -0.3281
  224MPD1    C4 3455   0.845   0.818  10.254  0.8512  0.6100 -0.0834
  224MPD1    C5 3456   0.745   0.761  10.331  0.9212  0.2981 -0.0065
  224MPD1     H 3457   1.100   0.614  10.340 -0.1826 -0.4615  0.9694
  224MPD1    H1 3458   0.816   0.902  10.191 -0.6445 -0.5969 -1.0060
  224MPD1    H2 3459   0.685   0.629  10.466 -0.9636 -0.1821 -1.1703
  224MPD1    H3 3460   0.643   0.797  10.335  0.4873 -0.7798 -1.6540
  224MPD1     N 3461   1.064   0.823  10.161  0.1301 -0.4135 -0.1813
  224MPD1    H5 3462   1.034   0.901  10.104 -2.2912 -0.5744  0.8871
  224MPD1    N1 3463   0.923   0.493  10.513  0.3182 -0.7067  0.1235
  224MPD1    H6 3464   0.873   0.483  10.601  1.0462 -1.1065  0.4914
  224MPD1    H7 3465   1.022   0.473  10.529 -0.2089 -1.4079  2.5111
  225MPD1     C 3466   3.413   2.953  11.963  0.3959  0.1035  0.3655
  225MPD1    C1 3467   3.424   2.821  11.918  0.2281  0.2734  0.2285
  225MPD1    C2 3468   3.362   2.720  11.987  0.2352  0.3325  0.3044
  225MPD1    C3 3469   3.323   2.739  12.114  0.5765  0.3130 -0.1990
  225MPD1    C4 3470   3.322   2.868  12.161 -0.2595 -0.1275 -0.0107
  225MPD1    C5 3471   3.362   2.969  12.085 -0.1428  0.7186 -0.1018
  225MPD1     H 3472   3.362   2.619  11.947  0.5534  0.2530  0.5031
  225MPD1    H1 3473   3.284   2.887  12.261 -0.8508 -1.0633 -0.0605
  225MPD1    H2 3474   3.443   3.045  11.914  3.7716 -0.1430  2.0303
  225MPD1    H3 3475   3.356   3.069  12.126 -1.8707 -0.4377  2.4743
  225MPD1     N 3476   3.281   2.642  12.209  0.0452  0.3779  0.3490
  225MPD1    H5 3477   3.275   2.674  12.305  1.1257 -0.1656  0.5970
  225MPD1    N1 3478   3.438   2.806  11.779 -0.3610  0.6441  0.8326
  225MPD1    H6 3479   3.477   2.715  11.758 -1.3554  0.1756  1.0140
  225MPD1    H7 3480   3.487   2.878  11.726 -2.6003  1.6696  0.1440
  226MPD1     C 3481   0.161   2.200   9.539 -0.2435 -0.2715  0.3237
  226MPD1    C1 3482   0.130   2.070   9.567 -0.3497 -0.1741  0.0421
  226MPD1    C2 3483   0.241   1.982   9.577  0.7841 -0.6503  0.2371
  226MPD1    C3 3484   0.370   2.028   9.596  0.2510 -0.2188  0.2120
  226MPD1    C4 3485   0.388   2.162   9.593  0.0388 -0.4764 -0.1881
  226MPD1    C5 3486   0.289   2.251   9.552 -0.5913  0.2446  0.0856
  226MPD1     H 3487   0.218   1.877   9.583 -2.4913  0.1195  1.1488
  226MPD1    H1 3488   0.483   2.213   9.602  0.9798 -2.4918  1.4919
  226MPD1    H2 3489   0.081   2.273   9.527 -0.7550 -1.2736 -2.3052
  226MPD1    H3 3490   0.310   2.356   9.535  3.4298 -0.5473  0.1355
  226MPD1     N 3491   0.465   1.935   9.626 -0.7461 -1.2850  0.2181
  226MPD1    H5 3492   0.449   1.835   9.629 -3.6179 -0.9093 -2.7935
  226MPD1    N1 3493   4.734   2.025   9.561  0.3653  0.3558 -0.1892
  226MPD1    H6 3494   4.721   1.939   9.614 -2.5989 -1.0033 -3.0736
  226MPD1    H7 3495   4.668   2.095   9.593  0.5018 -0.7071  2.3771
  227MPD1     C 3496   0.691   1.186  10.243  0.3269  0.2980 -0.5418
  227MPD1    C1 3497   0.819   1.219  10.197 -0.2308 -0.1539 -0.1158
  227MPD1    C2 3498   0.836   1.318  10.103  0.3303 -0.1735 -0.3725
  227MPD1    C3 3499   0.722   1.372  10.042 -0.0287  0.5155 -0.4253
  227MPD1    C4 3500   0.600   1.315  10.075  0.2901  0.7805 -0.6195
  227MPD1    C5 3501   0.582   1.243  10.188 -0.6760  0.9096  0.2344
  227MPD1     H 3502   0.936   1.354  10.081  0.8687 -2.5117 -1.8459
  227MPD1    H1 3503   0.512   1.345  10.020 -1.1929  2.2625  2.5306
  227MPD1    H2 3504   0.676   1.109  10.317  0.6299  1.0457  0.2948
  227MPD1    H3 3505   0.482   1.219  10.221 -0.1090 -1.2466  0.4108
  227MPD1     N 3506   0.741   1.472   9.947 -0.6647 -0.0659  0.1237
  227MPD1    H5 3507   0.833   1.515   9.950  0.2247 -1.9127 -0.8336
  227MPD1    N1 3508   0.921   1.143  10.255 -0.3402  0.1990  0.0084
  227MPD1    H6 3509   0.891   1.050  10.283  0.5661  0.5375  2.1472
  227MPD1    H7 3510   1.001   1.145  10.192  0.2734  5.7459  0.9190
  228MPD1     C 3511   0.143   0.229  12.525 -0.5912 -0.2625  0.5977
  228MPD1    C1 3512   0.025   0.289  12.489  0.8499  0.3655 -0.6530
  228MPD1    C2 3513   4.666   0.303  12.585  0.0290 -0.1355  0.9728
  228MPD1    C3 3514   4.668   0.220  12.698 -0.0874 -0.2787  0.1687
  228MPD1    C4 3515   0.039   0.138  12.720 -0.6920 -0.2187 -1.4901
  228MPD1    C5 3516   0.152   0.154  12.637  0.5730  0.0040 -0.1927
  228MPD1     H 3517   4.594   0.382  12.570 -0.6198 -0.9317 -0.1764
  228MPD1    H1 3518   0.035   0.061  12.795  0.9346  0.8370 -0.3128
  228MPD1    H2 3519   0.222   0.208  12.453 -0.4703 -0.9409  0.9245
  228MPD1    H3 3520   0.231   0.079  12.640  0.3393 -0.2224  0.2190
  228MPD1     N 3521   4.548   0.222  12.776  0.2342  0.2520 -0.3187
  228MPD1    H5 3522   4.472   0.278  12.736  0.3504  0.4219 -0.3026
  228MPD1    N1 3523   0.025   0.360  12.370 -0.1778 -0.3018  0.4587
  228MPD1    H6 3524   4.666   0.367  12.340  0.3170  0.4589 -0.9475
  228MPD1    H7 3525   0.082   0.314  12.299  0.7808  0.2577  0.8583
  229MPD1     C 3526   4.499   3.836  14.489 -0.5169  0.0476  0.4214
  229MPD1    C1 3527   4.602   3.747  14.474 -0.5449 -0.2376 -0.5423
  229MPD1    C2 3528   4.603   3.638  14.562  0.1076  0.3312  0.0364
  229MPD1    C3 3529   4.528   3.637  14.683  0.6006  0.0926  0.1243
  229MPD1    C4 3530   4.432   3.728  14.694  0.2007 -0.3654  0.8353
  229MPD1    C5 3531   4.415   3.829  14.600  0.1754 -0.1399  0.3871
  229MPD1     H 3532   4.672   3.555  14.552  1.7335  1.5992  0.8773
  229MPD1    H1 3533   4.370   3.728  14.783 -2.1567  0.4756 -0.8162
  229MPD1    H2 3534   4.478   3.921  14.424  0.1812 -1.3974 -1.6951
  229MPD1    H3 3535   4.339   3.906  14.609 -0.0925 -0.3053 -0.4137
  229MPD1     N 3536   4.539   3.536  14.783  0.3567  0.3341  0.7138
  229MPD1    H5 3537   4.480   3.540  14.865  1.2267 -0.3401  1.3749
  229MPD1    N1 3538   4.667   3.744  14.353  0.2080  0.3043 -0.0888
  229MPD1    H6 3539   4.695   3.839  14.332 -0.1408  0.3455 -0.3637
  229MPD1    H7 3540   0.012   3.688  14.371 -0.1722  0.7935  3.1846
  230MPD1     C 3541   0.138   3.360  15.681  0.6448 -0.9631  0.2789
  230MPD1    C1 3542   0.184   3.257  15.601 -0.4915 -0.1134  0.8680
  230MPD1    C2 3543   0.109   3.222  15.501 -0.1241 -0.2997  0.5416
  230MPD1    C3 3544   0.011   3.299  15.445  1.0653  0.6392 -0.6723
  230MPD1    C4 3545   4.706   3.410  15.517  0.3110  0.0437 -0.8662
  230MPD1    C5 3546   0.033   3.434  15.638 -0.6340 -0.5721 -0.6951
  230MPD1     H 3547   0.135   3.131  15.448 -2.7057 -0.8844  0.2786
  230MPD1    H1 3548   4.619   3.465  15.483 -1.0127 -1.3359  0.3223
  230MPD1    H2 3549   0.193   3.382  15.771 -0.0086 -2.2048  0.9848
  230MPD1    H3 3550   0.007   3.517  15.703 -1.1708 -0.5567 -0.9285
  230MPD1     N 3551   4.696   3.263  15.319  0.7570 -0.0376  0.6408
  230MPD1    H5 3552   4.716   3.165  15.297  1.2054  0.6723 -2.0838
  230MPD1    N1 3553   0.299   3.188  15.638  0.6313 -0.6419  0.2017
  230MPD1    H6 3554   0.363   3.246  15.692 -0.0604  0.2460  0.0678
  230MPD1    H7 3555   0.344   3.142  15.560 -0.4008  0.4365 -1.0457
  231MPD1     C 3556   2.885   0.638  15.673 -0.3246 -0.3795  0.6679
  231MPD1    C1 3557   2.838   0.582  15.553 -0.1332  0.3050 -0.2924
  231MPD1    C2 3558   2.884   0.644  15.434  0.1965 -0.9215  0.1696
  231MPD1    C3 3559   2.967   0.756  15.432 -0.5748 -0.4367  0.2116
  231MPD1    C4 3560   3.013   0.795  15.557  0.6651 -0.1606 -0.4686
  231MPD1    C5 3561   2.972   0.739  15.668 -0.5158 -0.3213 -0.0043
  231MPD1     H 3562   2.852   0.595  15.343 -1.8735 -0.7013  0.7871
  231MPD1    H1 3563   3.087   0.873  15.572  1.4450 -0.7116 -1.5754
  231MPD1    H2 3564   2.865   0.595  15.770 -3.3393 -2.0744 -0.7317
  231MPD1    H3 3565   3.021   0.773  15.759  0.4968 -0.4932 -0.4938
  231MPD1     N 3566   3.019   0.805  15.309 -0.5009  0.1128 -0.3037
  231MPD1    H5 3567   2.971   0.767  15.228  0.7438  0.9365 -1.4480
  231MPD1    N1 3568   2.762   0.467  15.552  0.7957  0.1339  0.1165
  231MPD1    H6 3569   2.724   0.459  15.458  1.0687 -1.5937  0.1686
  231MPD1    H7 3570   2.687   0.477  15.620 -2.2050  0.5156 -3.2558
  232MPD1     C 3571   0.306   4.049   0.404  0.2516  0.6115  0.3515
  232MPD1    C1 3572   0.191   4.041   0.484 -0.6999 -0.4303 -0.2735
  232MPD1    C2 3573   0.108   3.936   0.469  1.0874  0.0309  1.2557
  232MPD1    C3 3574   0.138   3.829   0.377 -0.7973  0.5630  0.2457
  232MPD1    C4 3575   0.258   3.833   0.308  0.1785 -0.6547  0.5520
  232MPD1    C5 3576   0.337   3.942   0.321  0.2047  0.0056 -0.0513
  232MPD1     H 3577   0.018   3.940   0.529 -0.6729 -3.3666 -1.0947
  232MPD1    H1 3578   0.284   3.759   0.233 -1.6541 -0.8795  0.1422
  232MPD1    H2 3579   0.381   4.127   0.406  1.0741 -0.0946 -2.3865
  232MPD1    H3 3580   0.434   3.945   0.272  1.1185  1.0370  1.8373
  232MPD1     N 3581   0.038   3.730   0.354 -0.3043  0.3262 -0.4353
  232MPD1    H5 3582   4.690   3.745   0.407 -0.1917 -0.1992 -0.1036
  232MPD1    N1 3583   0.153   4.147   0.569  0.0374  0.3768  0.2570
  232MPD1    H6 3584   0.234   4.202   0.593 -0.3039  1.3153 -0.7110
  232MPD1    H7 3585   0.119   4.107   0.656  0.9798  0.0450  0.4708
  233MPD1     C 3586   0.751   0.695   0.489 -0.0737  0.5032  0.0815
  233MPD1    C1 3587   0.786   0.811   0.558  1.0123  0.0590  0.7019
  233MPD1    C2 3588   0.887   0.800   0.652  0.1053  0.4441  0.4274
  233MPD1    C3 3589   0.950   0.678   0.680  0.0698  0.1444  0.0334
  233MPD1    C4 3590   0.912   0.569   0.602 -0.3810  0.1139 -0.0678
  233MPD1    C5 3591   0.812   0.574   0.509 -0.0342  0.4968  0.1121
  233MPD1     H 3592   0.919   0.883   0.713  0.2103  1.7634 -1.4370
  233MPD1    H1 3593   0.959   0.472   0.616 -1.3481 -0.3871 -0.2895
  233MPD1    H2 3594   0.672   0.707   0.416 -0.8896 -0.3353  0.8292
  233MPD1    H3 3595   0.792   0.489   0.444  0.8816  0.6657 -0.3922
  233MPD1     N 3596   1.051   0.662   0.778  0.5803  0.6710 -0.0489
  233MPD1    H5 3597   1.091   0.571   0.795  2.6125  1.4909 -0.3735
  233MPD1    N1 3598   0.722   0.934   0.526 -0.1702  0.5629  0.0830
  233MPD1    H6 3599   0.789   1.008   0.506 -2.1366  1.8223 -1.8752
  233MPD1    H7 3600   0.646   0.936   0.458 -0.2199 -0.3211  0.1110
  234MPD1     C 3601   2.338   0.220   8.672 -0.8895 -1.0197 -0.3658
  234MPD1    C1 3602   2.323   0.146   8.791 -0.4822  0.8763 -0.0552
  234MPD1    C2 3603   2.216   0.187   8.875 -0.5242 -0.8616 -0.2223
  234MPD1    C3 3604   2.139   0.304   8.852  0.2033 -0.5289 -0.1466
  234MPD1    C4 3605   2.162   0.377   8.738  0.4510 -0.7214  0.6464
  234MPD1    C5 3606   2.258   0.327   8.653 -0.2173  0.1928  0.0873
  234MPD1     H 3607   2.195   0.121   8.958 -2.6807  2.5751  1.9440
  234MPD1    H1 3608   2.100   0.458   8.701 -0.3578 -0.3391  2.8258
  234MPD1    H2 3609   2.416   0.193   8.603 -1.4673 -0.8407 -1.0856
  234MPD1    H3 3610   2.275   0.369   8.554  2.1333  0.8120  0.7442
  234MPD1     N 3611   2.040   0.338   8.949  0.2171 -0.1704  0.0730
  234MPD1    H5 3612   2.050   0.285   9.035 -1.4928 -2.2758 -1.0152
  234MPD1    N1 3613   2.393   0.028   8.815 -0.0654  0.1164  0.5948
  234MPD1    H6 3614   2.478   0.012   8.762 -1.6192 -0.9359 -1.5652
  234MPD1    H7 3615   2.420   0.021   8.913 -0.8117  0.3045  0.8089
  235MPD1     C 3616   3.318   2.641   9.945  0.9401  0.0278  0.7390
  235MPD1    C1 3617   3.292   2.749   9.862  0.5020  0.0139 -0.6966
  235MPD1    C2 3618   3.404   2.807   9.796  0.4335 -0.1724 -0.8783
  235MPD1    C3 3619   3.532   2.759   9.822  1.0624  0.1599 -0.1338
  235MPD1    C4 3620   3.546   2.645   9.908  0.3744  0.0798  0.5460
  235MPD1    C5 3621   3.439   2.589   9.971  0.0023  0.4536  0.2787
  235MPD1     H 3622   3.385   2.896   9.737  0.6851  0.1196 -0.5153
  235MPD1    H1 3623   3.638   2.588   9.909 -0.3586 -1.1276 -0.7161
  235MPD1    H2 3624   3.238   2.587   9.995 -0.6882  1.0241 -0.8164
  235MPD1    H3 3625   3.446   2.490  10.016  0.0824  0.4586  0.2782
  235MPD1     N 3626   3.634   2.815   9.744 -0.2825 -0.0551 -0.0785
  235MPD1    H5 3627   3.604   2.877   9.669  2.0387 -0.0970 -1.0640
  235MPD1    N1 3628   3.162   2.784   9.826  0.4659  0.0929  0.3590
  235MPD1    H6 3629   3.170   2.880   9.794  1.4420 -0.1653 -0.1598
  235MPD1    H7 3630   3.089   2.780   9.898  0.9833 -1.3977  0.8100
  236MPD1     C 3631   2.397   3.902  10.060 -0.8704 -0.0553  0.2347
  236MPD1    C1 3632   2.395   3.775  10.109  0.7421 -0.0246 -1.1423
  236MPD1    C2 3633   2.507   3.693  10.092 -0.2726 -0.0590 -0.1422
  236MPD1    C3 3634   2.628   3.739  10.046  0.1437 -0.7984 -0.9555
  236MPD1    C4 3635   2.632   3.869  10.001  0.0902 -0.7105 -0.4460
  236MPD1    C5 3636   2.520   3.950  10.014  0.0970 -0.5906 -0.1148
  236MPD1     H 3637   2.505   3.590  10.128 -2.0157 -0.5310 -1.5945
  236MPD1    H1 3638   2.719   3.904   9.948  0.9238  0.2461  1.5635
  236MPD1    H2 3639   2.313   3.970  10.068 -2.0112 -1.3708 -0.6666
  236MPD1    H3 3640   2.528   4.049   9.970 -1.7028 -0.1859  0.4348
  236MPD1     N 3641   2.748   3.666  10.041 -0.3890  0.4041 -0.3324
  236MPD1    H5 3642   2.835   3.715  10.022 -0.2595 -0.5605 -2.1974
  236MPD1    N1 3643   2.273   3.714  10.132  0.1516  0.4776  0.7961
  236MPD1    H6 3644   2.288   3.647  10.207 -0.2564  1.8206  2.0784
  236MPD1    H7 3645   2.201   3.779  10.161  1.3023  0.9426  2.6139
  237MPD1     C 3646   3.422   2.474  15.078 -0.5592  0.1455  0.6767
  237MPD1    C1 3647   3.505   2.367  15.097  0.0885 -0.4849 -0.1337
  237MPD1    C2 3648   3.445   2.246  15.080 -0.4618  0.2818  0.7487
  237MPD1    C3 3649   3.311   2.229  15.058  0.3312  0.3003  0.0545
  237MPD1    C4 3650   3.228   2.339  15.054  0.0449  0.4392  0.1554
  237MPD1    C5 3651   3.287   2.461  15.077  0.7347 -0.0217  0.7757
  237MPD1     H 3652   3.508   2.159  15.069 -0.7099  0.2899 -0.7227
  237MPD1    H1 3653   3.120   2.337  15.048 -0.0837  1.9329  2.4227
  237MPD1    H2 3654   3.458   2.576  15.084 -1.9574  0.6791  0.0458
  237MPD1    H3 3655   3.232   2.553  15.090 -1.1222 -0.8719 -1.1342
  237MPD1     N 3656   3.253   2.104  15.037  0.0783 -0.4246  0.0259
  237MPD1    H5 3657   3.153   2.106  15.021 -0.0020  1.6326  0.8431
  237MPD1    N1 3658   3.648   2.380  15.083  0.3657 -0.4030 -0.3924
  237MPD1    H6 3659   3.701   2.298  15.112 -0.0058  0.1276  1.7685
  237MPD1    H7 3660   3.680   2.466  15.127 -0.7610 -0.5276  0.6490
  238MPD1     C 3661   0.444   1.175  14.814  0.3133 -1.4298 -0.1406
  238MPD1    C1 3662   0.452   1.061  14.888  0.5645  0.4897 -0.2316
  238MPD1    C2 3663   0.366   0.956  14.863  0.0094  0.6500 -0.2241
  238MPD1    C3 3664   0.274   0.971  14.764  0.2817 -0.4356  0.3962
  238MPD1    C4 3665   0.264   1.091  14.697  0.2719 -0.1808 -0.5480
  238MPD1    C5 3666   0.351   1.197  14.723 -0.2939  0.4235 -0.1546
  238MPD1     H 3667   0.383   0.861  14.912 -1.8167  0.1281 -0.6103
  238MPD1    H1 3668   0.185   1.114  14.627 -1.0684 -1.6187  0.4907
  238MPD1    H2 3669   0.520   1.252  14.819 -1.3996  0.1841  0.7912
  238MPD1    H3 3670   0.329   1.288  14.670 -2.7271 -1.4536 -2.3708
  238MPD1     N 3671   0.191   0.865  14.731 -0.0508  0.2619 -0.1729
  238MPD1    H5 3672   0.126   0.879  14.654 -0.1000 -1.5626 -0.4479
  238MPD1    N1 3673   0.564   1.037  14.970  0.0141 -0.3973 -0.6162
  238MPD1    H6 3674   0.545   0.967  15.041 -1.6347  0.0050 -0.6547
  238MPD1    H7 3675   0.615   1.116  15.008  0.1976 -0.0715 -1.5280
  239MPD1     C 3676   0.092   1.884  14.804 -0.6255  0.0187 -0.3326
  239MPD1    C1 3677   0.187   1.936  14.711  0.1268 -0.1445 -0.3926
  239MPD1    C2 3678   0.167   1.900  14.579 -0.4188 -0.2878  0.1648
  239MPD1    C3 3679   0.067   1.817  14.540  0.0834  0.2424  0.6337
  239MPD1    C4 3680   4.718   1.756  14.631 -0.3909 -0.5230  0.2976
  239MPD1    C5 3681   4.727   1.796  14.762  0.4134 -0.4924  0.8722
  239MPD1     H 3682   0.220   1.966  14.510 -0.5102 -1.9199 -1.4888
  239MPD1    H1 3683   4.640   1.686  14.601  0.3959 -0.8249 -1.0442
  239MPD1    H2 3684   0.089   1.904  14.910 -0.5066  1.4599 -0.6109
  239MPD1    H3 3685   4.660   1.750  14.833 -0.3684 -0.8757 -0.1022
  239MPD1     N 3686   0.027   1.807  14.404 -0.2772 -0.6585 -0.7436
  239MPD1    H5 3687   4.672   1.769  14.391 -0.3954 -0.3293 -0.8497
  239MPD1    N1 3688   0.284   2.029  14.752 -0.7441  0.1246 -0.4151
  239MPD1    H6 3689   0.289   2.041  14.853 -0.5352 -0.0493 -0.4045
  239MPD1    H7 3690   0.371   1.995  14.710  0.8250 -1.1039  3.8301
  240MPD1     C 3691   4.043   1.595  13.818  0.6720  0.0292  0.2153
  240MPD1    C1 3692   4.012   1.473  13.765 -0.0788 -0.2234  0.4208
  240MPD1    C2 3693   4.025   1.366  13.848  0.3020  0.5242  0.2380
  240MPD1    C3 3694   4.071   1.378  13.977  1.2265 -0.2991 -0.4631
  240MPD1    C4 3695   4.122   1.501  14.022  0.6023  1.0116 -0.6954
  240MPD1    C5 3696   4.107   1.607  13.937 -0.7786 -0.1583  0.9154
  240MPD1     H 3697   3.981   1.270  13.821 -0.9549  1.1066  0.1922
  240MPD1    H1 3698   4.181   1.518  14.112 -1.5984  1.1194  0.7082
  240MPD1    H2 3699   4.029   1.683  13.756 -0.7147  0.8254  1.6446
  240MPD1    H3 3700   4.121   1.708  13.976  0.9881  0.0015 -0.1669
  240MPD1     N 3701   4.068   1.255  14.053  0.3924  0.5468  0.1086
  240MPD1    H5 3702   4.041   1.172  14.002 -3.5698  2.5029 -1.0304
  240MPD1    N1 3703   3.936   1.454  13.646 -0.0949 -0.4490  0.4123
  240MPD1    H6 3704   3.968   1.517  13.573 -2.3561 -1.9548 -1.8785
  240MPD1    H7 3705   3.940   1.360  13.609 -0.7173 -1.2078  2.2688
  241MPD1     C 3706   3.995   0.812  15.080  0.2798 -0.2981 -0.3211
  241MPD1    C1 3707   4.039   0.938  15.049 -0.0041  0.1966  0.4181
  241MPD1    C2 3708   4.057   0.969  14.913  0.1182  0.0831 -0.1295
  241MPD1    C3 3709   4.014   0.885  14.807  0.1385 -0.6857  0.2986
  241MPD1    C4 3710   3.975   0.760  14.849  0.4211 -0.1416 -0.6692
  241MPD1    C5 3711   3.957   0.723  14.981 -0.4983  0.2090  0.2843
  241MPD1     H 3712   4.121   1.054  14.895 -1.0888  0.7340 -1.3007
  241MPD1    H1 3713   3.949   0.685  14.775  3.7805  1.0090 -3.0502
  241MPD1    H2 3714   3.963   0.785  15.180  0.7441 -3.5577 -1.0787
  241MPD1    H3 3715   3.906   0.630  15.006  0.7351 -0.4473  0.3601
  241MPD1     N 3716   4.030   0.903  14.665  0.0351 -0.3853  0.6716
  241MPD1    H5 3717   3.995   0.827  14.608  1.7102 -0.8706  0.2886
  241MPD1    N1 3718   4.108   1.006  15.152 -0.5050  0.5840  0.5839
  241MPD1    H6 3719   4.069   0.992  15.245 -0.1869  1.3483  0.8324
  241MPD1    H7 3720   4.119   1.107  15.142 -1.7975  0.7232  0.5062
  242MPD1     C 3721   4.072   3.772  15.826 -0.3424 -0.8464  0.0628
  242MPD1    C1 3722   3.968   3.815  15.743 -0.2203 -0.6997 -0.3243
  242MPD1    C2 3723   3.994   3.918  15.647 -0.8515  0.0541 -0.0192
  242MPD1    C3 3724   4.123   3.969  15.638  0.3840 -0.5440  0.2162
  242MPD1    C4 3725   4.224   3.940  15.730  0.2416 -0.3231  0.0266
  242MPD1    C5 3726   4.193   3.840  15.816 -1.0192 -0.5241  0.6805
  242MPD1     H 3727   3.919   3.948  15.575 -0.9131  1.6757  0.7124
  242MPD1    H1 3728   4.323   3.984  15.729  0.5239 -0.9396  1.1419
  242MPD1    H2 3729   4.059   3.696  15.902  1.2951 -0.9711  0.2312
  242MPD1    H3 3730   4.271   3.799  15.879 -0.8301  1.3663  1.6710
  242MPD1     N 3731   4.166   4.055  15.539 -0.1501 -0.5312  0.0749
  242MPD1    H5 3732   4.264   4.080  15.547 -0.2700  0.4807 -1.6062
  242MPD1    N1 3733   3.846   3.746  15.751  0.1847 -1.2552  0.0852
  242MPD1    H6 3734   3.771   3.812  15.732 -0.3359 -1.8486  0.1037
  242MPD1    H7 3735   3.825   3.701  15.840  1.3004 -0.8680  0.5473
  243MPD1     C 3736   0.346   3.007  17.736  0.5449 -0.9074 -0.2241
  243MPD1    C1 3737   0.350   3.035  17.603 -0.0483 -0.4280  0.2659
  243MPD1    C2 3738   0.421   2.949  17.519 -0.2618 -0.5744  0.8997
  243MPD1    C3 3739   0.487   2.839  17.562  0.5166 -0.3814  0.2751
  243MPD1    C4 3740   0.485   2.813  17.690  0.2987  0.2325  0.5885
  243MPD1    C5 3741   0.413   2.892   0.024  0.7665 -0.5666  0.2149
  243MPD1     H 3742   0.417   2.969  17.412 -0.8321 -1.7394  0.7053
  243MPD1    H1 3743   0.545   2.743  17.747 -1.7768 -1.3073  0.8901
  243MPD1    H2 3744   0.293   3.064   0.061  1.5051  0.6984 -0.7543
  243MPD1    H3 3745   0.410   2.857   0.127  0.0990 -0.3758  0.2573
  243MPD1     N 3746   0.558   2.760  17.463 -0.0886  0.1168 -0.4006
  243MPD1    H5 3747   0.554   2.793  17.367  1.1017 -1.5861 -1.0195
  243MPD1    N1 3748   0.263   3.136  17.553 -0.4928 -0.4280  1.1013
  243MPD1    H6 3749   0.234   3.205  17.622 -1.4750  0.8091 -0.5174
  243MPD1    H7 3750   0.295   3.178  17.465 -0.3857 -1.2804  0.7360
  244MPD1     C 3751   1.203   1.938  17.121  0.1457 -0.7321 -0.2934
  244MPD1    C1 3752   1.184   2.026  17.022 -0.1495  0.3835 -0.0322
  244MPD1    C2 3753   1.102   2.133  17.049 -0.5644 -0.4901 -0.0118
  244MPD1    C3 3754   1.065   2.160  17.180 -0.4009  0.3551 -0.2352
  244MPD1    C4 3755   1.094   2.071  17.283  0.0864 -1.0784  0.3759
  244MPD1    C5 3756   1.155   1.954  17.246 -0.3341 -0.1372 -0.2308
  244MPD1     H 3757   1.064   2.195  16.969 -0.6607  0.8179  1.0348
  244MPD1    H1 3758   1.059   2.094  17.384  2.8647  2.2288  0.5860
  244MPD1    H2 3759   1.255   1.844  17.108  0.7090 -0.0337 -3.2163
  244MPD1    H3 3760   1.165   1.873  17.318  1.8778 -0.4413 -0.8807
  244MPD1     N 3761   0.985   2.276  17.202 -0.2905 -0.1046  0.9339
  244MPD1    H5 3762   0.963   2.331  17.119 -1.9278 -0.2433  1.2802
  244MPD1    N1 3763   1.194   1.978  16.894  0.0426  0.7109  0.2337
  244MPD1    H6 3764   1.189   2.053  16.826 -0.2737  0.0868 -0.4238
  244MPD1    H7 3765   1.281   1.926  16.880 -0.5130  0.7480 -3.1648
  245MPD1     C 3766   2.786   3.339  13.024  0.0695  0.0806 -0.3950
  245MPD1    C1 3767   2.715   3.449  13.064  0.3818  0.5472 -0.9595
  245MPD1    C2 3768   2.755   3.516  13.181 -0.1683  0.0762 -0.5377
  245MPD1    C3 3769   2.873   3.487  13.243  0.8849 -0.1751  0.9932
  245MPD1    C4 3770   2.945   3.380  13.195  0.2148  0.1161  0.3482
  245MPD1    C5 3771   2.899   3.300  13.087 -0.2605  0.3207 -0.6102
  245MPD1     H 3772   2.696   3.599  13.219 -0.0359  1.0073 -2.3777
  245MPD1    H1 3773   3.035   3.360  13.252  1.9955  2.2968 -1.6927
  245MPD1    H2 3774   2.740   3.277  12.948 -1.7184  0.1717  0.5993
  245MPD1    H3 3775   2.960   3.216  13.055  0.8545  0.5790  0.8364
  245MPD1     N 3776   2.925   3.574  13.344  0.6941  0.6079 -0.4962
  245MPD1    H5 3777   2.888   3.668  13.345  1.0291  0.6985  2.2233
  245MPD1    N1 3778   2.588   3.471  13.014  0.4971 -0.3758  0.6062
  245MPD1    H6 3779   2.553   3.563  13.037 -1.4651 -0.8098 -0.6562
  245MPD1    H7 3780   2.585   3.455  12.913  2.2456  0.4621  0.4156
  246MPD1     C 3781   3.688   0.657   9.682  0.1319 -0.1938 -0.2831
  246MPD1    C1 3782   3.553   0.688   9.662 -0.7475 -0.2718 -0.1391
  246MPD1    C2 3783   3.483   0.592   9.593  0.5439 -0.4877  0.0231
  246MPD1    C3 3784   3.531   0.465   9.550  0.8992 -0.5710 -0.1169
  246MPD1    C4 3785   3.662   0.434   9.584 -0.3436  0.1265 -0.0799
  246MPD1    C5 3786   3.738   0.536   9.638 -0.6748  0.1646  0.6141
  246MPD1     H 3787   3.382   0.612   9.560 -0.2760  0.0344  2.9247
  246MPD1    H1 3788   3.712   0.351   9.535 -1.1000 -0.5474  0.2859
  246MPD1    H2 3789   3.757   0.726   9.728  0.6824  0.4569 -2.0700
  246MPD1    H3 3790   3.844   0.519   9.629 -0.4518  0.2689  3.1315
  246MPD1     N 3791   3.444   0.380   9.485  0.0404  0.0004  0.2647
  246MPD1    H5 3792   3.350   0.419   9.479 -0.3890 -1.1645 -0.7792
  246MPD1    N1 3793   3.510   0.818   9.687 -0.1894 -0.6687  0.0068
  246MPD1    H6 3794   3.410   0.815   9.705 -0.7457 -0.7621 -3.0526
  246MPD1    H7 3795   3.554   0.861   9.768  1.0746  0.1013 -1.0919
  247MPD1     C 3796   1.678   0.746  15.282 -0.6461  0.5806 -0.3597
  247MPD1    C1 3797   1.743   0.779  15.163 -0.6216 -0.0555  0.1777
  247MPD1    C2 3798   1.866   0.715  15.133  0.3421 -0.5689 -0.3753
  247MPD1    C3 3799   1.913   0.616  15.218 -0.3269 -0.0896 -0.3108
  247MPD1    C4 3800   1.857   0.598  15.339  0.0038 -0.2574 -0.0249
  247MPD1    C5 3801   1.740   0.665  15.370 -0.1053  0.3326  0.4492
  247MPD1     H 3802   1.912   0.732  15.036  0.9104 -1.2823 -0.2317
  247MPD1    H1 3803   1.905   0.536  15.414  1.1193 -0.1458 -0.6433
  247MPD1    H2 3804   1.579   0.779  15.311 -0.2984  1.3933 -0.0800
  247MPD1    H3 3805   1.698   0.648  15.469 -2.2928  2.0417 -0.1730
  247MPD1     N 3806   2.024   0.538  15.191  0.7869 -0.3808 -0.0383
  247MPD1    H5 3807   2.036   0.464  15.259 -0.4930 -0.1206  0.4652
  247MPD1    N1 3808   1.673   0.846  15.063  0.0360 -0.4865 -0.3522
  247MPD1    H6 3809   1.617   0.924  15.098  1.3361  0.6331 -0.7417
  247MPD1    H7 3810   1.742   0.890  15.001  0.1694 -0.6897 -0.3482
  248MPD1     C 3811   2.484   2.446  17.451  0.5067 -0.8061  0.4690
  248MPD1    C1 3812   2.455   2.564  17.514 -0.5331 -0.1411 -0.0017
  248MPD1    C2 3813   2.503   2.597  17.632  0.2044 -0.3645 -0.3756
  248MPD1    C3 3814   2.562   2.508  17.711 -0.5890 -0.4340 -0.4293
  248MPD1    C4 3815   2.586   2.383  17.661 -0.6153 -0.3214  0.3464
  248MPD1    C5 3816   2.548   2.353  17.528 -0.3605  0.5511  0.3545
  248MPD1     H 3817   2.485   2.695  17.675  0.4666  0.3559 -1.9099
  248MPD1    H1 3818   2.628   2.294  17.707 -2.0600 -0.4564  1.4001
  248MPD1    H2 3819   2.459   2.421  17.348 -0.8241  0.4748  0.4785
  248MPD1    H3 3820   2.565   2.254  17.485 -0.1717  1.6137 -2.0366
  248MPD1     N 3821   2.585   2.540   0.091 -0.2371  0.1166  0.3872
  248MPD1    H5 3822   2.559   2.634   0.120  0.7513  0.0254  1.5813
  248MPD1    N1 3823   2.390   2.663  17.440 -0.3181 -0.0418 -0.6511
  248MPD1    H6 3824   2.339   2.618  17.364 -0.5552 -1.1574  0.1751
  248MPD1    H7 3825   2.328   2.725  17.491 -0.5187 -0.4550 -0.4002
  249MPD1     C 3826   0.022   1.655   9.698 -0.2073 -0.2931 -0.3249
  249MPD1    C1 3827   0.080   1.699   9.820 -0.3570  0.9656  0.1910
  249MPD1    C2 3828   4.733   1.749   9.913  0.3108 -0.7892 -0.1938
  249MPD1    C3 3829   4.602   1.781   9.884 -0.4931  0.2038  0.3156
  249MPD1    C4 3830   4.548   1.737   9.769 -0.1314 -0.2609 -0.3046
  249MPD1    C5 3831   4.626   1.671   9.681  0.1780 -0.2224  0.3046
  249MPD1     H 3832   0.039   1.765  10.011  0.2415  1.7166 -0.5601
  249MPD1    H1 3833   4.443   1.752   9.748 -0.1335 -1.2106 -0.9781
  249MPD1    H2 3834   0.079   1.609   9.618 -0.7070  0.3987 -1.0805
  249MPD1    H3 3835   4.589   1.641   9.584 -1.5371 -0.1429  0.9268
  249MPD1     N 3836   4.519   1.847   9.985  0.4528  0.0800 -0.6911
  249MPD1    H5 3837   4.550   1.853  10.081  2.1233 -0.0272 -1.2172
  249MPD1    N1 3838   0.207   1.648   9.853 -0.0025 -0.4030  0.9407
  249MPD1    H6 3839   0.274   1.646   9.776  0.5209  0.8302  1.3462
  249MPD1    H7 3840   0.246   1.691   9.937  3.8310 -0.0351 -1.0220
  250MPD2     C 3841   0.802   2.181  13.276 -0.3017 -0.3637  0.1867
  250MPD2    C1 3842   0.737   2.251  13.174  0.8156 -0.0290 -0.4072
  250MPD2    C2 3843   0.632   2.185  13.118 -0.0544 -0.7272 -0.0569
  250MPD2    C3 3844   0.586   2.064  13.174  0.0816 -0.3499 -0.2315
  250MPD2    C4 3845   0.646   2.001  13.283 -0.6225 -0.0819  0.3497
  250MPD2    C5 3846   0.752   2.063  13.334  0.0685 -0.3187  1.1138
  250MPD2     H 3847   0.565   2.243  13.055  1.7553  2.0084  0.5219
  250MPD2    H1 3848   0.611   1.909  13.329  0.2203 -0.3036  0.5430
  250MPD2    H2 3849   0.889   2.224  13.323 -1.5115  2.2424  0.0459
  250MPD2    H3 3850   0.803   2.021  13.420  0.8838  1.2512  1.4037
  250MPD2     N 3851   0.475   1.988  13.132  0.3555  0.2635  0.0778
  250MPD2    H5 3852   0.440   1.908  13.184  0.1529 -0.2218 -0.7891
  250MPD2    N1 3853   0.798   2.362  13.113  0.6539 -0.1423 -0.5769
  250MPD2    H7 3854   0.883   2.394  13.157  0.5157 -0.8266  0.1918
  251TMC3    C1 3855   0.861   2.514  12.967 -0.1213  0.1078 -0.3202
  251TMC3    C2 3856   0.827   2.640  12.941 -0.0125  0.3306 -0.0568
  251TMC3    C3 3857   0.922   2.732  12.961 -0.4691  0.1682  0.1271
  251TMC3    C4 3858   0.986   2.467  12.986 -0.3472  0.0811 -0.0576
  251TMC3    C5 3859   1.083   2.569  13.010 -0.2347  0.1702  0.4871
  251TMC3    C6 3860   1.047   2.703  12.995  0.0057  0.8009  1.3907
  251TMC3     C 3861   0.761   2.420  13.003  0.4532  0.1686 -0.8824
  251TMC3     O 3862   0.646   2.430  12.960  0.3936  0.6728 -0.1894
  251TMC3     H 3863   0.723   2.668  12.931  0.1844  0.2990 -2.1472
  251TMC3    H1 3864   0.998   2.360  12.995  0.3445 -0.0701 -2.7048
  251TMC3    H2 3865   1.109   2.786  13.027 -0.6965  0.8674  2.5736
  251TMC3    C7 3866   1.212   2.524  13.064 -0.9916  0.1315  0.2942
  251TMC3    C8 3867   0.876   2.872  12.960 -0.5538  0.4468 -0.7299
  251TMC3    O1 3868   1.215   2.404  13.099  0.1998  0.0402  0.1045
  251TMC3    O2 3869   0.755   2.884  12.954  0.2177  0.1825  0.1898
  252TMC3    C1 3870   0.719   3.647   9.740  0.0417  0.1050 -0.9287
  252TMC3    C2 3871   0.847   3.677   9.720  0.6246  0.4317  0.7559
  252TMC3    C3 3872   0.941   3.586   9.759  0.4658 -0.0871  0.0245
  252TMC3    C4 3873   0.681   3.525   9.773  0.7208 -0.0936  0.1727
  252TMC3    C5 3874   0.776   3.436   9.820  0.4462 -0.3903 -0.5854
  252TMC3    C6 3875   0.909   3.466   9.811 -0.1418 -0.4248 -0.1781
  252TMC3     C 3876   0.628   3.751   9.753  0.4262  0.4038 -0.5062
  252TMC3     O 3877   0.515   3.712   9.746  0.3424 -0.1226 -0.6062
  252TMC3     H 3878   0.883   3.773   9.686 -1.2161  0.3132 -1.5757
  252TMC3    H1 3879   0.580   3.491   9.794  0.9278 -0.4170  0.6472
  252TMC3    H2 3880   0.991   3.399   9.831  0.2242  0.3532  0.9811
  252TMC3    C7 3881   0.728   3.302   9.844  0.4787  0.1423 -0.4487
  252TMC3    C8 3882   1.072   3.649   9.784 -0.3182 -0.2267  0.1725
  252TMC3    O1 3883   0.619   3.283   9.794 -0.1467  0.0917 -0.4510
  252TMC3    O2 3884   1.119   3.739   9.711  0.4625  0.7719 -0.3637
  253MPD2     C 3885   2.470   1.901  14.784  0.1381 -0.3450 -0.5469
  253MPD2    C1 3886   2.347   1.954  14.821 -0.5743 -0.1187 -0.4179
  253MPD2    C2 3887   2.312   1.963  14.952 -0.0117 -0.7729  0.0845
  253MPD2    C3 3888   2.406   1.932  15.050  0.0541  0.2883 -0.6016
  253MPD2    C4 3889   2.515   1.857  15.014  0.4862 -0.0578 -0.9804
  253MPD2    C5 3890   2.541   1.845  14.882 -0.1693  0.1658 -0.7052
  253MPD2     H 3891   2.214   2.004  14.977  0.1478 -0.9537  1.0069
  253MPD2    H1 3892   2.584   1.808  15.081  0.3191  0.9943 -0.0431
  253MPD2    H2 3893   2.498   1.886  14.681 -1.4665 -1.1645 -0.8645
  253MPD2    H3 3894   2.636   1.799  14.860  0.9205  2.2008 -0.1886
  253MPD2     N 3895   2.375   1.964  15.189 -0.2628  0.4979 -0.7296
  253MPD2    H5 3896   2.440   1.929  15.259 -0.7186  1.3249  0.0987
  253MPD2    N1 3897   2.253   1.992  14.722  0.4951  0.0610 -0.5327
  253MPD2    H7 3898   2.160   2.020  14.750  0.1632 -0.7201 -0.8636
  254TMC3    C1 3899   2.258   2.052  15.371  0.8135  0.2774  0.4966
  254TMC3    C2 3900   2.148   2.126  15.411  0.0691 -0.1910  0.0217
  254TMC3    C3 3901   2.077   2.088  15.528 -0.1125 -0.1654 -0.6785
  254TMC3    C4 3902   2.307   1.946  15.441 -0.4012 -0.5095 -0.1734
  254TMC3    C5 3903   2.229   1.906  15.548  0.0304  0.2645  0.6211
  254TMC3    C6 3904   2.117   1.973  15.590  0.2749 -0.0831  0.4175
  254TMC3     C 3905   2.273   2.042  15.227  0.3351  0.2875 -0.1714
  254TMC3     O 3906   2.203   2.124  15.164 -0.7751 -0.0603  0.7107
  254TMC3     H 3907   2.105   2.200  15.345 -0.5396 -1.8277 -1.4153
  254TMC3    H1 3908   2.387   1.884  15.404  0.7015  0.4194  0.6698
  254TMC3    H2 3909   2.061   1.949  15.679 -2.7722  1.5588 -1.0417
  254TMC3    C7 3910   2.290   1.815  15.647  0.5777  0.4432 -0.3031
  254TMC3    C8 3911   1.959   2.155  15.574  0.3375  0.4980  0.7253
  254TMC3    O1 3912   2.223   1.782  15.744  0.4011 -0.2133 -0.4419
  254TMC3    O2 3913   1.892   2.090  15.655 -0.2885  0.1695  0.3048
  255MPD2     C 3914   0.196   4.204  10.214 -0.1683 -0.0752 -0.0045
  255MPD2    C1 3915   0.258   4.284  10.308 -1.3503 -0.4805  0.2569
  255MPD2    C2 3916   0.352   4.377  10.263  0.7965  0.0693  0.6141
  255MPD2    C3 3917   0.390   4.370  10.125 -0.1603 -0.3735  0.0416
  255MPD2    C4 3918   0.335   4.283  10.034 -0.4702  0.0999 -0.3257
  255MPD2    C5 3919   0.234   4.208  10.080  0.5094 -0.5897 -0.0253
  255MPD2     H 3920   0.399   4.447  10.330 -0.4737  2.8564 -1.4301
  255MPD2    H1 3921   0.365   4.269   9.931  2.4520 -1.5198  0.7369
  255MPD2    H2 3922   0.123   4.129  10.243 -0.8675  1.1704  1.4004
  255MPD2    H3 3923   0.200   4.127  10.017 -0.6128  0.2498 -0.4982
  255MPD2     N 3924   0.487   4.462  10.083 -0.1659  0.4235 -0.1818
  255MPD2    H5 3925   0.538   4.507  10.159 -0.9532  0.3475  0.3978
  255MPD2    N1 3926   0.239   4.260  10.442 -0.5014  0.3459  0.2909
  255MPD2    H7 3927   0.190   4.173  10.461 -0.7246  1.3136  4.1538
  256TMC3    C1 3928   0.250   4.266  10.685 -0.4575 -0.4038 -0.3801
  256TMC3    C2 3929   0.344   4.300  10.780 -0.1156 -0.5580  0.9431
  256TMC3    C3 3930   0.297   4.350  10.901 -0.0742  0.7594 -0.4432
  256TMC3    C4 3931   0.116   4.292  10.701  0.1151 -0.6153 -0.2525
  256TMC3    C5 3932   0.079   4.360  10.812 -0.0213 -0.1906  0.0346
  256TMC3    C6 3933   0.166   4.387  10.914 -0.5372  0.7702  0.8045
  256TMC3     C 3934   0.291   4.323  10.555 -0.6531 -0.6775 -0.6318
  256TMC3     O 3935   0.367   4.419  10.568 -0.6551  0.4724 -0.0342
  256TMC3     H 3936   0.447   4.283  10.753 -0.2821 -0.5108  0.2828
  256TMC3    H1 3937   0.042   4.264  10.627 -0.3169  2.3815 -0.9373
  256TMC3    H2 3938   0.125   4.442  10.998 -2.0526  2.3177 -0.9373
  256TMC3    C7 3939   4.726   4.466  10.768 -0.3279  0.4822 -0.7246
  256TMC3    C8 3940   0.373   4.471  10.941 -0.7491 -0.6153 -0.9464
  256TMC3    O1 3941   4.658   4.439  10.667  0.4877  0.4087  0.5710
  256TMC3    O2 3942   0.356   4.508  11.058 -0.2810 -0.1323  0.5650
  257MPD2     C 3943   4.122   1.518  12.617 -0.7604 -0.4177 -0.4967
  257MPD2    C1 3944   4.184   1.619  12.688  0.0480 -0.1125 -0.2498
  257MPD2    C2 3945   4.235   1.584  12.812 -0.0634  0.8219  0.1198
  257MPD2    C3 3946   4.220   1.465  12.875  0.2237  0.3930 -0.4756
  257MPD2    C4 3947   4.156   1.365  12.804 -0.1950  0.0920  0.5008
  257MPD2    C5 3948   4.121   1.394  12.676  0.1256 -0.0167  0.3448
  257MPD2     H 3949   4.287   1.662  12.867 -0.7499  1.1163  0.3490
  257MPD2    H1 3950   4.145   1.262  12.837 -1.2568 -0.0249 -0.2141
  257MPD2    H2 3951   4.088   1.532  12.515  0.6153  0.7235 -0.8131
  257MPD2    H3 3952   4.077   1.314  12.617  2.4746 -0.7183 -0.4680
  257MPD2     N 3953   4.271   1.427  12.997  1.0303  0.6747 -0.3093
  257MPD2    H5 3954   4.282   1.331  13.028  1.1277  0.5701 -0.6717
  257MPD2    N1 3955   4.209   1.746  12.615  0.1448 -0.6081  0.8376
  257MPD2    H7 3956   4.172   1.757  12.521 -1.7467  1.0538  1.7802
  258TMC3    C1 3957   4.385   1.463  13.189 -0.4596  0.2717 -0.7412
  258TMC3    C2 3958   4.466   1.358  13.154  0.3662  0.4402  0.3741
  258TMC3    C3 3959   4.558   1.316  13.252  1.1123 -0.1970  0.0321
  258TMC3    C4 3960   4.385   1.525  13.308  0.1103 -0.1767  0.5393
  258TMC3    C5 3961   4.483   1.479  13.395  0.0961 -0.3617 -0.3296
  258TMC3    C6 3962   4.570   1.377  13.373  0.1830  0.2312  0.4638
  258TMC3     C 3963   4.327   1.523  13.080  0.4176 -0.2628  0.1874
  258TMC3     O 3964   4.319   1.644  13.083  0.0249 -0.5302  0.0704
  258TMC3     H 3965   4.484   1.312  13.057 -2.6032 -1.6927  0.8272
  258TMC3    H1 3966   4.312   1.604  13.328  1.3875  1.6374 -1.8615
  258TMC3    H2 3967   4.654   1.339  13.429  0.0038  0.0300  0.5969
  258TMC3    C7 3968   4.458   1.513  13.533 -0.2173 -0.4874  0.3989
  258TMC3    C8 3969   4.684   1.242  13.213  0.1299 -0.1886  0.0937
  258TMC3    O1 3970   4.356   1.573  13.567  0.5963  0.3399  0.1140
  258TMC3    O2 3971   4.734   1.159  13.290  0.1248  0.0036 -0.0213
  259MPD2     C 3972   3.382   3.954   0.606 -0.3292  0.0383 -0.3858
  259MPD2    C1 3973   3.445   3.836   0.584 -0.2300 -0.1141  0.0945
  259MPD2    C2 3974   3.452   3.787   0.456 -0.4519  0.0104  0.0599
  259MPD2    C3 3975   3.404   3.859   0.348  0.9226 -0.4407  0.0195
  259MPD2    C4 3976   3.353   3.987   0.370 -0.3148  0.1606 -0.1397
  259MPD2    C5 3977   3.340   4.024   0.499 -0.3854 -0.1142  0.0594
  259MPD2     H 3978   3.494   3.689   0.436  0.5490  0.4376  0.0629
  259MPD2    H1 3979   3.302   4.047   0.296  0.5305 -1.4918 -2.0634
  259MPD2    H2 3980   3.373   3.993   0.707 -0.5848  1.0198 -0.7807
  259MPD2    H3 3981   3.285   4.117   0.507 -1.2852 -0.6406 -0.0383
  259MPD2     N 3982   3.422   3.805   0.216  0.4985  0.3858  0.0503
  259MPD2    H5 3983   3.456   3.710   0.213 -1.4131 -0.3075  0.5430
  259MPD2    N1 3984   3.506   3.764   0.695 -0.2424  0.0941 -0.2955
  259MPD2    H7 3985   3.520   3.812   0.783 -3.8550  1.1672 -0.3191
  260TMC3    C1 3986   3.494   3.816  17.744 -0.1642  0.5919 -0.1262
  260TMC3    C2 3987   3.600   3.894  17.699 -0.0849  0.0793 -0.2448
  260TMC3    C3 3988   3.713   3.831  17.648  0.1891 -0.1087 -0.0495
  260TMC3    C4 3989   3.496   3.682  17.726 -0.2613 -0.2885 -0.3795
  260TMC3    C5 3990   3.606   3.626  17.667  1.1413 -0.4615 -0.3069
  260TMC3    C6 3991   3.724   3.696  17.633 -0.3891  0.1979  0.0888
  260TMC3     C 3992   3.419   3.875   0.101  0.0435  0.1343  0.5500
  260TMC3     O 3993   3.402   3.996   0.088  0.0090  0.1558  0.0685
  260TMC3     H 3994   3.609   3.999  17.725 -1.4816  0.0096  0.5541
  260TMC3    H1 3995   3.406   3.624  17.741  0.6628 -2.1814 -2.1262
  260TMC3    H2 3996   3.816   3.657  17.591  0.9915  1.6740  1.7257
  260TMC3    C7 3997   3.598   3.478  17.657  0.6033 -0.1946  0.2014
  260TMC3    C8 3998   3.836   3.894  17.687 -0.3231 -0.0494  0.4377
  260TMC3    O1 3999   3.526   3.421  17.733  0.4785  1.0804 -0.1844
  260TMC3    O2 4000   3.855   4.014  17.672  0.0921  0.1597 -0.0611
  261MPD2     C 4001   0.246   1.678  12.401  0.2660 -0.3044 -0.3688
  261MPD2    C1 4002   0.293   1.792  12.456 -0.2923  0.3976  0.1672
  261MPD2    C2 4003   0.330   1.896  12.376 -0.6726 -0.5460 -0.0116
  261MPD2    C3 4004   0.329   1.891  12.240 -0.2683 -0.1919 -0.0083
  261MPD2    C4 4005   0.300   1.765  12.189  0.0433 -0.2956 -0.5306
  261MPD2    C5 4006   0.247   1.666  12.268 -0.2034 -0.5550 -0.0159
  261MPD2     H 4007   0.364   1.988  12.422 -3.4899  0.3342  0.3307
  261MPD2    H1 4008   0.331   1.736  12.090  2.3395 -2.9983  0.9896
  261MPD2    H2 4009   0.222   1.587  12.456  1.2913 -0.7250 -0.6099
  261MPD2    H3 4010   0.234   1.571  12.218 -2.7759  0.3869 -1.1531
  261MPD2     N 4011   0.392   1.999  12.174  0.0738  0.0592 -0.0388
  261MPD2    H5 4012   0.414   2.079  12.232  1.2675 -0.2962  0.0005
  261MPD2    N1 4013   0.288   1.814  12.599  0.0732  0.2088 -0.0657
  261MPD2    H7 4014   0.309   1.908  12.631 -2.0392 -0.2209  2.6293
  262TMC3    C1 4015   0.516   2.103  12.016 -0.5271  0.3835  0.1262
  262TMC3    C2 4016   0.459   2.228  12.020  0.1640 -0.5373  0.3449
  262TMC3    C3 4017   0.532   2.335  11.990  0.3263 -0.6332  0.0635
  262TMC3    C4 4018   0.625   2.081  11.933  0.0493  0.5806  1.1235
  262TMC3    C5 4019   0.698   2.194  11.893 -0.2772  0.2324 -0.3810
  262TMC3    C6 4020   0.649   2.319  11.928  0.0282  0.4885 -0.1064
  262TMC3     C 4021   0.441   1.987  12.045  0.4079  0.1103 -0.3891
  262TMC3     O 4022   0.430   1.901  11.960  0.2367 -0.0673 -0.7386
  262TMC3     H 4023   0.364   2.234  12.073  0.4564  0.2149  0.7802
  262TMC3    H1 4024   0.653   1.979  11.909  0.4258  1.4967 -2.2527
  262TMC3    H2 4025   0.698   2.410  11.897  0.9196 -0.3489 -1.1585
  262TMC3    C7 4026   0.809   2.177  11.799 -0.8332  0.4586  0.4281
  262TMC3    C8 4027   0.467   2.473  11.999  0.5710 -0.1224  0.2573
  262TMC3    O1 4028   0.868   2.072  11.799  0.5366  0.0327  0.3820
  262TMC3    O2 4029   0.516   2.562  11.930 -0.2402 -0.1142  0.1665
  263MPD2     C 4030   0.592   1.237  11.728  0.2631 -0.0628 -0.1356
  263MPD2    C1 4031   0.718   1.270  11.778  0.4158  0.3462  0.1451
  263MPD2    C2 4032   0.813   1.309  11.683 -0.3029 -0.7560  1.0672
  263MPD2    C3 4033   0.793   1.303  11.546  0.3778  0.5023  0.3090
  263MPD2    C4 4034   0.669   1.266  11.499  0.0621 -0.0757  0.4572
  263MPD2    C5 4035   0.564   1.244  11.592 -0.7881  0.6698 -0.5232
  263MPD2     H 4036   0.913   1.325  11.723  1.3952 -0.3659 -3.3279
  263MPD2    H1 4037   0.646   1.258  11.394 -1.8586  1.5381  0.7617
  263MPD2    H2 4038   0.512   1.207  11.795 -0.1237 -0.0071 -0.5711
  263MPD2    H3 4039   0.466   1.212  11.561 -1.4597  0.5147  1.7091
  263MPD2     N 4040   0.903   1.326  11.461  0.3093  0.2445  0.0235
  263MPD2    H5 4041   0.985   1.374  11.498 -0.8359  1.0955  1.4421
  263MPD2    N1 4042   0.742   1.272  11.924 -0.5830 -0.0847 -0.6295
  263MPD2    H7 4043   0.664   1.236  11.979 -1.0115  0.0029 -1.1870
  264TMC3    C1 4044   1.026   1.340  11.262 -0.0387  0.1283 -0.8342
  264TMC3    C2 4045   1.098   1.452  11.312  1.0606  0.9400 -0.3416
  264TMC3    C3 4046   1.219   1.462  11.256 -0.8180 -0.1710  0.2246
  264TMC3    C4 4047   1.072   1.264  11.151 -0.0085  0.1478  0.3871
  264TMC3    C5 4048   1.193   1.294  11.097 -0.0002  0.5850 -0.6333
  264TMC3    C6 4049   1.275   1.393  11.154  0.9982  0.0158 -0.1589
  264TMC3     C 4050   0.901   1.296  11.325 -0.9984  0.1340 -0.5609
  264TMC3     O 4051   0.837   1.216  11.260  0.4790  0.3803 -0.0653
  264TMC3     H 4052   1.065   1.508  11.399  0.7132  0.7270 -0.3371
  264TMC3    H1 4053   1.012   1.179  11.119  1.3273  0.1240 -2.0816
  264TMC3    H2 4054   1.374   1.407  11.111  0.7500  1.7666 -0.1574
  264TMC3    C7 4055   1.267   1.194  11.027 -0.1147 -0.7052  0.4059
  264TMC3    C8 4056   1.316   1.549  11.320 -0.3255 -0.7703  0.3326
  264TMC3    O1 4057   1.387   1.191  11.027 -1.0073 -0.4208 -0.5238
  264TMC3    O2 4058   1.429   1.518  11.294 -0.1226  0.4892  0.0686
  265MPD2     C 4059   3.509   1.565  15.414  0.2761  0.5221 -0.4344
  265MPD2    C1 4060   3.544   1.677  15.339 -0.4631 -0.7729  0.4227
  265MPD2    C2 4061   3.602   1.655  15.215  0.5530  0.9505  0.0451
  265MPD2    C3 4062   3.629   1.523  15.168  0.1499 -0.2226  0.5180
  265MPD2    C4 4063   3.610   1.422  15.262  0.1371 -0.4145  0.4839
  265MPD2    C5 4064   3.547   1.443  15.374 -0.1829  0.3275 -0.2057
  265MPD2     H 4065   3.635   1.735  15.149 -1.5082 -0.3049 -2.5149
  265MPD2    H1 4066   3.639   1.319  15.241 -0.1827 -0.1203 -1.3916
  265MPD2    H2 4067   3.452   1.582  15.505  0.4518  0.2471 -0.2751
  265MPD2    H3 4068   3.536   1.355  15.437 -3.1987  1.0642  0.3134
  265MPD2     N 4069   3.688   1.485  15.044 -0.0387  0.1949  0.1607
  265MPD2    H5 4070   3.686   1.386  15.020 -2.1617  0.5157 -0.9301
  265MPD2    N1 4071   3.515   1.808  15.371 -0.1241 -0.3024 -0.3050
  265MPD2    H7 4072   3.534   1.880  15.301 -1.3014  1.0348  0.7371
  266TMC3    C1 4073   3.440   1.995  15.498 -0.6129 -0.4747  0.7746
  266TMC3    C2 4074   3.434   2.059  15.616 -0.1034 -0.1097 -0.1615
  266TMC3    C3 4075   3.347   2.165  15.644 -0.2323 -0.3213 -0.3105
  266TMC3    C4 4076   3.359   2.039  15.401  0.2645 -0.4251  0.5727
  266TMC3    C5 4077   3.270   2.142  15.424  0.5310  0.0062 -0.6727
  266TMC3    C6 4078   3.261   2.201  15.545  0.0959 -0.7216  0.0409
  266TMC3     C 4079   3.476   1.855  15.497 -0.2707  0.2709 -0.3728
  266TMC3     O 4080   3.453   1.794  15.599  0.2208  0.0544 -0.3050
  266TMC3     H 4081   3.498   2.020  15.695 -2.3357 -0.8115  1.3165
  266TMC3    H1 4082   3.348   2.000  15.300  0.8990  0.9091 -0.0243
  266TMC3    H2 4083   3.177   2.261  15.579 -0.3346 -0.4465 -1.5460
  266TMC3    C7 4084   3.148   2.152  15.349 -0.3892  0.1969  0.4180
  266TMC3    C8 4085   3.311   2.199  15.780 -0.1872 -0.2775  0.1991
  266TMC3    O1 4086   3.099   2.057  15.294  0.5460 -1.0731  0.1856
  266TMC3    O2 4087   3.331   2.117  15.868 -0.0518 -0.1126 -0.3799
  267MPD2     C 4088   0.670   3.237   0.227  0.5341  0.2762 -0.1273
  267MPD2    C1 4089   0.733   3.353   0.224 -0.0412 -1.2152  0.5215
  267MPD2    C2 4090   0.669   3.464   0.179  0.2634  0.1121 -0.8635
  267MPD2    C3 4091   0.531   3.461   0.145 -0.7551 -0.3945  0.2773
  267MPD2    C4 4092   0.472   3.339   0.153 -0.3601  0.0331  0.2750
  267MPD2    C5 4093   0.535   3.223   0.190  0.1264  0.0951  0.2644
  267MPD2     H 4094   0.718   3.561   0.177  1.2844 -0.4865 -4.8844
  267MPD2    H1 4095   0.368   3.324   0.127  0.0243 -2.3238  0.0438
  267MPD2    H2 4096   0.736   3.155   0.251  0.4757 -0.4449 -2.4545
  267MPD2    H3 4097   0.477   3.132   0.196 -2.6879  1.8258 -0.7915
  267MPD2     N 4098   0.460   3.571   0.094 -0.1232 -0.1503 -0.2848
  267MPD2    H5 4099   0.371   3.542   0.055 -1.1446 -1.8504  3.3187
  267MPD2    N1 4100   0.872   3.337   0.263 -0.6097 -0.1388  0.4724
  267MPD2    H7 4101   0.886   3.255   0.321 -3.0166 -1.7469 -1.2246
  268TMC3    C1 4102   1.106   3.355   0.264 -0.2897  0.1303  0.3900
  268TMC3    C2 4103   1.214   3.378   0.184  0.1511 -0.4436  0.0252
  268TMC3    C3 4104   1.334   3.336   0.223  0.3321  0.1223 -0.4195
  268TMC3    C4 4105   1.119   3.286   0.373  0.2348  0.8103 -0.6227
  268TMC3    C5 4106   1.240   3.248   0.426 -0.7744  0.3105  0.1375
  268TMC3    C6 4107   1.346   3.268   0.344  0.7422 -0.4531 -0.6756
  268TMC3     C 4108   0.976   3.415   0.230 -0.1348 -0.6396 -0.1609
  268TMC3     O 4109   0.977   3.505   0.145  0.0904  0.3171 -0.7626
  268TMC3     H 4110   1.201   3.442   0.098 -1.8529  0.3773  0.9536
  268TMC3    H1 4111   1.039   3.281   0.447  1.6427  0.8402  0.8997
  268TMC3    H2 4112   1.448   3.253   0.378 -0.8415  0.0432  4.3766
  268TMC3    C7 4113   1.242   3.140   0.517 -0.7389 -0.7626 -0.2680
  268TMC3    C8 4114   1.455   3.368   0.153  0.0517  0.6533 -0.5658
  268TMC3    O1 4115   1.319   3.045   0.506  0.6049  0.4789  0.2067
  268TMC3    O2 4116   1.548   3.398   0.227 -0.1761 -0.0164  0.1192
  269MPD2     C 4117   1.539   2.580  15.450 -0.6976 -0.7190 -0.2151
  269MPD2    C1 4118   1.457   2.570  15.553 -0.1558  0.5683 -0.4577
  269MPD2    C2 4119   1.417   2.681  15.624  0.3073 -0.1322  0.7163
  269MPD2    C3 4120   1.468   2.803  15.587  0.3085  0.3887 -0.0964
  269MPD2    C4 4121   1.567   2.808  15.486  0.6635  0.4281 -0.5081
  269MPD2    C5 4122   1.605   2.697  15.420 -0.4055 -0.2315 -0.5948
  269MPD2     H 4123   1.343   2.683  15.703  0.1854 -0.6071  0.6104
  269MPD2    H1 4124   1.616   2.897  15.447 -2.1703  2.0306 -0.3756
  269MPD2    H2 4125   1.585   2.499  15.394  1.5398  0.8893 -0.7212
  269MPD2    H3 4126   1.668   2.688  15.332  1.8128 -2.5462  1.2382
  269MPD2     N 4127   1.422   2.911  15.663  0.3572  0.0352  0.2618
  269MPD2    H5 4128   1.361   2.897  15.743  0.5855  1.3037  0.6475
  269MPD2    N1 4129   1.420   2.433  15.576  0.8127 -0.2380  0.0332
  269MPD2    H7 4130   1.475   2.367  15.523  0.7179 -1.2302  1.1713
  270TMC3    C1 4131   1.308   2.250  15.642  0.1166  0.2254 -0.1506
  270TMC3    C2 4132   1.193   2.184  15.679 -0.0685 -0.4752  0.9339
  270TMC3    C3 4133   1.192   2.045  15.672  0.3934 -0.3954  0.2660
  270TMC3    C4 4134   1.424   2.181  15.622 -0.1374 -0.3523 -0.2626
  270TMC3    C5 4135   1.419   2.044  15.606  0.0430  0.3041  0.0470
  270TMC3    C6 4136   1.306   1.973  15.632  0.2556 -0.0488  0.7435
  270TMC3     C 4137   1.312   2.389  15.647 -1.1117  1.1609  0.0931
  270TMC3     O 4138   1.232   2.458  15.700  0.1174  0.1210  0.3140
  270TMC3     H 4139   1.101   2.239  15.694  0.4008 -0.2031  2.7776
  270TMC3    H1 4140   1.519   2.234  15.616  0.0041 -0.6142 -0.3184
  270TMC3    H2 4141   1.307   1.866  15.611  0.7508  0.6084 -2.5240
  270TMC3    C7 4142   1.542   1.964  15.581 -0.7129  0.1033 -0.5464
  270TMC3    C8 4143   1.064   2.003  15.606 -0.0790 -0.2619 -0.2662
  270TMC3    O1 4144   1.563   1.867  15.660 -0.7786 -0.2597 -0.0628
  270TMC3    O2 4145   0.957   2.063  15.630 -0.4306 -0.3813  0.3146
  271MPD2     C 4146   0.402   2.210  13.966  0.2026 -0.8330  0.7018
  271MPD2    C1 4147   0.352   2.138  14.076  0.0625 -0.3022  0.0592
  271MPD2    C2 4148   0.217   2.147  14.099 -0.1780  0.5175  0.8072
  271MPD2    C3 4149   0.130   2.190  14.001 -0.7560  0.2797  0.2706
  271MPD2    C4 4150   0.184   2.247  13.886 -0.5859 -0.2229  1.0247
  271MPD2    C5 4151   0.320   2.264  13.875  0.0360  0.3815  0.1956
  271MPD2     H 4152   0.185   2.096  14.189 -2.0598 -0.0117 -0.1588
  271MPD2    H1 4153   0.121   2.275  13.802 -0.7770 -0.0173  1.2363
  271MPD2    H2 4154   0.505   2.201  13.934  0.5942  1.4021  1.3680
  271MPD2    H3 4155   0.362   2.299  13.782 -0.7536  0.9219  0.0428
  271MPD2     N 4156   4.732   2.186  14.011  0.3722  0.2879 -0.2252
  271MPD2    H5 4157   4.684   2.221  13.929  0.4730  0.5220 -0.1836
  271MPD2    N1 4158   0.436   2.073  14.167  0.7653 -0.3236  0.8238
  271MPD2    H7 4159   0.389   2.023  14.241  2.1642 -1.1242  1.1713
  272TMC3    C1 4160   0.616   1.937  14.233 -0.2810 -0.9500  0.2327
  272TMC3    C2 4161   0.744   1.888  14.202  0.0244 -0.2701  0.4466
  272TMC3    C3 4162   0.810   1.825  14.309 -0.2599 -0.1490 -0.4870
  272TMC3    C4 4163   0.565   1.939  14.361 -0.0384  0.3253 -0.3352
  272TMC3    C5 4164   0.645   1.890  14.459  0.3374 -0.1652  0.5237
  272TMC3    C6 4165   0.758   1.822  14.437  0.3563 -0.2898 -0.3763
  272TMC3     C 4166   0.566   2.032  14.140 -0.2360 -0.0892  0.0648
  272TMC3     O 4167   0.647   2.085  14.055  0.4201 -0.0797  0.3508
  272TMC3     H 4168   0.787   1.884  14.102 -1.2059 -3.4870  0.0296
  272TMC3    H1 4169   0.472   1.989  14.386 -0.0037  0.8369 -1.1996
  272TMC3    H2 4170   0.808   1.779  14.523 -0.3856  0.0261  0.2260
  272TMC3    C7 4171   0.604   1.919  14.596 -0.7260  0.4246  0.3586
  272TMC3    C8 4172   0.938   1.762  14.281  0.2544 -0.4892  0.7270
  272TMC3    O1 4173   0.481   1.912  14.614 -0.0245  0.2491  0.1880
  272TMC3    O2 4174   0.975   1.763  14.167  0.0207 -0.0951 -0.1905
  273MPD2     C 4175   2.095   0.415  11.668  0.2920 -0.4911  0.0156
  273MPD2    C1 4176   2.045   0.426  11.796  0.5469  0.3755 -0.2775
  273MPD2    C2 4177   1.915   0.464  11.815  0.3643 -0.1242  0.7151
  273MPD2    C3 4178   1.843   0.508  11.704 -0.2974 -0.0144  0.2141
  273MPD2    C4 4179   1.896   0.493  11.580  0.1099 -0.6193  0.2943
  273MPD2    C5 4180   2.016   0.440  11.559  0.0911  0.6658 -0.0129
  273MPD2     H 4181   1.868   0.472  11.913 -0.3323  1.4638  0.2516
  273MPD2    H1 4182   1.841   0.519  11.490  0.9921 -0.1155 -0.1011
  273MPD2    H2 4183   2.198   0.389  11.649  0.5842  0.1029  0.8017
  273MPD2    H3 4184   2.065   0.442  11.463  1.8485  0.8231  0.8807
  273MPD2     N 4185   1.713   0.567  11.710  0.4192  0.0227 -0.4843
  273MPD2    H5 4186   1.653   0.533  11.636  2.2807 -2.7205 -0.7257
  273MPD2    N1 4187   2.130   0.400  11.906  0.1240  0.1763 -0.4302
  273MPD2    H7 4188   2.228   0.375  11.896  0.5080  2.1046 -1.5359
  274TMC3    C1 4189   1.524   0.664  11.814 -0.5329 -0.6550 -0.0378
  274TMC3    C2 4190   1.449   0.615  11.709  0.0700  0.0461 -0.1908
  274TMC3    C3 4191   1.315   0.636  11.707 -0.4389  0.5529  0.6727
  274TMC3    C4 4192   1.468   0.732  11.919  0.4349 -0.7447  0.0426
  274TMC3    C5 4193   1.331   0.747  11.917 -0.2735  0.7082  0.0173
  274TMC3    C6 4194   1.257   0.697  11.814  0.0851  0.2124 -0.4308
  274TMC3     C 4195   1.673   0.645  11.813 -0.2145  0.1469  0.0626
  274TMC3     O 4196   1.740   0.692  11.904 -0.2824  0.0434 -0.0008
  274TMC3     H 4197   1.489   0.544  11.637  0.7837  0.9717 -0.7014
  274TMC3    H1 4198   1.537   0.789  11.980 -2.7252  0.7068  2.2704
  274TMC3    H2 4199   1.153   0.730  11.809  0.2700  0.8044 -0.3811
  274TMC3    C7 4200   1.254   0.782  12.041 -0.2920 -0.7315  0.0803
  274TMC3    C8 4201   1.245   0.625  11.591  0.0626  0.9131  0.0432
  274TMC3    O1 4202   1.138   0.826  12.037 -0.2031 -0.5468  0.6024
  274TMC3    O2 4203   1.125   0.624  11.616 -0.1497  0.6394  0.1899
  275MPD2     C 4204   2.062   3.182  14.297 -0.1197 -0.6303  0.1236
  275MPD2    C1 4205   2.056   3.103  14.413  0.4448 -0.1737 -0.0880
  275MPD2    C2 4206   1.954   3.010  14.413 -0.6464  0.6810  0.0102
  275MPD2    C3 4207   1.854   2.998  14.317  0.1622  0.6028 -0.2847
  275MPD2    C4 4208   1.867   3.079  14.208  0.3408 -0.0329 -0.0850
  275MPD2    C5 4209   1.973   3.169  14.197  0.9429 -0.0669 -0.4009
  275MPD2     H 4210   1.957   2.943  14.498  1.3079 -0.5457 -1.0545
  275MPD2    H1 4211   1.793   3.079  14.129 -0.8613  0.4127  1.0505
  275MPD2    H2 4212   2.141   3.257  14.289  0.2748 -1.1345 -0.7967
  275MPD2    H3 4213   1.977   3.232  14.108  2.4552  0.8449  0.3075
  275MPD2     N 4214   1.738   2.912  14.330 -0.1791 -0.2696 -0.4730
  275MPD2    H5 4215   1.667   2.934  14.261 -0.5386  2.1269  0.6691
  275MPD2    N1 4216   2.150   3.103  14.521  0.0204 -0.1643 -0.9058
  275MPD2    H7 4217   2.137   3.048  14.605 -0.2647 -0.1109 -0.9149
  276TMC3    C1 4218   2.330   3.163  14.650  0.7970  0.1457  0.2490
  276TMC3    C2 4219   2.353   3.032  14.685  0.2627 -0.0854 -0.5638
  276TMC3    C3 4220   2.412   3.009  14.806  0.3489  0.7448  0.1973
  276TMC3    C4 4221   2.367   3.269  14.731  0.0356  0.1115  0.0037
  276TMC3    C5 4222   2.404   3.243  14.855  0.2719  0.2820  0.1373
  276TMC3    C6 4223   2.441   3.112  14.891 -0.2428  0.3355  0.1562
  276TMC3     C 4224   2.256   3.190  14.534  0.0054  0.7496  0.1522
  276TMC3     O 4225   2.282   3.291  14.465 -0.6732  0.0817 -0.2462
  276TMC3     H 4226   2.341   2.957  14.607  1.4907  1.3625 -2.1506
  276TMC3    H1 4227   2.324   3.367  14.714  0.9133  0.1940 -1.8152
  276TMC3    H2 4228   2.478   3.084  14.988  0.2254 -0.4773 -0.2626
  276TMC3    C7 4229   2.437   3.344  14.949 -0.4844  1.1535  0.1527
  276TMC3    C8 4230   2.429   2.876  14.850 -0.2588 -0.2462 -0.0476
  276TMC3    O1 4231   2.482   3.449  14.907  0.5145 -0.0277 -0.1908
  276TMC3    O2 4232   2.512   2.854  14.939  0.3192  0.0210  0.4602
  277MPD2     C 4233   3.494   2.547  13.128  0.2147  0.6484 -0.0163
  277MPD2    C1 4234   3.364   2.547  13.172 -0.6487 -0.2747  0.3597
  277MPD2    C2 4235   3.320   2.436  13.238 -0.0449  0.0383  0.1225
  277MPD2    C3 4236   3.408   2.323  13.262 -0.1140 -0.5858  0.4101
  277MPD2    C4 4237   3.543   2.332  13.216  0.6025  0.0368  0.8322
  277MPD2    C5 4238   3.585   2.444  13.146  0.1794  0.3814  0.2720
  277MPD2     H 4239   3.217   2.440  13.270 -0.2612  1.0013 -0.6915
  277MPD2    H1 4240   3.615   2.256  13.245 -0.1400 -0.2353  1.9588
  277MPD2    H2 4241   3.518   2.638  13.075 -2.7615  0.7821 -1.1327
  277MPD2    H3 4242   3.688   2.456  13.116  0.7710 -3.2420  0.7972
  277MPD2     N 4243   3.360   2.219  13.339  0.6543  0.4059 -0.5437
  277MPD2    H5 4244   3.266   2.236  13.372  0.7645 -0.1693  0.0609
  277MPD2    N1 4245   3.293   2.663  13.143 -0.1590  0.0987 -0.1892
  277MPD2    H7 4246   3.343   2.739  13.098 -2.0922  1.6847  0.3218
  278TMC3    C1 4247   3.353   2.051  13.505 -0.1026 -0.5888  0.2466
  278TMC3    C2 4248   3.424   1.947  13.567 -0.1234 -0.9901  0.2373
  278TMC3    C3 4249   3.356   1.874  13.662  0.1852 -0.7660 -0.6000
  278TMC3    C4 4250   3.223   2.084  13.544  0.4820  0.2708  0.6999
  278TMC3    C5 4251   3.167   2.018  13.649 -0.6956 -0.1272  0.1001
  278TMC3    C6 4252   3.227   1.909  13.707 -0.5038  0.2878  0.1012
  278TMC3     C 4253   3.432   2.121  13.403  0.1176 -0.5777  0.2315
  278TMC3     O 4254   3.545   2.083  13.386  0.1249 -0.6714 -0.8738
  278TMC3     H 4255   3.523   1.916  13.535  0.2462  0.2266  0.1954
  278TMC3    H1 4256   3.177   2.167  13.492  0.4962 -0.5493 -0.6385
  278TMC3    H2 4257   3.176   1.840  13.773 -0.8319  0.2610 -0.1806
  278TMC3    C7 4258   3.029   2.052  13.684  0.1839 -0.2130  0.4370
  278TMC3    C8 4259   3.415   1.746  13.699  0.3438 -1.1773  0.1448
  278TMC3    O1 4260   2.983   2.157  13.645  0.9151  0.6825 -0.4702
  278TMC3    O2 4261   3.483   1.685  13.617  0.4884 -0.4414  0.2225
  279MPD2     C 4262   2.553   1.625  17.736  0.2618 -0.4095  0.2547
  279MPD2    C1 4263   2.680   1.656   0.013  0.0344  0.2369 -0.1874
  279MPD2    C2 4264   2.764   1.702  17.658  0.2984  0.1972 -0.1207
  279MPD2    C3 4265   2.718   1.720  17.530  0.2361  0.1992 -0.3274
  279MPD2    C4 4266   2.588   1.679  17.506 -0.0400 -1.0051  0.2606
  279MPD2    C5 4267   2.507   1.618  17.606 -0.4470  0.3375  0.0333
  279MPD2     H 4268   2.859   1.745  17.689 -0.2969  1.5212 -0.1346
  279MPD2    H1 4269   2.546   1.669  17.406  0.0709  1.5802 -0.0382
  279MPD2    H2 4270   2.492   1.598   0.072  1.6842 -2.2353  0.6647
  279MPD2    H3 4271   2.406   1.588  17.581 -0.0772 -1.0521  0.2231
  279MPD2     N 4272   2.792   1.781  17.430  0.4644 -0.2455 -0.1961
  279MPD2    H5 4273   2.745   1.801  17.342  0.1356  0.8092  0.2246
  279MPD2    N1 4274   2.728   1.653   0.143 -0.1045 -0.1920 -0.3839
  279MPD2    H7 4275   2.671   1.602   0.210 -2.2512 -1.1687 -2.9380
  280TMC3    C1 4276   2.790   1.739   0.346 -0.4600 -0.4273  0.4235
  280TMC3    C2 4277   2.777   1.621   0.407  0.5918 -0.7833 -0.3353
  280TMC3    C3 4278   2.750   1.638   0.538 -0.3708  0.6996  0.3971
  280TMC3    C4 4279   2.775   1.862   0.396 -0.4566 -0.6040  0.1473
  280TMC3    C5 4280   2.759   1.872   0.533 -0.3245 -0.3334 -0.7452
  280TMC3    C6 4281   2.745   1.758   0.605  0.1038 -0.3646  0.9289
  280TMC3     C 4282   2.820   1.737   0.205  0.1200  0.3365  0.6427
  280TMC3     O 4283   2.871   1.834   0.155  0.1772  0.2171  0.6627
  280TMC3     H 4284   2.808   1.529   0.358  2.4874  0.1860 -0.9654
  280TMC3    H1 4285   2.801   1.948   0.335  2.9426 -2.1430 -0.5635
  280TMC3    H2 4286   2.729   1.757   0.712  0.3440 -0.6077  0.9639
  280TMC3    C7 4287   2.676   1.981   0.580  0.1651 -0.0826  0.3110
  280TMC3    C8 4288   2.742   1.521   0.620 -0.4016 -1.1728  0.2391
  280TMC3    O1 4289   2.676   2.002   0.700  0.0923 -0.3413  0.4694
  280TMC3    O2 4290   2.748   1.538   0.742  0.3099 -0.1495 -0.1162
  281TMC3    C1 4291   1.256   2.164  13.353  0.0269  0.0712 -0.7433
  281TMC3    C2 4292   1.375   2.235  13.344  0.0384 -0.1724  0.6949
  281TMC3    C3 4293   1.479   2.179  13.274  0.2772  0.9104  0.4598
  281TMC3    C4 4294   1.252   2.033  13.325  0.0023 -0.7657  0.8051
  281TMC3    C5 4295   1.360   1.974  13.269  0.1713  0.4893 -0.4518
  281TMC3    C6 4296   1.467   2.048  13.238  0.6321  0.7925  0.1649
  281TMC3     C 4297   1.146   2.217  13.428 -0.2775 -0.2285 -0.8071
  281TMC3     O 4298   1.089   2.147  13.513  0.3138 -0.5317 -0.7459
  281TMC3     H 4299   1.392   2.334  13.385 -1.6347 -0.2674  1.6218
  281TMC3    H1 4300   1.165   1.969  13.335 -0.6300  0.1763  1.3585
  281TMC3    H2 4301   1.553   1.993  13.201  0.0515  1.3512 -1.9799
  281TMC3    C7 4302   1.377   1.833  13.235  0.3897  0.6083  0.2866
  281TMC3    C8 4303   1.614   2.220  13.308  0.3997 -0.4713 -0.1834
  281TMC3    O1 4304   1.435   1.795  13.135 -0.3421 -0.2366 -0.1673
  281TMC3    O2 4305   1.688   2.125  13.329 -0.0183  0.2102 -0.2347
  282MPD2     C 4306   3.679   3.512  15.002  0.2383  0.6783  0.1975
  282MPD2    C1 4307   3.560   3.581  15.030  0.6671  0.4505 -0.2407
  282MPD2    C2 4308   3.478   3.603  14.929 -0.8442  0.1542 -0.0688
  282MPD2    C3 4309   3.520   3.574  14.798 -0.1139  0.1766  0.3539
  282MPD2    C4 4310   3.633   3.504  14.768 -0.0860 -0.4690 -0.2943
  282MPD2    C5 4311   3.711   3.475  14.875  0.1356  0.1636 -0.5025
  282MPD2     H 4312   3.393   3.668  14.948  0.0536  0.8219  1.6606
  282MPD2    H1 4313   3.672   3.489  14.668  0.2771  0.6610 -0.3286
  282MPD2    H2 4314   3.745   3.474  15.079 -1.4899  0.0179  1.3577
  282MPD2    H3 4315   3.807   3.426  14.860  0.8088  2.0072 -2.1680
  282MPD2     N 4316   3.435   3.636  14.704 -0.0732  0.0338  0.4655
  282MPD2    H5 4317   3.349   3.679  14.739 -1.8775 -2.8726 -0.4313
  282MPD2    N1 4318   3.515   3.613  15.160  0.4674  0.6411  0.2998
  282MPD2    H7 4319   3.415   3.626  15.170  0.6911  1.1854  1.8072
  283TMC3    C1 4320   3.529   3.698  15.379 -0.3140 -0.3999  0.1030
  283TMC3    C2 4321   3.606   3.779  15.458  0.2515  0.4841 -0.4614
  283TMC3    C3 4322   3.540   3.835  15.567 -0.3013  1.0257 -0.2294
  283TMC3    C4 4323   3.395   3.674  15.394  0.1089  0.4890  0.6852
  283TMC3    C5 4324   3.340   3.725  15.510 -0.8175 -0.0348  0.5637
  283TMC3    C6 4325   3.413   3.802  15.598  0.3333 -0.6303 -0.5055
  283TMC3     C 4326   3.602   3.651  15.263  0.4084 -0.1375 -0.2929
  283TMC3     O 4327   3.722   3.647  15.257 -0.0500 -0.2833  0.1935
  283TMC3     H 4328   3.714   3.794  15.456  0.2647  0.0107 -2.9181
  283TMC3    H1 4329   3.340   3.601  15.336 -0.2373  0.7270  0.7173
  283TMC3    H2 4330   3.372   3.863  15.678  0.9782  0.6918 -1.1720
  283TMC3    C7 4331   3.199   3.702  15.540 -0.0138  1.3257 -0.6938
  283TMC3    C8 4332   3.610   3.929  15.648  0.7096  0.2767 -0.4046
  283TMC3    O1 4333   3.168   3.720  15.658 -0.1921 -0.1213  0.2342
  283TMC3    O2 4334   3.608   3.901  15.767 -0.6112  0.3734  0.1680
  284MPD2     C 4335   1.300   2.724  12.139  0.1134  0.4263  0.2077
  284MPD2    C1 4336   1.427   2.698  12.094 -0.3826  0.0095 -0.2121
  284MPD2    C2 4337   1.498   2.594  12.161 -0.5162  0.0403  0.2002
  284MPD2    C3 4338   1.446   2.532  12.263  0.2667 -0.3288  0.1931
  284MPD2    C4 4339   1.317   2.551  12.306  0.7291  0.1280 -0.0804
  284MPD2    C5 4340   1.253   2.654  12.245  0.5658  0.3177  0.3308
  284MPD2     H 4341   1.604   2.580  12.144 -1.0186 -0.7000 -2.2595
  284MPD2    H1 4342   1.276   2.508  12.396 -0.4909 -1.1316 -1.2315
  284MPD2    H2 4343   1.242   2.810  12.110 -1.4493 -0.2741  1.2571
  284MPD2    H3 4344   1.158   2.685  12.287  1.6412  0.1878  2.8487
  284MPD2     N 4345   1.535   2.457  12.335  0.1177  0.1690  0.4506
  284MPD2    H5 4346   1.632   2.455  12.304  0.4772 -0.8906  1.6172
  284MPD2    N1 4347   1.493   2.780  12.000  0.2080  0.2213  0.5925
  284MPD2    H7 4348   1.588   2.755  11.973  0.6920  0.9203  1.6527
  285TMC3    C1 4349   1.522   2.931  11.839 -0.2527 -0.7327 -0.1743
  285TMC3    C2 4350   1.584   2.829  11.776  0.8736 -0.3922 -0.2697
  285TMC3    C3 4351   1.710   2.853  11.728  0.2770 -0.1544 -0.0702
  285TMC3    C4 4352   1.580   3.053  11.853 -0.2132  0.0674 -0.4541
  285TMC3    C5 4353   1.699   3.080  11.792  0.0636 -0.5682  0.1754
  285TMC3    C6 4354   1.764   2.979  11.721 -0.3619  0.2406 -0.2930
  285TMC3     C 4355   1.440   2.892  11.947 -0.0264  0.9072 -0.5939
  285TMC3     O 4356   1.344   2.959  11.980 -0.0291 -0.3188  0.0276
  285TMC3     H 4357   1.545   2.729  11.765 -0.8898  0.1865  0.6337
  285TMC3    H1 4358   1.523   3.134  11.898 -0.9499  0.3591 -1.9224
  285TMC3    H2 4359   1.849   2.996  11.656  0.7178 -0.4296  0.9237
  285TMC3    C7 4360   1.718   3.217  11.735 -0.4624 -0.0901  0.2243
  285TMC3    C8 4361   1.792   2.734  11.708  0.0330 -0.0069  0.1600
  285TMC3    O1 4362   1.620   3.291  11.740  0.1315  0.8997 -0.6370
  285TMC3    O2 4363   1.731   2.626  11.712 -0.6024 -0.1871 -0.3462
  286MPD2     C 4364   2.256   1.382   1.286 -0.6733  0.7416 -0.3380
  286MPD2    C1 4365   2.178   1.287   1.212 -0.4110 -0.3754 -0.7124
  286MPD2    C2 4366   2.196   1.157   1.245  0.0374 -0.2421  0.4095
  286MPD2    C3 4367   2.283   1.112   1.339  0.1274  0.4395  0.1924
  286MPD2    C4 4368   2.356   1.205   1.414 -0.4168 -0.2852  0.0777
  286MPD2    C5 4369   2.331   1.334   1.386 -1.2360  0.5864 -0.1283
  286MPD2     H 4370   2.142   1.081   1.189  1.2100  0.2006 -1.3137
  286MPD2    H1 4371   2.427   1.167   1.487  0.6601  0.5211 -0.5615
  286MPD2    H2 4372   2.246   1.489   1.271  0.8399  1.0709  1.0504
  286MPD2    H3 4373   2.392   1.403   1.443  0.0190 -0.2981 -0.3775
  286MPD2     N 4374   2.331   0.980   1.343  0.1400 -0.1424 -0.1358
  286MPD2    H5 4375   2.413   0.956   1.398 -0.0637  0.8321  0.5803
  286MPD2    N1 4376   2.084   1.324   1.105  0.2641  0.2552  0.3375
  286MPD2    H7 4377   2.049   1.245   1.051 -0.5480  0.0292  1.1994
  287TMC3    C1 4378   2.356   0.765   1.273 -0.4681  0.2112 -0.0921
  287TMC3    C2 4379   2.352   0.683   1.160  0.2536  0.3425 -0.1835
  287TMC3    C3 4380   2.436   0.569   1.158 -0.4553 -0.0496  0.0631
  287TMC3    C4 4381   2.452   0.745   1.368 -0.0767 -0.0776 -0.4027
  287TMC3    C5 4382   2.544   0.646   1.346 -0.0667  0.2644  0.8326
  287TMC3    C6 4383   2.537   0.546   1.248 -0.1141 -0.7272  0.1024
  287TMC3     C 4384   2.273   0.876   1.282  0.2906  0.1821  0.0302
  287TMC3     O 4385   2.159   0.866   1.229 -0.0618  0.4404 -0.4547
  287TMC3     H 4386   2.270   0.690   1.090 -0.6671  0.0262  0.8700
  287TMC3    H1 4387   2.458   0.803   1.460 -1.7195 -0.7276  0.1114
  287TMC3    H2 4388   2.619   0.477   1.229  0.8689  0.5308 -0.2147
  287TMC3    C7 4389   2.665   0.665   1.421 -0.5630 -0.2543 -0.1768
  287TMC3    C8 4390   2.460   0.526   1.022 -0.1622  0.4559  0.4498
  287TMC3    O1 4391   2.685   0.780   1.461  0.1592  0.3565  0.3132
  287TMC3    O2 4392   2.510   0.414   1.017 -0.1121 -0.0437  0.4044
  288TMC3    C1 4393   3.740   1.438  14.157 -0.1150  0.6166 -0.4891
  288TMC3    C2 4394   3.739   1.435  14.294  0.0667  0.8072  0.3114
  288TMC3    C3 4395   3.721   1.554  14.358  0.1804 -0.2432 -0.3377
  288TMC3    C4 4396   3.730   1.554  14.083  0.5634  0.0444  0.1566
  288TMC3    C5 4397   3.723   1.673  14.148 -0.0514 -0.3250  0.1185
  288TMC3    C6 4398   3.722   1.671  14.284 -0.1400  0.1198  0.0591
  288TMC3     C 4399   3.737   1.305  14.097 -0.8465 -0.4241  0.0669
  288TMC3     O 4400   3.761   1.210  14.170 -0.1296  0.1621 -0.5106
  288TMC3     H 4401   3.741   1.341  14.348  0.6576  0.1542 -0.8217
  288TMC3    H1 4402   3.741   1.549  13.975  0.1213 -2.0296  0.2044
  288TMC3    H2 4403   3.704   1.764  14.338 -0.7676 -0.5787  1.0602
  288TMC3    C7 4404   3.717   1.803  14.082 -0.1967 -0.4199 -0.2264
  288TMC3    C8 4405   3.706   1.570  14.499 -0.6884 -0.8040  0.0648
  288TMC3    O1 4406   3.697   1.905  14.146  0.0306  0.3893  0.0250
  288TMC3    O2 4407   3.729   1.681  14.544 -0.2980 -0.4876  0.0770
  289MPD2     C 4408   3.877   0.451  14.201  0.8080  0.0323  0.0188
  289MPD2    C1 4409   3.827   0.578  14.218  0.0626  0.6552 -0.3446
  289MPD2    C2 4410   3.691   0.601  14.216  0.0643 -0.0370  0.4531
  289MPD2    C3 4411   3.603   0.502  14.180 -0.0651  0.5265  0.1079
  289MPD2    C4 4412   3.646   0.371  14.164  0.6094 -0.0885  0.0697
  289MPD2    C5 4413   3.786   0.347  14.173 -0.3892 -0.6055  0.3013
  289MPD2     H 4414   3.655   0.701  14.235 -1.3992 -0.4293 -0.2434
  289MPD2    H1 4415   3.578   0.292  14.135  0.7516  0.3051 -1.3458
  289MPD2    H2 4416   3.985   0.437  14.200  0.4951 -2.4630  1.0552
  289MPD2    H3 4417   3.820   0.248  14.143  1.9560  0.7629 -1.5367
  289MPD2     N 4418   3.463   0.530  14.169  0.3817  0.3583 -0.1620
  289MPD2    H5 4419   3.401   0.458  14.133  0.5507 -0.5490  1.3357
  289MPD2    N1 4420   3.917   0.679  14.254 -0.2928 -0.0026 -0.8189
  289MPD2    H7 4421   4.015   0.650  14.256 -0.4716 -0.5794 -0.4054
  290TMC3    C1 4422   3.261   0.646  14.179 -0.2520 -0.1170 -0.1950
  290TMC3    C2 4423   3.197   0.752  14.117 -0.5499  0.0887  0.0175
  290TMC3    C3 4424   3.060   0.746  14.097 -0.7565 -0.5495 -0.3091
  290TMC3    C4 4425   3.188   0.535  14.206 -0.5269 -0.1820 -0.0266
  290TMC3    C5 4426   3.052   0.535  14.193  0.6137  0.8863 -0.2971
  290TMC3    C6 4427   2.982   0.637  14.134 -0.0256 -1.1024  0.9022
  290TMC3     C 4428   3.399   0.646  14.204 -0.7527  0.0808  0.3576
  290TMC3     O 4429   3.442   0.757  14.222  0.3613 -0.0176 -0.1044
  290TMC3     H 4430   3.245   0.847  14.095 -1.1914  0.8710  1.9802
  290TMC3    H1 4431   3.236   0.462  14.269  1.3197 -0.7875 -2.1397
  290TMC3    H2 4432   2.874   0.635  14.120  0.0630 -1.0898  0.2329
  290TMC3    C7 4433   2.970   0.431  14.257 -1.0025 -0.2397 -0.1303
  290TMC3    C8 4434   2.988   0.852  14.019  0.4920 -0.2902 -0.1589
  290TMC3    O1 4435   2.856   0.466  14.278 -0.9414 -0.0141  0.0653
  290TMC3    O2 4436   2.901   0.811  13.945 -0.8931 -0.3167  0.5706
  291MPD2     C 4437   2.898   0.434   0.669 -0.1754  0.0242 -0.3938
  291MPD2    C1 4438   3.015   0.369   0.714  0.2170  0.3169 -0.3555
  291MPD2    C2 4439   3.101   0.442   0.786  0.0405 -0.0702  0.4128
  291MPD2    C3 4440   3.082   0.574   0.810 -0.7786 -0.0349 -0.0206
  291MPD2    C4 4441   2.979   0.648   0.761  0.3471  0.0065 -0.2922
  291MPD2    C5 4442   2.883   0.569   0.692 -0.8381 -0.9202  0.2260
  291MPD2     H 4443   3.192   0.392   0.820  0.9408 -0.4885 -2.6653
  291MPD2    H1 4444   2.964   0.754   0.772  0.3069  0.1738 -1.9524
  291MPD2    H2 4445   2.819   0.379   0.618 -0.0661  1.8408 -2.5327
  291MPD2    H3 4446   2.785   0.608   0.667 -1.7237 -2.6335  1.0874
  291MPD2     N 4447   3.190   0.650   0.865 -0.4571 -0.1737 -0.2779
  291MPD2    H5 4448   3.189   0.751   0.855 -1.2147  0.0964  2.5851
  291MPD2    N1 4449   3.054   0.240   0.684 -0.3371  0.4782  0.2086
  291MPD2    H7 4450   3.142   0.211   0.727  0.7511  2.3007 -0.8194
  292TMC3    C1 4451   3.051   0.027   0.617 -0.3595 -0.2416 -0.6634
  292TMC3    C2 4452   3.119   4.719   0.728  0.8238  0.3431 -0.3092
  292TMC3    C3 4453   3.149   4.589   0.746  0.8135  0.1524  0.1845
  292TMC3    C4 4454   3.015   4.674   0.515  0.0772  0.3112  0.3221
  292TMC3    C5 4455   3.073   4.544   0.522 -0.0965  0.1348  0.4789
  292TMC3    C6 4456   3.140   4.501   0.637 -0.1342 -0.0901 -0.1068
  292TMC3     C 4457   2.978   0.147   0.616 -0.2368 -0.6573 -0.2385
  292TMC3     O 4458   2.861   0.152   0.576 -0.1612 -0.0063  0.2450
  292TMC3     H 4459   3.132   0.047   0.813 -0.0494  0.7633 -0.4948
  292TMC3    H1 4460   2.960   4.710   0.429 -0.6064  0.8437  0.9738
  292TMC3    H2 4461   3.163   4.396   0.653 -1.3009 -0.0463  1.8267
  292TMC3    C7 4462   3.029   4.443   0.429  0.5986  0.3354  0.0701
  292TMC3    C8 4463   3.192   4.543   0.874 -0.4840  0.4113 -0.7365
  292TMC3    O1 4464   3.098   4.341   0.416 -0.0940  0.0543  0.1708
  292TMC3    O2 4465   3.231   4.631   0.951 -0.1180  0.5734 -0.1033
  293MPD2     C 4466   4.575   1.543  12.205  0.0051  0.5268  0.2035
  293MPD2    C1 4467   4.470   1.508  12.289 -0.0862  0.5630  0.6789
  293MPD2    C2 4468   4.481   1.544  12.421  0.0493 -0.3044 -0.7083
  293MPD2    C3 4469   4.580   1.637  12.462 -0.0804  0.6743  0.1351
  293MPD2    C4 4470   4.666   1.684  12.363 -0.3107 -0.0384  0.5121
  293MPD2    C5 4471   4.668   1.632  12.241 -0.3084 -0.1055  0.3121
  293MPD2     H 4472   4.407   1.507  12.491 -0.2028 -0.0181 -0.8235
  293MPD2    H1 4473   0.010   1.754  12.380 -0.2532 -0.7643  3.3021
  293MPD2    H2 4474   4.577   1.522  12.099 -0.9983 -0.2921  0.3554
  293MPD2    H3 4475   4.727   1.676  12.162 -1.6205 -0.3642 -0.8129
  293MPD2     N 4476   4.585   1.684  12.596  0.5907  0.0281  0.8364
  293MPD2    H5 4477   4.537   1.635  12.671  0.5005  0.0081  0.7660
  293MPD2    N1 4478   4.356   1.438  12.231  0.3747 -0.2157  0.5374
  293MPD2    H7 4479   4.341   1.442  12.131  0.6199  1.1302  0.5537
  294TMC3    C1 4480   4.144   1.332  12.219  0.2221  0.4576 -0.3289
  294TMC3    C2 4481   4.044   1.262  12.290  0.1666 -1.1114  0.0019
  294TMC3    C3 4482   3.933   1.236  12.217 -0.0955  0.7007 -0.1551
  294TMC3    C4 4483   4.135   1.351  12.088  0.8513  0.6555 -0.0320
  294TMC3    C5 4484   4.014   1.332  12.028  0.0822 -0.4024 -0.5693
  294TMC3    C6 4485   3.912   1.268  12.087 -0.3374  0.4304  0.3330
  294TMC3     C 4486   4.261   1.364  12.299  0.3443 -0.6057 -0.1422
  294TMC3     O 4487   4.266   1.325  12.415  0.1195  0.2172 -0.2955
  294TMC3     H 4488   4.056   1.239  12.395  1.9812 -0.5805 -0.0922
  294TMC3    H1 4489   4.215   1.409  12.043  1.0102  0.5393  0.0964
  294TMC3    H2 4490   3.814   1.255  12.043 -0.1370  0.9666 -0.2657
  294TMC3    C7 4491   3.995   1.345  11.887 -0.1491 -0.0951  0.2495
  294TMC3    C8 4492   3.820   1.166  12.279 -0.0870 -0.0339 -0.1632
  294TMC3    O1 4493   3.911   1.270  11.845 -0.5852 -0.4766 -0.3700
  294TMC3    O2 4494   3.816   1.161  12.404 -1.1433  0.0369 -0.7693
  295MPD2     C 4495   1.382   0.619   0.486  0.8313  0.5930  0.2738
  295MPD2    C1 4496   1.269   0.541   0.491  0.1234 -0.9659  0.1071
  295MPD2    C2 4497   1.251   0.443   0.588  0.0958 -0.2951  0.2417
  295MPD2    C3 4498   1.354   0.426   0.676 -0.5703  0.0826 -0.0381
  295MPD2    C4 4499   1.477   0.480   0.650  0.1237  0.4075 -0.1327
  295MPD2    C5 4500   1.486   0.589   0.563 -0.8384  0.1383  0.3131
  295MPD2     H 4501   1.156   0.392   0.596  0.0823 -0.0475  1.7064
  295MPD2    H1 4502   1.564   0.460   0.711 -0.8793  2.5521  1.9761
  295MPD2    H2 4503   1.403   0.685   0.403  0.2420  0.3076 -0.0982
  295MPD2    H3 4504   1.587   0.622   0.539 -0.7217 -0.2742  0.2381
  295MPD2     N 4505   1.339   0.342   0.791  0.0972 -0.1921  0.5742
  295MPD2    H5 4506   1.423   0.303   0.834 -0.0510 -1.3143 -0.1306
  295MPD2    N1 4507   1.165   0.562   0.401  0.7726 -0.4621 -0.5474
  295MPD2    H7 4508   1.081   0.506   0.405  1.5140 -1.6327 -1.1894
  296TMC3    C1 4509   1.212   0.209   0.951  0.3682  0.6239 -0.2054
  296TMC3    C2 4510   1.112   0.206   1.044 -0.4894  0.4403 -0.0917
  296TMC3    C3 4511   1.102   0.098   1.125 -0.4561  0.1835 -0.1866
  296TMC3    C4 4512   1.304   0.108   0.945  0.4135  0.3026  0.0526
  296TMC3    C5 4513   1.278   4.731   1.020 -0.0788  0.2404 -0.1249
  296TMC3    C6 4514   1.173   4.724   1.108  0.2725 -0.1295 -0.6113
  296TMC3     C 4515   1.211   0.311   0.848  0.6933 -0.1015  0.3183
  296TMC3     O 4516   1.107   0.371   0.821  0.3247 -0.9375 -0.0383
  296TMC3     H 4517   1.044   0.290   1.052 -0.8354  0.1280  0.2586
  296TMC3    H1 4518   1.379   0.092   0.868  0.0714  0.0506 -0.2262
  296TMC3    H2 4519   1.143   4.637   1.165 -0.5309  0.3401 -0.3224
  296TMC3    C7 4520   1.370   4.611   0.989 -0.1766 -0.4026  0.5214
  296TMC3    C8 4521   0.991   0.098   1.218 -0.4207 -0.4647  0.2839
  296TMC3    O1 4522   1.463   4.615   0.905 -0.2359  0.0676  0.1193
  296TMC3    O2 4523   0.951   4.729   1.256  0.2048 -0.5514 -0.1443
  297MPD2     C 4524   2.670   2.014  16.150  0.2739  0.0825 -0.3100
  297MPD2    C1 4525   2.576   2.115  16.130 -0.5416 -0.2666 -0.3371
  297MPD2    C2 4526   2.617   2.234  16.073  0.3534 -0.7516 -0.5183
  297MPD2    C3 4527   2.744   2.258  16.034  0.2107  0.1174  0.5279
  297MPD2    C4 4528   2.838   2.164  16.049 -0.0531  0.0472  0.0188
  297MPD2    C5 4529   2.798   2.042  16.110  0.0741  0.3154 -0.3720
  297MPD2     H 4530   2.547   2.308  16.036 -1.1922 -2.4060 -0.8833
  297MPD2    H1 4531   2.939   2.176  16.011  0.1578  0.6790  0.7735
  297MPD2    H2 4532   2.639   1.912  16.168 -1.0295  0.3069 -1.2604
  297MPD2    H3 4533   2.873   1.964  16.122  0.1355 -0.1236 -3.4960
  297MPD2     N 4534   2.756   2.366  15.950  0.2813  0.2741 -1.2017
  297MPD2    H5 4535   2.685   2.438  15.951  2.2325  2.2464 -2.4596
  297MPD2    N1 4536   2.441   2.083  16.140  0.3495  0.1535 -1.1186
  297MPD2    H7 4537   2.384   2.162  16.111 -0.7775  0.5505  2.1778
  298TMC3    C1 4538   2.248   1.959  16.144  0.6343 -0.8187  0.0608
  298TMC3    C2 4539   2.250   1.983  16.008  0.1549  0.1515 -0.4421
  298TMC3    C3 4540   2.176   2.074  15.944  0.4264  0.7128  0.3045
  298TMC3    C4 4541   2.155   2.028  16.215 -0.1042 -0.2874 -0.2199
  298TMC3    C5 4542   2.071   2.117  16.146 -0.1390  0.2311 -0.4255
  298TMC3    C6 4543   2.085   2.146  16.016 -0.0357 -0.0380 -0.6478
  298TMC3     C 4544   2.382   1.972  16.194 -0.1984  0.5155  0.1355
  298TMC3     O 4545   2.435   1.889  16.265  0.0434  0.3171  0.0453
  298TMC3     H 4546   2.320   1.920  15.953 -0.3372 -1.1299  0.3920
  298TMC3    H1 4547   2.152   2.036  16.323  1.4949 -0.6121 -0.1594
  298TMC3    H2 4548   2.003   2.181  15.955  0.2217 -1.0144 -1.5676
  298TMC3    C7 4549   1.996   2.219  16.225 -0.2587 -0.1590  0.0675
  298TMC3    C8 4550   2.240   2.133  15.824  0.6015  0.2598 -0.3587
  298TMC3    O1 4551   1.963   2.186  16.335 -0.5210 -0.0546 -0.4237
  298TMC3    O2 4552   2.170   2.219  15.769 -0.0920 -0.7295  0.4110
  299MPD2     C 4553   3.507   1.992  11.123 -0.1584  0.3343  0.5477
  299MPD2    C1 4554   3.461   2.082  11.032  0.4658 -0.2208  0.2489
  299MPD2    C2 4555   3.356   2.039  10.952 -0.1234 -0.3083 -0.5048
  299MPD2    C3 4556   3.295   1.914  10.968 -0.0091  0.4140 -0.3030
  299MPD2    C4 4557   3.347   1.832  11.068  0.1520  0.6500  0.3063
  299MPD2    C5 4558   3.455   1.874  11.142 -0.2915  0.2305  0.3711
  299MPD2     H 4559   3.315   2.105  10.877  0.0725  1.4919  0.9532
  299MPD2    H1 4560   3.305   1.738  11.101 -2.2390  0.5074 -3.1916
  299MPD2    H2 4561   3.587   2.026  11.188  0.9682 -0.3410 -0.4812
  299MPD2    H3 4562   3.487   1.817  11.228  0.1124 -1.2252 -0.7376
  299MPD2     N 4563   3.178   1.874  10.900 -0.0285 -0.1817  0.0472
  299MPD2    H5 4564   3.137   1.786  10.928 -0.4955 -0.0094 -0.0929
  299MPD2    N1 4565   3.516   2.217  11.040 -0.8173  0.6127 -0.3310
  299MPD2    H7 4566   3.575   2.241  11.119 -2.9630  0.4857  1.3092
  300TMC3    C1 4567   2.971   1.896  10.787  0.0610 -0.5374 -0.4784
  300TMC3    C2 4568   2.893   1.983  10.723  0.2243  0.5604 -0.0942
  300TMC3    C3 4569   2.759   1.962  10.735  0.2943 -0.4711  0.3995
  300TMC3    C4 4570   2.918   1.792  10.859 -0.1738  0.8123 -0.2567
  300TMC3    C5 4571   2.783   1.791  10.877 -0.3783 -0.0702 -0.6190
  300TMC3    C6 4572   2.700   1.870  10.815  0.2580 -0.4676 -0.6941
  300TMC3     C 4573   3.107   1.947  10.809  0.0703 -0.0505  0.5810
  300TMC3     O 4574   3.134   2.056  10.761  0.3600  0.4359 -0.4786
  300TMC3     H 4575   2.928   2.068  10.665 -0.7043  3.0785  3.0158
  300TMC3    H1 4576   2.977   1.724  10.920  0.2240  1.3639 -0.0268
  300TMC3    H2 4577   2.592   1.878  10.826  0.2349  0.5560 -1.6815
  300TMC3    C7 4578   2.739   1.730  10.997 -0.4041 -0.5362 -0.3875
  300TMC3    C8 4579   2.682   2.082  10.709  0.2886  0.0507 -0.1703
  300TMC3    O1 4580   2.817   1.642  11.034  0.2488  0.5670  0.8148
  300TMC3    O2 4581   2.738   2.188  10.721 -0.1331  0.0511 -0.9126
  301MPD2     C 4582   0.786   2.995   0.565  0.3102  0.1368 -0.3838
  301MPD2    C1 4583   0.659   3.042   0.600  0.3905  0.4811 -0.6128
  301MPD2    C2 4584   0.554   2.960   0.626 -0.1981 -0.9974 -0.5420
  301MPD2    C3 4585   0.575   2.828   0.632 -0.0198  0.5224  0.1805
  301MPD2    C4 4586   0.703   2.777   0.612 -0.1218  0.3226  0.1201
  301MPD2    C5 4587   0.802   2.862   0.573 -0.8633  0.3208 -0.1960
  301MPD2     H 4588   0.460   3.011   0.639  0.0458 -0.1019 -2.3223
  301MPD2    H1 4589   0.709   2.669   0.619 -2.0008  0.2285  0.3203
  301MPD2    H2 4590   0.858   3.054   0.510 -0.6542  1.0451 -0.6676
  301MPD2    H3 4591   0.904   2.829   0.556 -0.6524  0.3373  1.0634
  301MPD2     N 4592   0.470   2.740   0.663 -0.7491  0.6307 -0.6937
  301MPD2    H5 4593   0.491   2.642   0.646 -1.3207  0.2115  1.0126
  301MPD2    N1 4594   0.633   3.178   0.593  0.6104 -0.1933  0.1789
  301MPD2    H7 4595   0.540   3.207   0.622  0.0995 -1.3114 -0.3444
  302TMC3    C1 4596   0.254   2.656   0.705  0.0285 -1.7193 -0.2906
  302TMC3    C2 4597   0.312   2.543   0.759  0.1285  0.4207  0.0094
  302TMC3    C3 4598   0.232   2.435   0.796 -0.2003 -0.7494  0.0714
  302TMC3    C4 4599   0.121   2.670   0.701  0.1564  0.0460 -0.1302
  302TMC3    C5 4600   0.042   2.568   0.752 -0.0161  0.6307 -0.4537
  302TMC3    C6 4601   0.094   2.451   0.796  0.2467 -0.7183 -0.4165
  302TMC3     C 4602   0.339   2.774   0.670  0.0923 -0.6799  0.0562
  302TMC3     O 4603   0.278   2.878   0.672  0.2395  0.0063  0.1013
  302TMC3     H 4604   0.419   2.539   0.774  0.4175  3.8332 -1.0784
  302TMC3    H1 4605   0.082   2.760   0.656 -3.4451 -1.1148  0.6494
  302TMC3    H2 4606   0.024   2.377   0.831  1.3038 -1.4146  0.2117
  302TMC3    C7 4607   4.638   2.589   0.753 -0.4222  0.0417 -0.1191
  302TMC3    C8 4608   0.289   2.308   0.842 -0.1927 -0.4991 -0.2181
  302TMC3    O1 4609   4.562   2.492   0.762  0.0689 -0.0443  0.1295
  302TMC3    O2 4610   0.408   2.296   0.873  0.1330 -0.5070 -0.2965
  303MPD2     C 4611   4.684   1.778  10.726  0.2754 -0.0918 -0.0156
  303MPD2    C1 4612   4.625   1.753  10.605 -0.2789  0.2412  0.2214
  303MPD2    C2 4613   4.687   1.793  10.489  0.0071 -0.2259  0.3352
  303MPD2    C3 4614   0.078   1.854  10.492  0.1279 -0.2728  0.4044
  303MPD2    C4 4615   0.139   1.873  10.612 -0.4726  0.5384 -0.6035
  303MPD2    C5 4616   0.074   1.833  10.729 -0.1072  0.1954 -0.1824
  303MPD2     H 4617   4.634   1.784  10.395 -0.2902  2.7652  0.2022
  303MPD2    H1 4618   0.229   1.933  10.607  0.3007 -0.5978 -0.3836
  303MPD2    H2 4619   4.645   1.744  10.821 -0.2035 -1.9818 -0.8826
  303MPD2    H3 4620   0.138   1.835  10.817 -1.8997  0.8175  1.0840
  303MPD2     N 4621   0.137   1.916  10.375 -0.0536  0.5102 -0.5332
  303MPD2    H5 4622   0.231   1.953  10.383  0.0066 -0.2289  1.9680
  303MPD2    N1 4623   4.503   1.683  10.612  0.5323  0.6457  0.1571
  303MPD2    H7 4624   4.459   1.665  10.702  1.6091 -0.2990  0.4858
  304TMC3    C1 4625   4.308   1.567  10.545 -0.0566  0.1958 -0.0084
  304TMC3    C2 4626   4.207   1.639  10.600 -1.0226 -0.5205  0.0043
  304TMC3    C3 4627   4.078   1.620  10.551  0.1124  0.5422 -0.0220
  304TMC3    C4 4628   4.279   1.468  10.451 -0.8249  0.0489 -0.1279
  304TMC3    C5 4629   4.150   1.469  10.397  0.2817  0.3216  0.2818
  304TMC3    C6 4630   4.050   1.535  10.453  0.3986 -0.1474 -0.0420
  304TMC3     C 4631   4.425   1.643  10.504 -0.2812 -0.3382 -0.4707
  304TMC3     O 4632   4.443   1.620  10.385  0.1233 -0.4045 -0.2217
  304TMC3     H 4633   4.222   1.730  10.658  1.4029  1.6481 -4.0158
  304TMC3    H1 4634   4.359   1.406  10.414  0.7206  1.3187  1.0643
  304TMC3    H2 4635   3.946   1.519  10.429  0.8483 -1.4968 -1.0689
  304TMC3    C7 4636   4.143   1.475  10.251  0.1014 -0.3319 -0.2121
  304TMC3    C8 4637   4.007   1.748  10.537 -0.0037 -0.1877  0.2271
  304TMC3    O1 4638   4.051   1.550  10.221 -0.2746 -0.1782  0.3919
  304TMC3    O2 4639   3.995   1.827  10.631  0.1343 -0.4950 -0.3861
  305MPD2     C 4640   3.561   4.140  13.812 -0.7438 -0.2984 -0.1694
  305MPD2    C1 4641   3.614   4.022  13.836 -0.6229  1.0097 -0.7236
  305MPD2    C2 4642   3.605   3.919  13.741 -0.3351 -0.0429 -0.5527
  305MPD2    C3 4643   3.528   3.934  13.623 -0.3883 -0.2581  0.3289
  305MPD2    C4 4644   3.485   4.066  13.596  0.3220  0.4956 -0.1172
  305MPD2    C5 4645   3.495   4.160  13.694 -0.5677 -0.0158  0.2560
  305MPD2     H 4646   3.652   3.824  13.762 -0.8388 -0.7297 -2.5116
  305MPD2    H1 4647   3.444   4.100  13.502  0.1575 -0.0701 -0.2535
  305MPD2    H2 4648   3.574   4.220  13.885  0.2387  0.3764 -1.0717
  305MPD2    H3 4649   3.447   4.255  13.676  2.5670  1.2400 -1.5212
  305MPD2     N 4650   3.501   3.834  13.526 -0.5320 -0.0286 -0.8372
  305MPD2    H5 4651   3.438   3.870  13.455  0.4328 -1.5113 -2.4463
  305MPD2    N1 4652   3.689   4.001  13.961 -0.4111  0.5745  0.4161
  305MPD2    H7 4653   3.686   4.082  14.023 -0.4371  0.5612  0.4322
  306TMC3    C1 4654   3.836   3.906  14.112 -0.8289  0.1868  0.8568
  306TMC3    C2 4655   3.930   3.815  14.135 -0.2936 -0.3824  0.5957
  306TMC3    C3 4656   3.987   3.814  14.258 -0.0744 -0.0591  0.0222
  306TMC3    C4 4657   3.808   4.007  14.202  0.2663  0.2455 -0.0951
  306TMC3    C5 4658   3.872   4.012  14.320  0.3752 -0.5340 -0.2070
  306TMC3    C6 4659   3.968   3.916  14.347 -0.0558 -0.3607 -0.1168
  306TMC3     C 4660   3.760   3.891  13.990 -0.3302 -0.0196  0.3144
  306TMC3     O 4661   3.781   3.789  13.926  0.7758  0.3063  0.3759
  306TMC3     H 4662   3.926   3.724  14.076 -2.1118  0.0705  0.0375
  306TMC3    H1 4663   3.708   4.048  14.201  1.2402  2.6173  0.3914
  306TMC3    H2 4664   4.009   3.918  14.447  1.8186  0.8676 -0.9068
  306TMC3    C7 4665   3.784   4.053  14.433 -0.4367  0.4611 -0.1335
  306TMC3    C8 4666   4.060   3.694  14.311  1.0950  0.6834  0.8128
  306TMC3    O1 4667   3.666   4.033  14.420 -0.1780  0.5470  0.5591
  306TMC3    O2 4668   4.126   3.618  14.238  0.7374 -0.5028  0.1331
  307MPD2     C 4669   1.846   1.676   0.216  0.9687  0.7821  0.5633
  307MPD2    C1 4670   1.798   1.804   0.200  0.6652  0.3205  0.2456
  307MPD2    C2 4671   1.729   1.854   0.306  0.8446 -0.1026 -0.4238
  307MPD2    C3 4672   1.708   1.785   0.431  0.3036 -0.3004  0.8181
  307MPD2    C4 4673   1.766   1.664   0.445 -0.3641 -0.4655 -0.3553
  307MPD2    C5 4674   1.832   1.610   0.339 -0.2486  0.5064  0.3380
  307MPD2     H 4675   1.685   1.952   0.291  0.5172 -0.2408 -0.3691
  307MPD2    H1 4676   1.753   1.608   0.536 -0.3439 -0.3136 -0.2579
  307MPD2    H2 4677   1.911   1.635   0.139 -0.3657  1.8790 -1.1156
  307MPD2    H3 4678   1.871   1.509   0.342 -1.4362  0.0298 -0.0941
  307MPD2     N 4679   1.626   1.846   0.531  0.2909  0.1982 -0.9960
  307MPD2    H5 4680   1.591   1.941   0.518 -3.0544 -0.7892  0.8020
  307MPD2    N1 4681   1.796   1.872   0.079  0.2413  0.2543  0.0007
  307MPD2    H7 4682   1.750   1.962   0.087 -3.7825 -1.7174 -0.9604
  308TMC3    C1 4683   1.243   1.832   0.742  0.5469 -1.3276  0.3256
  308TMC3    C2 4684   1.219   1.962   0.724  0.0510  0.3776 -0.9207
  308TMC3    C3 4685   1.327   2.035   0.692 -0.1034 -0.5057  0.5270
  308TMC3    C4 4686   1.370   1.782   0.736 -0.1871  0.5201 -0.5271
  308TMC3    C5 4687   1.474   1.861   0.710 -0.0789  0.1259  0.3300
  308TMC3    C6 4688   1.455   1.992   0.680 -0.1413  0.4272 -0.4691
  308TMC3     C 4689   1.139   1.744   0.795 -0.1643 -0.4341  0.0736
  308TMC3     O 4690   1.176   1.635   0.830  0.5111  0.3369  0.5057
  308TMC3     H 4691   1.121   2.001   0.750 -0.3797 -0.7754 -0.7810
  308TMC3    H1 4692   1.393   1.676   0.742 -2.0775  0.1862  0.8572
  308TMC3    H2 4693   1.529   2.068   0.659  1.8429 -1.9567 -2.0536
  308TMC3    C7 4694   1.586   1.790   0.656 -0.1674  0.5657 -0.1294
  308TMC3    C8 4695   1.307   2.171   0.656  0.8090  0.7500  0.4354
  308TMC3    O1 4696   1.614   1.683   0.702  0.2674 -0.2065 -0.1862
  308TMC3    O2 4697   1.400   2.246   0.621 -0.6062  0.1301  0.1003
  309MPD2     C 4698   0.658   2.262  17.079  0.0873  0.2548  0.1147
  309MPD2    C1 4699   0.621   2.388  17.042  0.4893 -0.4570  0.2320
  309MPD2    C2 4700   0.525   2.457  17.118 -0.5476 -0.7367 -0.3515
  309MPD2    C3 4701   0.481   2.398  17.234 -0.0892  0.6246  0.0727
  309MPD2    C4 4702   0.523   2.270  17.274 -0.2320  0.1611  0.5832
  309MPD2    C5 4703   0.605   2.202  17.193 -1.0026  0.3373  0.3168
  309MPD2     H 4704   0.485   2.553  17.085 -0.7083 -1.3253 -1.8360
  309MPD2    H1 4705   0.482   2.223  17.362  0.4752 -1.3456  0.1175
  309MPD2    H2 4706   0.732   2.212  17.019 -1.3273 -1.6847 -0.0302
  309MPD2    H3 4707   0.629   2.098  17.214  0.9476  0.3851 -1.6703
  309MPD2     N 4708   0.387   2.459  17.313 -0.3820 -0.1131 -0.7425
  309MPD2    H5 4709   0.364   2.412  17.400  2.8227  0.6342  0.4836
  309MPD2    N1 4710   0.668   2.455  16.925  0.3469  0.1559 -0.4214
  309MPD2    H7 4711   0.616   2.535  16.892  0.4257  0.3916  0.0299
  310TMC3    C1 4712   0.825   2.480  16.741 -0.6062  0.0633 -0.1754
  310TMC3    C2 4713   0.731   2.567  16.685 -0.6146 -0.4363 -0.6773
  310TMC3    C3 4714   0.750   2.607  16.562  0.2007  0.1381  0.7247
  310TMC3    C4 4715   0.920   2.418  16.671 -0.4961 -0.0899  0.0947
  310TMC3    C5 4716   0.919   2.447  16.540  0.2199  0.3992  0.1588
  310TMC3    C6 4717   0.842   2.541  16.483 -0.0838  0.4426 -0.1889
  310TMC3     C 4718   0.787   2.415  16.866 -0.3620 -0.0476 -0.3757
  310TMC3     O 4719   0.868   2.337  16.911  0.1146  0.3024 -0.1985
  310TMC3     H 4720   0.655   2.621  16.741  1.3550 -0.8233  2.3787
  310TMC3    H1 4721   0.984   2.343  16.715  1.8864  2.6350  1.2849
  310TMC3    H2 4722   0.842   2.562  16.376 -1.6420 -0.2342 -0.3329
  310TMC3    C7 4723   0.989   2.347  16.463  0.7971 -1.0917 -0.3822
  310TMC3    C8 4724   0.669   2.708  16.501  0.3721  0.3320  0.5350
  310TMC3    O1 4725   1.024   2.243  16.520 -0.3617 -0.5043  0.1037
  310TMC3    O2 4726   0.567   2.741  16.556 -0.3611 -0.2373 -0.0309
  311MPD2     C 4727   2.497   3.515  12.561 -0.1580  0.1069 -0.4241
  311MPD2    C1 4728   2.473   3.631  12.623  0.6859 -0.0027 -0.2807
  311MPD2    C2 4729   2.392   3.642  12.734 -0.2904 -0.3034  0.5361
  311MPD2    C3 4730   2.330   3.524  12.784  0.4574  0.0077 -0.1896
  311MPD2    C4 4731   2.351   3.409  12.718 -0.3857  0.5125  0.3635
  311MPD2    C5 4732   2.439   3.404  12.614 -0.1140 -0.3315  0.0100
  311MPD2     H 4733   2.381   3.739  12.781  1.7073 -0.0392  0.4487
  311MPD2    H1 4734   2.301   3.316  12.744  1.1412  0.3429  2.6605
  311MPD2    H2 4735   2.566   3.492  12.481  0.0865  1.6086 -0.6414
  311MPD2    H3 4736   2.457   3.305  12.574  0.7280 -0.4998  0.7861
  311MPD2     N 4737   2.222   3.540  12.878 -0.1306  0.5119 -0.4746
  311MPD2    H5 4738   2.196   3.634  12.907 -0.4381  0.9601 -2.2259
  311MPD2    N1 4739   2.535   3.745  12.565 -0.0355  0.0549  0.1045
  311MPD2    H7 4740   2.542   3.824  12.628  0.2352  0.1944 -0.0999
  312TMC3    C1 4741   2.007   3.493  12.959  0.1841  0.1025 -0.2098
  312TMC3    C2 4742   1.888   3.446  12.909 -0.3664  0.2599 -0.3101
  312TMC3    C3 4743   1.777   3.511  12.945  0.3563 -0.2044  0.3371
  312TMC3    C4 4744   2.010   3.594  13.047 -0.0834 -0.3178 -0.5743
  312TMC3    C5 4745   1.892   3.651  13.090 -0.3079 -0.7193  0.2148
  312TMC3    C6 4746   1.771   3.614  13.037 -0.2628 -0.3566 -0.0376
  312TMC3     C 4747   2.130   3.438  12.908  0.5768 -0.2928  1.2655
  312TMC3     O 4748   2.137   3.317  12.897  0.4052 -0.0644  0.2135
  312TMC3     H 4749   1.888   3.369  12.833  0.2747 -0.1405  0.0988
  312TMC3    H1 4750   2.102   3.612  13.101  0.2171 -0.4120 -1.0498
  312TMC3    H2 4751   1.676   3.654  13.072  0.1120 -0.1895  0.7883
  312TMC3    C7 4752   1.883   3.734  13.205 -0.9416  0.1122 -0.2656
  312TMC3    C8 4753   1.662   3.482  12.858 -0.3894  0.5018 -0.6858
  312TMC3    O1 4754   1.771   3.754  13.246 -0.1533  0.0958 -0.4005
  312TMC3    O2 4755   1.645   3.364  12.823  0.3613 -0.9311 -0.2348
  313MPD2     C 4756   1.636   2.091  11.241 -0.7224  0.1174  0.8141
  313MPD2    C1 4757   1.696   2.209  11.199 -0.1099 -0.2220 -0.7416
  313MPD2    C2 4758   1.789   2.206  11.102 -0.1686  0.3942 -0.4491
  313MPD2    C3 4759   1.826   2.091  11.029 -0.0310 -0.7059  0.1635
  313MPD2    C4 4760   1.766   1.975  11.070  0.1790  0.5156  0.2120
  313MPD2    C5 4761   1.677   1.977  11.175  0.5628  0.2964 -0.0833
  313MPD2     H 4762   1.845   2.298  11.087  1.5335 -0.4566  0.5982
  313MPD2    H1 4763   1.790   1.881  11.022  0.3799  1.3825 -1.3796
  313MPD2    H2 4764   1.562   2.086  11.320 -1.5992 -4.6330 -0.3294
  313MPD2    H3 4765   1.616   1.888  11.192 -2.4478  2.6750  1.5281
  313MPD2     N 4766   1.906   2.088  10.919  0.4294  0.4264  0.2282
  313MPD2    H5 4767   1.909   1.994  10.881 -1.1713 -0.2900  1.8726
  313MPD2    N1 4768   1.676   2.338  11.257 -0.2571  0.0922  0.4093
  313MPD2    H7 4769   1.736   2.416  11.232 -0.6169  1.6667  4.4210
  314TMC3    C1 4770   1.563   2.504  11.373  0.4233 -0.6824  0.4811
  314TMC3    C2 4771   1.671   2.583  11.379  0.6535 -0.5003 -0.4304
  314TMC3    C3 4772   1.649   2.718  11.333  0.4307 -0.0283  0.0738
  314TMC3    C4 4773   1.432   2.548  11.352  0.1553 -0.0237 -0.2974
  314TMC3    C5 4774   1.421   2.676  11.304 -0.6244 -0.6446 -0.7801
  314TMC3    C6 4775   1.526   2.759  11.287  0.2899 -0.2126  0.8955
  314TMC3     C 4776   1.574   2.365  11.352 -0.1103  0.3141 -0.0622
  314TMC3     O 4777   1.482   2.297  11.391 -0.1796 -0.4053  0.3072
  314TMC3     H 4778   1.766   2.538  11.405  1.0402  0.7910  0.4032
  314TMC3    H1 4779   1.350   2.478  11.345  0.9367 -1.1060  1.4361
  314TMC3    H2 4780   1.497   2.863  11.285 -0.8362 -0.5596 -0.8742
  314TMC3    C7 4781   1.314   2.687  11.204  0.0346 -0.3074  0.2067
  314TMC3    C8 4782   1.739   2.825  11.356 -0.3884  0.0044 -0.6309
  314TMC3    O1 4783   1.221   2.613  11.218 -0.1589  1.0657  0.3893
  314TMC3    O2 4784   1.698   2.942  11.343 -0.1530  0.2888 -0.3605
  315MPD2     C 4785   2.210   1.728  17.306 -0.3292  0.4778 -0.3288
  315MPD2    C1 4786   2.167   1.730  17.438 -0.4295  0.2116 -0.1698
  315MPD2    C2 4787   2.174   1.851  17.500  0.1267 -0.9534 -0.4456
  315MPD2    C3 4788   2.214   1.965  17.442 -0.1255 -0.0364 -0.2692
  315MPD2    C4 4789   2.267   1.956  17.316 -0.1463 -0.0314  0.0123
  315MPD2    C5 4790   2.257   1.845  17.246  0.2955  0.1191  0.7754
  315MPD2     H 4791   2.122   1.858  17.595 -0.1744  1.4679 -0.7906
  315MPD2    H1 4792   2.316   2.040  17.268  1.4169 -1.2045 -0.4456
  315MPD2    H2 4793   2.223   1.636  17.250  0.9299  0.7963 -0.5769
  315MPD2    H3 4794   2.305   1.836  17.149 -0.8436 -1.9215  0.3930
  315MPD2     N 4795   2.195   2.088  17.516 -0.0078  0.1987 -0.0289
  315MPD2    H5 4796   2.163   2.080  17.612  0.9200  2.0570  0.4485
  315MPD2    N1 4797   2.112   1.621  17.499 -0.5945 -0.4177  0.3280
  315MPD2    H7 4798   2.061   1.639  17.585  2.3926  0.6390  1.8965
  316TMC3    C1 4799   2.196   2.306  17.562 -0.4408 -0.3102  0.1984
  316TMC3    C2 4800   2.230   2.293  17.696 -0.0416  0.4205  0.1991
  316TMC3    C3 4801   2.196   2.397   0.030  0.5061 -0.0771 -0.5650
  316TMC3    C4 4802   2.148   2.426  17.516  0.4987  0.2926 -0.1436
  316TMC3    C5 4803   2.132   2.532  17.603  0.2538 -0.7961 -0.6451
  316TMC3    C6 4804   2.167   2.523  17.732  0.3261 -0.1169  0.1604
  316TMC3     C 4805   2.218   2.209  17.464 -0.5964 -0.7336  0.0858
  316TMC3     O 4806   2.244   2.238  17.348  0.2398  0.2484 -0.7073
  316TMC3     H 4807   2.264   2.194  17.726 -2.5622  0.3824  2.8469
  316TMC3    H1 4808   2.120   2.431  17.412  2.1245  0.8054 -0.5505
  316TMC3    H2 4809   2.147   2.609   0.045 -0.0683 -0.0527 -0.0602
  316TMC3    C7 4810   2.090   2.660  17.559 -0.1712 -0.1046 -0.1839
  316TMC3    C8 4811   2.240   2.396   0.168  0.2196 -0.0511 -0.0749
  316TMC3    O1 4812   2.122   2.751  17.634 -0.5250 -0.1214  0.0820
  316TMC3    O2 4813   2.212   2.499   0.229  0.4124 -0.2380  0.1369
  317MPD2     C 4814   3.424   0.885  13.154  0.3122  0.0738 -0.0680
  317MPD2    C1 4815   3.499   0.805  13.075  0.0768 -0.2534  0.3747
  317MPD2    C2 4816   3.618   0.760  13.117 -0.0484 -0.6585  0.4369
  317MPD2    C3 4817   3.667   0.796  13.245  0.3869  0.1943 -1.2202
  317MPD2    C4 4818   3.586   0.871  13.323 -0.0452 -0.3624 -0.0558
  317MPD2    C5 4819   3.464   0.916  13.279  0.6442 -0.1809 -0.3451
  317MPD2     H 4820   3.671   0.689  13.055 -0.4140 -0.7759  0.2625
  317MPD2    H1 4821   3.607   0.903  13.425  0.3473 -0.8491  0.0138
  317MPD2    H2 4822   3.323   0.915  13.128 -0.6353 -1.9552  1.2243
  317MPD2    H3 4823   3.410   0.986  13.341 -1.2009 -0.3277 -1.7957
  317MPD2     N 4824   3.787   0.728  13.280 -0.2785 -0.4813 -0.7744
  317MPD2    H5 4825   3.824   0.667  13.208 -2.8491 -2.6979 -0.1979
  317MPD2    N1 4826   3.464   0.762  12.946  0.1978  0.4501  0.0545
  317MPD2    H7 4827   3.528   0.688  12.920  0.3672  1.0119 -1.1503
  318TMC3    C1 4828   3.913   0.603  13.432 -0.0621  0.3601  0.0113
  318TMC3    C2 4829   3.864   0.489  13.369  0.5532  0.4467 -0.0185
  318TMC3    C3 4830   3.922   0.364  13.403  0.0158 -0.1513  0.2122
  318TMC3    C4 4831   4.016   0.601  13.523 -0.3676 -0.2835 -0.4124
  318TMC3    C5 4832   4.065   0.476  13.556  0.3335 -0.4123 -0.2138
  318TMC3    C6 4833   4.023   0.361  13.499  0.2741 -0.5799  0.1685
  318TMC3     C 4834   3.846   0.730  13.402  0.4440  0.0678  0.1152
  318TMC3     O 4835   3.830   0.809  13.495  0.1872  0.1321 -0.5840
  318TMC3     H 4836   3.781   0.512  13.302  2.0668 -1.0469 -2.3760
  318TMC3    H1 4837   4.068   0.693  13.544 -0.7750 -0.2405  0.3844
  318TMC3    H2 4838   4.061   0.271  13.545  2.6468 -0.2621 -1.1743
  318TMC3    C7 4839   4.195   0.477  13.626  0.2318  0.3692 -0.3093
  318TMC3    C8 4840   3.858   0.239  13.361  0.0259  0.0298  0.2164
  318TMC3    O1 4841   4.220   0.575  13.689 -0.7134  0.0672 -0.9469
  318TMC3    O2 4842   3.893   0.140  13.424 -0.3887 -0.1547  0.1147
  319MPD2     C 4843   4.011   1.993  16.762 -0.8268 -0.4270  1.0087
  319MPD2    C1 4844   4.044   1.860  16.757 -0.0349  0.1775  0.8254
  319MPD2    C2 4845   3.968   1.772  16.676  1.1338 -0.0453  0.2122
  319MPD2    C3 4846   3.867   1.819  16.594  0.0092 -0.4170  0.8320
  319MPD2    C4 4847   3.840   1.950  16.614 -0.1655 -0.4192  0.2123
  319MPD2    C5 4848   3.904   2.034  16.699 -0.2204 -0.1060 -0.3695
  319MPD2     H 4849   4.009   1.672  16.663 -0.0271 -0.3518 -1.1520
  319MPD2    H1 4850   3.761   1.999  16.558  0.4154  0.2985  0.0237
  319MPD2    H2 4851   4.047   2.071  16.828 -2.5010  0.1650  1.2444
  319MPD2    H3 4852   3.879   2.138  16.716 -0.6785 -0.2337 -0.2804
  319MPD2     N 4853   3.784   1.737  16.515 -0.2654  0.3021 -0.3468
  319MPD2    H5 4854   3.723   1.788  16.452 -0.5797  0.2224 -0.1076
  319MPD2    N1 4855   4.155   1.807  16.819  0.3299 -0.1340 -0.3060
  319MPD2    H7 4856   4.176   1.708  16.806  1.3075  0.3808 -2.5445
  320TMC3    C1 4857   3.752   1.531  16.391 -0.3634 -0.7161  0.3411
  320TMC3    C2 4858   3.732   1.600  16.279 -0.1165 -0.6085  1.5034
  320TMC3    C3 4859   3.755   1.544  16.151 -0.1008 -0.2019  0.9117
  320TMC3    C4 4860   3.779   1.397  16.379 -0.3270 -0.4991 -0.3082
  320TMC3    C5 4861   3.801   1.340  16.254  0.2595 -0.1547  0.0379
  320TMC3    C6 4862   3.791   1.411  16.138  0.3890  0.1299  0.8360
  320TMC3     C 4863   3.795   1.596  16.511 -0.4132  0.6963 -0.2216
  320TMC3     O 4864   3.835   1.522  16.600  0.1850  0.2897 -0.3725
  320TMC3     H 4865   3.721   1.707  16.280  0.8568 -0.5259  2.2935
  320TMC3    H1 4866   3.789   1.343  16.472 -0.2077 -0.3906 -0.2580
  320TMC3    H2 4867   3.814   1.367  16.042  0.3182 -2.5990  2.0962
  320TMC3    C7 4868   3.853   1.204  16.251  0.0907 -0.2780 -0.1430
  320TMC3    C8 4869   3.738   1.637  16.038 -0.7217 -0.1380  0.2334
  320TMC3    O1 4870   3.831   1.138  16.149  0.1074 -0.3864 -0.5952
  320TMC3    O2 4871   3.661   1.733  16.055 -0.0848 -0.2237 -0.5710
  321TMC3    C1 4872   4.368   1.790  16.925  0.2527 -0.3534  0.6525
  321TMC3    C2 4873   4.338   1.671  16.982 -0.0612  0.4715 -0.6266
  321TMC3    C3 4874   4.424   1.570  16.987 -0.3710 -0.1178  0.0855
  321TMC3    C4 4875   4.493   1.823  16.887  0.5271 -0.2199  0.2725
  321TMC3    C5 4876   4.581   1.719  16.888  0.0213  0.3189 -0.5576
  321TMC3    C6 4877   4.542   1.598  16.924  0.7409  0.3296 -1.4183
  321TMC3     C 4878   4.256   1.876  16.874 -0.4301 -0.4241 -0.2962
  321TMC3     O 4879   4.276   2.000  16.867  0.0069  0.4280  0.2091
  321TMC3     H 4880   4.256   1.667  17.053 -0.3996  1.2825 -0.9757
  321TMC3    H1 4881   4.521   1.916  16.838 -0.0771  0.8244  1.8986
  321TMC3    H2 4882   4.617   1.521  16.918  1.0655  0.1951  4.1642
  321TMC3    C7 4883   4.691   1.746  16.977  0.3516 -0.1433 -0.8746
  321TMC3    C8 4884   4.470   1.535  17.118 -0.6880  0.9987 -0.2032
  321TMC3    O1 4885   0.029   1.654  16.996  0.2024 -0.5481  0.7112
  321TMC3    O2 4886   4.471   1.622  17.206  0.0987  0.0132  0.1434
  322MPD2     C 4887   3.376   3.345  13.529  0.4200  0.0224  0.0939
  322MPD2    C1 4888   3.377   3.270  13.639 -0.9125 -0.1331 -0.8260
  322MPD2    C2 4889   3.387   3.132  13.633  0.0965  1.0766 -0.1123
  322MPD2    C3 4890   3.411   3.068  13.512 -0.0628  0.4998 -0.2681
  322MPD2    C4 4891   3.404   3.139  13.400 -0.4726  0.0680 -1.0973
  322MPD2    C5 4892   3.377   3.280  13.407  0.7506  0.0252  0.7256
  322MPD2     H 4893   3.393   3.076  13.726 -2.7420  0.8060 -0.1138
  322MPD2    H1 4894   3.432   3.095  13.305 -0.3773  1.0280 -1.5077
  322MPD2    H2 4895   3.361   3.452  13.534 -2.9399 -0.5059  1.3756
  322MPD2    H3 4896   3.367   3.338  13.317  0.0566  2.7968  2.5884
  322MPD2     N 4897   3.431   2.930  13.512 -0.1096  0.1886 -0.2739
  322MPD2    H5 4898   3.427   2.876  13.597  1.1128  1.5588  0.6586
  322MPD2    N1 4899   3.376   3.342  13.760  0.0272  0.4096 -0.0403
  322MPD2    H7 4900   3.382   3.443  13.750  2.2297  0.3381  0.4273
  323TMC3    C1 4901   3.460   3.355  13.990 -0.0367 -0.7201 -0.1650
  323TMC3    C2 4902   3.565   3.436  13.948 -0.8173 -0.0968  0.7044
  323TMC3    C3 4903   3.671   3.451  14.038  0.5962 -0.8753  0.2666
  323TMC3    C4 4904   3.454   3.299  14.116  0.0793 -0.1531 -0.0160
  323TMC3    C5 4905   3.557   3.319  14.204 -0.0130 -0.7653  0.1680
  323TMC3    C6 4906   3.662   3.407  14.167  0.2646  0.7051 -0.0204
  323TMC3     C 4907   3.385   3.282  13.885 -0.1121 -0.8179  0.6497
  323TMC3     O 4908   3.323   3.182  13.917 -0.1268 -0.2070  0.4798
  323TMC3     H 4909   3.576   3.463  13.843  0.2847 -1.4432  0.4755
  323TMC3    H1 4910   3.375   3.235  14.153  0.5026  0.4329  1.8852
  323TMC3    H2 4911   3.743   3.434  14.234  0.1097 -1.3153  1.0045
  323TMC3    C7 4912   3.578   3.208  14.298 -0.3474 -0.1391 -0.2354
  323TMC3    C8 4913   3.809   3.436  13.984  0.1782  0.7294 -0.3631
  323TMC3    O1 4914   3.515   3.106  14.277  0.2707 -0.1613 -0.0668
  323TMC3    O2 4915   3.893   3.380  14.050 -0.5478 -0.1820 -0.1991
  324MPD2     C 4916   0.717   3.986  14.742 -0.0079 -0.3747  0.2111
  324MPD2    C1 4917   0.686   4.121  14.727 -0.4615 -0.9212 -0.1283
  324MPD2    C2 4918   0.590   4.159  14.643 -0.0847  0.5336  0.1750
  324MPD2    C3 4919   0.526   4.062  14.567 -0.3543  0.4944 -0.3639
  324MPD2    C4 4920   0.544   3.927  14.575 -0.2142 -0.2399 -0.0012
  324MPD2    C5 4921   0.654   3.895  14.658  1.2389  0.1717  0.5324
  324MPD2     H 4922   0.562   4.264  14.638  0.7505  0.8668  2.7378
  324MPD2    H1 4923   0.496   3.853  14.513 -1.6958  1.6127 -1.0423
  324MPD2    H2 4924   0.786   3.948  14.817 -0.5693 -1.2531  0.2858
  324MPD2    H3 4925   0.695   3.794  14.661  0.1094 -0.2898  0.6112
  324MPD2     N 4926   0.427   4.111  14.471 -0.2529  0.1782  0.6704
  324MPD2    H5 4927   0.361   4.046  14.429  0.0574  0.1935  0.1552
  324MPD2    N1 4928   0.760   4.226  14.783 -0.3195 -0.5616 -0.2951
  324MPD2    H7 4929   0.747   4.316  14.740 -0.3156  0.2654  1.4318
  325TMC3    C1 4930   0.328   4.260  14.321  0.3659  0.1745 -0.1724
  325TMC3    C2 4931   0.213   4.179  14.314  0.1644 -0.1134 -0.3003
  325TMC3    C3 4932   0.096   4.234  14.269 -0.5104  0.1408 -0.1151
  325TMC3    C4 4933   0.326   4.384  14.262 -0.0407 -0.0499  0.2535
  325TMC3    C5 4934   0.207   4.429  14.203 -0.5535 -0.2286  0.2083
  325TMC3    C6 4935   0.090   4.359  14.210  0.3648 -0.1095 -0.6327
  325TMC3     C 4936   0.439   4.236  14.409 -0.0882  0.0903 -0.1853
  325TMC3     O 4937   0.515   4.328  14.418 -0.0477  0.3551  0.3894
  325TMC3     H 4938   0.221   4.078  14.351 -0.8416 -0.2757 -0.5086
  325TMC3    H1 4939   0.415   4.443  14.242 -0.1068  0.4763  1.5016
  325TMC3    H2 4940   4.735   4.392  14.163 -1.4571  0.0459  3.0826
  325TMC3    C7 4941   0.204   4.561  14.152 -0.7398  0.2617  0.5078
  325TMC3    C8 4942   4.732   4.135  14.227  0.0127  0.2954  0.4047
  325TMC3    O1 4943   0.308   4.604  14.099  0.1575  0.0302  0.3696
  325TMC3    O2 4944   0.026   4.018  14.210  0.5433  0.4808 -0.0555
  326MPD2     C 4945   0.635   0.836  11.754  0.1565 -0.2190  0.5923
  326MPD2    C1 4946   0.710   0.892  11.649 -0.0592 -0.1451 -0.0813
  326MPD2    C2 4947   0.832   0.950  11.664 -0.1497  0.7507  0.0259
  326MPD2    C3 4948   0.877   0.970  11.794 -0.2861 -0.3972 -0.3040
  326MPD2    C4 4949   0.788   0.939  11.896 -0.6097  0.4097 -0.2221
  326MPD2    C5 4950   0.675   0.865  11.879  0.9939 -0.5008  0.3435
  326MPD2     H 4951   0.893   0.993  11.585  1.2785  1.6804  1.6212
  326MPD2    H1 4952   0.808   0.967  11.999  1.5920 -0.5934 -0.3731
  326MPD2    H2 4953   0.547   0.776  11.732  1.2662 -1.1063 -1.4058
  326MPD2    H3 4954   0.619   0.834  11.967 -0.5585 -1.9805 -1.1657
  326MPD2     N 4955   1.003   1.028  11.830 -0.2035  0.1477 -0.3246
  326MPD2    H5 4956   1.020   1.034  11.930 -3.1508 -0.0735  0.1900
  326MPD2    N1 4957   0.676   0.866  11.519 -0.1228 -0.2623 -0.1851
  326MPD2    H7 4958   0.743   0.877  11.443 -0.0513 -0.2729 -0.1238
  327TMC3    C1 4959   0.567   0.792  11.337  0.4866 -0.2880  0.3736
  327TMC3    C2 4960   0.466   0.835  11.253 -0.8168 -0.1721 -0.0362
  327TMC3    C3 4961   0.494   0.837  11.122  0.4933 -0.2029 -0.8275
  327TMC3    C4 4962   0.682   0.744  11.298  0.3700  0.1979 -0.8382
  327TMC3    C5 4963   0.696   0.733  11.161 -0.2972  0.1376  0.2449
  327TMC3    C6 4964   0.610   0.792  11.072 -0.0103 -0.3474  0.7885
  327TMC3     C 4965   0.558   0.817  11.478 -0.3855 -0.0773 -0.3630
  327TMC3     O 4966   0.452   0.801  11.533 -0.4591  0.0584  0.5986
  327TMC3     H 4967   0.379   0.880  11.299 -0.8323  0.5698 -0.7963
  327TMC3    H1 4968   0.746   0.703  11.375 -1.3472 -0.0883  0.4411
  327TMC3    H2 4969   0.636   0.798  10.967 -0.6682 -1.6345  0.5498
  327TMC3    C7 4970   0.832   0.699  11.106  0.1986 -0.1541  0.1293
  327TMC3    C8 4971   0.409   0.924  11.051  0.5189 -0.1764  1.1481
  327TMC3    O1 4972   0.829   0.658  10.991 -0.3097  0.3965  0.6513
  327TMC3    O2 4973   0.298   0.959  11.098 -0.5025  0.3452 -0.2148
  328MPD2     C 4974   4.293   0.250  17.551 -0.3840  0.1651 -0.5668
  328MPD2    C1 4975   4.163   0.212  17.584 -0.3026 -0.4609 -0.2295
  328MPD2    C2 4976   4.055   0.248  17.509 -0.2772 -0.0041  0.5364
  328MPD2    C3 4977   4.081   0.303  17.384 -0.5383 -0.9295 -0.0798
  328MPD2    C4 4978   4.210   0.324  17.341 -0.1628 -0.0673  0.8627
  328MPD2    C5 4979   4.315   0.306  17.426 -0.6646 -0.4045  1.0822
  328MPD2     H 4980   3.956   0.255  17.553 -0.3216  1.5980  0.1768
  328MPD2    H1 4981   4.222   0.384  17.251 -1.2772 -1.1371 -0.0021
  328MPD2    H2 4982   4.377   0.222  17.613 -1.8673 -0.0082  1.3596
  328MPD2    H3 4983   4.412   0.351  17.409 -1.2178 -0.2916 -1.9214
  328MPD2     N 4984   3.981   0.349  17.299 -0.2270  0.5264 -0.2149
  328MPD2    H5 4985   4.011   0.400  17.216  1.1692 -0.3274 -0.2448
  328MPD2    N1 4986   4.146   0.154  17.713 -0.3061 -0.3828 -0.3589
  328MPD2    H7 4987   4.217   0.164   0.037 -0.3250  0.8401 -0.5002
  329TMC3    C1 4988   4.029   0.076   0.144  0.0043  0.5398  0.7704
  329TMC3    C2 4989   4.065   0.184   0.223  0.0466 -0.0119 -0.3887
  329TMC3    C3 4990   4.000   0.210   0.341  0.2915  0.3976 -0.0027
  329TMC3    C4 4991   3.925   4.731   0.179  0.3169 -0.0482 -0.1361
  329TMC3    C5 4992   3.865   0.020   0.304  0.0595  0.5975 -0.4699
  329TMC3    C6 4993   3.902   0.128   0.385 -0.2384  0.8683 -0.0387
  329TMC3     C 4994   4.038   0.086  17.747 -0.1208 -0.1645 -0.8086
  329TMC3     O 4995   3.939   0.045  17.688 -0.0849  0.4070 -0.5945
  329TMC3     H 4996   4.120   0.267   0.180 -0.3873 -0.9231 -2.7095
  329TMC3    H1 4997   3.895   4.647   0.118 -2.6790  1.2695 -0.4291
  329TMC3    H2 4998   3.830   0.167   0.456 -0.3078 -0.2112  0.4893
  329TMC3    C7 4999   3.767   4.664   0.344 -0.0452  0.1288 -0.5651
  329TMC3    C8 5000   4.026   0.350   0.385  0.2744  0.7015 -0.4969
  329TMC3    O1 5001   3.732   4.583   0.258 -0.4212  0.0624 -0.3110
  329TMC3    O2 5002   4.136   0.402   0.360 -0.6396 -0.4362  0.1950
  330TMC3    C1 5003   1.738   4.728   9.383 -1.2119 -0.4006  0.3877
  330TMC3    C2 5004   1.645   4.623   9.387  0.1348 -0.1338 -0.5162
  330TMC3    C3 5005   1.662   4.525   9.483 -0.0926  0.4446 -0.1030
  330TMC3    C4 5006   1.846   4.729   9.467 -0.0463 -0.7229 -0.1458
  330TMC3    C5 5007   1.860   4.634   9.566 -0.6144  0.3204  0.5312
  330TMC3    C6 5008   1.772   4.524   9.569  0.4477  0.9002 -0.0904
  330TMC3     C 5009   1.737   0.076   9.269  1.0326  0.5717 -0.4847
  330TMC3     O 5010   1.841   0.122   9.222  0.4235  0.0323 -0.2356
  330TMC3     H 5011   1.576   4.608   9.305 -1.0943  0.5271  0.3839
  330TMC3    H1 5012   1.918   0.072   9.460 -0.1730 -0.4075  2.3079
  330TMC3    H2 5013   1.792   4.441   9.636 -2.0814  0.4624  0.1340
  330TMC3    C7 5014   1.934   4.679   9.684  0.0514 -0.3165 -0.4070
  330TMC3    C8 5015   1.571   4.410   9.470 -0.2152  0.6630 -0.0196
  330TMC3    O1 5016   1.982   0.050   9.683 -0.0299 -0.1227 -0.5263
  330TMC3    O2 5017   1.509   4.399   9.364 -0.2078  0.4992 -0.1379
  331MPD2     C 5018   0.642   4.004  12.678  0.4257  0.0602 -0.2790
  331MPD2    C1 5019   0.608   4.059  12.556  0.9077 -0.2156  0.0137
  331MPD2    C2 5020   0.484   4.032  12.503 -0.6631  0.3001  0.2842
  331MPD2    C3 5021   0.402   3.941  12.562  0.5613  0.5014 -0.0095
  331MPD2    C4 5022   0.446   3.885  12.682  0.2395 -0.5199 -0.0882
  331MPD2    C5 5023   0.556   3.924  12.749  0.5326 -0.2855 -0.3926
  331MPD2     H 5024   0.460   4.081  12.410  0.7842  1.4734  0.5294
  331MPD2    H1 5025   0.384   3.810  12.730 -2.1326  0.8689 -0.9719
  331MPD2    H2 5026   0.736   4.032  12.724  0.4737  1.2515 -1.1014
  331MPD2    H3 5027   0.581   3.872  12.841  1.7748 -1.0776 -1.1702
  331MPD2     N 5028   0.285   3.910  12.497 -0.7924 -0.0795 -0.2139
  331MPD2    H5 5029   0.271   3.967  12.414  2.2896  0.4831 -0.3507
  331MPD2    N1 5030   0.691   4.157  12.495 -0.4647 -0.7047 -0.0237
  331MPD2    H7 5031   0.784   4.173  12.534 -1.5737  0.2601  2.2621
  332TMC3    C1 5032   0.152   3.764  12.385 -0.2465 -0.0412 -0.1603
  332TMC3    C2 5033   0.188   3.834  12.268  0.5185 -0.1374  0.4059
  332TMC3    C3 5034   0.149   3.781  12.151 -0.5397  0.1075  0.0007
  332TMC3    C4 5035   0.084   3.642  12.381 -0.2492  0.2051 -0.3886
  332TMC3    C5 5036   0.058   3.591  12.258  0.4579  0.2354  0.5326
  332TMC3    C6 5037   0.098   3.655  12.144  0.2126 -0.1505  0.2671
  332TMC3     C 5038   0.220   3.790  12.506 -0.0898 -0.5182  0.3759
  332TMC3     O 5039   0.242   3.700  12.582  0.3855 -0.1030 -0.9062
  332TMC3     H 5040   0.243   3.928  12.265  0.5973 -0.1834  0.4216
  332TMC3    H1 5041   0.056   3.589  12.471 -1.5514  0.2278 -0.7885
  332TMC3    H2 5042   0.090   3.600  12.051  0.3950  1.1018 -0.4936
  332TMC3    C7 5043   0.072   3.449  12.253  0.1817  0.0606 -0.1798
  332TMC3    C8 5044   0.201   3.838  12.034 -0.0435  0.9392 -0.0222
  332TMC3    O1 5045   4.712   3.385  12.287 -0.5505  0.1849  0.2292
  332TMC3    O2 5046   0.309   3.901  12.038 -0.3358  0.2331  0.3275
  333MPD2     C 5047   4.440   3.369  10.795  0.9538 -0.1555  0.6046
  333MPD2    C1 5048   4.544   3.281  10.782 -0.1000  0.2330 -0.2537
  333MPD2    C2 5049   4.546   3.168  10.865  0.5391  0.2473 -0.1230
  333MPD2    C3 5050   4.450   3.145  10.961  0.2622 -0.4691 -0.9877
  333MPD2    C4 5051   4.352   3.239  10.983  0.7540 -0.4906 -0.0856
  333MPD2    C5 5052   4.347   3.341  10.896  1.0750  0.3129 -0.0970
  333MPD2     H 5053   4.619   3.090  10.846  1.2281  1.0114 -0.6588
  333MPD2    H1 5054   4.279   3.231  11.062 -2.1209  1.9522 -2.5209
  333MPD2    H2 5055   4.426   3.452  10.727 -0.2657 -0.1789  0.8209
  333MPD2    H3 5056   4.268   3.412  10.919  0.0846 -1.1985  1.2653
  333MPD2     N 5057   4.461   3.022  11.027  0.2756 -0.7892  0.0859
  333MPD2    H5 5058   4.551   2.975  11.021  0.5052 -0.1727 -1.1784
  333MPD2    N1 5059   4.643   3.317  10.677  0.5271  0.6441  0.5393
  333MPD2    H7 5060   4.616   3.388  10.610 -1.3658 -0.5612  0.0415
  334TMC3    C1 5061   0.090   3.285  10.537 -0.6843 -0.6201  0.1372
  334TMC3    C2 5062   0.185   3.195  10.499 -0.0726 -0.4723  0.0145
  334TMC3    C3 5063   0.285   3.244  10.422 -0.1393  0.2068  0.4190
  334TMC3    C4 5064   0.085   3.414  10.497 -0.2751 -0.5825  0.4186
  334TMC3    C5 5065   0.177   3.454  10.409  0.4667  0.0556  0.2155
  334TMC3    C6 5066   0.285   3.377  10.382  0.3449 -0.0777 -0.4467
  334TMC3     C 5067   0.025   3.253  10.664 -0.1071 -0.0720 -0.2272
  334TMC3     O 5068   0.074   3.165  10.731  0.1934 -0.2019 -0.4133
  334TMC3     H 5069   0.180   3.088  10.509  0.2119 -0.4195  0.7388
  334TMC3    H1 5070   0.000   3.477  10.522  0.6173  0.8588 -0.1571
  334TMC3    H2 5071   0.376   3.417  10.338  0.0749  1.6625  0.5794
  334TMC3    C7 5072   0.197   3.593  10.402  0.6173  0.2139 -0.2864
  334TMC3    C8 5073   0.414   3.174  10.447 -0.1745 -0.5825  0.1346
  334TMC3    O1 5074   0.160   3.656  10.501 -0.0205  0.3954 -0.5081
  334TMC3    O2 5075   0.406   3.052  10.440  0.2903 -0.2491  0.0152
  335TMC3    C1 5076   0.349   0.583  17.522 -0.2174 -1.2673  0.3859
  335TMC3    C2 5077   0.261   0.514  17.445  0.1345  0.3832  0.1802
  335TMC3    C3 5078   0.283   0.501  17.312  0.2089  0.1626 -0.3509
  335TMC3    C4 5079   0.466   0.628  17.467  0.2916  0.0446 -0.1484
  335TMC3    C5 5080   0.487   0.606  17.331  0.1014  0.2391  0.1527
  335TMC3    C6 5081   0.399   0.546  17.251  0.3995 -0.0485 -0.1788
  335TMC3     C 5082   0.336   0.582  17.668 -0.2073  0.2954  0.0251
  335TMC3     O 5083   0.277   0.483  17.713 -0.6268 -0.1347 -0.2235
  335TMC3     H 5084   0.170   0.478  17.491  0.1833 -0.2538 -0.2231
  335TMC3    H1 5085   0.553   0.642  17.530  0.7149  1.3667 -1.0303
  335TMC3    H2 5086   0.426   0.531  17.147 -0.6314 -0.9862 -0.3082
  335TMC3    C7 5087   0.604   0.673  17.274 -0.6335  0.6115 -0.3677
  335TMC3    C8 5088   0.184   0.458  17.212 -0.0317 -0.5305  0.8686
  335TMC3    O1 5089   0.649   0.623  17.172  0.8035  0.3726  0.7110
  335TMC3    O2 5090   0.208   0.505  17.104 -0.0275 -0.0666  0.0436
  336MPD2     C 5091   4.320   2.976  16.132 -0.7263  0.3897  1.2356
  336MPD2    C1 5092   4.302   2.957  15.999 -0.5565 -0.3107 -0.0010
  336MPD2    C2 5093   4.313   2.833  15.940 -0.0076  1.5770  0.5402
  336MPD2    C3 5094   4.331   2.722  16.020  0.0333  0.2433  0.0838
  336MPD2    C4 5095   4.342   2.736  16.156  0.0362 -0.5940 -0.1382
  336MPD2    C5 5096   4.339   2.863  16.209 -0.0191  0.2819 -0.8772
  336MPD2     H 5097   4.292   2.816  15.835 -1.2641 -0.4446  1.1345
  336MPD2    H1 5098   4.374   2.648  16.211 -0.1814 -0.0965  0.7611
  336MPD2    H2 5099   4.329   3.069  16.186 -3.3789  1.6073 -0.3712
  336MPD2    H3 5100   4.357   2.865  16.316 -0.5106  0.5899 -0.8017
  336MPD2     N 5101   4.348   2.593  15.975 -0.4607 -0.4147  0.1039
  336MPD2    H5 5102   4.350   2.520  16.045  0.1853  1.7445  2.3471
  336MPD2    N1 5103   4.235   3.063  15.926 -0.4416 -0.1380  0.3044
  336MPD2    H7 5104   4.216   3.041  15.829  1.3232  2.3147 -0.5960
  337TMC3    C1 5105   4.121   3.255  15.876  0.2551 -0.2571 -0.1840
  337TMC3    C2 5106   3.992   3.289  15.885 -0.4019 -0.0435 -0.8913
  337TMC3    C3 5107   3.929   3.355  15.781  0.7292 -0.3854  0.4306
  337TMC3    C4 5108   4.199   3.308  15.776 -0.3078 -0.0471 -0.0153
  337TMC3    C5 5109   4.134   3.388  15.683  0.4485  0.9723  0.5646
  337TMC3    C6 5110   4.000   3.402  15.673 -0.0793  0.3925  0.5791
  337TMC3     C 5111   4.188   3.179  15.976 -0.0466  0.0703  0.2402
  337TMC3     O 5112   4.171   3.218  16.092  0.1895 -0.0344 -0.0038
  337TMC3     H 5113   3.939   3.248  15.970 -1.9819  2.7510 -0.5391
  337TMC3    H1 5114   4.306   3.288  15.777 -0.7532 -2.3205  0.3296
  337TMC3    H2 5115   3.961   3.476  15.604  1.1851  0.3105 -0.2107
  337TMC3    C7 5116   4.207   3.492  15.617 -0.1896  0.0838 -0.3562
  337TMC3    C8 5117   3.790   3.387  15.785  0.6761 -0.1000  0.1062
  337TMC3    O1 5118   4.165   3.532  15.505 -0.0686 -0.2043 -0.7359
  337TMC3    O2 5119   3.724   3.401  15.887 -0.1301  0.2298  0.0027
  338MPD2     C 5120   4.433   1.793   0.446  0.2850 -0.2168 -0.4480
  338MPD2    C1 5121   4.506   1.908   0.461 -0.7812 -0.7750  0.1077
  338MPD2    C2 5122   4.438   2.030   0.463  0.3274 -0.2930  0.3986
  338MPD2    C3 5123   4.294   2.044   0.442  0.1009  0.1994  0.1626
  338MPD2    C4 5124   4.227   1.927   0.422 -0.8622 -0.1475  0.2117
  338MPD2    C5 5125   4.299   1.810   0.418 -0.0440 -0.0795 -0.1072
  338MPD2     H 5126   4.489   2.126   0.464 -0.4655  0.1217  0.8597
  338MPD2    H1 5127   4.119   1.923   0.415 -1.0290  1.2000  1.9343
  338MPD2    H2 5128   4.474   1.694   0.465  0.1518  0.0092  1.0538
  338MPD2    H3 5129   4.245   1.717   0.405  2.5141 -1.4371 -1.0605
  338MPD2     N 5130   4.233   2.171   0.438  1.0034 -0.1299  0.4041
  338MPD2    H5 5131   4.295   2.247   0.461 -2.3985  3.0628 -1.0514
  338MPD2    N1 5132   4.645   1.911   0.477 -0.0420  0.8125  0.3898
  338MPD2    H7 5133   4.694   2.000   0.468 -1.0700  1.0500 -2.8237
  339TMC3    C1 5134   4.059   2.327   0.431  0.6005 -0.1897 -0.4216
  339TMC3    C2 5135   3.937   2.345   0.485  0.1901 -0.5853  0.7060
  339TMC3    C3 5136   3.893   2.467   0.513 -0.1559  0.2429 -0.2170
  339TMC3    C4 5137   4.146   2.432   0.432  0.1375  0.5459  0.2320
  339TMC3    C5 5138   4.103   2.557   0.459 -0.6213  0.0751  0.2121
  339TMC3    C6 5139   3.973   2.578   0.495 -0.0651  0.1511 -0.8428
  339TMC3     C 5140   4.097   2.192   0.411 -0.1760 -0.5470 -0.1742
  339TMC3     O 5141   4.003   2.115   0.392  0.3917  0.3545  0.0261
  339TMC3     H 5142   3.882   2.254   0.505 -0.3878 -0.3373  0.2652
  339TMC3    H1 5143   4.248   2.411   0.401 -0.4196  1.0282 -1.9127
  339TMC3    H2 5144   3.946   2.667   0.551 -0.0119 -0.9717  0.9626
  339TMC3    C7 5145   4.185   2.677   0.446  0.7213 -0.6283 -0.0104
  339TMC3    C8 5146   3.781   2.473   0.597  0.1224 -0.2509  0.2646
  339TMC3    O1 5147   4.132   2.785   0.427 -0.0611  0.0583 -0.4063
  339TMC3    O2 5148   3.728   2.585   0.602  0.3698  0.2950 -0.9244
  340MPD2     C 5149   4.679   0.231  10.660  0.9421  0.4546 -0.0323
  340MPD2    C1 5150   4.629   0.118  10.596 -0.1253  0.5537 -0.1577
  340MPD2    C2 5151   4.664   4.734  10.647  0.0212  0.0723 -0.2114
  340MPD2    C3 5152   4.719   4.721  10.769  0.2220 -0.6955  0.8711
  340MPD2    C4 5153   0.027   0.091  10.837 -0.2793 -0.4657 -0.7377
  340MPD2    C5 5154   0.004   0.219  10.782 -0.3454  0.3587  0.8767
  340MPD2     H 5155   4.632   4.640  10.602  1.0056  0.8286 -2.4686
  340MPD2    H1 5156   0.088   0.084  10.926 -1.3738  0.2374  0.0668
  340MPD2    H2 5157   4.657   0.331  10.626 -1.3517 -0.1130 -0.2009
  340MPD2    H3 5158   0.030   0.305  10.842  0.1966  2.2437 -2.1107
  340MPD2     N 5159   0.012   4.590  10.828  0.3242 -0.3583  0.1020
  340MPD2    H5 5160   0.065   4.590  10.915 -0.1317 -3.3915  0.3863
  340MPD2    N1 5161   4.563   0.129  10.472 -0.1766  0.1701  0.4994
  340MPD2    H7 5162   4.535   0.224  10.450 -2.3213 -1.2961 -3.0256
  341TMC3    C1 5163   4.486   0.066  10.253 -0.2703 -0.5456  0.4367
  341TMC3    C2 5164   4.442   4.705  10.172 -0.0493 -0.4455  0.0796
  341TMC3    C3 5165   4.418   4.725  10.039  0.1386 -0.3502  0.1984
  341TMC3    C4 5166   4.504   0.195  10.205 -0.0455  0.3031  0.2918
  341TMC3    C5 5167   4.485   0.211  10.068  0.2416 -0.0470 -0.0521
  341TMC3    C6 5168   4.438   0.111   9.984  0.2158 -0.3264  0.3933
  341TMC3     C 5169   4.518   0.025  10.386 -0.7653 -0.2738  0.1035
  341TMC3     O 5170   4.513   4.641  10.405 -0.0369 -0.2759  0.0147
  341TMC3     H 5171   4.397   4.615  10.213 -0.1853 -1.4177 -2.1856
  341TMC3    H1 5172   4.551   0.267  10.270  3.0037 -0.8144 -0.6606
  341TMC3    H2 5173   4.439   0.133   9.878  2.2575 -0.7534  0.3041
  341TMC3    C7 5174   4.522   0.344  10.014 -1.1312  0.3553  0.2636
  341TMC3    C8 5175   4.437   4.610   9.956 -0.7574  1.2265 -0.0660
  341TMC3    O1 5176   4.563   0.348   9.900  0.5819 -0.3067  0.4105
  341TMC3    O2 5177   4.429   4.633   9.835  0.0835 -0.1917  0.1104
  342MPD2     C 5178   2.710   3.117  17.691  0.3848 -0.4747 -0.0524
  342MPD2    C1 5179   2.725   3.163  17.560  0.2485  0.2292  0.1093
  342MPD2    C2 5180   2.732   3.304  17.544  0.1557 -0.3991 -0.2885
  342MPD2    C3 5181   2.735   3.393  17.655 -0.7972 -0.0789 -0.3480
  342MPD2    C4 5182   2.699   3.338   0.030 -0.8766 -0.0801  0.0021
  342MPD2    C5 5183   2.687   3.205   0.048  0.5430  0.5089  0.6766
  342MPD2     H 5184   2.742   3.342  17.443  2.6492 -1.8272 -0.6010
  342MPD2    H1 5185   2.683   3.403   0.115  1.2574 -2.2711  2.0917
  342MPD2    H2 5186   2.727   3.014  17.718 -0.7708 -0.9880 -1.2707
  342MPD2    H3 5187   2.662   3.166   0.146  0.2498 -1.7334 -0.2864
  342MPD2     N 5188   2.760   3.528  17.650  0.1687  0.6486  0.1058
  342MPD2    H5 5189   2.752   3.581  17.736  1.2705  1.8756 -0.5638
  342MPD2    N1 5190   2.747   3.075  17.449 -0.4893 -0.3330  0.0732
  342MPD2    H7 5191   2.778   3.118  17.362  1.1762  0.8646  1.2609
  343TMC3    C1 5192   2.750   2.891  17.311 -0.2588 -0.0471  0.4191
  343TMC3    C2 5193   2.870   2.929  17.252 -0.0309  0.0359 -0.3342
  343TMC3    C3 5194   2.931   2.843  17.161 -0.0904 -0.1843 -0.2107
  343TMC3    C4 5195   2.685   2.777  17.276  0.0218  0.7375 -0.4037
  343TMC3    C5 5196   2.737   2.697  17.185  0.7263  0.7130  0.0342
  343TMC3    C6 5197   2.863   2.727  17.131 -0.2367  0.2299  0.3340
  343TMC3     C 5198   2.727   2.934  17.444 -0.0288  0.0238  0.1861
  343TMC3     O 5199   2.698   2.855  17.531  0.6889  0.0695  0.2300
  343TMC3     H 5200   2.931   3.012  17.284  0.4664  0.4712 -2.3949
  343TMC3    H1 5201   2.590   2.753  17.323  1.9135 -1.1500  2.4494
  343TMC3    H2 5202   2.919   2.646  17.086 -1.1390  0.3415 -0.9722
  343TMC3    C7 5203   2.660   2.597  17.114 -0.0064 -0.2496 -0.2319
  343TMC3    C8 5204   3.008   2.904  17.051  0.4151  0.9062 -0.4499
  343TMC3    O1 5205   2.720   2.514  17.053 -0.1063 -0.1352  0.6334
  343TMC3    O2 5206   3.020   3.022  17.056  0.3440 -0.0106 -0.2390
  344MPD2     C 5207   3.355   2.962  10.729 -0.5274  0.2452 -0.8034
  344MPD2    C1 5208   3.446   2.877  10.669  0.4063  0.0458 -0.1407
  344MPD2    C2 5209   3.462   2.884  10.532 -0.0092 -0.3338 -0.2260
  344MPD2    C3 5210   3.394   2.976  10.460  0.4793 -0.0823  0.5204
  344MPD2    C4 5211   3.299   3.057  10.518  0.1144 -0.1814  1.3070
  344MPD2    C5 5212   3.289   3.056  10.652 -0.0073  0.8023 -0.3677
  344MPD2     H 5213   3.534   2.815  10.490 -1.2689  1.2564 -5.0118
  344MPD2    H1 5214   3.250   3.136  10.462  1.3542 -0.0422  0.4359
  344MPD2    H2 5215   3.323   2.955  10.833 -1.1140 -0.3903 -1.0304
  344MPD2    H3 5216   3.217   3.123  10.698  0.1815  1.2670 -0.7517
  344MPD2     N 5217   3.400   2.987  10.317 -0.5135 -0.2831 -0.0277
  344MPD2    H5 5218   3.341   3.058  10.275 -1.8141 -1.6111 -0.4617
  344MPD2    N1 5219   3.507   2.776  10.739  0.1584 -0.1756 -0.0587
  344MPD2    H7 5220   3.530   2.699  10.677  1.4306 -0.2001  0.4411
  345TMC3    C1 5221   3.503   2.975  10.102 -0.5715 -0.2178  0.3186
  345TMC3    C2 5222   3.635   2.973  10.055  0.6565 -0.2351 -0.0461
  345TMC3    C3 5223   3.675   3.085   9.986  0.0953 -0.3426  0.6166
  345TMC3    C4 5224   3.410   3.065  10.060  0.4669  0.0879  0.5687
  345TMC3    C5 5225   3.453   3.168   9.977  0.6748 -0.0587 -0.1424
  345TMC3    C6 5226   3.591   3.183   9.943 -0.5757  0.3687 -0.3009
  345TMC3     C 5227   3.489   2.917  10.238  0.3801 -0.2712  0.1758
  345TMC3     O 5228   3.576   2.847  10.283  0.6095 -0.0567  0.2208
  345TMC3     H 5229   3.710   2.912  10.103  0.2693  0.8976  2.0097
  345TMC3    H1 5230   3.305   3.052  10.086  0.2779 -0.4322 -0.4522
  345TMC3    H2 5231   3.620   3.258   9.870 -0.8981  0.6766 -0.1102
  345TMC3    C7 5232   3.344   3.234   9.907 -0.0646  0.4331  0.0354
  345TMC3    C8 5233   3.817   3.103   9.997  0.2828  0.3827  0.3764
  345TMC3    O1 5234   3.253   3.159   9.870  0.5570  0.2279  0.4451
  345TMC3    O2 5235   3.889   3.004   9.995  0.4433 -0.2124 -0.3387
  346MPD2     C 5236   3.530   4.655  14.195 -0.0158  0.1545  0.9146
  346MPD2    C1 5237   3.641   4.646  14.114 -0.1052  0.8654  0.9899
  346MPD2    C2 5238   3.765   4.695  14.156 -0.0127 -0.5071  0.3062
  346MPD2    C3 5239   3.775   0.024  14.274  0.4661 -0.0746  0.3450
  346MPD2    C4 5240   3.664   0.049  14.348 -0.0036  0.2492 -0.1821
  346MPD2    C5 5241   3.547   4.735  14.308 -0.1092 -0.0238 -0.5097
  346MPD2     H 5242   3.861   4.680  14.108  1.2147  1.4586  2.1496
  346MPD2    H1 5243   3.659   0.105  14.441 -2.3538  0.2948 -0.3457
  346MPD2    H2 5244   3.433   4.622  14.159 -0.3180 -0.4614  2.2824
  346MPD2    H3 5245   3.456   0.009  14.366  0.9279  0.4291  1.0079
  346MPD2     N 5246   3.903   0.083  14.305 -0.9894  0.8223  0.3022
  346MPD2    H5 5247   3.974   0.076  14.233 -1.8505  1.1740 -0.5868
  346MPD2    N1 5248   3.631   4.601  13.980  0.1266 -0.9728  0.4830
  346MPD2    H7 5249   3.715   4.590  13.925  0.8422 -3.1730  2.0276
  347TMC3    C1 5250   4.059   0.227  14.403 -0.5231 -0.1868 -0.2027
  347TMC3    C2 5251   4.166   0.162  14.347  0.4330  0.0153  0.2793
  347TMC3    C3 5252   4.284   0.225  14.348  0.6108  0.2159  0.4537
  347TMC3    C4 5253   4.078   0.347  14.476  0.4658 -0.0210  0.7059
  347TMC3    C5 5254   4.203   0.401  14.478 -0.0395 -0.1806  0.2576
  347TMC3    C6 5255   4.313   0.340  14.417 -0.4428  0.5789  0.2189
  347TMC3     C 5256   3.924   0.177  14.396  0.7481  0.6331 -0.3117
  347TMC3     O 5257   3.842   0.230  14.471  0.0831  0.1792  0.0234
  347TMC3     H 5258   4.150   0.074  14.286  0.6680 -0.9148  1.5687
  347TMC3    H1 5259   3.997   0.392  14.532  0.0189  0.2691 -0.1790
  347TMC3    H2 5260   4.412   0.383  14.420 -0.0543 -0.2699 -0.3952
  347TMC3    C7 5261   4.221   0.523  14.543 -0.1506 -0.3775  0.0085
  347TMC3    C8 5262   4.399   0.154  14.286 -0.3015  0.5291  0.4261
  347TMC3    O1 5263   4.144   0.547  14.640  0.5203 -0.1104 -0.0325
  347TMC3    O2 5264   4.381   0.033  14.268  0.3068  0.3565  0.6544
  348MPD2     C 5265   2.281   4.610  11.831 -0.0178 -0.0279 -0.3200
  348MPD2    C1 5266   2.345   4.577  11.713 -0.0408 -1.0866 -0.3941
  348MPD2    C2 5267   2.295   4.642  11.595  0.4477  0.0564 -0.1769
  348MPD2    C3 5268   2.188   4.727  11.601 -0.3461 -0.3942  0.3943
  348MPD2    C4 5269   2.119   0.011  11.719 -0.1717 -0.8897  0.1764
  348MPD2    C5 5270   2.167   4.683  11.831  0.8965 -0.2317 -0.6791
  348MPD2     H 5271   2.352   4.638  11.502 -1.7391  1.3115 -1.5670
  348MPD2    H1 5272   2.033   0.077  11.717  0.6237  0.2726  3.1860
  348MPD2    H2 5273   2.299   4.555  11.923  3.1209 -1.7086 -1.9509
  348MPD2    H3 5274   2.107   4.697  11.920  1.2240 -0.8595 -0.3581
  348MPD2     N 5275   2.156   0.060  11.479  0.4149 -0.4338  0.4240
  348MPD2    H5 5276   2.222   0.060  11.402 -1.9999  0.0841 -1.6416
  348MPD2    N1 5277   2.444   4.476  11.705 -0.2584  0.7218 -0.5291
  348MPD2    H7 5278   2.474   4.454  11.611 -0.5444 -0.9486 -0.2292
  349TMC3    C1 5279   2.529   4.260  11.755 -0.2958  0.0515 -0.5935
  349TMC3    C2 5280   2.552   4.168  11.852  0.0267 -0.2552  0.1693
  349TMC3    C3 5281   2.566   4.041  11.812 -0.5583 -0.6233  0.4095
  349TMC3    C4 5282   2.504   4.229  11.623 -0.1055  0.9262  1.4141
  349TMC3    C5 5283   2.514   4.097  11.590  0.4683  0.7143 -0.6451
  349TMC3    C6 5284   2.552   4.005  11.687  0.1589  0.1714 -0.7231
  349TMC3     C 5285   2.485   4.390  11.809 -0.7129  0.2953  0.0066
  349TMC3     O 5286   2.473   4.404  11.931  0.4007  0.2947 -0.1910
  349TMC3     H 5287   2.575   4.196  11.954  1.8838 -1.2549  0.0246
  349TMC3    H1 5288   2.441   4.297  11.566  2.2404  0.1165 -2.1426
  349TMC3    H2 5289   2.539   3.900  11.663  1.0341 -0.6392  2.4799
  349TMC3    C7 5290   2.409   4.050  11.504 -0.7822 -0.8426 -0.5032
  349TMC3    C8 5291   2.620   3.940  11.906 -0.2268  0.1783  0.7656
  349TMC3    O1 5292   2.314   3.990  11.555 -0.0081  0.4032 -0.4917
  349TMC3    O2 5293   2.623   3.962  12.023 -0.7706 -0.2799 -0.4452
  350MPD2     C 5294   1.173   2.300  10.448  0.3064  0.2518 -0.5445
  350MPD2    C1 5295   1.224   2.187  10.381  0.6608 -0.0248  0.6828
  350MPD2    C2 5296   1.359   2.163  10.380 -0.0810  0.5268  0.1571
  350MPD2    C3 5297   1.447   2.252  10.435  0.3583 -0.0700 -0.0519
  350MPD2    C4 5298   1.394   2.375  10.493 -0.0479 -0.2075  0.0240
  350MPD2    C5 5299   1.262   2.394  10.507 -0.4328 -0.3944 -0.1008
  350MPD2     H 5300   1.396   2.078  10.324  2.5267  1.1986  0.8674
  350MPD2    H1 5301   1.462   2.452  10.530  0.8772 -1.7422  1.5595
  350MPD2    H2 5302   1.067   2.321  10.449  0.3100  0.1164  2.0285
  350MPD2    H3 5303   1.229   2.487  10.551  0.4848  0.2538 -0.7759
  350MPD2     N 5304   1.586   2.227  10.432 -0.3030  0.3419 -0.0449
  350MPD2    H5 5305   1.606   2.149  10.371  1.3384 -0.6462  1.7972
  350MPD2    N1 5306   1.139   2.088  10.330  0.4087  0.7969  0.1897
  350MPD2    H7 5307   1.190   2.001  10.313  1.1171  1.4303 -0.9062
  351TMC3    C1 5308   0.953   1.965  10.252 -0.4403 -0.2616 -0.1644
  351TMC3    C2 5309   1.026   1.885  10.173 -0.2772 -0.3267  0.0649
  351TMC3    C3 5310   0.972   1.763  10.137 -0.1131  0.3002 -0.1677
  351TMC3    C4 5311   0.820   1.936  10.281 -0.2764  0.2758  0.6764
  351TMC3    C5 5312   0.764   1.819  10.239  0.3869 -0.1634 -0.4269
  351TMC3    C6 5313   0.840   1.729  10.166  0.1549 -0.0581  0.9119
  351TMC3     C 5314   1.008   2.086  10.320  0.3585  0.2020  0.6681
  351TMC3     O 5315   0.929   2.165  10.362  0.3290 -0.4275 -0.4976
  351TMC3     H 5316   1.127   1.910  10.141 -1.0937  2.9541  0.0783
  351TMC3    H1 5317   0.766   1.998  10.351  0.4211 -0.8867  2.2320
  351TMC3    H2 5318   0.799   1.632  10.140 -0.3548  0.2593  0.5166
  351TMC3    C7 5319   0.637   1.778  10.291 -0.2133  0.4101  0.0892
  351TMC3    C8 5320   1.035   1.690  10.029  0.3589  0.2937  0.4459
  351TMC3    O1 5321   0.594   1.825  10.394  0.6553  0.0248  0.1248
  351TMC3    O2 5322   0.966   1.595   9.995 -0.0659 -0.5488 -0.7437
  352MPD2     C 5323   0.902   4.042   1.022  0.6417 -0.3244 -0.4619
  352MPD2    C1 5324   0.771   4.037   0.986 -0.2743  0.2434  0.6031
  352MPD2    C2 5325   0.723   3.948   0.893  0.1374  0.3624 -0.4409
  352MPD2    C3 5326   0.812   3.866   0.819 -0.4608 -0.0870 -0.2707
  352MPD2    C4 5327   0.941   3.884   0.850  0.3879  0.3395 -0.3399
  352MPD2    C5 5328   0.989   3.968   0.947  0.0985 -0.1310 -0.3381
  352MPD2     H 5329   0.620   3.946   0.860  0.6384 -2.2035 -1.9035
  352MPD2    H1 5330   1.024   3.839   0.796  0.4088 -0.6917  0.5465
  352MPD2    H2 5331   0.933   4.105   1.104 -1.7769 -0.6237  0.6824
  352MPD2    H3 5332   1.096   3.973   0.968 -0.1879  1.7110  0.7938
  352MPD2     N 5333   0.780   3.768   0.723 -0.0873 -0.1765 -0.1141
  352MPD2    H5 5334   0.847   3.717   0.666  1.1473  0.8599  0.4131
  352MPD2    N1 5335   0.684   4.136   1.047  0.4486  0.2926  0.0098
  352MPD2    H7 5336   0.718   4.215   1.101 -0.1476  2.4347 -2.7270
  353TMC3    C1 5337   0.656   3.647   0.568 -0.3228 -0.5525 -0.4215
  353TMC3    C2 5338   0.715   3.529   0.595  0.0853 -0.4477  0.0863
  353TMC3    C3 5339   0.657   3.411   0.548  0.2487  0.3526  1.1161
  353TMC3    C4 5340   0.533   3.653   0.507 -0.3839 -0.3527  0.4870
  353TMC3    C5 5341   0.471   3.536   0.481 -0.8933 -0.2373 -0.2055
  353TMC3    C6 5342   0.533   3.411   0.496  1.0371 -0.0498  0.4650
  353TMC3     C 5343   0.653   3.747   0.672  0.6492 -0.4377  0.1731
  353TMC3     O 5344   0.552   3.811   0.694 -0.1518  0.6771 -0.0111
  353TMC3     H 5345   0.806   3.521   0.654  1.3462  0.9856 -1.6913
  353TMC3    H1 5346   0.491   3.749   0.480 -0.1591 -0.2116  0.6495
  353TMC3    H2 5347   0.487   3.318   0.465 -1.4350  1.4072 -0.2753
  353TMC3    C7 5348   0.331   3.534   0.526 -0.6628 -0.0068  0.0997
  353TMC3    C8 5349   0.722   3.284   0.561 -0.0729 -0.0263  0.5524
  353TMC3    O1 5350   0.265   3.435   0.499  0.4928  0.0728  0.6158
  353TMC3    O2 5351   0.845   3.281   0.568  0.5578 -0.0385 -0.5480
  354TMC3    C1 5352   1.609   0.517  13.345  0.3604 -0.3965  0.1802
  354TMC3    C2 5353   1.590   0.655  13.342 -0.3667 -0.4712 -0.1853
  354TMC3    C3 5354   1.673   0.728  13.256  0.0731  0.3834  0.8097
  354TMC3    C4 5355   1.694   0.447  13.257  0.9700 -0.0463  0.2283
  354TMC3    C5 5356   1.753   0.522  13.160  0.5516  0.2367  1.0275
  354TMC3    C6 5357   1.740   0.660  13.158  0.4096  0.7287  0.0349
  354TMC3     C 5358   1.572   0.441  13.460  0.2078 -0.0051  0.1191
  354TMC3     O 5359   1.478   0.471  13.527  0.1486 -0.7405  0.3414
  354TMC3     H 5360   1.519   0.695  13.413  0.3704 -1.2723  0.9959
  354TMC3    H1 5361   1.681   0.340  13.244 -1.0260  0.0687  1.2526
  354TMC3    H2 5362   1.785   0.726  13.085  0.5294  0.2205 -0.3508
  354TMC3    C7 5363   1.855   0.464  13.079  0.2495 -0.0672  0.9465
  354TMC3    C8 5364   1.664   0.875  13.238  0.1521  0.4905  0.4070
  354TMC3    O1 5365   1.831   0.347  13.044  0.2769  0.3104 -0.5052
  354TMC3    O2 5366   1.667   0.913  13.122  0.0986  0.4413 -0.3077
  355MPD2     C 5367   1.659   1.586  12.175  0.2173 -0.5621  0.4094
  355MPD2    C1 5368   1.737   1.684  12.233  0.4762 -0.9248 -0.2176
  355MPD2    C2 5369   1.871   1.659  12.252 -0.7711 -0.2132  0.3546
  355MPD2    C3 5370   1.924   1.550  12.188  1.0647  0.2258 -0.0699
  355MPD2    C4 5371   1.845   1.453  12.128  0.4290  0.5966 -0.1059
  355MPD2    C5 5372   1.711   1.467  12.133  0.0978 -0.1705  0.6738
  355MPD2     H 5373   1.941   1.734  12.290 -1.7084  0.6543  0.3574
  355MPD2    H1 5374   1.893   1.370  12.078 -0.8807 -0.1930 -0.0446
  355MPD2    H2 5375   1.553   1.603  12.159  0.2801  1.1883  1.8598
  355MPD2    H3 5376   1.645   1.397  12.083  1.0563 -0.9124  0.4375
  355MPD2     N 5377   2.064   1.548  12.175  0.5898  0.1599 -0.3504
  355MPD2    H5 5378   2.113   1.619  12.228  0.3290 -0.3121  0.5227
  355MPD2    N1 5379   1.676   1.814  12.253 -0.0596 -0.3673  0.2924
  355MPD2    H7 5380   1.576   1.815  12.237 -0.3424  0.8440  2.0961
  356TMC3    C1 5381   2.266   1.514  12.077  0.1672 -0.1946 -0.5417
  356TMC3    C2 5382   2.309   1.556  11.951 -0.1561 -0.4375  0.3528
  356TMC3    C3 5383   2.415   1.640  11.944 -0.1431 -0.3579  0.4196
  356TMC3    C4 5384   2.327   1.564  12.189 -0.4909 -0.2981  0.8621
  356TMC3    C5 5385   2.432   1.649  12.177 -0.0929  0.1631 -0.1736
  356TMC3    C6 5386   2.491   1.674  12.050  0.8839  0.1158 -0.1266
  356TMC3     C 5387   2.130   1.474  12.077 -0.5769  0.9961  0.4636
  356TMC3     O 5388   2.092   1.424  11.973  0.1210 -0.5395  0.2795
  356TMC3     H 5389   2.266   1.518  11.859 -1.1650  1.4773  0.0415
  356TMC3    H1 5390   2.283   1.539  12.285 -0.7513  0.9466  1.0714
  356TMC3    H2 5391   2.578   1.738  12.042 -0.4905  1.9116 -0.5427
  356TMC3    C7 5392   2.499   1.683  12.305  0.6053  0.0881  0.0300
  356TMC3    C8 5393   2.451   1.698  11.816 -0.8220  0.2724 -0.6202
  356TMC3    O1 5394   2.467   1.621  12.403 -0.6512  0.2450 -0.3584
  356TMC3    O2 5395   2.401   1.637  11.728 -0.4192  0.7933  0.1549
  357MPD2     C 5396   1.938   0.917   0.629  0.8239 -0.3294  0.0297
  357MPD2    C1 5397   1.942   0.803   0.711  0.2670  0.2233  0.8143
  357MPD2    C2 5398   1.830   0.786   0.795  0.2762  0.1096  0.2108
  357MPD2    C3 5399   1.725   0.876   0.799  0.6239 -0.3930 -0.0713
  357MPD2    C4 5400   1.728   0.985   0.719 -0.2508  0.3026  0.9835
  357MPD2    C5 5401   1.834   1.007   0.635  0.4764  0.0824  0.0661
  357MPD2     H 5402   1.823   0.691   0.847  2.0106 -0.2021 -0.1290
  357MPD2    H1 5403   1.655   1.062   0.739  0.5174  0.7396  2.0953
  357MPD2    H2 5404   2.011   0.928   0.550  0.3499  2.3808 -0.0077
  357MPD2    H3 5405   1.824   1.086   0.561  2.4645 -0.9623 -1.3257
  357MPD2     N 5406   1.611   0.851   0.884  0.2169  0.8959  0.6050
  357MPD2    H5 5407   1.529   0.911   0.873  0.1749  0.8650  0.7397
  357MPD2    N1 5408   2.054   0.718   0.701 -0.1676 -0.2461 -0.1220
  357MPD2    H7 5409   2.119   0.734   0.625  0.3805  1.3825  0.6873
  358TMC3    C1 5410   2.151   0.509   0.756  0.7936  0.5247  0.1540
  358TMC3    C2 5411   2.134   0.465   0.627 -1.2166 -0.3242 -0.2636
  358TMC3    C3 5412   2.162   0.335   0.595 -0.1870  0.4917  0.2830
  358TMC3    C4 5413   2.178   0.414   0.852  0.3539  0.4382  0.2029
  358TMC3    C5 5414   2.213   0.288   0.815 -1.1409  0.1541 -0.0660
  358TMC3    C6 5415   2.202   0.246   0.685  0.9910 -0.6140  0.5254
  358TMC3     C 5416   2.068   0.620   0.794  0.2767 -0.0311  0.6476
  358TMC3     O 5417   2.028   0.619   0.908  0.3554 -0.0835 -0.0115
  358TMC3     H 5418   2.093   0.535   0.556  2.8736  1.7748 -0.5445
  358TMC3    H1 5419   2.184   0.443   0.956  0.9567  0.9647  0.0223
  358TMC3    H2 5420   2.179   0.141   0.670 -3.4767  0.7665 -1.8952
  358TMC3    C7 5421   2.218   0.187   0.916 -0.4830 -0.4286  0.2108
  358TMC3    C8 5422   2.148   0.300   0.457 -0.0247 -0.5460 -0.1603
  358TMC3    O1 5423   2.194   0.232   1.026  0.2169  0.0382 -0.2923
  358TMC3    O2 5424   2.191   0.373   0.374  0.0579  0.3349  0.4684
  359MPD2     C 5425   2.322   4.509  12.278  0.3028  0.4424  0.4966
  359MPD2    C1 5426   2.227   4.585  12.217  0.6969 -0.2617 -0.1855
  359MPD2    C2 5427   2.109   4.534  12.184 -0.2321  0.0774 -0.1274
  359MPD2    C3 5428   2.076   4.399  12.201 -0.1862 -0.3854  0.2625
  359MPD2    C4 5429   2.167   4.328  12.270 -0.7236  0.2562 -0.1934
  359MPD2    C5 5430   2.282   4.384  12.310  0.4146 -0.7309 -0.2718
  359MPD2     H 5431   2.032   4.592  12.134 -0.0845  1.7270  1.5630
  359MPD2    H1 5432   2.145   4.225  12.294  1.9387 -0.3564 -0.3591
  359MPD2    H2 5433   2.418   4.544  12.313  0.9553 -0.0000 -0.8608
  359MPD2    H3 5434   2.357   4.326  12.364  1.5767  0.1633 -0.9167
  359MPD2     N 5435   1.951   4.343  12.159 -0.0064 -0.3473 -0.4416
  359MPD2    H5 5436   1.928   4.264  12.219  0.2155  0.2935  0.4908
  359MPD2    N1 5437   2.249   4.720  12.177 -0.1579 -0.4827  0.3105
  359MPD2    H7 5438   2.173   0.028  12.129  1.5686 -0.6572 -2.5989
  360TMC3    C1 5439   2.352   0.190  12.158  0.3639  0.1269  0.2616
  360TMC3    C2 5440   2.472   0.261  12.126 -0.1616  0.4234 -0.4976
  360TMC3    C3 5441   2.457   0.389  12.091  0.5405 -0.2341 -0.0411
  360TMC3    C4 5442   2.231   0.245  12.156  0.3505 -0.1799  0.7324
  360TMC3    C5 5443   2.218   0.369  12.102 -0.8020  1.1826 -0.0969
  360TMC3    C6 5444   2.333   0.438  12.065  0.3441 -0.1344  0.0320
  360TMC3     C 5445   2.370   0.048  12.180  0.1065 -0.3051 -0.3487
  360TMC3     O 5446   2.479   4.734  12.171  0.4258  0.6436  0.0762
  360TMC3     H 5447   2.564   0.208  12.149  0.3691  2.2138  1.4769
  360TMC3    H1 5448   2.140   0.197  12.192 -0.2449 -0.7491 -1.5067
  360TMC3    H2 5449   2.318   0.531  12.012  0.6071  0.7654  1.5573
  360TMC3    C7 5450   2.096   0.407  12.037 -0.0618 -0.3315  0.5209
  360TMC3    C8 5451   2.566   0.455  12.016  0.3356 -0.6888 -1.1861
  360TMC3    O1 5452   1.986   0.393  12.090  0.4638  0.0455  0.0842
  360TMC3    O2 5453   2.565   0.576  12.024 -0.1232  0.0653  0.1966
  361MPD2     C 5454   3.988   3.862  16.867  0.6185  0.0801  0.2244
  361MPD2    C1 5455   3.959   3.931  16.979  0.4334 -0.1070  0.0603
  361MPD2    C2 5456   4.011   3.894  17.106  0.3628 -0.7685  0.4363
  361MPD2    C3 5457   4.091   3.785  17.116  0.0096 -0.0958  0.3087
  361MPD2    C4 5458   4.109   3.712  17.002  0.6423  0.0400  0.1091
  361MPD2    C5 5459   4.061   3.749  16.880  0.8987 -0.1174  0.2905
  361MPD2     H 5460   3.991   3.963  17.187  3.3404  2.3360 -1.4895
  361MPD2    H1 5461   4.162   3.618  17.010 -0.3658 -0.2051  3.7528
  361MPD2    H2 5462   3.937   3.882  16.773  1.0375  0.9086  0.1772
  361MPD2    H3 5463   4.063   3.679  16.797  1.4110  0.3582 -0.0999
  361MPD2     N 5464   4.136   3.735  17.243 -0.1855  0.1634 -0.0041
  361MPD2    H5 5465   4.182   3.645  17.238 -1.2852 -0.2686 -2.3275
  361MPD2    N1 5466   3.856   4.029  16.982  0.0764  0.7475 -0.0332
  361MPD2    H7 5467   3.843   4.076  17.071 -2.2695  0.0943 -0.0333
  362TMC3    C1 5468   3.676   4.166  16.905  0.5084  0.4648 -0.4278
  362TMC3    C2 5469   3.610   4.167  17.023 -0.0231 -0.0025  0.8769
  362TMC3    C3 5470   3.502   4.241  17.050  0.1120 -0.2051  0.5189
  362TMC3    C4 5471   3.640   4.251  16.800  0.0477  0.2451  0.1993
  362TMC3    C5 5472   3.535   4.332  16.829  0.3904 -0.3136 -0.0610
  362TMC3    C6 5473   3.461   4.323  16.944 -0.8096  0.2638 -0.4762
  362TMC3     C 5474   3.783   4.078  16.874 -0.2648 -0.1643 -1.1269
  362TMC3     O 5475   3.805   4.059  16.755  0.6508 -1.1678  0.0290
  362TMC3     H 5476   3.644   4.103  17.104  1.7892 -1.6497 -1.1824
  362TMC3    H1 5477   3.701   4.263  16.712  0.2948 -2.3173  0.0247
  362TMC3    H2 5478   3.367   4.377  16.948 -0.8276  0.1621  0.4620
  362TMC3    C7 5479   3.491   4.439  16.748 -0.0015  0.0742  0.0067
  362TMC3    C8 5480   3.401   4.154  17.105 -0.2974  0.8760  0.1687
  362TMC3    O1 5481   3.429   4.530  16.803  0.1358 -0.0688 -1.7216
  362TMC3    O2 5482   3.414   4.033  17.081  0.0990  0.2091  0.1118
  363TMC3    C1 5483   1.266   0.742   9.562  0.1453  0.1030  0.1471
  363TMC3    C2 5484   1.356   0.715   9.459  0.7179 -0.5230 -0.4170
  363TMC3    C3 5485   1.404   0.821   9.389 -0.9651 -0.2999 -0.0031
  363TMC3    C4 5486   1.204   0.864   9.577 -0.4502 -0.6851 -0.1185
  363TMC3    C5 5487   1.253   0.963   9.496 -0.2517  0.9298  0.4950
  363TMC3    C6 5488   1.351   0.945   9.399 -0.0096  0.2313  0.4701
  363TMC3     C 5489   1.226   0.623   9.645  0.1728 -0.3166  0.2350
  363TMC3     O 5490   1.308   0.534   9.647 -0.0836  0.2832  0.5805
  363TMC3     H 5491   1.415   0.624   9.464 -1.4575 -1.7881  1.8374
  363TMC3    H1 5492   1.124   0.886   9.646 -0.6030 -0.7844 -0.2627
  363TMC3    H2 5493   1.404   1.022   9.344 -0.2000 -1.8815 -2.6829
  363TMC3    C7 5494   1.214   1.102   9.520  0.1613  0.3540 -0.4186
  363TMC3    C8 5495   1.533   0.803   9.330 -0.3132 -0.0264  0.2138
  363TMC3    O1 5496   1.118   1.115   9.595  0.1344  0.3369 -0.3253
  363TMC3    O2 5497   1.604   0.716   9.382  0.2260  0.3470 -0.0069
  364MPD2     C 5498   0.346   1.327  10.742  0.5987 -0.2250  0.4866
  364MPD2    C1 5499   0.477   1.281  10.730 -0.5173  0.1530  0.2894
  364MPD2    C2 5500   0.513   1.158  10.783 -0.7432  0.3231 -0.2318
  364MPD2    C3 5501   0.428   1.086  10.864 -0.3401  0.4596  0.1673
  364MPD2    C4 5502   0.297   1.135  10.875  0.3010  0.5824  0.5963
  364MPD2    C5 5503   0.257   1.249  10.809  0.5638  0.2972 -0.4639
  364MPD2     H 5504   0.617   1.136  10.764 -0.3006  0.4887  1.9599
  364MPD2    H1 5505   0.219   1.084  10.931 -1.1036  1.0998 -0.8742
  364MPD2    H2 5506   0.310   1.425  10.713  2.8357  0.2843 -0.5940
  364MPD2    H3 5507   0.153   1.275  10.822 -0.0379 -2.2916 -0.0716
  364MPD2     N 5508   0.473   0.978  10.941  0.1441 -0.2336  0.2555
  364MPD2    H5 5509   0.568   0.949  10.925  0.9719  1.5337  1.8490
  364MPD2    N1 5510   0.569   1.365  10.655 -0.0471 -0.2175 -0.8608
  364MPD2    H7 5511   0.532   1.458  10.636  1.4782  0.5988  0.0905
  365TMC3    C1 5512   0.749   1.449  10.529  0.1490 -0.1848  0.8362
  365TMC3    C2 5513   0.871   1.428  10.475  0.4082 -0.8733 -0.4818
  365TMC3    C3 5514   0.952   1.540  10.455  0.4548  0.5067 -0.6118
  365TMC3    C4 5515   0.710   1.575  10.578  0.1716 -0.6572 -0.5639
  365TMC3    C5 5516   0.798   1.680  10.564  0.9514 -0.3610  0.0786
  365TMC3    C6 5517   0.918   1.670  10.499 -0.3334  0.4951  0.3320
  365TMC3     C 5518   0.695   1.338  10.602  0.2072  0.0660 -0.2812
  365TMC3     O 5519   0.768   1.242  10.614 -0.4832  0.4955 -0.1359
  365TMC3     H 5520   0.886   1.334  10.423 -0.8873 -1.6638  0.5884
  365TMC3    H1 5521   0.614   1.591  10.626  0.7854 -0.7465  0.7102
  365TMC3    H2 5522   0.973   1.759  10.473  0.6275 -0.5053 -1.0585
  365TMC3    C7 5523   0.807   1.779  10.667  0.5694 -0.4418 -0.4461
  365TMC3    C8 5524   1.079   1.521  10.391  0.5437 -0.8243 -0.2596
  365TMC3    O1 5525   0.849   1.887  10.638 -0.3048  0.4438 -0.1464
  365TMC3    O2 5526   1.150   1.614  10.358  0.1009  0.4022  0.1542
  366MPD2     C 5527   4.164   2.204  15.487 -0.1278 -0.2979 -0.4877
  366MPD2    C1 5528   4.187   2.209  15.351  0.3892 -0.6707 -0.4336
  366MPD2    C2 5529   4.180   2.085  15.287  0.1007 -0.1116 -0.4485
  366MPD2    C3 5530   4.161   1.966  15.348  0.1990  0.4163  0.0807
  366MPD2    C4 5531   4.131   1.966  15.482  0.6010 -0.4698 -0.9460
  366MPD2    C5 5532   4.131   2.085  15.545  0.0651 -0.1798  0.0904
  366MPD2     H 5533   4.204   2.085  15.181  0.8811 -0.3212 -0.2665
  366MPD2    H1 5534   4.100   1.878  15.538 -1.4403 -0.7653 -2.5374
  366MPD2    H2 5535   4.178   2.290  15.551 -0.3268 -0.7132  0.1156
  366MPD2    H3 5536   4.106   2.087  15.651  0.0265  3.8907 -0.0064
  366MPD2     N 5537   4.164   1.848  15.270 -0.0091  0.4630 -0.5552
  366MPD2    H5 5538   4.184   1.859  15.171  1.4683 -0.5523 -0.3828
  366MPD2    N1 5539   4.214   2.321  15.273 -0.1431 -0.2422 -1.0050
  366MPD2    H7 5540   4.201   2.312  15.173 -0.2130 -0.5106 -0.9719
  367TMC3    C1 5541   4.272   2.536  15.220 -0.6629 -0.0082  0.2032
  367TMC3    C2 5542   4.375   2.622  15.257  0.2973 -0.4857  0.7772
  367TMC3    C3 5543   4.358   2.756  15.250  0.3537 -0.3258  0.7321
  367TMC3    C4 5544   4.149   2.576  15.174 -0.2071  0.0726  0.1862
  367TMC3    C5 5545   4.137   2.711  15.169 -0.0145 -0.2030 -0.3544
  367TMC3    C6 5546   4.233   2.801  15.215  0.1103  0.2229 -0.3291
  367TMC3     C 5547   4.258   2.440  15.319 -0.4545 -0.9876  0.2669
  367TMC3     O 5548   4.302   2.469  15.430 -0.1121 -0.1868  0.0151
  367TMC3     H 5549   4.473   2.582  15.279  0.3501  0.1514  1.6986
  367TMC3    H1 5550   4.066   2.508  15.166  0.5482 -0.8372  0.0807
  367TMC3    H2 5551   4.200   2.904  15.228  1.0556  0.4992 -0.0911
  367TMC3    C7 5552   4.026   2.766  15.097 -0.2549  0.2790  0.0182
  367TMC3    C8 5553   4.458   2.835  15.327  0.9929 -0.0994 -1.1957
  367TMC3    O1 5554   3.988   2.877  15.127 -0.0535 -0.6453 -0.0857
  367TMC3    O2 5555   4.570   2.784  15.349  0.5585  0.0498  0.1682
  368MPD2     C 5556   0.581   3.999  13.131  0.1942 -0.1450 -0.4900
  368MPD2    C1 5557   0.575   4.112  13.050  0.3354  0.0232 -0.1913
  368MPD2    C2 5558   0.687   4.198  13.045  0.4532 -0.0709  0.3366
  368MPD2    C3 5559   0.807   4.162  13.107 -0.0384 -0.0800  0.4179
  368MPD2    C4 5560   0.816   4.044  13.179  0.0091  0.2005 -0.5010
  368MPD2    C5 5561   0.698   3.964  13.195 -0.2739 -0.4148  0.3975
  368MPD2     H 5562   0.693   4.281  12.975  0.9760 -0.0380  0.4214
  368MPD2    H1 5563   0.911   4.027  13.230  0.9155  0.3627 -2.1444
  368MPD2    H2 5564   0.493   3.936  13.143 -0.2189  0.4414 -0.4054
  368MPD2    H3 5565   0.696   3.874  13.256  1.5265  0.0140  1.1023
  368MPD2     N 5566   0.927   4.250  13.091  0.0001 -0.3948  0.0277
  368MPD2    H5 5567   1.011   4.221  13.140 -0.9883 -1.6357  0.9721
  368MPD2    N1 5568   0.462   4.128  12.969 -0.6536 -0.3058  0.4279
  368MPD2    H7 5569   0.383   4.066  12.986  0.3300 -1.1389  2.0497
  369TMC3    C1 5570   0.321   4.214  12.797  0.1363  0.0827  0.0088
  369TMC3    C2 5571   0.312   4.303  12.696 -0.5208 -0.1011  0.3153
  369TMC3    C3 5572   0.188   4.338  12.662  0.4104  0.2098 -0.1937
  369TMC3    C4 5573   0.212   4.157  12.857 -0.2655  0.3333 -0.4301
  369TMC3    C5 5574   0.091   4.200  12.817 -0.1389  0.3454  0.1343
  369TMC3    C6 5575   0.077   4.285  12.717 -0.2650 -0.0144 -0.2268
  369TMC3     C 5576   0.449   4.217  12.865  0.0397  0.3041 -0.1544
  369TMC3     O 5577   0.537   4.292  12.823 -0.3702  0.2603 -0.2716
  369TMC3     H 5578   0.390   4.369  12.659 -2.4358  0.6266 -2.4266
  369TMC3    H1 5579   0.220   4.084  12.937 -1.0031  1.2925  0.5070
  369TMC3    H2 5580   4.720   4.308  12.670  0.2105  0.1666 -1.0973
  369TMC3    C7 5581   4.719   4.167  12.907  0.3407 -0.8597 -0.1668
  369TMC3    C8 5582   0.176   4.423  12.546 -0.0500  0.1994  0.8863
  369TMC3    O1 5583   4.716   4.053  12.956  0.0597 -0.1409 -0.1026
  369TMC3    O2 5584   0.273   4.435  12.473  0.1972  0.4258 -0.4712
  370TMC3    C1 5585   0.118   0.127  16.077 -0.2475 -0.4909 -1.3632
  370TMC3    C2 5586   0.072   0.097  16.200 -0.6076 -0.3494  0.4873
  370TMC3    C3 5587   4.727   4.725  16.214  0.1596  0.0322  0.1577
  370TMC3    C4 5588   0.093   0.058  15.964 -0.1062 -0.2551 -0.2355
  370TMC3    C5 5589   0.034   4.670  15.986 -0.3463 -0.3708 -0.4163
  370TMC3    C6 5590   4.714   4.633  16.102 -0.3965 -0.0729 -0.3005
  370TMC3     C 5591   0.215   0.232  16.048 -0.0102  0.3477  0.2443
  370TMC3     O 5592   0.244   0.258  15.933 -0.6634  0.4227 -0.0105
  370TMC3     H 5593   0.096   0.169  16.279 -1.1966 -1.3943  1.6162
  370TMC3    H1 5594   0.121   0.088  15.864  2.7545  1.1935  1.0018
  370TMC3    H2 5595   4.667   4.535  16.109 -1.0735  0.1897 -1.2913
  370TMC3    C7 5596   0.070   4.565  15.889  0.8156 -0.1829 -0.3434
  370TMC3    C8 5597   4.686   4.671  16.344  0.6750  0.1429  0.0272
  370TMC3    O1 5598   0.158   4.593  15.808  0.4642  0.0395  1.3667
  370TMC3    O2 5599   4.633   4.559  16.345 -0.1880 -0.5651  0.2192
  371TMC3    C1 5600   1.408   3.138  15.736  0.1973 -0.8829  0.3358
  371TMC3    C2 5601   1.279   3.109  15.782 -0.0724  0.9290  0.2230
  371TMC3    C3 5602   1.206   3.209  15.847  0.1034 -0.5794  0.6083
  371TMC3    C4 5603   1.470   3.255  15.758 -0.2634 -0.5849  0.0079
  371TMC3    C5 5604   1.392   3.360  15.806 -0.3611  0.5901 -0.4786
  371TMC3    C6 5605   1.257   3.340  15.845 -0.3194  0.2749  0.2843
  371TMC3     C 5606   1.477   3.042  15.650  0.1339 -0.1083 -0.2079
  371TMC3     O 5607   1.568   3.083  15.574 -0.1721  0.7898  0.0967
  371TMC3     H 5608   1.230   3.016  15.757 -0.1962  1.3385 -1.0388
  371TMC3    H1 5609   1.559   3.278  15.702 -0.2015 -2.5286 -0.7017
  371TMC3    H2 5610   1.209   3.432  15.877  1.0581  1.5219 -1.2773
  371TMC3    C7 5611   1.445   3.492  15.771 -0.3034  0.2637  0.5370
  371TMC3    C8 5612   1.062   3.191  15.853 -0.3690  0.7672 -0.1120
  371TMC3    O1 5613   1.565   3.504  15.753  0.6028 -0.0401  0.2135
  371TMC3    O2 5614   1.013   3.081  15.833 -0.4380 -0.3113 -0.2680
  372MPD2     C 5615   0.400   4.637  13.201 -0.0647 -0.0099  0.0199
  372MPD2    C1 5616   0.519   4.580  13.210  0.4324  0.2900 -0.0687
  372MPD2    C2 5617   0.523   4.453  13.277  0.3993  0.4023  0.0686
  372MPD2    C3 5618   0.415   4.387  13.315  0.2911  0.0358  0.2423
  372MPD2    C4 5619   0.293   4.454  13.292  0.3743 -0.3011  0.2438
  372MPD2    C5 5620   0.283   4.572  13.233  0.2534  0.1164  0.5247
  372MPD2     H 5621   0.621   4.411  13.297 -0.3673 -0.6053  1.6341
  372MPD2    H1 5622   0.196   4.407  13.304 -0.3877  0.9572 -1.1102
  372MPD2    H2 5623   0.396   0.004  13.173  2.8127 -0.2951 -1.4636
  372MPD2    H3 5624   0.185   4.617  13.231  0.1131 -0.1211  2.0829
  372MPD2     N 5625   0.417   4.266  13.392  0.5204 -0.0620  0.1901
  372MPD2    H5 5626   0.509   4.237  13.427  1.3910  1.8742 -0.4854
  372MPD2    N1 5627   0.645   4.644  13.176 -0.2411  0.4835  0.3054
  372MPD2    H7 5628   0.722   4.579  13.192 -1.7502 -1.4402 -0.2774
  373TMC3    C1 5629   0.344   4.051  13.467 -0.1509 -0.5319 -0.0668
  373TMC3    C2 5630   0.412   4.072  13.582 -0.1785  0.0192  0.4520
  373TMC3    C3 5631   0.460   3.959  13.650 -0.9945  0.7359  0.0172
  373TMC3    C4 5632   0.312   3.928  13.422 -0.6001  0.3032  0.0873
  373TMC3    C5 5633   0.365   3.819  13.489 -0.2234 -0.5928 -0.1189
  373TMC3    C6 5634   0.444   3.837  13.598  0.2700  0.4828 -0.1594
  373TMC3     C 5635   0.314   4.172  13.392  0.3466 -0.6305  0.0676
  373TMC3     O 5636   0.223   4.172  13.309  0.3640  0.0215 -0.2567
  373TMC3     H 5637   0.422   4.173  13.621  0.9501 -0.1717  0.6471
  373TMC3    H1 5638   0.255   3.913  13.331 -0.7270 -0.7168  0.3341
  373TMC3    H2 5639   0.487   3.754  13.654  2.0412  0.5185 -1.4714
  373TMC3    C7 5640   0.340   3.685  13.428  1.0252 -0.4958 -0.6295
  373TMC3    C8 5641   0.531   3.979  13.774  0.9842 -0.2209 -0.1445
  373TMC3    O1 5642   0.240   3.671  13.360  0.1474  0.4946 -0.6242
  373TMC3    O2 5643   0.597   4.085  13.781 -0.0422  0.1742  0.3175
  374TMC3    C1 5644   1.089   4.458   9.525  0.6768 -0.4117 -0.4755
  374TMC3    C2 5645   1.172   4.564   9.546 -0.0009 -0.4108  0.3172
  374TMC3    C3 5646   1.233   4.624   9.439  0.4025 -0.3990 -0.2598
  374TMC3    C4 5647   1.081   4.400   9.403  0.0096  0.9252 -0.0921
  374TMC3    C5 5648   1.161   4.451   9.294  0.9082  0.1324  0.1702
  374TMC3    C6 5649   1.234   4.569   9.310  0.4318  0.6981  0.9456
  374TMC3     C 5650   0.999   4.406   9.626 -0.3601 -0.4240 -0.7641
  374TMC3     O 5651   0.906   4.332   9.583 -0.3147 -0.3987 -0.4730
  374TMC3     H 5652   1.146   4.629   9.629 -0.3649  0.7655 -0.7176
  374TMC3    H1 5653   1.013   4.320   9.374 -0.2526  0.6368  1.3456
  374TMC3    H2 5654   1.269   4.620   9.221 -0.6372 -1.3605 -0.6709
  374TMC3    C7 5655   1.167   4.376   9.172  0.9093 -0.3749 -0.6761
  374TMC3    C8 5656   1.329   4.726   9.473  0.8003  0.6550  1.0255
  374TMC3    O1 5657   1.127   4.261   9.184 -0.2267 -0.1302 -0.4329
  374TMC3    O2 5658   1.380   0.052   9.381 -0.4823 -0.1677  0.7111
  375MPD2     C 5659   1.576   0.433  17.078  0.0940 -0.1618  0.3261
  375MPD2    C1 5660   1.499   0.442  16.964  1.0179  0.4304  0.4514
  375MPD2    C2 5661   1.481   0.338  16.883 -0.5273 -0.4219 -0.1397
  375MPD2    C3 5662   1.545   0.215  16.906 -0.0721 -0.7512  0.3720
  375MPD2    C4 5663   1.624   0.210  17.020  0.1472 -0.2546 -0.5181
  375MPD2    C5 5664   1.633   0.311  17.110 -0.5831 -0.0342  0.2345
  375MPD2     H 5665   1.418   0.347  16.796 -0.0759 -1.1799 -0.5458
  375MPD2    H1 5666   1.664   0.114  17.051 -0.2803 -0.4635 -0.6117
  375MPD2    H2 5667   1.585   0.514  17.150 -0.4502 -1.1326  1.4942
  375MPD2    H3 5668   1.701   0.307  17.194 -0.8858 -2.7527  0.3485
  375MPD2     N 5669   1.540   0.108  16.809 -0.0531 -0.4104 -0.0304
  375MPD2    H5 5670   1.601   0.032  16.836 -0.4243 -0.0364  1.8339
  375MPD2    N1 5671   1.433   0.561  16.924 -0.0725  0.0781 -0.0751
  375MPD2    H7 5672   1.367   0.561  16.848  0.3878 -0.5662 -0.4726
  376TMC3    C1 5673   1.565   0.011  16.596 -0.4585 -0.2052  0.2911
  376TMC3    C2 5674   1.694   4.716  16.629  0.3113  0.6323  0.1413
  376TMC3    C3 5675   1.768   4.656  16.534  0.5881 -0.2372 -0.1183
  376TMC3    C4 5676   1.516   0.006  16.471  0.0801 -0.5168  0.4115
  376TMC3    C5 5677   1.594   4.685  16.374 -0.6124  0.1630 -1.0752
  376TMC3    C6 5678   1.719   4.633  16.404 -0.0216 -0.2098  0.2180
  376TMC3     C 5679   1.507   0.120  16.679 -0.1179 -0.0248 -0.1683
  376TMC3     O 5680   1.442   0.205  16.618  0.1897 -0.0174 -0.5039
  376TMC3     H 5681   1.737   0.019  16.719 -1.1617  1.8375  0.3066
  376TMC3    H1 5682   1.413   0.036  16.457  0.5331  1.4216  1.2549
  376TMC3    H2 5683   1.797   4.621  16.330 -0.7229  0.8885 -0.6974
  376TMC3    C7 5684   1.587   0.021  16.247  1.0015 -0.8239  0.0481
  376TMC3    C8 5685   1.906   4.682  16.531 -0.2678 -0.2786 -0.1115
  376TMC3    O1 5686   1.537   0.132  16.253  0.8193  0.0692 -0.1948
  376TMC3    O2 5687   1.953   0.044  16.480 -0.2840 -0.4145  0.4435
  377MPD2     C 5688   4.524   4.249  12.339 -0.2155  0.4215  0.4982
  377MPD2    C1 5689   4.436   4.353  12.381 -0.0042 -0.0931 -0.1734
  377MPD2    C2 5690   4.394   4.370  12.516 -0.1995  0.2015 -0.9144
  377MPD2    C3 5691   4.423   4.273  12.609 -0.1993  0.2067  0.6099
  377MPD2    C4 5692   4.512   4.169  12.568  0.8039  0.2661 -0.0259
  377MPD2    C5 5693   4.566   4.160  12.441 -0.6336 -0.1672 -0.4032
  377MPD2     H 5694   4.318   4.447  12.528 -1.9981 -1.9780  1.5629
  377MPD2    H1 5695   4.534   4.092  12.641 -0.0064 -1.3591 -1.4928
  377MPD2    H2 5696   4.562   4.235  12.238  0.7607 -1.7138  1.1709
  377MPD2    H3 5697   4.639   4.082  12.424 -0.3402 -0.0339  0.2445
  377MPD2     N 5698   4.356   4.268  12.730 -0.1510 -0.5608  0.3002
  377MPD2    H5 5699   4.378   4.190  12.790 -0.5262 -1.4763 -0.7481
  377MPD2    N1 5700   4.404   4.444  12.276 -0.4568  0.2162  0.1384
  377MPD2    H7 5701   4.446   4.435  12.184  1.2796  0.1694  0.9447
  378TMC3    C1 5702   4.232   0.064  12.042  0.6231  0.3100 -0.0510
  378TMC3    C2 5703   4.233   4.725  12.153 -0.6804  0.0600  0.5711
  378TMC3    C3 5704   4.344   4.641  12.171  0.1975 -0.2393  0.0216
  378TMC3    C4 5705   4.323   0.044  11.940  0.2998  0.3135  0.3834
  378TMC3    C5 5706   4.415   4.682  11.955  0.0165 -0.2454  0.2615
  378TMC3    C6 5707   4.432   4.616  12.069 -0.1646  0.2536 -0.2586
  378TMC3     C 5708   4.108   0.137  12.024 -0.2553  0.7726  0.4522
  378TMC3     O 5709   4.010   0.098  12.086  0.5004  0.1773 -0.3865
  378TMC3     H 5710   4.160   4.736  12.233 -1.0556 -1.2894  0.4140
  378TMC3    H1 5711   4.308   0.100  11.849  1.5902  0.1287  0.0557
  378TMC3    H2 5712   4.520   4.554  12.084 -0.2814  0.6117  1.9826
  378TMC3    C7 5713   4.507   4.645  11.849 -0.5117 -0.1916  0.1137
  378TMC3    C8 5714   4.338   4.558  12.289  0.1782  0.3379  0.4760
  378TMC3    O1 5715   4.606   4.581  11.880 -0.0629 -0.3206 -0.3467
  378TMC3    O2 5716   4.275   4.601  12.381  0.0550 -0.7202 -0.1813
  379MPD2     C 5717   0.525   2.995  16.124 -0.1793  0.1722 -0.0695
  379MPD2    C1 5718   0.448   2.914  16.207 -0.7955 -0.1481 -0.9779
  379MPD2    C2 5719   0.523   2.842  16.301  0.4435 -0.1911 -0.0579
  379MPD2    C3 5720   0.662   2.852  16.303 -0.4034  0.4819  0.1771
  379MPD2    C4 5721   0.735   2.928  16.219  0.1167  0.5768  0.2409
  379MPD2    C5 5722   0.660   3.000  16.128 -0.0738  1.1331 -0.3202
  379MPD2     H 5723   0.465   2.776  16.364 -0.4346  1.1064  0.4946
  379MPD2    H1 5724   0.844   2.931  16.215  0.0429  2.2217 -0.3551
  379MPD2    H2 5725   0.481   3.055  16.045 -2.7476 -1.5749  0.0364
  379MPD2    H3 5726   0.702   3.071  16.057 -2.5947 -0.0879 -3.0595
  379MPD2     N 5727   0.731   2.768  16.391  0.5721  0.4921  0.9511
  379MPD2    H5 5728   0.827   2.757  16.361  0.2915  0.5886  0.0022
  379MPD2    N1 5729   0.310   2.905  16.190  0.3189  0.2298  0.5232
  379MPD2    H7 5730   0.272   2.952  16.108  0.6458  0.2664  0.3942
  380TMC3    C1 5731   0.095   2.811  16.193  0.1344 -0.1312 -0.7428
  380TMC3    C2 5732   0.047   2.683  16.182  0.9561  0.0893 -0.6941
  380TMC3    C3 5733   4.705   2.656  16.075 -0.1323  0.3186  0.2248
  380TMC3    C4 5734   0.048   2.910  16.111  1.1000 -0.0898 -0.3059
  380TMC3    C5 5735   4.705   2.887  16.003  0.1363 -0.2409 -0.2270
  380TMC3    C6 5736   4.666   2.759  15.988  0.2967  0.0398 -0.6209
  380TMC3     C 5737   0.216   2.827  16.262  0.6602 -0.0626 -0.4912
  380TMC3     O 5738   0.235   2.752  16.355 -0.1898 -0.0176 -0.5546
  380TMC3     H 5739   0.080   2.604  16.248  0.8347  0.5099 -0.1340
  380TMC3    H1 5740   0.079   3.010  16.139  1.4000 -0.4101  0.5106
  380TMC3    H2 5741   4.594   2.718  15.918 -1.0628  0.8055  0.3397
  380TMC3    C7 5742   4.654   3.000  15.926  0.1942 -0.0206  0.2633
  380TMC3    C8 5743   0.007   2.535  15.999  0.4716  0.1670 -0.5261
  380TMC3    O1 5744   4.663   3.116  15.960  0.9777  0.1656 -0.3004
  380TMC3    O2 5745   4.701   2.517  15.884 -0.3613  0.2145  0.6469
  381TMC3    C1 5746   4.549   4.077  16.098 -0.3357  0.3873  0.2196
  381TMC3    C2 5747   4.681   4.107  16.113  0.1849  0.6728  0.4005
  381TMC3    C3 5748   4.714   4.186  16.219  0.0296  0.1507 -0.0403
  381TMC3    C4 5749   4.459   4.111  16.199  0.0220 -0.3979 -0.4912
  381TMC3    C5 5750   4.498   4.183  16.305  0.2869 -0.1205 -0.1701
  381TMC3    C6 5751   4.626   4.226  16.319 -0.4776 -0.5703 -0.7056
  381TMC3     C 5752   4.529   3.948  16.043 -0.5744 -0.2938  0.0302
  381TMC3     O 5753   4.409   3.924  16.027 -0.3778  0.4549  0.0843
  381TMC3     H 5754   0.011   4.097  16.029 -1.5331 -0.3837 -0.8711
  381TMC3    H1 5755   4.356   4.076  16.199  1.0412 -3.3868 -0.0449
  381TMC3    H2 5756   4.634   4.302  16.396 -0.4242 -2.0736  0.7535
  381TMC3    C7 5757   4.443   4.114  16.419 -0.6253 -0.2826  0.4792
  381TMC3    C8 5758   0.112   4.234  16.209 -0.1246  0.1388 -0.1069
  381TMC3    O1 5759   4.399   4.002  16.400  0.2888 -0.4314 -0.2971
  381TMC3    O2 5760   0.182   4.191  16.120 -0.7564 -0.1680 -0.4050
  382MPD2     C 5761   4.311   1.420  17.490 -0.3067 -0.5908  0.1570
  382MPD2    C1 5762   4.180   1.450  17.532 -0.3085 -0.3085  0.2303
  382MPD2    C2 5763   4.090   1.358  17.584  0.4802  0.1516  0.2914
  382MPD2    C3 5764   4.133   1.222  17.577 -0.5799  0.0617  0.7298
  382MPD2    C4 5765   4.255   1.192  17.523  0.6215 -0.0654  0.2056
  382MPD2    C5 5766   4.341   1.288  17.472  0.9415 -0.3211  0.2270
  382MPD2     H 5767   3.989   1.386  17.612  0.1139 -1.6839  0.8014
  382MPD2    H1 5768   4.280   1.087  17.513  0.3436 -0.2601  1.5295
  382MPD2    H2 5769   4.388   1.484  17.448  0.9469 -1.2395  1.4832
  382MPD2    H3 5770   4.434   1.262  17.423  0.3946 -0.0544 -0.9542
  382MPD2     N 5771   4.058   1.111  17.609 -0.1965 -0.4028 -0.6154
  382MPD2    H5 5772   4.104   1.023  17.585  0.4774 -0.2051 -0.0545
  382MPD2    N1 5773   4.130   1.591  17.532 -0.0337 -0.0528  0.4429
  382MPD2    H7 5774   4.032   1.600  17.553 -0.6376 -1.3530 -1.8485
  383TMC3    C1 5775   3.875   0.977  17.681 -0.0703  0.1639 -0.0583
  383TMC3    C2 5776   3.741   0.956  17.669  0.1110  0.6427  0.4716
  383TMC3    C3 5777   3.705   0.823  17.653 -0.7010  0.9696  0.0043
  383TMC3    C4 5778   3.974   0.874  17.682  0.9583  0.2167 -0.8394
  383TMC3    C5 5779   3.932   0.747  17.682  0.5302  0.2645  0.4083
  383TMC3    C6 5780   3.796   0.717  17.661  0.1022 -0.6794 -0.1535
  383TMC3     C 5781   3.926   1.109  17.664  0.6193 -0.3437 -0.1722
  383TMC3     O 5782   3.854   1.196  17.698  0.0677  0.5737  0.3149
  383TMC3     H 5783   3.664   1.033  17.663 -1.1152 -0.3331  3.2515
  383TMC3    H1 5784   4.076   0.895  17.712  0.8842  0.1068 -0.5058
  383TMC3    H2 5785   3.763   0.617  17.636  1.1350 -1.1830  0.4914
  383TMC3    C7 5786   4.017   0.636  17.709  0.2466 -0.4326  0.5402
  383TMC3    C8 5787   3.576   0.800  17.612  0.2063  0.2803  0.3169
  383TMC3    O1 5788   3.963   0.547   0.031 -0.1589  0.4038 -0.0980
  383TMC3    O2 5789   3.513   0.886  17.554 -0.1529  1.0532  0.3791
  384MPD2     C 5790   0.754   2.693  12.061 -0.5664  0.1298  0.6183
  384MPD2    C1 5791   0.785   2.647  12.182 -0.8156  0.1023 -0.2283
  384MPD2    C2 5792   0.886   2.555  12.196 -0.1208 -0.3934  0.3670
  384MPD2    C3 5793   0.947   2.503  12.082 -0.8711  0.5792  0.1005
  384MPD2    C4 5794   0.914   2.549  11.958  0.0242  0.2012 -0.4978
  384MPD2    C5 5795   0.823   2.650  11.952  0.1353 -0.5052  0.1119
  384MPD2     H 5796   0.917   2.517  12.292 -2.4905 -1.0288  0.9003
  384MPD2    H1 5797   0.959   2.515  11.866  1.3034 -2.3649  1.0761
  384MPD2    H2 5798   0.688   2.777  12.042 -0.6409 -0.5055 -1.9419
  384MPD2    H3 5799   0.785   2.678  11.854  1.9458 -0.7464 -0.6554
  384MPD2     N 5800   1.024   2.389  12.084 -0.4197  0.6261  0.5818
  384MPD2    H5 5801   1.057   2.349  11.996 -0.7134 -0.0434  0.7735
  384MPD2    N1 5802   0.713   2.676  12.297  0.4524 -0.6763 -0.5629
  384MPD2    H7 5803   0.737   2.625  12.381 -3.4217  0.0469  0.9719
  385TMC3    C1 5804   1.151   2.212  12.157 -0.3705  0.1471  0.4099
  385TMC3    C2 5805   1.072   2.111  12.110 -0.1309  0.5513  0.1432
  385TMC3    C3 5806   1.089   1.988  12.170  0.3343  0.1578 -0.1145
  385TMC3    C4 5807   1.227   2.192  12.272 -0.2355  0.0900 -0.0171
  385TMC3    C5 5808   1.244   2.072  12.328 -0.1726 -0.0113 -0.4886
  385TMC3    C6 5809   1.173   1.969  12.276 -0.7706 -0.4683 -0.5349
  385TMC3     C 5810   1.077   2.329  12.191 -0.2190 -0.1608 -0.7132
  385TMC3     O 5811   1.066   2.359  12.312 -0.1361  0.2423  0.6093
  385TMC3     H 5812   0.986   2.130  12.046 -0.0930 -0.8276 -0.3087
  385TMC3    H1 5813   1.285   2.274  12.311  0.1374  0.3758 -1.1779
  385TMC3    H2 5814   1.155   1.883  12.339 -3.3451  0.4438  0.0249
  385TMC3    C7 5815   1.211   2.069  12.470 -0.0216  0.3094 -1.0147
  385TMC3    C8 5816   0.962   1.910  12.207 -0.0324  0.0099 -0.2485
  385TMC3    O1 5817   1.246   1.977  12.544  0.1935 -0.0763  0.2094
  385TMC3    O2 5818   0.923   1.905  12.321 -0.0417 -0.0346 -0.2112
  386TMC3    C1 5819   1.204   4.295  11.622  0.0125  0.1122 -0.2261
  386TMC3    C2 5820   1.233   4.238  11.499  0.2364  0.0457  0.4505
  386TMC3    C3 5821   1.169   4.298  11.388 -0.3773  0.2517  0.2734
  386TMC3    C4 5822   1.123   4.403  11.633  0.5823 -0.2723 -0.0822
  386TMC3    C5 5823   1.072   4.460  11.518 -0.2746  0.3456 -0.0392
  386TMC3    C6 5824   1.097   4.410  11.395 -0.3565 -0.4218  0.2095
  386TMC3     C 5825   1.315   4.305  11.710  0.1689 -0.1212 -1.1762
  386TMC3     O 5826   1.344   4.409  11.764  0.6707 -1.4034 -0.2799
  386TMC3     H 5827   1.299   4.153  11.484 -2.1956 -1.7876  0.1743
  386TMC3    H1 5828   1.087   4.449  11.724 -0.7907  1.0991 -1.3126
  386TMC3    H2 5829   1.041   4.447  11.308  0.4056 -0.5441 -0.3308
  386TMC3    C7 5830   0.971   4.572  11.532 -0.0650  0.1471 -0.3708
  386TMC3    C8 5831   1.164   4.226  11.266  1.3233  0.5130  0.0256
  386TMC3    O1 5832   0.976   4.649  11.628 -0.4026  0.0009 -0.2228
  386TMC3    O2 5833   1.167   4.294  11.166  0.2465  0.3110 -0.0314
  387MPD2     C 5834   3.153   0.169   9.730  0.2463 -0.1613  0.0952
  387MPD2    C1 5835   3.267   0.121   9.787 -0.3863  1.2305  0.0190
  387MPD2    C2 5836   3.304   4.725   9.769  0.1075 -0.5692 -0.2130
  387MPD2    C3 5837   3.228   4.641   9.691  0.2300 -0.0954 -0.1408
  387MPD2    C4 5838   3.108   4.688   9.639  0.0854 -0.1967  0.4031
  387MPD2    C5 5839   3.075   0.083   9.653  0.4771 -0.0558  1.1759
  387MPD2     H 5840   3.395   4.696   9.819 -1.0502 -1.8952  1.1538
  387MPD2    H1 5841   3.035   4.625   9.589 -1.9369  1.5986  1.0936
  387MPD2    H2 5842   3.123   0.273   9.740  0.3887 -0.2913  1.8479
  387MPD2    H3 5843   2.983   0.123   9.612  1.9111  2.2694  0.2519
  387MPD2     N 5844   3.276   4.510   9.664 -0.5109  0.2249  0.2542
  387MPD2    H5 5845   3.376   4.499   9.677 -0.1384  0.8363 -2.1299
  387MPD2    N1 5846   3.350   0.195   9.866  0.2059 -0.1190  0.4492
  387MPD2    H7 5847   3.420   0.146   9.920  0.8586  0.6276  0.2821
  388TMC3    C1 5848   3.458   0.375   9.974  0.1745  1.3857 -0.1180
  388TMC3    C2 5849   3.432   0.463  10.072  0.8356  0.2473  0.0663
  388TMC3    C3 5850   3.519   0.452  10.180 -0.7038 -0.0257  0.2308
  388TMC3    C4 5851   3.568   0.291   9.967  0.0357  0.2995  0.7994
  388TMC3    C5 5852   3.660   0.286  10.075 -0.9969 -0.3134  0.0227
  388TMC3    C6 5853   3.624   0.365  10.183  0.1531 -0.0303 -0.3948
  388TMC3     C 5854   3.341   0.326   9.915  0.4505 -0.2205 -0.3728
  388TMC3     O 5855   3.248   0.403   9.890 -0.2581 -0.3210  0.0831
  388TMC3     H 5856   3.353   0.537  10.071  2.2019  1.7177  0.7671
  388TMC3    H1 5857   3.589   0.234   9.876  0.3432 -0.8971  1.6185
  388TMC3    H2 5858   3.694   0.359  10.266  1.0416  0.6326 -1.0968
  388TMC3    C7 5859   3.724   0.164  10.099  1.1470 -0.1186  0.0557
  388TMC3    C8 5860   3.529   0.565  10.269  0.1267 -0.0404 -0.1480
  388TMC3    O1 5861   3.753   0.153  10.218 -0.1213 -0.0671  0.1559
  388TMC3    O2 5862   3.497   0.670  10.222 -0.3141  0.3567  0.7324
  389MPD2     C 5863   2.878   2.868  11.232 -0.3436  0.0132 -0.0139
  389MPD2    C1 5864   2.755   2.805  11.231 -0.3231 -0.5081 -0.2913
  389MPD2    C2 5865   2.709   2.760  11.353 -0.2676 -1.0000  0.1232
  389MPD2    C3 5866   2.776   2.788  11.474 -1.1470 -0.2204 -0.8033
  389MPD2    C4 5867   2.893   2.858  11.467 -0.4653 -0.6197 -0.6034
  389MPD2    C5 5868   2.945   2.895  11.346  0.2237  0.6790 -0.3832
  389MPD2     H 5869   2.621   2.697  11.361  0.0211 -1.4159  0.0450
  389MPD2    H1 5870   2.945   2.894  11.556 -2.1996  0.6891 -0.1175
  389MPD2    H2 5871   2.921   2.894  11.136  0.8186  0.7354  0.6994
  389MPD2    H3 5872   3.044   2.938  11.333 -0.6186  2.7826  0.1664
  389MPD2     N 5873   2.724   2.756  11.602  0.0497 -0.1979 -0.7084
  389MPD2    H5 5874   2.776   2.789  11.682 -2.0956  0.7217  0.2961
  389MPD2    N1 5875   2.694   2.790  11.108 -0.1548  0.0284 -0.3505
  389MPD2    H7 5876   2.751   2.823  11.031 -1.2298  1.8748 -0.3415
  390TMC3    C1 5877   2.616   2.603  11.754  0.0725  0.2318 -0.3116
  390TMC3    C2 5878   2.570   2.473  11.769  0.2200 -0.1683  0.8390
  390TMC3    C3 5879   2.534   2.424  11.894 -0.1867  0.0858  0.2550
  390TMC3    C4 5880   2.615   2.692  11.854 -0.2859 -0.4038  0.5093
  390TMC3    C5 5881   2.570   2.645  11.974 -0.8170  0.1068 -0.3096
  390TMC3    C6 5882   2.547   2.508  12.003  0.3494 -0.2119  0.4287
  390TMC3     C 5883   2.626   2.653  11.621 -0.0234 -0.3998  0.5058
  390TMC3     O 5884   2.573   2.581  11.541  0.4916  0.3036  0.3882
  390TMC3     H 5885   2.551   2.411  11.682 -0.3673  1.1081  0.0525
  390TMC3    H1 5886   2.628   2.799  11.851 -0.0798 -0.4389  0.1688
  390TMC3    H2 5887   2.527   2.468  12.102 -1.5271  0.4113  0.3019
  390TMC3    C7 5888   2.486   2.738  12.056  0.2510  0.3028  0.5601
  390TMC3    C8 5889   2.409   2.358  11.907  0.3739  0.0900 -0.2207
  390TMC3    O1 5890   2.504   2.858  12.057  0.3088 -0.2345  0.6087
  390TMC3    O2 5891   2.337   2.425  11.978  0.7396  0.0368  0.2890
  391MPD2     C 5892   1.689   4.563  10.977  0.4695  0.2237 -0.0989
  391MPD2    C1 5893   1.757   4.680  10.943  0.2808  0.0660 -0.4650
  391MPD2    C2 5894   1.802   4.692  10.814 -0.7648 -0.6219  0.2918
  391MPD2    C3 5895   1.757   4.607  10.716  0.1413  0.3336  0.0984
  391MPD2    C4 5896   1.676   4.502  10.748  0.4801  0.6629  0.6987
  391MPD2    C5 5897   1.641   4.483  10.881 -0.6862  0.0249 -0.6691
  391MPD2     H 5898   1.873   0.032  10.787 -1.6821  0.4474  0.9506
  391MPD2    H1 5899   1.640   4.435  10.670  1.7110 -0.4873  1.1148
  391MPD2    H2 5900   1.635   4.559  11.071  0.7804  0.4543  0.0928
  391MPD2    H3 5901   1.569   4.407  10.911 -0.0738 -0.4601 -0.4381
  391MPD2     N 5902   1.802   4.631  10.583  0.1525  0.8677 -0.2114
  391MPD2    H5 5903   1.886   4.686  10.572  0.5781  0.3906  0.6078
  391MPD2    N1 5904   1.794   0.026  11.051 -0.8357  0.3479 -0.0677
  391MPD2    H7 5905   1.793   4.724  11.144 -2.4012  0.3942 -0.0626
  392TMC3    C1 5906   1.806   4.662  10.352  0.2442  0.2011  0.1937
  392TMC3    C2 5907   1.737   4.655  10.234  0.0139  0.7549  0.4484
  392TMC3    C3 5908   1.782   0.003  10.128 -0.9061 -0.4882  0.8222
  392TMC3    C4 5909   1.910   0.011  10.373  0.4250 -0.3627 -0.3906
  392TMC3    C5 5910   1.946   0.092  10.265 -0.0269 -0.2702 -1.2398
  392TMC3    C6 5911   1.883   0.091  10.144 -0.3362 -0.2342 -0.2577
  392TMC3     C 5912   1.742   4.592  10.462 -0.5373 -0.5424  0.1243
  392TMC3     O 5913   1.646   4.521  10.450 -0.0250 -0.0759  0.3650
  392TMC3     H 5914   1.663   4.578  10.216 -1.7346  2.4412  0.3448
  392TMC3    H1 5915   1.974   0.027  10.460 -0.0689  1.8973 -0.4355
  392TMC3    H2 5916   1.927   0.140  10.058 -0.1898 -1.5882 -0.9514
  392TMC3    C7 5917   2.058   0.182  10.282  0.7913 -0.1701 -0.6898
  392TMC3    C8 5918   1.704   4.735  10.013  0.0839  0.8099  0.0897
  392TMC3    O1 5919   2.137   0.163  10.374 -0.1971  0.0683  0.1685
  392TMC3    O2 5920   1.635   4.634  10.010  0.3344  0.5834  0.4170
  393TMC3    C1 5921   1.095   2.334  11.054 -0.4194 -0.3855 -0.0939
  393TMC3    C2 5922   0.982   2.324  11.126 -0.1081  0.0017 -1.1086
  393TMC3    C3 5923   0.958   2.207  11.191 -0.2500 -0.5297  0.2900
  393TMC3    C4 5924   1.179   2.226  11.041  0.1377  0.3687 -0.5352
  393TMC3    C5 5925   1.146   2.108  11.111  0.2052  0.4791 -0.2685
  393TMC3    C6 5926   1.036   2.094  11.191  0.3670  0.2845 -1.0950
  393TMC3     C 5927   1.089   2.428  10.946  0.1657 -0.6650  0.2568
  393TMC3     O 5928   0.979   2.458  10.900  0.3592  0.0415 -0.4175
  393TMC3     H 5929   0.927   2.416  11.141 -0.3191  0.0468 -2.1868
  393TMC3    H1 5930   1.263   2.226  10.972  0.1013  1.4802 -0.5785
  393TMC3    H2 5931   1.013   2.005  11.248 -1.2889  1.0759 -0.5136
  393TMC3    C7 5932   1.229   1.989  11.105  0.0476  0.2883  0.5732
  393TMC3    C8 5933   0.835   2.203  11.277  0.5482  0.4874  0.1247
  393TMC3    O1 5934   1.190   1.882  11.156  0.0268  0.0749  0.0191
  393TMC3    O2 5935   0.814   2.111  11.354 -0.3210  0.6103  0.3518
  394TMC3    C1 5936   2.521   2.790  10.955 -0.2777  0.3590 -0.3356
  394TMC3    C2 5937   2.419   2.717  10.897 -0.4838 -0.5896  0.3777
  394TMC3    C3 5938   2.366   2.747  10.780 -0.4144  0.1478  0.1873
  394TMC3    C4 5939   2.581   2.889  10.880  0.3891 -0.8135 -0.1213
  394TMC3    C5 5940   2.515   2.925  10.764  0.0726 -0.5552 -0.3719
  394TMC3    C6 5941   2.414   2.853  10.707  0.3217  0.1558  0.3013
  394TMC3     C 5942   2.566   2.742  11.085  0.1187  0.2466  0.6930
  394TMC3     O 5943   2.489   2.677  11.152 -0.3734  0.3732 -0.3587
  394TMC3     H 5944   2.380   2.630  10.949  0.3780 -1.4089 -0.3539
  394TMC3    H1 5945   2.652   2.958  10.925 -0.3378 -0.2026  0.1047
  394TMC3    H2 5946   2.388   2.866  10.603  0.2989 -1.2839  0.1191
  394TMC3    C7 5947   2.591   2.990  10.657  0.2983 -0.0255 -0.1003
  394TMC3    C8 5948   2.321   2.632  10.703  0.6125  0.0988  0.1039
  394TMC3    O1 5949   2.533   3.048  10.562 -0.0793 -0.6864 -0.0008
  394TMC3    O2 5950   2.252   2.660  10.605  0.3695 -0.2947  0.5023
  395TMC3    C1 5951   2.753   4.668  15.123 -0.0920  0.2398  0.1681
  395TMC3    C2 5952   2.742   4.567  15.034 -0.4833  0.1873 -0.9256
  395TMC3    C3 5953   2.807   4.586  14.921  0.0713  0.3507  0.7953
  395TMC3    C4 5954   2.819   0.049  15.091  0.3275 -0.4039  0.2562
  395TMC3    C5 5955   2.876   0.061  14.967  0.0991  0.0090  0.0245
  395TMC3    C6 5956   2.877   4.697  14.880 -0.1423 -0.2822  0.1205
  395TMC3     C 5957   2.703   4.652  15.260 -0.7004 -0.1350  0.5392
  395TMC3     O 5958   2.677   0.019  15.316 -0.8327 -0.1714 -0.1631
  395TMC3     H 5959   2.697   4.470  15.054  0.8583 -0.3673 -0.5994
  395TMC3    H1 5960   2.833   0.124  15.169 -1.4768 -1.4336  1.5895
  395TMC3    H2 5961   2.893   4.715  14.774 -1.3448  1.8421  0.3122
  395TMC3    C7 5962   2.940   0.193  14.946  0.4515  0.1666 -0.9251
  395TMC3    C8 5963   2.769   4.496  14.807  0.4852  0.1342  0.1189
  395TMC3    O1 5964   2.933   0.282  15.034  0.9039 -0.1744 -0.2262
  395TMC3    O2 5965   2.855   4.487  14.720  0.1998 -0.0569  0.4352
  396MPD2     C 5966   2.047   1.008  16.804 -0.7105  0.1175  0.1247
  396MPD2    C1 5967   2.170   1.040  16.842 -0.0158  0.1214 -0.4170
  396MPD2    C2 5968   2.250   1.122  16.764  0.1650 -0.3350 -0.1776
  396MPD2    C3 5969   2.204   1.160  16.642  1.1175  0.0262 -0.8918
  396MPD2    C4 5970   2.084   1.104  16.595  0.0938  0.1460  0.2348
  396MPD2    C5 5971   1.999   1.041  16.684 -1.0877  0.6223  1.0426
  396MPD2     H 5972   2.353   1.140  16.793  0.5353 -0.9234 -1.1149
  396MPD2    H1 5973   2.038   1.125  16.499 -1.4314 -0.4015  0.8593
  396MPD2    H2 5974   1.975   0.945  16.855  0.2547 -0.1590  1.1475
  396MPD2    H3 5975   1.904   1.001  16.650 -0.8946  1.4676 -0.5123
  396MPD2     N 5976   2.281   1.259  16.577 -0.3485  0.0736 -0.1872
  396MPD2    H5 5977   2.363   1.291  16.627 -0.0152 -0.2207 -0.5488
  396MPD2    N1 5978   2.208   0.978  16.964 -0.9145 -0.1449  0.1479
  396MPD2    H7 5979   2.141   0.912  17.002  0.1896 -0.0469  2.2429
  397TMC3    C1 5980   2.334   0.953  17.168 -1.0564 -0.2149  0.1029
  397TMC3    C2 5981   2.451   0.990  17.232 -0.1225  0.5606  0.6988
  397TMC3    C3 5982   2.516   0.902  17.312 -0.0492 -0.0984 -0.2523
  397TMC3    C4 5983   2.298   0.819  17.178  0.1903  0.3359  0.2789
  397TMC3    C5 5984   2.371   0.731  17.252 -0.4008  0.4145 -0.2849
  397TMC3    C6 5985   2.476   0.773  17.330  0.1749  0.5402 -0.2935
  397TMC3     C 5986   2.312   1.021  17.042 -0.2370  0.1792  0.4565
  397TMC3     O 5987   2.377   1.127  17.029 -0.1040  0.3001  0.4130
  397TMC3     H 5988   2.494   1.086  17.209 -0.1751  0.9880  2.3972
  397TMC3    H1 5989   2.218   0.765  17.129 -0.0472  0.3474  0.6559
  397TMC3    H2 5990   2.536   0.705  17.388  1.5294  0.1431 -2.1532
  397TMC3    C7 5991   2.316   0.600  17.281  0.0084  0.1683  0.2261
  397TMC3    C8 5992   2.651   0.941  17.351 -0.2870 -0.0754  0.1883
  397TMC3    O1 5993   2.220   0.562  17.215  0.1439 -0.3833 -0.0838
  397TMC3    O2 5994   2.675   0.900  17.465 -0.1525  0.4692  0.3358
  398MPD2     C 5995   0.645   2.635   0.240  0.0155  0.4531  0.0667
  398MPD2    C1 5996   0.750   2.565   0.184 -0.0750 -0.4676 -0.0706
  398MPD2    C2 5997   0.866   2.636   0.158  0.4793  0.2844  0.0735
  398MPD2    C3 5998   0.871   2.769   0.177 -0.3346 -0.0510 -0.4267
  398MPD2    C4 5999   0.762   2.846   0.226  0.2407 -0.0154 -0.6604
  398MPD2    C5 6000   0.652   2.772   0.262 -0.2796 -0.1185 -0.1710
  398MPD2     H 6001   0.955   2.583   0.125  0.9985  1.2926 -0.1417
  398MPD2    H1 6002   0.752   2.953   0.235  1.8853  0.0192  0.6006
  398MPD2    H2 6003   0.548   2.588   0.252 -0.8025  2.1838  0.2951
  398MPD2    H3 6004   0.565   2.832   0.288 -1.1859 -1.8836  0.8780
  398MPD2     N 6005   1.001   2.828   0.160 -0.1628 -0.4155 -0.1700
  398MPD2    H5 6006   1.077   2.769   0.130 -0.0876 -0.3229 -0.1610
  398MPD2    N1 6007   0.756   2.426   0.155 -0.2006 -0.1821 -0.6446
  398MPD2    H7 6008   0.821   2.394   0.084  1.0476  2.0702 -0.5402
  399TMC3    C1 6009   0.721   2.196   0.197  0.1182 -0.3268  0.2882
  399TMC3    C2 6010   0.849   2.157   0.203  0.3280  0.1302 -0.6940
  399TMC3    C3 6011   0.874   2.023   0.202  0.6742 -0.6659  0.3337
  399TMC3    C4 6012   0.621   2.102   0.218  0.0643  0.4580 -0.4341
  399TMC3    C5 6013   0.649   1.970   0.226 -0.5214  0.1470  0.2468
  399TMC3    C6 6014   0.775   1.932   0.216  0.5064  0.4487  0.0750
  399TMC3     C 6015   0.687   2.332   0.227  0.5208  0.0073  0.0655
  399TMC3     O 6016   0.608   2.352   0.317  0.0490  0.1692  0.4724
  399TMC3     H 6017   0.930   2.226   0.223 -0.0311 -0.0397  1.3427
  399TMC3    H1 6018   0.519   2.132   0.236  0.0527  0.3216 -0.2772
  399TMC3    H2 6019   0.803   1.828   0.202  2.2580  1.0410 -0.9294
  399TMC3    C7 6020   0.553   1.866   0.213 -0.3392 -0.1179 -0.2598
  399TMC3    C8 6021   1.004   1.972   0.238  0.2488  0.2917 -0.5989
  399TMC3    O1 6022   0.452   1.897   0.149 -0.2149 -0.2305 -0.6143
  399TMC3    O2 6023   1.087   2.051   0.290  0.6452  0.3388 -0.5129
  400TMC3    C1 6024   3.771   0.447  17.260 -0.5007  0.0289  0.0886
  400TMC3    C2 6025   3.636   0.440  17.251  0.1394 -0.7224  0.1564
  400TMC3    C3 6026   3.563   0.558  17.226 -0.3208 -0.1443 -0.2358
  400TMC3    C4 6027   3.838   0.569  17.253  0.1074 -0.3906  0.0079
  400TMC3    C5 6028   3.769   0.681  17.225 -0.2450  0.5017  0.1047
  400TMC3    C6 6029   3.635   0.673  17.211  0.4090  0.7938  0.3988
  400TMC3     C 6030   3.843   0.347  17.334 -0.6955 -0.5053 -0.1225
  400TMC3     O 6031   3.781   0.270  17.407 -0.4921 -0.1539  0.3068
  400TMC3     H 6032   3.588   0.344  17.257  1.7847 -1.5596 -0.0017
  400TMC3    H1 6033   3.946   0.579  17.255  0.0047  1.8893 -5.3384
  400TMC3    H2 6034   3.586   0.759  17.166  0.5963  0.2075 -0.9415
  400TMC3    C7 6035   3.838   0.810  17.250 -0.1888  0.0740  0.2660
  400TMC3    C8 6036   3.451   0.528  17.138  0.6218 -0.3414 -0.0392
  400TMC3    O1 6037   3.959   0.810  17.230  0.0509 -0.3730  0.3273
  400TMC3    O2 6038   3.454   0.569  17.023  1.0212  0.2990  0.2302
  401MPD2     C 6039   2.285   4.034   1.035 -0.2698 -0.0887 -0.4940
  401MPD2    C1 6040   2.348   3.912   1.065 -0.0428 -0.3443  0.5536
  401MPD2    C2 6041   2.295   3.795   1.026  0.0945 -0.2126 -0.0995
  401MPD2    C3 6042   2.180   3.793   0.951  0.4682  0.0046  0.5338
  401MPD2    C4 6043   2.121   3.908   0.913  0.2595  0.9267 -0.5355
  401MPD2    C5 6044   2.177   4.029   0.955  0.7418  0.6195  0.1741
  401MPD2     H 6045   2.339   3.701   1.059  1.3815  1.0711  1.8559
  401MPD2    H1 6046   2.038   3.916   0.843 -2.6920 -0.5021  2.7614
  401MPD2    H2 6047   2.334   4.126   1.067 -0.9041 -0.0949  0.4767
  401MPD2    H3 6048   2.130   4.123   0.930  0.6164 -0.0217 -2.0116
  401MPD2     N 6049   2.112   3.670   0.924 -0.3534  0.2448  0.5971
  401MPD2    H5 6050   2.156   3.582   0.950 -0.7078 -0.1221 -0.0322
  401MPD2    N1 6051   2.463   3.900   1.146 -0.1493  0.3815  0.7539
  401MPD2    H7 6052   2.506   3.808   1.144 -2.4779 -0.6860 -0.1107
  402TMC3    C1 6053   1.960   3.513   0.860  0.0526  0.1487 -0.6583
  402TMC3    C2 6054   1.993   3.460   0.978  0.0821  0.1137  0.4317
  402TMC3    C3 6055   1.990   3.324   0.999 -0.6448 -0.3317 -0.1959
  402TMC3    C4 6056   1.960   3.436   0.750 -0.9025 -0.1839 -0.0596
  402TMC3    C5 6057   1.984   3.306   0.763  0.2123  0.2127 -0.4503
  402TMC3    C6 6058   1.998   3.247   0.887  0.0799 -0.1616 -0.2840
  402TMC3     C 6059   2.003   3.646   0.845  0.0191  0.4914 -0.5023
  402TMC3     O 6060   1.964   3.705   0.743  0.0234 -0.0251  0.1484
  402TMC3     H 6061   1.996   3.526   1.064  0.7878  2.1353 -1.1560
  402TMC3    H1 6062   1.952   3.478   0.650 -0.1701 -1.2869 -0.5673
  402TMC3    H2 6063   1.996   3.139   0.895  0.8275 -0.2461 -1.2227
  402TMC3    C7 6064   2.019   3.238   0.640 -0.1339  0.2782 -0.4645
  402TMC3    C8 6065   2.065   3.261   1.109 -0.4847  0.6114 -0.0852
  402TMC3    O1 6066   1.970   3.290   0.539 -0.0974 -0.3022 -0.3393
  402TMC3    O2 6067   2.162   3.191   1.080  0.0311  0.1504  0.0138
  403MPD2     C 6068   0.040   2.445  12.803  0.4609 -0.3031 -0.0062
  403MPD2    C1 6069   0.073   2.348  12.888  0.4475  0.5484  0.1866
  403MPD2    C2 6070   0.172   2.376  12.978 -0.0629  0.4791  0.5183
  403MPD2    C3 6071   0.244   2.496  12.978 -0.0511  0.2925  0.3390
  403MPD2    C4 6072   0.227   2.581  12.868  0.3441  0.2848  1.3762
  403MPD2    C5 6073   0.120   2.558  12.794  0.7028 -0.2161  0.0075
  403MPD2     H 6074   0.199   2.303  13.054 -1.2904 -1.1872 -0.6395
  403MPD2    H1 6075   0.281   2.675  12.863 -0.3807  0.6500  0.5349
  403MPD2    H2 6076   4.705   2.435  12.723 -0.8874 -1.9193  1.4412
  403MPD2    H3 6077   0.097   2.635  12.720  1.1077 -0.5026 -0.4164
  403MPD2     N 6078   0.329   2.525  13.089  0.0050  0.2671 -0.5442
  403MPD2    H5 6079   0.317   2.462  13.168  0.8849  2.5507  1.4157
  403MPD2    N1 6080   4.735   2.230  12.879  0.5510  0.0713  0.2105
  403MPD2    H7 6081   4.676   2.221  12.798 -0.5697  0.8972  0.9323
  404TMC3    C1 6082   4.676   1.998  12.925 -0.8116 -0.1128  0.3609
  404TMC3    C2 6083   4.655   1.910  13.026  0.3702  0.2135 -0.1346
  404TMC3    C3 6084   4.635   1.778  12.993  0.1166 -0.1625 -0.4050
  404TMC3    C4 6085   4.685   1.957  12.798 -0.5520  0.7957 -1.1574
  404TMC3    C5 6086   4.655   1.827  12.764  0.0655  0.4795 -0.2534
  404TMC3    C6 6087   4.625   1.732  12.863 -0.2951 -0.1840 -0.4452
  404TMC3     C 6088   0.012   2.120  12.964  0.1687  0.1012  1.0794
  404TMC3     O 6089   0.062   2.108  13.073  0.2997  0.7254 -0.3915
  404TMC3     H 6090   4.674   1.940  13.128 -1.5595  1.6225 -0.2107
  404TMC3    H1 6091   4.701   2.029  12.718  0.2529  0.8103 -0.9820
  404TMC3    H2 6092   4.595   1.629  12.852 -2.5168  0.3510  0.6618
  404TMC3    C7 6093   4.656   1.797  12.624  0.4312  0.6653 -0.0046
  404TMC3    C8 6094   4.680   1.684  13.097 -0.2662 -0.5910 -0.1724
  404TMC3    O1 6095   4.700   1.883  12.553  0.1749 -0.4914 -0.0717
  404TMC3    O2 6096   4.716   1.573  13.067 -0.2243 -0.0921 -0.2174
  405MPD2     C 6097   1.034   2.933  14.861  0.5836  0.0372 -0.2123
  405MPD2    C1 6098   1.023   2.839  14.756  0.5862 -0.1233 -0.6197
  405MPD2    C2 6099   1.017   2.891  14.623 -0.0747  0.1238  0.1160
  405MPD2    C3 6100   1.037   3.030  14.601  0.3004  0.5563  1.2981
  405MPD2    C4 6101   1.055   3.115  14.710 -0.3119 -0.0670 -0.2275
  405MPD2    C5 6102   1.059   3.064  14.838  0.3148  0.1038  0.6363
  405MPD2     H 6103   1.006   2.834  14.531 -0.3224  0.7554 -0.2496
  405MPD2    H1 6104   1.080   3.221  14.706  0.0910 -0.1418  0.3327
  405MPD2    H2 6105   1.039   2.903  14.965  0.2474  1.9287  0.3489
  405MPD2    H3 6106   1.078   3.133  14.920 -4.6288  0.5237  1.4712
  405MPD2     N 6107   1.017   3.063  14.463  0.5203 -0.3264  0.3084
  405MPD2    H5 6108   1.009   2.982  14.401 -0.4408  0.1059 -0.1360
  405MPD2    N1 6109   0.996   2.707  14.796 -0.8612 -0.7003 -0.2410
  405MPD2    H7 6110   0.990   2.687  14.895  0.7283  2.5104  0.5075
  406TMC3    C1 6111   0.730   3.219  14.224 -0.7235  0.0308  0.3023
  406TMC3    C2 6112   0.722   3.084  14.188 -0.0570 -0.1352  0.0931
  406TMC3    C3 6113   0.836   3.009  14.178  0.5493 -0.0365  1.1940
  406TMC3    C4 6114   0.849   3.276  14.259 -0.1816 -0.7435  0.3453
  406TMC3    C5 6115   0.959   3.192  14.269 -0.2277  1.0233  0.1252
  406TMC3    C6 6116   0.954   3.068  14.211  0.2127 -0.9531  0.8154
  406TMC3     C 6117   0.608   3.301  14.215  0.7011  0.3524 -0.9369
  406TMC3     O 6118   0.621   3.418  14.232  0.3837 -0.0216  0.6013
  406TMC3     H 6119   0.626   3.035  14.173 -1.6309  3.1687 -0.4738
  406TMC3    H1 6120   0.859   3.377  14.296 -1.1134 -0.4375 -0.2416
  406TMC3    H2 6121   1.042   3.005  14.213  2.1580  1.6539 -1.6442
  406TMC3    C7 6122   1.010   3.190  14.407  0.4465 -0.0851 -0.0090
  406TMC3    C8 6123   0.828   2.868  14.223  0.4012 -0.1350 -0.6373
  406TMC3    O1 6124   1.022   3.299  14.466  0.2736  0.8416 -0.2447
  406TMC3    O2 6125   0.925   2.823  14.283 -0.2021 -0.1159 -0.5178
  407MPD2     C 6126   2.552   3.949   9.553 -0.2824 -0.0945 -0.2155
  407MPD2    C1 6127   2.673   3.980   9.619  0.3014 -0.0528 -0.0326
  407MPD2    C2 6128   2.670   4.095   9.693  0.2766  0.2294 -0.6297
  407MPD2    C3 6129   2.545   4.163   9.722  0.3965  0.9730 -0.3629
  407MPD2    C4 6130   2.428   4.123   9.651 -0.5607 -0.4658 -0.5960
  407MPD2    C5 6131   2.440   4.020   9.564  0.6045 -0.4914  0.4129
  407MPD2     H 6132   2.754   4.141   9.743  0.2406 -0.5274  0.1196
  407MPD2    H1 6133   2.337   4.181   9.659 -0.9411 -1.1949  0.3095
  407MPD2    H2 6134   2.532   3.859   9.496  0.3730 -0.8744  0.7731
  407MPD2    H3 6135   2.352   4.005   9.503  0.3332  2.1148  0.1731
  407MPD2     N 6136   2.536   4.273   9.810 -1.1046 -0.7452  0.2601
  407MPD2    H5 6137   2.445   4.319   9.808 -1.2940 -1.2462 -1.9284
  407MPD2    N1 6138   2.795   3.915   9.602 -0.0140 -0.2254 -0.5531
  407MPD2    H7 6139   2.876   3.964   9.638  0.8272 -0.7576 -1.7122
  408TMC3    C1 6140   2.953   3.797   9.483 -0.1976 -0.1185  0.2586
  408TMC3    C2 6141   3.013   3.675   9.455 -0.0003  0.4011 -0.2477
  408TMC3    C3 6142   3.145   3.676   9.413  0.4403  0.7279 -0.2639
  408TMC3    C4 6143   3.017   3.920   9.460 -0.2185 -0.1641  0.0695
  408TMC3    C5 6144   3.139   3.906   9.410 -0.3270  0.1377  0.5459
  408TMC3    C6 6145   3.216   3.793   9.402 -0.2720  1.0039 -0.3401
  408TMC3     C 6146   2.816   3.799   9.526  0.5816  0.1844  0.2913
  408TMC3     O 6147   2.744   3.712   9.483 -0.2931 -0.0046 -0.1051
  408TMC3     H 6148   2.956   3.583   9.463 -1.8664  1.5247 -0.4068
  408TMC3    H1 6149   2.980   4.013   9.500 -2.5836 -0.9406 -0.3505
  408TMC3    H2 6150   3.307   3.784   9.343  0.0725 -1.6051  0.5939
  408TMC3    C7 6151   3.190   4.040   9.364  0.1881  0.2800 -0.0044
  408TMC3    C8 6152   3.213   3.548   9.431  0.2624 -0.5171  0.1451
  408TMC3    O1 6153   3.107   4.129   9.353 -0.3062 -0.0606 -0.7181
  408TMC3    O2 6154   3.150   3.443   9.417 -0.0415 -0.0873  0.7137
  409MPD2     C 6155   2.497   0.044  17.105  0.3544 -0.1509 -0.4281
  409MPD2    C1 6156   2.560   0.079  17.223  0.7645  0.8659 -1.0443
  409MPD2    C2 6157   2.614   0.205  17.226 -0.6102  0.1440  0.2914
  409MPD2    C3 6158   2.596   0.301  17.134  0.1955 -0.2129  0.0361
  409MPD2    C4 6159   2.523   0.266  17.020  0.4013 -0.6957 -0.4501
  409MPD2    C5 6160   2.473   0.142  17.011 -0.0227 -0.4416 -0.1047
  409MPD2     H 6161   2.666   0.243  17.314 -0.1609  1.0235 -0.3554
  409MPD2    H1 6162   2.501   0.335  16.940 -2.9309  0.6173  1.5854
  409MPD2    H2 6163   2.460   4.683  17.083 -1.4650  0.0586  1.6737
  409MPD2    H3 6164   2.425   0.102  16.923 -0.5945  2.8784 -1.2835
  409MPD2     N 6165   2.659   0.433  17.131  0.2148 -0.0547  0.3662
  409MPD2    H5 6166   2.643   0.492  17.050 -0.1682 -0.9138 -0.1805
  409MPD2    N1 6167   2.585   0.001  17.326 -0.6297  0.7422  0.0106
  409MPD2    H7 6168   2.654   0.032  17.394  0.8454 -0.6610 -0.8436
  410TMC3    C1 6169   2.783   0.610  17.201  0.6093 -0.2595  0.0938
  410TMC3    C2 6170   2.886   0.645  17.286  0.2322  0.4757 -0.2819
  410TMC3    C3 6171   2.998   0.710  17.243  0.1246  0.0384  0.2103
  410TMC3    C4 6172   2.792   0.650  17.073  0.1104  0.3568 -0.1698
  410TMC3    C5 6173   2.902   0.712  17.030 -0.0390  0.1501  0.3038
  410TMC3    C6 6174   3.008   0.739  17.110 -0.0397  0.1659  0.4679
  410TMC3     C 6175   2.721   0.488  17.237 -0.6863  0.8737 -0.2809
  410TMC3     O 6176   2.751   0.439  17.348  1.0090 -0.4555  0.1009
  410TMC3     H 6177   2.867   0.634  17.392  1.0120 -0.8727 -0.2815
  410TMC3    H1 6178   2.716   0.630  16.998  0.8569 -3.4243  0.0762
  410TMC3    H2 6179   3.104   0.755  17.062 -0.5822  0.1675 -0.6127
  410TMC3    C7 6180   2.934   0.700  16.889  0.0457 -0.2132  0.0742
  410TMC3    C8 6181   3.113   0.715  17.326  0.7004  0.4418  0.6149
  410TMC3    O1 6182   2.868   0.626  16.817 -0.5323 -0.0465  0.4415
  410TMC3    O2 6183   3.215   0.772  17.295  0.2758  0.1098  0.0812
  411MPD2     C 6184   3.070   0.872  14.533  0.0823  0.5552  0.1331
  411MPD2    C1 6185   2.984   0.912  14.636 -0.4090 -0.1914 -0.1671
  411MPD2    C2 6186   2.889   0.823  14.680 -0.1666  0.4838  0.9258
  411MPD2    C3 6187   2.882   0.697  14.630 -0.0398  1.1594  0.2791
  411MPD2    C4 6188   2.975   0.653  14.539 -0.4560  0.3901 -0.0610
  411MPD2    C5 6189   3.063   0.744  14.488 -0.5363  0.6315 -0.2229
  411MPD2     H 6190   2.829   0.855  14.764 -0.0271 -1.3202  1.7148
  411MPD2    H1 6191   2.970   0.558  14.488  0.0810  0.0114  0.5948
  411MPD2    H2 6192   3.138   0.938  14.481 -2.8836  2.4874 -1.3211
  411MPD2    H3 6193   3.124   0.717  14.402 -0.6088 -1.8404  0.4960
  411MPD2     N 6194   2.786   0.606  14.674 -0.5403 -0.1011  0.2153
  411MPD2    H5 6195   2.794   0.520  14.622 -1.2496 -0.0032 -0.0569
  411MPD2    N1 6196   2.996   1.051  14.681 -0.2207  0.4950  0.2894
  411MPD2    H7 6197   3.056   1.117  14.632 -0.0281 -0.1661 -0.3831
  412TMC3    C1 6198   2.595   0.513  14.759 -0.9813  0.0549 -0.2744
  412TMC3    C2 6199   2.464   0.544  14.753  0.0459 -0.0014  0.5633
  412TMC3    C3 6200   2.369   0.446  14.764  0.4550  0.6409  0.1228
  412TMC3    C4 6201   2.646   0.389  14.784 -0.6917  0.4141  0.7210
  412TMC3    C5 6202   2.541   0.291  14.808 -0.3387  0.0704  0.1866
  412TMC3    C6 6203   2.408   0.327  14.802 -0.5371 -0.3244  0.1785
  412TMC3     C 6204   2.682   0.627  14.754  0.2130 -0.1169 -0.2083
  412TMC3     O 6205   2.642   0.734  14.804  0.2791  0.3764 -0.2765
  412TMC3     H 6206   2.430   0.635  14.705 -2.1814 -1.3630 -0.4475
  412TMC3    H1 6207   2.752   0.368  14.785 -1.2097 -2.2479  0.4576
  412TMC3    H2 6208   2.329   0.253  14.802 -0.3029 -0.5717  0.5973
  412TMC3    C7 6209   2.560   0.170  14.733 -0.8526 -0.4472 -0.2227
  412TMC3    C8 6210   2.274   0.439  14.656 -0.1876 -0.2570 -0.1859
  412TMC3    O1 6211   2.670   0.113  14.737 -0.5186  0.8379  0.0593
  412TMC3    O2 6212   2.275   0.335  14.590 -0.3630  0.1815  0.8020
  413MPD2     C 6213   0.030   4.152  15.389 -0.1678 -0.4017  0.5870
  413MPD2    C1 6214   4.680   4.134  15.284  0.5253 -0.7042  0.0913
  413MPD2    C2 6215   4.699   4.027  15.206  0.2885  0.0720 -0.2717
  413MPD2    C3 6216   0.063   3.942  15.229 -0.9126  0.0528  0.0883
  413MPD2    C4 6217   0.159   3.963  15.324 -0.1395  1.0084  0.2868
  413MPD2    C5 6218   0.133   4.072  15.404  0.1970 -0.2364  0.4620
  413MPD2     H 6219   4.624   3.986  15.138 -0.6517 -0.2880  0.9893
  413MPD2    H1 6220   0.250   3.911  15.350 -0.5402  0.7250  1.1154
  413MPD2    H2 6221   0.015   4.228  15.464  1.7176  0.0170  0.5380
  413MPD2    H3 6222   0.206   4.085  15.483  1.9285  0.3802 -1.2369
  413MPD2     N 6223   0.078   3.830  15.142 -0.1234 -0.8334 -0.0238
  413MPD2    H5 6224   0.025   3.834  15.055  1.4378 -1.7423 -1.0307
  413MPD2    N1 6225   4.565   4.213  15.283  0.1818  0.1032 -0.4261
  413MPD2    H7 6226   4.562   4.277  15.361 -0.4883  0.6578 -0.9096
  414TMC3    C1 6227   0.131   3.609  15.071  0.1073 -0.0262  0.2447
  414TMC3    C2 6228   0.151   3.484  15.128 -0.2805  0.4562  0.0961
  414TMC3    C3 6229   0.185   3.377  15.043  0.2280  0.3768 -0.0186
  414TMC3    C4 6230   0.164   3.632  14.939 -0.5988 -0.4626 -0.8487
  414TMC3    C5 6231   0.207   3.519  14.867  0.0916  0.8478  0.0898
  414TMC3    C6 6232   0.202   3.389  14.909 -0.1322 -0.2734  0.0431
  414TMC3     C 6233   0.150   3.716  15.167 -0.5633  0.5572 -1.0968
  414TMC3     O 6234   0.217   3.687  15.267 -0.2954  0.4930 -0.4571
  414TMC3     H 6235   0.135   3.465  15.234  0.4817 -1.9374 -0.2042
  414TMC3    H1 6236   0.165   3.731  14.896  0.0715 -0.1596 -0.1317
  414TMC3    H2 6237   0.233   3.308  14.844 -2.4910 -0.3416 -1.0191
  414TMC3    C7 6238   0.338   3.554  14.815  0.1019 -0.0770 -0.1182
  414TMC3    C8 6239   0.275   3.275  15.094  0.5611 -0.4210  0.3795
  414TMC3    O1 6240   0.391   3.647  14.873  0.0924 -0.3201  0.2836
  414TMC3    O2 6241   0.273   3.164  15.041 -0.0453 -0.2074 -0.2046
  415TMC3    C1 6242   0.175   1.984  10.148 -0.1132  0.5882 -0.0995
  415TMC3    C2 6243   0.310   1.973  10.146 -0.0207 -0.0467 -0.3930
  415TMC3    C3 6244   0.380   2.059  10.064  0.1345  0.9073 -0.3938
  415TMC3    C4 6245   0.109   2.064  10.060 -0.2731  0.3591 -0.0431
  415TMC3    C5 6246   0.181   2.150   9.986  0.5442 -0.1186 -0.6771
  415TMC3    C6 6247   0.316   2.151   9.985 -0.1663  0.3596  0.4481
  415TMC3     C 6248   0.088   1.912  10.245 -0.7068  0.5702  1.0562
  415TMC3     O 6249   4.716   1.882  10.202 -0.1759  0.4679  0.0653
  415TMC3     H 6250   0.357   1.895  10.205 -0.7086 -0.2368 -0.0948
  415TMC3    H1 6251   0.007   2.086  10.089  0.2048  1.5223  0.7781
  415TMC3    H2 6252   0.368   2.219   9.919 -0.0536 -1.7801 -1.6743
  415TMC3    C7 6253   0.109   2.236   9.896 -0.0235  0.1557  0.1456
  415TMC3    C8 6254   0.509   2.022  10.010 -0.6969 -0.1943 -0.2051
  415TMC3    O1 6255   0.157   2.340   9.859  0.0568 -0.3686 -0.6331
  415TMC3    O2 6256   0.541   1.904  10.003  0.0963  0.1582  0.1045
  416MPD2     C 6257   1.238   1.022  12.507  1.2827 -0.1550  0.2018
  416MPD2    C1 6258   1.156   1.032  12.394 -0.0181 -0.2596 -0.1658
  416MPD2    C2 6259   1.183   0.959  12.275 -0.5920 -0.4977  0.5140
  416MPD2    C3 6260   1.287   0.871  12.269 -0.2906 -0.6612  0.7405
  416MPD2    C4 6261   1.369   0.858  12.378 -0.2340 -0.2735 -0.5673
  416MPD2    C5 6262   1.344   0.937  12.490  0.4308  0.4086 -0.1336
  416MPD2     H 6263   1.112   0.970  12.194 -1.5711  0.1051  1.4562
  416MPD2    H1 6264   1.449   0.786  12.392  0.0082  0.1212  0.0909
  416MPD2    H2 6265   1.236   1.075  12.602 -2.6685 -1.0144  0.5759
  416MPD2    H3 6266   1.420   0.921  12.566  0.3098 -1.9053 -0.5112
  416MPD2     N 6267   1.331   0.801  12.153  0.4035  0.4299 -0.4344
  416MPD2    H5 6268   1.424   0.761  12.163  0.0492 -0.8705 -2.3520
  416MPD2    N1 6269   1.045   1.114  12.401  0.5014 -0.2069 -0.0588
  416MPD2    H7 6270   1.056   1.174  12.482 -2.2251  0.2929 -0.0643
  417TMC3    C1 6271   0.865   1.248  12.315  0.2228 -0.4841 -0.0344
  417TMC3    C2 6272   0.945   1.347  12.362 -0.2855 -0.2682  0.4450
  417TMC3    C3 6273   0.971   1.458  12.294  0.3073  0.6078 -0.4311
  417TMC3    C4 6274   0.810   1.253  12.192  0.5675  0.0666 -0.6584
  417TMC3    C5 6275   0.840   1.366  12.124 -0.0895 -0.5431 -0.0546
  417TMC3    C6 6276   0.919   1.463  12.164  0.8047  0.5041  0.4672
  417TMC3     C 6277   0.932   1.119  12.316 -0.7488 -0.0539 -0.3362
  417TMC3     O 6278   0.911   1.043  12.229  0.3183  0.5389 -0.0585
  417TMC3     H 6279   0.998   1.335  12.456 -1.7471 -0.1135  1.2813
  417TMC3    H1 6280   0.758   1.167  12.151  1.9684 -0.6865 -0.8556
  417TMC3    H2 6281   0.920   1.547  12.095 -0.6179  0.3705  0.2778
  417TMC3    C7 6282   0.843   1.344  11.982 -0.6603 -0.5716  0.1730
  417TMC3    C8 6283   1.117   1.486  12.290  0.2073 -0.6335  0.2516
  417TMC3    O1 6284   0.941   1.398  11.929  0.3271 -0.5533 -0.3849
  417TMC3    O2 6285   1.153   1.605  12.301  0.0931  0.2736  0.6906
  418TMC3    C1 6286   1.350   2.846   0.076  0.1006 -0.4184  0.6337
  418TMC3    C2 6287   1.246   2.935   0.087  0.6804  0.7096 -0.2501
  418TMC3    C3 6288   1.181   2.954   0.206 -0.4594 -0.2575  0.4257
  418TMC3    C4 6289   1.389   2.769   0.179  0.4500 -0.1312 -0.0597
  418TMC3    C5 6290   1.313   2.786   0.293 -0.1348 -0.1290  0.1010
  418TMC3    C6 6291   1.205   2.863   0.302  0.6306  0.0345  0.0101
  418TMC3     C 6292   1.401   2.828  17.690 -0.2560 -0.2077 -0.8991
  418TMC3     O 6293   1.384   2.922  17.612  0.4852  0.2039  0.4710
  418TMC3     H 6294   1.225   2.994  17.748 -0.7048 -2.3971 -2.0134
  418TMC3    H1 6295   1.461   2.689   0.172  0.1579 -0.2416 -1.7716
  418TMC3    H2 6296   1.163   2.867   0.402 -0.3379  1.2468 -0.4459
  418TMC3    C7 6297   1.303   2.659   0.365  0.4591 -0.2134 -0.1209
  418TMC3    C8 6298   1.034   2.957   0.192 -0.1385  0.0587 -0.3547
  418TMC3    O1 6299   1.401   2.589   0.382  0.5178 -0.1225  0.1605
  418TMC3    O2 6300   0.974   3.037   0.260 -0.1638 -0.3478 -0.1211
  419MPD2     C 6301   4.004   0.635  12.552  0.0625 -0.7733  0.3553
  419MPD2    C1 6302   3.910   0.708  12.485 -0.4278 -0.1906 -0.6358
  419MPD2    C2 6303   3.840   0.805  12.560 -0.1251 -0.1922  0.1369
  419MPD2    C3 6304   3.861   0.825  12.695 -0.8733  0.2801  0.5415
  419MPD2    C4 6305   3.957   0.754  12.755  0.1488  0.4231 -0.3214
  419MPD2    C5 6306   4.022   0.658  12.686  0.5288 -0.1029  1.0833
  419MPD2     H 6307   3.762   0.852  12.501 -2.2393 -2.7346  0.8805
  419MPD2    H1 6308   3.984   0.765  12.859 -1.0551 -1.1920  0.1530
  419MPD2    H2 6309   4.051   0.547  12.508  1.6432  0.6475 -0.7787
  419MPD2    H3 6310   4.102   0.604  12.734 -1.5703 -2.1817  2.2472
  419MPD2     N 6311   3.789   0.929  12.760 -0.2638 -0.1475  0.4666
  419MPD2    H5 6312   3.708   0.970  12.715  0.6391  1.7949  0.5991
  419MPD2    N1 6313   3.874   0.671  12.355  0.7331 -0.1608  0.1410
  419MPD2    H7 6314   3.793   0.715  12.313  0.2567 -1.8975 -0.7790
  420TMC3    C1 6315   3.755   1.114  12.913 -0.2981 -0.4889 -0.6279
  420TMC3    C2 6316   3.795   1.222  12.839  0.1747 -0.1776 -0.3201
  420TMC3    C3 6317   3.815   1.343  12.900 -0.0022  0.3396 -0.0328
  420TMC3    C4 6318   3.735   1.127  13.045 -0.8355  0.3139  0.0874
  420TMC3    C5 6319   3.760   1.250  13.104 -0.2096  0.4913  0.2883
  420TMC3    C6 6320   3.804   1.359  13.032 -0.8394  0.1657  0.3442
  420TMC3     C 6321   3.827   0.991  12.880  0.3192 -0.5025  1.4168
  420TMC3     O 6322   3.925   0.969  12.951 -0.8123  0.3909  0.0746
  420TMC3     H 6323   3.805   1.221  12.731  1.6383  2.3820 -0.2010
  420TMC3    H1 6324   3.700   1.040  13.098  0.5948  0.9466  2.0668
  420TMC3    H2 6325   3.797   1.458  13.076  0.6538 -0.1993  1.4168
  420TMC3    C7 6326   3.771   1.248  13.246  0.1277 -0.1180 -0.6076
  420TMC3    C8 6327   3.803   1.462  12.817 -0.0185 -0.4086 -0.3919
  420TMC3    O1 6328   3.716   1.152  13.295  0.0479 -0.3439 -0.1662
  420TMC3    O2 6329   3.754   1.450  12.709  1.1334  0.0438 -0.4166
  421TMC3    C1 6330   0.503   2.623  13.219 -0.8505 -0.1980 -0.0576
  421TMC3    C2 6331   0.512   2.742  13.280 -0.6622  0.4709 -0.0648
  421TMC3    C3 6332   0.513   2.753  13.415 -0.2128 -0.5191  0.3260
  421TMC3    C4 6333   0.503   2.504  13.294  0.2628  0.4742 -0.3441
  421TMC3    C5 6334   0.499   2.521  13.430 -0.0185 -0.3188 -0.2537
  421TMC3    C6 6335   0.499   2.644  13.490 -0.3761  0.4097  0.2085
  421TMC3     C 6336   0.426   2.625  13.092 -0.4378 -0.5145  0.4077
  421TMC3     O 6337   0.447   2.715  13.012 -0.0345  0.1650  0.9896
  421TMC3     H 6338   0.501   2.830  13.217  1.1603 -0.8011 -2.1690
  421TMC3    H1 6339   0.507   2.406  13.248 -0.2727  0.4323 -0.3022
  421TMC3    H2 6340   0.510   2.654  13.597 -0.0702 -0.1460  0.2296
  421TMC3    C7 6341   0.491   2.399  13.514 -0.4916  0.3561 -0.0379
  421TMC3    C8 6342   0.543   2.883  13.463  0.6936 -0.6271  0.6259
  421TMC3    O1 6343   0.549   2.388  13.619  0.2804  0.3551 -0.3299
  421TMC3    O2 6344   0.645   2.937  13.433 -0.1043  0.2234 -0.0149
  422TMC3    C1 6345   2.822   4.015  12.293  0.5179  0.1405 -0.5114
  422TMC3    C2 6346   2.781   4.134  12.360 -0.1201 -1.1610  0.0034
  422TMC3    C3 6347   2.685   4.120  12.453  0.2820  0.2866  0.1909
  422TMC3    C4 6348   2.772   3.891  12.321 -0.8409  0.2056 -0.2112
  422TMC3    C5 6349   2.670   3.890  12.415 -0.5058  0.9304 -0.0591
  422TMC3    C6 6350   2.633   4.000  12.485 -0.5052  0.2713  0.1594
  422TMC3     C 6351   2.923   4.030  12.192 -0.0403 -0.3372 -0.4727
  422TMC3     O 6352   2.956   4.145  12.173  0.1367  0.5244  0.2843
  422TMC3     H 6353   2.826   4.230  12.336 -0.6177 -0.7456  0.7437
  422TMC3    H1 6354   2.808   3.803  12.269  1.8602  1.4245 -0.3781
  422TMC3    H2 6355   2.545   4.000  12.547 -0.0792 -1.4824  0.7480
  422TMC3    C7 6356   2.604   3.759  12.445 -0.5053 -0.6049  0.7207
  422TMC3    C8 6357   2.621   4.227  12.513 -0.2773  0.4780 -0.0248
  422TMC3    O1 6358   2.598   3.680  12.349  0.1112  0.5142 -0.3829
  422TMC3    O2 6359   2.500   4.218  12.525  0.0135 -0.0336 -0.5328
  423MPD2     C 6360   4.643   4.435   0.896  0.1893  0.4681 -0.3446
  423MPD2    C1 6361   0.031   4.409   0.846  0.4013  0.1704 -0.1322
  423MPD2    C2 6362   0.046   4.415   0.708 -0.6514  0.0800  0.4762
  423MPD2    C3 6363   4.675   4.444   0.625  0.7107 -0.2604  0.4728
  423MPD2    C4 6364   4.548   4.458   0.681 -0.0835  0.6844 -0.1357
  423MPD2    C5 6365   4.532   4.449   0.813  0.6925 -0.4881 -0.0567
  423MPD2     H 6366   0.146   4.409   0.668 -0.5993 -0.3195  0.6717
  423MPD2    H1 6367   4.459   4.468   0.619  1.2256 -2.3744 -2.5287
  423MPD2    H2 6368   4.624   4.445   1.002  0.0183 -2.9092 -0.0497
  423MPD2    H3 6369   4.431   4.472   0.846  0.8496  0.2274 -0.0610
  423MPD2     N 6370   4.686   4.478   0.490 -0.5633  0.0458  0.3696
  423MPD2    H5 6371   4.598   4.495   0.443 -0.3520 -0.0179 -0.0505
  423MPD2    N1 6372   0.138   4.386   0.937 -0.0388  0.1598 -0.4949
  423MPD2    H7 6373   0.226   4.356   0.897  1.3212  2.2048  0.9437
  424TMC3    C1 6374   0.285   4.382   1.102  0.1234 -0.1192  0.5811
  424TMC3    C2 6375   0.363   4.295   1.030 -0.3610  0.1550 -0.1934
  424TMC3    C3 6376   0.485   4.256   1.085  0.1416  0.1680 -0.3341
  424TMC3    C4 6377   0.328   4.440   1.213 -0.1570  0.4371  0.4754
  424TMC3    C5 6378   0.457   4.408   1.260  0.1610  0.0678  0.4966
  424TMC3    C6 6379   0.535   4.313   1.203 -0.5856  0.7249  0.6104
  424TMC3     C 6380   0.149   4.420   1.068  0.2410 -0.3251 -0.3535
  424TMC3     O 6381   0.081   4.500   1.132  0.2421  0.5400  0.2711
  424TMC3     H 6382   0.339   4.238   0.941 -1.5326 -1.9135  1.4525
  424TMC3    H1 6383   0.261   4.506   1.266  1.4993  0.5704  2.4142
  424TMC3    H2 6384   0.625   4.274   1.248 -0.1881  2.0279  0.9535
  424TMC3    C7 6385   0.495   4.467   1.388  0.6794  0.4878 -0.0782
  424TMC3    C8 6386   0.548   4.139   1.026 -0.4745  0.0002 -0.1343
  424TMC3    O1 6387   0.589   4.425   1.447 -0.4478 -0.0736  0.3226
  424TMC3    O2 6388   0.476   4.058   0.976 -1.0859 -0.6139  0.0101
  425MPD2     C 6389   3.618   3.698  17.270 -0.2148  0.9400  0.5063
  425MPD2    C1 6390   3.531   3.589  17.288  1.1620  0.0887 -0.1465
  425MPD2    C2 6391   3.407   3.613  17.353 -0.0353  0.1393 -0.0667
  425MPD2    C3 6392   3.382   3.740  17.410 -0.4602  0.0558 -0.4327
  425MPD2    C4 6393   3.473   3.844  17.402 -0.4935 -0.0435 -0.2398
  425MPD2    C5 6394   3.596   3.817  17.341  0.1066  0.4467 -0.3450
  425MPD2     H 6395   3.322   3.545  17.349  0.4386 -0.5488  1.6508
  425MPD2    H1 6396   3.459   3.948  17.429  1.2707  0.1515 -0.1043
  425MPD2    H2 6397   3.710   3.700  17.213  0.7384  0.2325  2.0211
  425MPD2    H3 6398   3.672   3.895  17.346  0.2669  0.2567  0.1959
  425MPD2     N 6399   3.256   3.756  17.465  0.4781  0.3322 -0.1211
  425MPD2    H5 6400   3.198   3.673  17.471  0.9676  0.0235  0.3620
  425MPD2    N1 6401   3.564   3.464  17.231  0.6748 -0.0184 -0.1391
  425MPD2    H7 6402   3.649   3.474  17.176  0.2647  1.8772 -0.4230
  426TMC3    C1 6403   3.524   3.229  17.164  0.1745 -0.1301 -0.7756
  426TMC3    C2 6404   3.556   3.259  17.035  0.2882 -0.2526 -0.3558
  426TMC3    C3 6405   3.549   3.157  16.945  0.6866 -0.3676 -0.4454
  426TMC3    C4 6406   3.471   3.107  17.209  0.4960 -0.0777 -0.0567
  426TMC3    C5 6407   3.473   3.006  17.118  0.2358  0.2018  0.1499
  426TMC3    C6 6408   3.510   3.028  16.987  0.1407 -0.9167  0.5696
  426TMC3     C 6409   3.495   3.344  17.248  0.1498  0.9077 -0.2304
  426TMC3     O 6410   3.398   3.327  17.316 -0.2560  0.2926  0.3960
  426TMC3     H 6411   3.603   3.354  17.010 -0.7568  0.3393 -0.0803
  426TMC3    H1 6412   3.456   3.087  17.314 -0.2671 -1.2713 -0.3930
  426TMC3    H2 6413   3.486   2.958  16.907 -0.7734 -0.3538  0.3463
  426TMC3    C7 6414   3.429   2.868  17.138 -0.1049  0.3101 -0.0753
  426TMC3    C8 6415   3.563   3.187  16.811 -0.4815  0.4478 -0.0687
  426TMC3    O1 6416   3.467   2.786  17.052  0.2956 -0.0715  0.1412
  426TMC3    O2 6417   3.601   3.107  16.730 -0.0960 -0.0808  0.3278
  427MPD2     C 6418   2.094   1.062  14.801 -1.0907 -0.2022 -0.3194
  427MPD2    C1 6419   2.034   1.053  14.927  0.5686  0.6832  0.3079
  427MPD2    C2 6420   1.897   1.082  14.945  0.3933 -0.1986 -0.1451
  427MPD2    C3 6421   1.815   1.102  14.835  0.5891  0.1649 -0.6921
  427MPD2    C4 6422   1.869   1.095  14.707 -0.1143 -0.0791  0.1948
  427MPD2    C5 6423   2.004   1.082  14.690  0.7040 -0.6099  0.2121
  427MPD2     H 6424   1.859   1.106  15.043  0.0103 -1.4494  0.0069
  427MPD2    H1 6425   1.808   1.113  14.619  1.3677  2.3875 -0.3330
  427MPD2    H2 6426   2.201   1.057  14.785 -0.8733  1.5529  0.6121
  427MPD2    H3 6427   2.046   1.110  14.594  0.0231 -0.3939 -0.0235
  427MPD2     N 6428   1.678   1.149  14.845 -0.3384  0.2032 -0.0202
  427MPD2    H5 6429   1.637   1.171  14.755 -0.1278  2.9822  0.5750
  427MPD2    N1 6430   2.108   1.019  15.041 -0.0878 -0.7429  0.6654
  427MPD2    H7 6431   2.063   1.016  15.132  0.9615 -0.5705  1.1944
  428TMC3    C1 6432   2.285   0.923  15.170 -0.2974  0.1214 -0.4555
  428TMC3    C2 6433   2.198   0.874  15.263 -0.3070  0.1206  0.1361
  428TMC3    C3 6434   2.255   0.791  15.357 -0.4717 -0.4669 -0.1274
  428TMC3    C4 6435   2.419   0.901  15.187  0.0855  0.5651 -0.2229
  428TMC3    C5 6436   2.466   0.831  15.296 -0.3061  0.4576  0.0638
  428TMC3    C6 6437   2.385   0.770  15.381 -0.0804 -0.1437  0.4921
  428TMC3     C 6438   2.243   0.984  15.045  0.0164 -0.0173  0.0989
  428TMC3     O 6439   2.324   0.989  14.949 -0.6829 -0.5942  0.0605
  428TMC3     H 6440   2.092   0.868  15.241  0.3633 -2.7418 -2.4075
  428TMC3    H1 6441   2.489   0.927  15.107  3.0406  0.9446  2.4947
  428TMC3    H2 6442   2.418   0.716  15.469 -0.4110 -1.5717 -0.2596
  428TMC3    C7 6443   2.592   0.868  15.351 -0.3200  0.4357  0.0624
  428TMC3    C8 6444   2.176   0.700  15.434  0.0384  0.2136 -0.1761
  428TMC3    O1 6445   2.604   0.852  15.472  0.3280 -0.1059  0.3794
  428TMC3    O2 6446   2.196   0.584  15.410  0.2788  0.0142 -0.2043
  429MPD2     C 6447   3.024   1.128   0.466 -0.1175  0.0640  0.0479
  429MPD2    C1 6448   3.066   1.042   0.363  0.0621 -0.1709 -0.3654
  429MPD2    C2 6449   3.068   1.101   0.237  1.0132 -0.7888 -0.5230
  429MPD2    C3 6450   3.048   1.229   0.208 -0.8537  0.4156  0.1969
  429MPD2    C4 6451   2.991   1.301   0.312 -0.0658 -0.2017 -0.1787
  429MPD2    C5 6452   2.997   1.261   0.441 -0.2906 -0.3634  0.2289
  429MPD2     H 6453   3.103   1.042   0.152  0.1634 -1.6643 -0.2671
  429MPD2    H1 6454   2.957   1.402   0.295 -0.5715 -0.3309  0.0654
  429MPD2    H2 6455   3.027   1.089   0.567 -2.8348  1.2944  0.5889
  429MPD2    H3 6456   2.958   1.322   0.521  0.4042  1.1983 -0.6206
  429MPD2     N 6457   3.099   1.283   0.080  0.1532  0.6452  0.8072
  429MPD2    H5 6458   3.145   1.211   0.025 -1.0793  0.5597 -0.1200
  429MPD2    N1 6459   3.101   0.905   0.381 -0.2708 -0.4241  0.1665
  429MPD2    H7 6460   3.133   0.851   0.301  1.8591  0.1439  0.6403
  430TMC3    C1 6461   3.181   1.431  17.659  0.3499 -0.7693 -0.1106
  430TMC3    C2 6462   3.162   1.540  17.571 -0.4735 -0.4154  0.6190
  430TMC3    C3 6463   3.248   1.553  17.466 -0.4948 -0.4970 -0.3645
  430TMC3    C4 6464   3.293   1.349  17.643  0.4366 -0.4332 -0.4680
  430TMC3    C5 6465   3.378   1.373  17.539  0.3635  0.6263 -0.3408
  430TMC3    C6 6466   3.348   1.466  17.444 -0.3075 -0.5833  0.6018
  430TMC3     C 6467   3.100   1.409   0.026 -0.0633 -0.2966 -0.1256
  430TMC3     O 6468   3.029   1.503   0.065  0.1366  0.6596 -0.1832
  430TMC3     H 6469   3.063   1.584  17.566  0.3670  1.4145 -0.0041
  430TMC3    H1 6470   3.316   1.273  17.718 -0.3255 -1.8648 -1.6745
  430TMC3    H2 6471   3.409   1.469  17.354  0.5917 -0.8602  1.2068
  430TMC3    C7 6472   3.479   1.274  17.515  0.7303 -0.6038  0.1746
  430TMC3    C8 6473   3.200   1.610  17.343  0.7523 -0.1807 -0.2863
  430TMC3    O1 6474   3.460   1.166  17.568  0.1901  0.0465  0.2151
  430TMC3    O2 6475   3.093   1.569  17.297  0.3795  0.4338  0.4741
  431MPD2     C 6476   3.599   0.980  12.363  0.3700  0.0137 -1.0209
  431MPD2    C1 6477   3.652   0.979  12.234 -0.0552  0.3744 -0.2569
  431MPD2    C2 6478   3.617   0.884  12.143 -0.1716 -0.4693 -0.8521
  431MPD2    C3 6479   3.527   0.785  12.175  0.0588 -0.2665 -0.2190
  431MPD2    C4 6480   3.483   0.785  12.302 -0.1821  0.8360 -0.5584
  431MPD2    C5 6481   3.514   0.880  12.396  0.4733  0.8370 -0.1619
  431MPD2     H 6482   3.637   0.889  12.036 -3.2839  1.2586 -1.3707
  431MPD2    H1 6483   3.412   0.707  12.327 -0.6400  1.2845 -0.4652
  431MPD2    H2 6484   3.634   1.050  12.437 -0.4756 -0.3702 -0.2668
  431MPD2    H3 6485   3.474   0.865  12.495  2.5197  0.4279  0.5942
  431MPD2     N 6486   3.500   0.675  12.089  0.3001 -0.5974 -0.1728
  431MPD2    H5 6487   3.418   0.618  12.109  0.1174 -0.3883 -0.3203
  431MPD2    N1 6488   3.746   1.077  12.200 -0.3598  0.2009  0.1442
  431MPD2    H7 6489   3.770   1.075  12.102 -0.6794  1.4320  0.0454
  432TMC3    C1 6490   3.722   0.635  11.998  0.3586 -0.8003 -0.6673
  432TMC3    C2 6491   3.799   0.704  11.905  0.4165 -0.3433  0.3137
  432TMC3    C3 6492   3.924   0.729  11.931 -0.1335 -0.1778 -0.0170
  432TMC3    C4 6493   3.770   0.605  12.125 -0.1021 -0.5834 -0.4512
  432TMC3    C5 6494   3.901   0.617  12.136  0.2630 -0.2071 -0.8626
  432TMC3    C6 6495   3.984   0.673  12.041  0.2928  0.0302  0.2051
  432TMC3     C 6496   3.572   0.646  11.970  0.6860 -0.7142  0.2501
  432TMC3     O 6497   3.528   0.615  11.861 -0.2186  0.0083  0.4635
  432TMC3     H 6498   3.750   0.745  11.817  0.3422 -0.8193  0.1348
  432TMC3    H1 6499   3.707   0.542  12.187  0.8426 -0.4455  0.6366
  432TMC3    H2 6500   4.092   0.666  12.050  0.4241  0.4135 -1.0927
  432TMC3    C7 6501   3.947   0.599  12.265 -0.4114 -0.5139 -0.3694
  432TMC3    C8 6502   3.989   0.843  11.866 -0.1533 -0.4584 -0.2965
  432TMC3    O1 6503   4.055   0.548  12.276 -0.0193  0.1347  0.3866
  432TMC3    O2 6504   3.953   0.865  11.752  0.0867 -0.3863 -0.0669
  433MPD2     C 6505   2.434   4.679  10.827  0.2810  0.4345  0.1309
  433MPD2    C1 6506   2.488   4.555  10.874  0.4639 -0.2853  0.2719
  433MPD2    C2 6507   2.569   4.555  10.985 -1.1755  0.2180  0.3614
  433MPD2    C3 6508   2.609   4.675  11.030 -0.3189  0.1653  0.2253
  433MPD2    C4 6509   2.548   0.056  10.998 -0.1327  0.5546  0.3680
  433MPD2    C5 6510   2.462   0.054  10.890 -0.6640 -0.6598 -0.3305
  433MPD2     H 6511   2.626   4.471  11.024  0.3156  0.1332 -2.0479
  433MPD2    H1 6512   2.568   0.148  11.052 -0.3496 -0.2859  1.8764
  433MPD2    H2 6513   2.373   4.678  10.738  0.2226 -1.3362  0.1778
  433MPD2    H3 6514   2.422   0.151  10.863 -0.5017 -0.2093  1.0341
  433MPD2     N 6515   2.715   4.662  11.122 -0.1969 -0.2206  0.1256
  433MPD2    H5 6516   2.743   4.570  11.152 -0.8657  0.6687  3.4901
  433MPD2    N1 6517   2.472   4.439  10.794 -0.1882  0.3136 -0.5991
  433MPD2    H7 6518   2.417   4.447  10.709 -0.9170 -0.7794 -0.2347
  434TMC3    C1 6519   2.546   4.212  10.736  0.7004  0.7739 -0.1678
  434TMC3    C2 6520   2.601   4.092  10.776 -0.3680  0.4375 -0.4377
  434TMC3    C3 6521   2.657   4.004  10.686  0.0653 -0.5980 -0.3075
  434TMC3    C4 6522   2.512   4.231  10.604  0.0724  0.1647 -0.1825
  434TMC3    C5 6523   2.560   4.138  10.516 -0.4043 -0.5227 -0.2762
  434TMC3    C6 6524   2.646   4.034  10.552 -0.0355  0.3992  0.3727
  434TMC3     C 6525   2.513   4.311  10.839  0.2784  0.1220  0.1886
  434TMC3     O 6526   2.553   4.278  10.949 -0.0247 -0.2157  0.0720
  434TMC3     H 6527   2.622   4.084  10.882 -1.2132 -0.7585 -0.3706
  434TMC3    H1 6528   2.448   4.313  10.575 -0.9370 -0.1665  1.0997
  434TMC3    H2 6529   2.679   3.955  10.485  2.6885  2.4143 -0.6306
  434TMC3    C7 6530   2.553   4.175  10.380  0.1740 -0.2939 -0.1470
  434TMC3    C8 6531   2.748   3.907  10.736 -0.2903  0.0077 -0.7807
  434TMC3    O1 6532   2.651   4.228  10.329 -0.2059 -0.0199  0.4025
  434TMC3    O2 6533   2.741   3.874  10.853 -0.4861 -0.5441 -0.2981
  435MPD2     C 6534   4.620   0.272  15.552  0.8596 -0.4229  0.0579
  435MPD2    C1 6535   4.613   0.146  15.610  0.1907  0.1496  0.1656
  435MPD2    C2 6536   4.718   0.063  15.620 -0.4008 -0.3471  0.2529
  435MPD2    C3 6537   0.101   0.104  15.577 -0.3179 -0.0150 -0.1951
  435MPD2    C4 6538   0.115   0.233  15.528  0.5432  0.2015  0.9733
  435MPD2    C5 6539   0.005   0.317  15.519 -0.3767  1.0285  0.2710
  435MPD2     H 6540   4.704   4.703  15.662 -0.1344  0.2034  1.6050
  435MPD2    H1 6541   0.212   0.275  15.503  2.3514 -3.1604  2.4019
  435MPD2    H2 6542   4.535   0.340  15.548 -1.0361 -2.8959 -1.6636
  435MPD2    H3 6543   0.004   0.419  15.482 -1.7947  1.4417  1.4480
  435MPD2     N 6544   0.221   0.023  15.616  0.1635  0.7811 -0.3888
  435MPD2    H5 6545   0.197   4.683  15.676  0.3879 -0.3799 -1.8178
  435MPD2    N1 6546   4.486   0.098  15.653  0.3174  0.1143  0.3252
  435MPD2    H7 6547   4.479   0.009  15.701  1.6289 -0.5841 -0.7842
  436TMC3    C1 6548   4.223   0.022  15.957 -0.4283 -0.2962 -0.6250
  436TMC3    C2 6549   4.318   0.046  15.866  0.2801  0.3801  0.1663
  436TMC3    C3 6550   4.273   0.110  15.749 -0.1154  0.0727 -0.1320
  436TMC3    C4 6551   4.089   0.028  15.934 -0.2280 -0.4219  0.3529
  436TMC3    C5 6552   4.046   0.080  15.814 -0.0305  0.3975  0.1002
  436TMC3    C6 6553   4.141   0.123  15.723 -0.0276  0.4468  0.0565
  436TMC3     C 6554   4.271   0.006  16.095 -0.3742  0.7365 -0.3343
  436TMC3     O 6555   4.380   4.696  16.119 -0.3035  0.1287  0.1297
  436TMC3     H 6556   4.423   0.037  15.890  0.2156  1.6405  0.9410
  436TMC3    H1 6557   4.024   4.724  16.010 -0.7232  2.5703  1.5701
  436TMC3    H2 6558   4.115   0.168  15.628  0.9679  1.0048  0.0559
  436TMC3    C7 6559   3.912   0.032  15.770 -0.0256  0.2891 -0.1947
  436TMC3    C8 6560   4.368   0.163  15.644 -0.1962 -0.1390 -0.2386
  436TMC3    O1 6561   3.852   4.685  15.830 -0.7790 -0.2391 -0.1677
  436TMC3    O2 6562   4.338   0.268  15.601 -0.0049 -0.0513 -0.0193
  437TMC3    C1 6563   3.730   1.698  11.698  0.2580 -0.9682 -0.3440
  437TMC3    C2 6564   3.601   1.699  11.644 -0.2058 -0.4442 -0.1135
  437TMC3    C3 6565   3.558   1.814  11.588  0.0907 -0.1656 -0.2155
  437TMC3    C4 6566   3.807   1.811  11.684  0.2800  0.2496  0.3597
  437TMC3    C5 6567   3.756   1.926  11.632 -0.3194  0.0303 -0.3380
  437TMC3    C6 6568   3.628   1.934  11.589 -0.6657  0.4611 -0.1069
  437TMC3     C 6569   3.739   1.663  11.841 -0.5299 -0.2887  0.5754
  437TMC3     O 6570   3.809   1.724  11.923  0.8992  0.0738  0.3436
  437TMC3     H 6571   3.524   1.630  11.676 -0.0687 -1.2049 -1.3885
  437TMC3    H1 6572   3.910   1.797  11.716  0.7061 -2.2881 -2.1032
  437TMC3    H2 6573   3.596   2.031  11.551 -0.8413  0.0397 -1.0492
  437TMC3    C7 6574   3.817   2.044  11.685 -0.0864 -0.4134  0.4782
  437TMC3    C8 6575   3.433   1.816  11.516  0.7005 -0.8229  0.1841
  437TMC3    O1 6576   3.784   2.142  11.625  0.1289  0.5662  0.4041
  437TMC3    O2 6577   3.372   1.917  11.492 -0.3318  0.3792  0.3187
  438MPD2     C 6578   1.202   2.649  16.505  0.3637  0.8487  0.0293
  438MPD2    C1 6579   1.292   2.546  16.543 -0.3177 -0.3716 -0.1765
  438MPD2    C2 6580   1.300   2.513  16.678  0.0757  0.4615  0.1453
  438MPD2    C3 6581   1.218   2.577  16.775 -0.5900  0.2730  0.3627
  438MPD2    C4 6582   1.127   2.671  16.734 -0.3409  0.8648 -0.7639
  438MPD2    C5 6583   1.122   2.711  16.602  0.7753  0.2327 -0.5810
  438MPD2     H 6584   1.380   2.447  16.709  0.1130 -0.0522 -1.0462
  438MPD2    H1 6585   1.055   2.712  16.803  1.1611 -1.4381  2.1958
  438MPD2    H2 6586   1.196   2.679  16.401  1.0481 -2.5196 -0.9886
  438MPD2    H3 6587   1.054   2.790  16.574 -0.2803  0.0681  1.5303
  438MPD2     N 6588   1.228   2.552  16.921  0.2958 -0.0501  0.4481
  438MPD2    H5 6589   1.167   2.605  16.983  0.5100 -1.0186  1.4782
  438MPD2    N1 6590   1.368   2.467  16.455 -0.0248 -0.0475 -0.1020
  438MPD2    H7 6591   1.407   2.385  16.500 -0.0415 -1.1232 -2.0707
  439TMC3    C1 6592   1.453   2.366  16.268 -0.4956  0.9763 -0.4153
  439TMC3    C2 6593   1.506   2.373  16.141  0.2970 -0.0206  0.0917
  439TMC3    C3 6594   1.598   2.279  16.098  0.4728 -0.3644 -0.3468
  439TMC3    C4 6595   1.493   2.268  16.354  0.6232 -0.0691 -0.6829
  439TMC3    C5 6596   1.585   2.181  16.304  0.7246 -0.1161 -0.4116
  439TMC3    C6 6597   1.651   2.185  16.183  0.2231  0.3031  0.1421
  439TMC3     C 6598   1.383   2.475  16.318 -0.0485 -0.5792 -0.1513
  439TMC3     O 6599   1.357   2.575  16.249  0.1928 -0.1326  0.1229
  439TMC3     H 6600   1.472   2.453  16.076 -0.3260 -0.3853 -0.0299
  439TMC3    H1 6601   1.437   2.238  16.441  1.1743 -1.4598 -0.8022
  439TMC3    H2 6602   1.726   2.111  16.156 -0.8663 -1.3763  1.7799
  439TMC3    C7 6603   1.603   2.059  16.388 -0.4610 -0.1819 -0.4149
  439TMC3    C8 6604   1.669   2.287  15.967 -0.2715  0.6704 -0.0936
  439TMC3    O1 6605   1.511   2.022  16.459 -0.2634  0.4827  0.3266
  439TMC3    O2 6606   1.713   2.179  15.931  0.0864  0.2327  0.0112
  440MPD2     C 6607   4.636   2.677  14.927 -1.0060 -0.6114  0.1522
  440MPD2    C1 6608   4.707   2.773  15.002  1.4505 -0.9009  0.2712
  440MPD2    C2 6609   0.079   2.737  15.073  0.4412 -0.5059 -0.3537
  440MPD2    C3 6610   0.127   2.609  15.073 -0.6232 -0.6813 -0.4374
  440MPD2    C4 6611   0.061   2.520  14.996 -0.3078  0.0955  1.0201
  440MPD2    C5 6612   4.683   2.549  14.922  0.2235 -0.2806  0.2440
  440MPD2     H 6613   0.125   2.817  15.130  1.9074 -1.0990 -0.6891
  440MPD2    H1 6614   0.098   2.418  14.982  1.0411  0.7100  0.0795
  440MPD2    H2 6615   4.550   2.712  14.871 -1.1671 -0.6048  0.4031
  440MPD2    H3 6616   4.645   2.477  14.851  1.1483  0.2897 -0.8220
  440MPD2     N 6617   0.243   2.576  15.146 -0.6602 -0.4135  1.0443
  440MPD2    H5 6618   0.271   2.479  15.153  0.3423 -0.1104  1.3262
  440MPD2    N1 6619   4.676   2.907  15.014  0.4107 -0.3232 -0.4271
  440MPD2    H7 6620   4.728   2.958  15.084 -1.3072 -1.3898  1.6336
  441TMC3    C1 6621   0.416   2.612  15.290  0.2387  0.7398  0.7437
  441TMC3    C2 6622   0.530   2.676  15.297 -0.0186 -0.0815  0.1644
  441TMC3    C3 6623   0.589   2.683  15.415  0.1476  0.1306 -0.0793
  441TMC3    C4 6624   0.356   2.538  15.384  0.1299 -0.1556 -0.9295
  441TMC3    C5 6625   0.423   2.536  15.501  0.1440  0.2196  0.1133
  441TMC3    C6 6626   0.534   2.612  15.522 -0.0914  0.3575 -0.0452
  441TMC3     C 6627   0.328   2.669  15.196 -0.1226 -0.0156 -0.0643
  441TMC3     O 6628   0.341   2.786  15.166 -0.2012 -0.0073  0.4900
  441TMC3     H 6629   0.571   2.697  15.199  0.9147 -0.7089  0.4187
  441TMC3    H1 6630   0.259   2.493  15.366 -0.5353  1.7577 -2.2174
  441TMC3    H2 6631   0.587   2.626  15.615  2.5589  1.4882 -1.7262
  441TMC3    C7 6632   0.345   2.481  15.607 -0.5088  0.1167 -0.4785
  441TMC3    C8 6633   0.617   2.822  15.445 -0.3022 -0.0786 -0.0942
  441TMC3    O1 6634   0.224   2.469  15.595 -0.3008  0.2587  0.3022
  441TMC3    O2 6635   0.693   2.838  15.537 -0.2575 -0.2816 -0.0753
  442MPD2     C 6636   3.130   3.287  16.048  0.1899 -0.1253  0.3044
  442MPD2    C1 6637   3.083   3.193  16.122 -0.7649 -0.4906  0.1176
  442MPD2    C2 6638   3.027   3.081  16.061 -0.1787  0.7951  0.4125
  442MPD2    C3 6639   3.017   3.065  15.925  0.0388 -0.4275  0.4257
  442MPD2    C4 6640   3.056   3.172  15.854  0.0506  0.2951 -0.3502
  442MPD2    C5 6641   3.121   3.275  15.916 -0.2499  0.1942 -0.0638
  442MPD2     H 6642   3.002   2.994  16.120  2.3569  0.9622  1.7327
  442MPD2    H1 6643   3.055   3.169  15.745  2.1769 -0.6966 -0.3553
  442MPD2    H2 6644   3.188   3.373  16.078 -0.1332  0.1184  0.2286
  442MPD2    H3 6645   3.147   3.356  15.849 -0.0644 -0.3859 -0.6932
  442MPD2     N 6646   2.975   2.948  15.856 -0.5611  0.5893 -0.1275
  442MPD2    H5 6647   2.988   2.953  15.756 -2.0807  1.5991 -0.2811
  442MPD2    N1 6648   3.103   3.175  16.263  0.1174 -0.1953  0.0223
  442MPD2    H7 6649   3.069   3.090  16.307  1.6317 -1.0928 -0.5523
  443TMC3    C1 6650   3.101   3.250  16.491  0.2438 -0.6304  0.2434
  443TMC3    C2 6651   3.099   3.367  16.573 -0.4080 -0.0245  0.1349
  443TMC3    C3 6652   3.028   3.347  16.688 -0.0851  0.0999 -1.1655
  443TMC3    C4 6653   3.049   3.131  16.535  0.4763 -0.1870 -0.3224
  443TMC3    C5 6654   2.993   3.110  16.655  0.1997 -0.6164  0.4654
  443TMC3    C6 6655   2.986   3.224  16.737 -0.2210 -0.5446  0.2284
  443TMC3     C 6656   3.126   3.279  16.348 -0.4154 -0.3355 -0.1200
  443TMC3     O 6657   3.161   3.391  16.322  0.0233 -0.0742 -0.4995
  443TMC3     H 6658   3.113   3.468  16.539 -1.5401  0.5579  1.3648
  443TMC3    H1 6659   3.060   3.047  16.467  0.2732 -1.2775  0.9832
  443TMC3    H2 6660   2.939   3.232  16.834 -2.0088  1.0869 -0.7711
  443TMC3    C7 6661   2.887   3.007  16.668 -0.3781 -0.2078  0.1312
  443TMC3    C8 6662   2.974   3.457  16.763  0.3395  0.1503  0.1563
  443TMC3    O1 6663   2.858   2.954  16.561  0.5858 -0.4892 -0.3124
  443TMC3    O2 6664   3.058   3.527  16.821  0.0340 -0.0559 -0.0797
  444MPD2     C 6665   3.201   2.951  16.822 -0.1582 -0.3395  0.6309
  444MPD2    C1 6666   3.140   2.831  16.844  0.3007  0.0858  0.2006
  444MPD2    C2 6667   3.163   2.724  16.758  0.7179  0.1000  0.2915
  444MPD2    C3 6668   3.253   2.732  16.653 -0.1534  0.0726  0.0443
  444MPD2    C4 6669   3.327   2.853  16.638  0.1997 -0.4094  0.7302
  444MPD2    C5 6670   3.290   2.961  16.722 -0.6162 -0.3408  0.3264
  444MPD2     H 6671   3.114   2.628  16.774 -0.6850  0.6431 -0.7058
  444MPD2    H1 6672   3.401   2.874  16.562 -0.0090  2.2845  1.2645
  444MPD2    H2 6673   3.192   3.029  16.897  0.5860 -0.6619  1.0541
  444MPD2    H3 6674   3.339   3.056  16.708  0.1499 -0.6370  0.9753
  444MPD2     N 6675   3.283   2.610  16.574  0.2136 -0.3351 -0.3692
  444MPD2    H5 6676   3.216   2.537  16.596  0.2647  0.5499  2.6950
  444MPD2    N1 6677   3.052   2.811  16.958 -0.4626 -0.6870  0.1773
  444MPD2    H7 6678   3.010   2.721  16.981 -2.0601  0.2875  1.0767
  445TMC3    C1 6679   3.418   2.477  16.427 -0.0379 -0.5395  0.1265
  445TMC3    C2 6680   3.366   2.363  16.492 -0.0062  0.1028 -0.5439
  445TMC3    C3 6681   3.384   2.246  16.426 -1.2254  0.0752 -0.1424
  445TMC3    C4 6682   3.494   2.477  16.310  0.7416  0.0742  0.2452
  445TMC3    C5 6683   3.510   2.352  16.259  0.0007  0.8784  0.4289
  445TMC3    C6 6684   3.451   2.239  16.311 -0.0974 -0.6224 -0.8805
  445TMC3     C 6685   3.375   2.605  16.471 -0.0540  0.2202  0.8011
  445TMC3     O 6686   3.422   2.702  16.408 -0.1954  0.2798 -0.4707
  445TMC3     H 6687   3.308   2.361  16.584 -1.3794  1.6797 -1.3837
  445TMC3    H1 6688   3.541   2.564  16.265  2.1373 -1.1476 -0.6699
  445TMC3    H2 6689   3.460   2.146  16.257  1.3909 -0.7832 -0.3727
  445TMC3    C7 6690   3.640   2.331  16.212  0.1547 -0.1446 -0.2259
  445TMC3    C8 6691   3.375   2.119  16.512  0.1010 -0.2876  0.3924
  445TMC3    O1 6692   3.702   2.427  16.174 -0.4661 -0.1258 -0.0569
  445TMC3    O2 6693   3.362   2.133  16.632  0.0772 -0.9032  0.1664
  446MPD2     C 6694   2.595   3.791  11.408 -0.4630 -0.3014  0.4224
  446MPD2    C1 6695   2.549   3.778  11.281 -0.4131  0.7130  0.5381
  446MPD2    C2 6696   2.619   3.846  11.179  0.2858  0.2692 -0.2472
  446MPD2    C3 6697   2.732   3.914  11.201 -0.5108 -0.4875 -0.0615
  446MPD2    C4 6698   2.766   3.924  11.333 -0.5133  0.4246  0.8958
  446MPD2    C5 6699   2.703   3.862  11.435  0.2701 -0.1993 -0.1995
  446MPD2     H 6700   2.575   3.856  11.081 -0.1499 -2.3594 -0.3206
  446MPD2    H1 6701   2.848   3.988  11.364  0.5336 -1.2805  1.6431
  446MPD2    H2 6702   2.552   3.743  11.495  2.3977 -0.2334  1.8665
  446MPD2    H3 6703   2.739   3.868  11.537 -0.3217 -0.1718  0.0103
  446MPD2     N 6704   2.816   3.967  11.101 -0.1776 -0.1273 -0.6622
  446MPD2    H5 6705   2.780   3.966  11.007 -1.7691 -2.1637 -0.0278
  446MPD2    N1 6706   2.420   3.714  11.257  0.1862 -0.2180 -0.4000
  446MPD2    H7 6707   2.384   3.721  11.162  0.2793  0.0406 -0.4190
  447TMC3    C1 6708   3.010   4.042  10.991 -0.3767  0.2227 -0.1989
  447TMC3    C2 6709   2.940   4.109  10.898  0.9862 -0.4515 -0.3677
  447TMC3    C3 6710   3.009   4.144  10.786  0.1104 -0.2195  0.0191
  447TMC3    C4 6711   3.146   4.039  10.990 -0.5975  0.4647 -0.4190
  447TMC3    C5 6712   3.210   4.078  10.871  0.2039  0.1653 -0.7647
  447TMC3    C6 6713   3.144   4.121  10.763 -0.6967 -0.8722 -0.2626
  447TMC3     C 6714   2.953   3.992  11.110  0.4963  0.4879 -0.9436
  447TMC3     O 6715   3.029   3.991  11.208  0.2335  0.4892  0.2604
  447TMC3     H 6716   2.836   4.135  10.905  1.5862  1.7153  0.4294
  447TMC3    H1 6717   3.208   4.002  11.070 -1.0721 -2.4180 -1.3695
  447TMC3    H2 6718   3.193   4.158  10.674 -1.6265 -0.3998 -0.5793
  447TMC3    C7 6719   3.346   4.043  10.843 -0.2477 -0.8364 -0.0244
  447TMC3    C8 6720   2.943   4.229  10.688  0.3860 -0.5314  0.5101
  447TMC3    O1 6721   3.385   4.069  10.730 -0.2479 -0.0703  0.0429
  447TMC3    O2 6722   2.953   4.201  10.572  0.5938 -0.2636  0.0538
  448TMC3    C1 6723   1.425   3.829  16.938  0.3229 -0.3736 -0.7903
  448TMC3    C2 6724   1.376   3.717  16.879 -0.2967 -0.1183 -0.0607
  448TMC3    C3 6725   1.349   3.614  16.963 -0.3175  0.8600 -0.1854
  448TMC3    C4 6726   1.443   3.852  17.070 -0.0127 -0.1011 -0.1461
  448TMC3    C5 6727   1.414   3.746  17.154 -0.0504 -0.0561 -0.1038
  448TMC3    C6 6728   1.373   3.624  17.102  0.1227 -0.2957 -0.7396
  448TMC3     C 6729   1.490   3.929  16.850 -0.1600 -0.2387  0.3312
  448TMC3     O 6730   1.511   4.040  16.898  0.4567 -0.1208  0.3384
  448TMC3     H 6731   1.365   3.709  16.771 -1.6289 -0.5810  0.1043
  448TMC3    H1 6732   1.492   3.936  17.117  0.1628 -1.5399  2.2320
  448TMC3    H2 6733   1.378   3.531  17.156  0.2412  1.2152  1.8633
  448TMC3    C7 6734   1.491   3.739  17.278 -0.1201 -0.0882  0.7852
  448TMC3    C8 6735   1.326   3.479  16.928  1.3902 -0.3795 -0.6835
  448TMC3    O1 6736   1.589   3.816  17.285 -0.0694 -0.1580 -0.0541
  448TMC3    O2 6737   1.380   3.389  16.988 -0.0870  0.2098 -0.1746
  449MPD2     C 6738   2.374   2.266  13.696  0.0505  0.5882 -1.0957
  449MPD2    C1 6739   2.252   2.331  13.691  0.2559  0.3850 -0.3526
  449MPD2    C2 6740   2.137   2.253  13.686 -0.3027  0.4424 -0.0977
  449MPD2    C3 6741   2.141   2.115  13.698 -0.2207  0.7477  0.8789
  449MPD2    C4 6742   2.261   2.051  13.702  0.4504 -0.0826 -0.4058
  449MPD2    C5 6743   2.371   2.127  13.693 -0.0002 -0.0467  0.3319
  449MPD2     H 6744   2.041   2.302  13.674 -1.1035 -0.4303  2.5789
  449MPD2    H1 6745   2.273   1.943  13.709 -1.9346 -0.3699 -0.6540
  449MPD2    H2 6746   2.471   2.312  13.709  0.4241 -0.1097 -1.4260
  449MPD2    H3 6747   2.470   2.084  13.680 -0.4002 -0.3349 -1.6291
  449MPD2     N 6748   2.015   2.052  13.701 -0.2284  0.4375 -0.1895
  449MPD2    H5 6749   1.935   2.114  13.692 -0.1714  0.4845 -0.3772
  449MPD2    N1 6750   2.236   2.471  13.679 -0.3185 -0.2695 -0.0789
  449MPD2    H7 6751   2.139   2.499  13.670  0.1012  0.8336 -1.0078
  450TMC3    C1 6752   2.255   2.695  13.650 -0.0000 -0.0267  0.1077
  450TMC3    C2 6753   2.264   2.751  13.527 -0.4611  0.3815  0.1117
  450TMC3    C3 6754   2.152   2.800  13.468 -0.5019  0.2292 -0.5288
  450TMC3    C4 6755   2.137   2.698  13.716 -0.2000  0.3336 -0.5676
  450TMC3    C5 6756   2.021   2.745  13.646  0.7498 -0.5781  0.6342
  450TMC3    C6 6757   2.023   2.789  13.520 -0.2671  0.9479 -0.1284
  450TMC3     C 6758   2.330   2.568  13.666 -0.1339  0.1824 -0.1767
  450TMC3     O 6759   2.449   2.568  13.635 -0.3899 -0.4567 -0.2912
  450TMC3     H 6760   2.357   2.736  13.475 -1.0418  0.1048 -0.8405
  450TMC3    H1 6761   2.140   2.657  13.816 -0.1616  4.6280  1.2236
  450TMC3    H2 6762   1.934   2.805  13.461 -0.8772 -2.5375 -0.1400
  450TMC3    C7 6763   1.916   2.666  13.690 -0.2447 -0.2083 -0.5920
  450TMC3    C8 6764   2.170   2.873  13.341 -0.4362  0.5189  0.0548
  450TMC3    O1 6765   1.949   2.562  13.734  0.0245 -0.1544 -0.1317
  450TMC3    O2 6766   2.080   2.946  13.307  0.0221 -0.0292  0.5628
  451MPD2     C 6767   0.016   0.851   1.000 -0.2869 -0.3992  0.1262
  451MPD2    C1 6768   4.699   0.895   0.885  0.0897  0.1276  0.0958
  451MPD2    C2 6769   0.010   0.855   0.765  0.5121 -0.4737  0.0247
  451MPD2    C3 6770   0.125   0.780   0.759 -0.1958  0.6509  0.0252
  451MPD2    C4 6771   0.190   0.750   0.879 -0.2270  0.4560 -0.8491
  451MPD2    C5 6772   0.130   0.768   1.001  0.4050  0.5492  0.1769
  451MPD2     H 6773   4.693   0.877   0.674  2.1719  0.2022 -0.8131
  451MPD2    H1 6774   0.289   0.708   0.888 -1.5809 -2.3760  0.7470
  451MPD2    H2 6775   4.700   0.866   1.093  0.8942 -1.0417  0.9180
  451MPD2    H3 6776   0.157   0.723   1.096 -1.8054 -2.4409 -0.5909
  451MPD2     N 6777   0.184   0.746   0.634  0.2845  0.0396  0.5637
  451MPD2    H5 6778   0.271   0.693   0.632 -0.4897 -1.2402  0.8093
  451MPD2    N1 6779   4.575   0.960   0.895  0.1809  0.4197 -0.2870
  451MPD2    H7 6780   4.537   0.968   0.989 -0.3452 -0.3336 -0.4298
  452TMC3    C1 6781   0.125   0.680   0.411 -0.1154 -0.3116 -0.2419
  452TMC3    C2 6782   0.083   0.553   0.451  0.1422  0.8648 -0.4284
  452TMC3    C3 6783   4.709   0.504   0.397 -0.0351  0.2420  0.2610
  452TMC3    C4 6784   0.068   0.736   0.304 -0.4058  1.1333 -0.0987
  452TMC3    C5 6785   4.691   0.683   0.248 -0.5286  0.1826 -0.4576
  452TMC3    C6 6786   4.641   0.568   0.296  0.2838  0.3517 -0.3392
  452TMC3     C 6787   0.121   0.784   0.518  0.1097 -0.1160  0.2192
  452TMC3     O 6788   0.054   0.882   0.491 -0.2524  0.1698  0.3059
  452TMC3     H 6789   0.126   0.507   0.540 -1.9432 -0.5220 -0.1577
  452TMC3    H1 6790   0.097   0.837   0.277  0.3788  0.3022 -2.3442
  452TMC3    H2 6791   4.548   0.536   0.252 -0.3347 -3.1521  3.6340
  452TMC3    C7 6792   4.611   0.788   0.191 -0.1259  0.4162 -0.4118
  452TMC3    C8 6793   4.641   0.386   0.461 -0.0477  0.6342  0.5079
  452TMC3    O1 6794   4.672   0.864   0.118 -0.1956  0.7608  0.3383
  452TMC3    O2 6795   4.521   0.372   0.441  0.0029 -0.1200 -0.2670
  453TMC3    C1 6796   0.546   3.312  11.954  0.1895 -0.3250  0.2122
  453TMC3    C2 6797   0.470   3.202  11.997 -0.1282  0.1822 -0.8582
  453TMC3    C3 6798   0.339   3.200  11.955  0.1943 -0.0235  0.2494
  453TMC3    C4 6799   0.496   3.407  11.875  0.2967 -0.0657  0.2686
  453TMC3    C5 6800   0.360   3.405  11.844 -0.4744  0.2609  0.2058
  453TMC3    C6 6801   0.284   3.309  11.890 -0.5075 -0.2188 -0.3075
  453TMC3     C 6802   0.687   3.309  11.962  0.0774 -0.1889 -0.4309
  453TMC3     O 6803   0.739   3.414  11.950 -0.1712 -0.1245 -0.3735
  453TMC3     H 6804   0.519   3.120  12.049 -0.7540 -0.2794 -1.0046
  453TMC3    H1 6805   0.548   3.491  11.830 -0.0240 -1.4503 -2.6257
  453TMC3    H2 6806   0.179   3.305  11.865 -0.1695  0.6524 -1.8744
  453TMC3    C7 6807   0.306   3.460  11.712  0.7396 -0.9452 -0.0358
  453TMC3    C8 6808   0.252   3.083  11.978 -0.2529  0.4765  0.1515
  453TMC3    O1 6809   0.209   3.411  11.663 -0.2875 -0.1335  0.0311
  453TMC3    O2 6810   0.131   3.102  11.983 -0.3157  0.2197 -0.2393
  454MPD2     C 6811   4.005   2.690  15.997  0.0870 -0.0549  0.1108
  454MPD2    C1 6812   3.932   2.704  15.884  0.2109  0.2437  0.4619
  454MPD2    C2 6813   3.846   2.807  15.870 -0.1636  0.3184  0.3911
  454MPD2    C3 6814   3.845   2.904  15.969 -0.4390  0.1786 -0.5386
  454MPD2    C4 6815   3.925   2.896  16.079 -0.0916 -0.1600  0.5776
  454MPD2    C5 6816   4.005   2.790  16.091 -0.3977  0.0170  0.4714
  454MPD2     H 6817   3.775   2.798  15.789  0.8215  3.8146 -0.8399
  454MPD2    H1 6818   3.934   2.986  16.139  1.3158  0.7173 -0.9465
  454MPD2    H2 6819   4.068   2.603  16.013 -1.8993 -1.0976  2.3346
  454MPD2    H3 6820   4.060   2.776  16.184  3.3446  0.1619 -1.7071
  454MPD2     N 6821   3.754   3.012  15.974 -0.5144 -0.5755  0.3168
  454MPD2    H5 6822   3.749   3.072  16.056 -2.6277  0.1175 -0.3087
  454MPD2    N1 6823   3.929   2.604  15.786  0.4300 -0.3021  0.5365
  454MPD2    H7 6824   3.865   2.616  15.708 -0.6041 -1.8764  1.1554
  455TMC3    C1 6825   3.540   3.098  15.938 -0.7618  0.0957  0.8481
  455TMC3    C2 6826   3.543   3.151  16.066  0.7417  0.1168  0.2500
  455TMC3    C3 6827   3.444   3.097  16.144 -0.2295  0.3264 -0.1540
  455TMC3    C4 6828   3.437   3.012  15.891 -0.4510  0.5293 -0.3250
  455TMC3    C5 6829   3.361   2.952  15.994 -0.8661 -0.2615 -0.1501
  455TMC3    C6 6830   3.358   2.998  16.115  0.6219 -0.0262  0.3679
  455TMC3     C 6831   3.663   3.049  15.876  0.2713 -0.2797 -0.7519
  455TMC3     O 6832   3.662   3.006  15.762  0.1263  0.1366 -0.0815
  455TMC3     H 6833   3.613   3.225  16.104 -0.1952  0.9949  0.2766
  455TMC3    H1 6834   3.456   2.979  15.789 -0.9733  3.7982 -1.4895
  455TMC3    H2 6835   3.295   2.952  16.190 -1.1925  1.1122 -0.4430
  455TMC3    C7 6836   3.279   2.840  15.943  0.7308  0.0984 -0.7884
  455TMC3    C8 6837   3.445   3.136  16.281  0.0723 -0.4681  0.8862
  455TMC3    O1 6838   3.292   2.820  15.822 -0.7473  0.5747  0.0918
  455TMC3    O2 6839   3.393   3.057  16.364 -0.1061 -0.1643  0.5547
  456MPD2     C 6840   1.933   2.559  16.105 -0.6195 -0.3428 -0.4574
  456MPD2    C1 6841   1.931   2.455  16.194  0.0785  0.6333  0.1645
  456MPD2    C2 6842   1.851   2.454  16.306 -0.1161 -0.6169 -0.3041
  456MPD2    C3 6843   1.788   2.572  16.345  0.0052  0.6347 -0.2181
  456MPD2    C4 6844   1.797   2.677  16.262 -0.3382 -0.2582  1.3863
  456MPD2    C5 6845   1.880   2.676  16.153 -0.5499  0.4020 -0.6602
  456MPD2     H 6846   1.840   2.372  16.376 -2.6152 -0.3728 -0.4252
  456MPD2    H1 6847   1.748   2.772  16.280 -2.6182 -0.8605 -1.6709
  456MPD2    H2 6848   1.978   2.553  16.007 -0.4591  0.0030 -0.4038
  456MPD2    H3 6849   1.893   2.761  16.087  1.0651  0.6035 -0.0750
  456MPD2     N 6850   1.721   2.573  16.465  0.0126  0.7343  0.6528
  456MPD2    H5 6851   1.730   2.498  16.532  2.8323  0.8677  0.4473
  456MPD2    N1 6852   2.005   2.342  16.157  0.6432  0.0623  0.1058
  456MPD2    H7 6853   2.054   2.344  16.068  0.4196  0.7096 -0.0037
  457TMC3    C1 6854   1.620   2.698  16.656 -0.3540  0.0814 -0.1645
  457TMC3    C2 6855   1.514   2.784  16.676 -0.1244 -0.8065 -0.4360
  457TMC3    C3 6856   1.505   2.848  16.796 -0.1495 -0.2853 -0.1000
  457TMC3    C4 6857   1.700   2.665  16.761  0.0400 -0.1107  0.7129
  457TMC3    C5 6858   1.684   2.734  16.878  0.1730  0.6641 -0.3265
  457TMC3    C6 6859   1.581   2.817  16.906 -0.6052  0.8713 -0.4389
  457TMC3     C 6860   1.649   2.689  16.511  0.3128  0.3737  0.7320
  457TMC3     O 6861   1.599   2.776  16.445  0.5057 -0.4427 -0.2169
  457TMC3     H 6862   1.445   2.809  16.597 -0.2623 -1.2684 -0.4607
  457TMC3    H1 6863   1.795   2.615  16.748  0.0561  0.1694 -0.2337
  457TMC3    H2 6864   1.573   2.873  16.999 -1.4347  2.5622 -1.5199
  457TMC3    C7 6865   1.794   2.735  16.973 -0.1648  0.0791  0.1198
  457TMC3    C8 6866   1.432   2.967  16.799  0.1698 -0.2333  0.1957
  457TMC3    O1 6867   1.882   2.653  16.952  0.0049  0.4139 -0.1740
  457TMC3    O2 6868   1.396   3.006  16.912  0.7269  0.4249  0.2140
  458MPD2     C 6869   4.025   2.335  12.049  0.4056 -0.4196  0.2243
  458MPD2    C1 6870   4.048   2.198  12.083 -0.4470  0.5538 -0.3718
  458MPD2    C2 6871   3.993   2.100  12.002 -0.6870 -0.1106 -0.1802
  458MPD2    C3 6872   3.914   2.136  11.891 -0.1348 -0.4466 -0.0627
  458MPD2    C4 6873   3.903   2.271  11.856  0.5112 -0.1293  0.0320
  458MPD2    C5 6874   3.961   2.370  11.935 -0.3316 -0.3947 -0.1713
  458MPD2     H 6875   4.000   1.993  12.018  0.7991 -0.2049 -1.4142
  458MPD2    H1 6876   3.855   2.304  11.765  0.0262 -2.0278 -0.3911
  458MPD2    H2 6877   4.058   2.412  12.117 -0.3782 -1.9146  2.2971
  458MPD2    H3 6878   3.941   2.474  11.912  2.7216 -0.2290 -2.0901
  458MPD2     N 6879   3.865   2.029  11.813 -0.0977 -0.5066 -0.5122
  458MPD2    H5 6880   3.882   1.934  11.844 -0.9678 -0.3833  0.3529
  458MPD2    N1 6881   4.127   2.173  12.193 -1.0918  0.0285  0.3739
  458MPD2    H7 6882   4.175   2.251  12.238  2.0378 -0.2567 -2.4312
  459TMC3    C1 6883   4.207   2.064  12.380  0.3034  1.0383  0.1696
  459TMC3    C2 6884   4.310   2.160  12.387  0.3435  0.2825  0.4264
  459TMC3    C3 6885   4.401   2.155  12.490 -0.3872  0.5414 -0.5872
  459TMC3    C4 6886   4.199   1.963  12.463  0.3452 -0.2655  0.8292
  459TMC3    C5 6887   4.300   1.952  12.569 -0.5005 -0.1777  0.4128
  459TMC3    C6 6888   4.394   2.049  12.580  0.3043 -0.2165  0.4869
  459TMC3     C 6889   4.130   2.052  12.254  0.0376  0.2226 -0.1529
  459TMC3     O 6890   4.078   1.944  12.229  0.0414  0.3083  0.3246
  459TMC3     H 6891   4.328   2.235  12.310  0.4432 -0.3475 -0.1615
  459TMC3    H1 6892   4.112   1.900  12.452  0.7392 -0.5095 -0.9568
  459TMC3    H2 6893   4.464   2.053  12.662 -0.5473 -2.1113  1.3228
  459TMC3    C7 6894   4.281   1.851  12.672  0.5121  0.3665 -0.1090
  459TMC3    C8 6895   4.513   2.244  12.499 -0.3225 -0.7033 -0.1588
  459TMC3    O1 6896   4.341   1.861  12.776 -0.1410 -0.1674  0.1744
  459TMC3    O2 6897   4.617   2.217  12.562 -0.0485  0.4556  0.5829
  460MPD2     C 6898   2.807   4.551  10.752 -0.3802  0.6624  0.0873
  460MPD2    C1 6899   2.825   4.440  10.683 -0.1060  0.2927 -0.5046
  460MPD2    C2 6900   2.771   4.425  10.557  0.8018 -0.3126  0.1929
  460MPD2    C3 6901   2.700   4.529  10.498 -0.1675  0.1376 -0.3158
  460MPD2    C4 6902   2.685   4.643  10.569  0.9730  0.0967 -0.0014
  460MPD2    C5 6903   2.736   4.656  10.692  0.0151  0.8170 -0.3082
  460MPD2     H 6904   2.792   4.344  10.489 -2.5392  0.5720 -1.8938
  460MPD2    H1 6905   2.633   4.733  10.538 -2.5785 -1.3383  1.9209
  460MPD2    H2 6906   2.845   4.553  10.854 -0.3440 -0.9570  0.1033
  460MPD2    H3 6907   2.714   0.008  10.748 -0.8350  1.5880 -1.8983
  460MPD2     N 6908   2.673   4.522  10.358  0.1031  0.3234  0.1145
  460MPD2    H5 6909   2.685   4.429  10.318 -0.2601  0.6011 -0.6413
  460MPD2    N1 6910   2.901   4.338  10.746 -0.1431  0.1211  0.7504
  460MPD2    H7 6911   2.925   4.364  10.841 -1.3958  1.1343  0.7968
  461TMC3    C1 6912   2.617   4.596  10.143 -0.5918  0.3333 -0.2530
  461TMC3    C2 6913   2.634   4.469  10.093  0.2657 -0.3192  0.1414
  461TMC3    C3 6914   2.589   4.444   9.964 -0.1806  0.2084  0.1329
  461TMC3    C4 6915   2.567   4.698  10.074 -0.7960  0.1444  0.2418
  461TMC3    C5 6916   2.524   4.670   9.944 -0.1039 -0.0604 -0.4269
  461TMC3    C6 6917   2.522   4.537   9.894  0.3245  0.1387  0.2158
  461TMC3     C 6918   2.645   4.621  10.279 -0.4018  1.0761 -0.0432
  461TMC3     O 6919   2.632   4.737  10.312  0.0608 -0.3163  0.3794
  461TMC3     H 6920   2.675   4.388  10.152 -1.3567 -2.1333 -1.2289
  461TMC3    H1 6921   2.571   0.064  10.104 -1.9730  0.0795  0.6224
  461TMC3    H2 6922   2.493   4.518   9.791 -0.3698 -2.2948  0.8805
  461TMC3    C7 6923   2.453   0.032   9.866 -0.2123  0.1840  0.5652
  461TMC3    C8 6924   2.631   4.322   9.894  0.1239 -0.2884  0.3845
  461TMC3    O1 6925   2.399   0.001   9.761  0.5876  0.1557 -0.0872
  461TMC3    O2 6926   2.736   4.267   9.924 -0.1439  0.2487 -0.0503
  462TMC3    C1 6927   3.431   0.933   0.988 -0.0520 -0.4898 -0.0466
  462TMC3    C2 6928   3.569   0.914   0.977  0.3029 -0.0942  0.5623
  462TMC3    C3 6929   3.608   0.787   0.946 -0.0735 -0.0349 -0.0777
  462TMC3    C4 6930   3.339   0.832   0.980  0.2936 -0.3583  0.0215
  462TMC3    C5 6931   3.387   0.708   0.963  0.1161 -0.3311  0.3660
  462TMC3    C6 6932   3.521   0.685   0.926  0.0847 -0.1528  0.5276
  462TMC3     C 6933   3.406   1.055   1.058 -0.1911 -0.6000 -0.5530
  462TMC3     O 6934   3.489   1.103   1.130 -0.0564 -0.0079 -0.0035
  462TMC3     H 6935   3.645   0.991   0.981 -0.1431  0.3701  0.1697
  462TMC3    H1 6936   3.236   0.846   1.011  0.0764 -0.3828 -0.6993
  462TMC3    H2 6937   3.555   0.584   0.904 -0.9669 -0.2465 -0.6329
  462TMC3    C7 6938   3.294   0.608   0.932  0.6609  0.0821 -0.3636
  462TMC3    C8 6939   3.747   0.771   0.911 -0.0916 -0.0531  0.3478
  462TMC3    O1 6940   3.340   0.498   0.934  0.2807  0.0285  0.0397
  462TMC3    O2 6941   3.827   0.840   0.967 -0.4965 -0.4261  0.1417
  463MPD2     C 6942   0.598   3.379   0.929 -0.6378 -0.0432  0.0009
  463MPD2    C1 6943   0.559   3.486   1.007 -0.1976 -0.5871  0.7354
  463MPD2    C2 6944   0.664   3.555   1.071 -0.4815 -0.5254 -0.6502
  463MPD2    C3 6945   0.798   3.505   1.069  0.4140  0.5176  0.4211
  463MPD2    C4 6946   0.831   3.405   0.977 -0.0022 -0.3893  0.5520
  463MPD2    C5 6947   0.729   3.347   0.912 -0.1171 -0.1978 -0.0570
  463MPD2     H 6948   0.636   3.645   1.124 -0.7656 -1.1130  0.2065
  463MPD2    H1 6949   0.936   3.382   0.968 -0.0909  0.1586 -1.9057
  463MPD2    H2 6950   0.524   3.316   0.881  1.1173 -2.7604  0.7867
  463MPD2    H3 6951   0.768   3.260   0.859 -1.6729 -1.1957  0.4262
  463MPD2     N 6952   0.901   3.569   1.146 -0.3178 -0.3894 -0.0218
  463MPD2    H5 6953   0.997   3.538   1.132 -0.0684  0.8867 -1.0886
  463MPD2    N1 6954   0.421   3.525   1.030 -0.2441 -0.0527  0.0484
  463MPD2    H7 6955   0.414   3.616   1.073 -0.7909  1.2669 -2.8337
  464TMC3    C1 6956   0.174   3.517   1.029 -0.3069 -0.3510  0.4239
  464TMC3    C2 6957   0.168   3.631   1.099  0.2824  0.0545  0.4034
  464TMC3    C3 6958   0.050   3.670   1.153  0.3643  0.2508  0.2966
  464TMC3    C4 6959   0.063   3.437   1.016  0.1270 -0.2283 -0.0421
  464TMC3    C5 6960   4.679   3.487   1.063 -0.6377 -0.1599  0.4478
  464TMC3    C6 6961   4.670   3.604   1.130 -1.2731 -1.1953 -0.0625
  464TMC3     C 6962   0.304   3.471   0.979 -0.0209  0.1518  0.5166
  464TMC3     O 6963   0.287   3.372   0.912  0.1252  0.2408 -0.0260
  464TMC3     H 6964   0.255   3.695   1.096  1.4814 -1.7103 -3.5452
  464TMC3    H1 6965   0.063   3.348   0.953 -1.3278  1.0865 -1.9118
  464TMC3    H2 6966   4.576   3.637   1.172 -0.0333  0.4301  1.4490
  464TMC3    C7 6967   4.571   3.395   1.065 -0.4040 -0.2534 -0.0818
  464TMC3    C8 6968   0.041   3.805   1.207  0.9422 -0.0769 -0.2401
  464TMC3    O1 6969   4.592   3.280   1.026 -0.4693 -0.7160 -0.1571
  464TMC3    O2 6970   4.662   3.842   1.213 -0.2311 -0.1903  0.0220
  465MPD2     C 6971   0.967   2.959  16.925 -0.8181 -0.0806  0.1917
  465MPD2    C1 6972   0.841   2.908  16.924 -0.6475  0.9967 -0.1537
  465MPD2    C2 6973   0.747   2.939  16.833 -0.2245 -0.1707 -0.2565
  465MPD2    C3 6974   0.777   3.022  16.725  0.1897 -1.4988 -0.1372
  465MPD2    C4 6975   0.907   3.056  16.704 -0.5801  0.3138 -0.8289
  465MPD2    C5 6976   0.994   3.033  16.813 -0.1164 -0.0741  0.4298
  465MPD2     H 6977   0.645   2.915  16.862  0.2973  0.7798  2.4070
  465MPD2    H1 6978   0.954   3.125  16.634 -0.0434  0.0763 -0.7085
  465MPD2    H2 6979   1.046   2.947  16.999  0.6713 -0.8172 -1.5430
  465MPD2    H3 6980   1.090   3.079  16.794 -0.8990  1.5022  0.3224
  465MPD2     N 6981   0.677   3.066  16.635 -0.5918  0.5431 -0.3354
  465MPD2    H5 6982   0.584   3.033  16.658  0.0280 -0.6581  0.4772
  465MPD2    N1 6983   0.808   2.813  17.022 -0.2229 -0.1348  0.0350
  465MPD2    H7 6984   0.711   2.799  17.047 -0.7136  3.5921  0.1126
  466TMC3    C1 6985   0.340   3.151  16.407  0.3581  0.3673 -0.0939
  466TMC3    C2 6986   0.341   3.269  16.328 -0.0593  0.3287 -0.5221
  466TMC3    C3 6987   0.461   3.326  16.305 -0.5595  0.2695 -0.2925
  466TMC3    C4 6988   0.450   3.106  16.474  0.0989  0.3928  0.5621
  466TMC3    C5 6989   0.568   3.177  16.454  0.7195  0.0844 -0.0119
  466TMC3    C6 6990   0.575   3.286  16.372  0.2336  0.2754 -0.2782
  466TMC3     C 6991   0.208   3.106  16.442 -0.3269 -0.8453  0.2620
  466TMC3     O 6992   0.208   3.021  16.526  0.9478  0.3676 -0.0104
  466TMC3     H 6993   0.257   3.324  16.287  0.9725  0.3022 -2.6616
  466TMC3    H1 6994   0.450   3.015  16.533 -2.5300  1.0929  1.6411
  466TMC3    H2 6995   0.660   3.353  16.363  1.6543 -1.3447  1.0773
  466TMC3    C7 6996   0.696   3.149  16.522 -0.6996  0.2091  0.7895
  466TMC3    C8 6997   0.458   3.463  16.269  0.0958 -0.4952  0.3812
  466TMC3    O1 6998   0.796   3.212  16.486 -0.2401 -0.1757 -0.0251
  466TMC3    O2 6999   0.540   3.521  16.200 -0.1749 -0.2283  0.3405
  467TMC3    C1 7000   1.529   1.264  13.952  0.6360 -0.4426 -0.0855
  467TMC3    C2 7001   1.473   1.291  13.829  0.3307 -0.2404 -0.3895
  467TMC3    C3 7002   1.334   1.301  13.817 -0.1643  0.7019 -0.8623
  467TMC3    C4 7003   1.452   1.278  14.062  0.1418 -0.3546 -0.5651
  467TMC3    C5 7004   1.314   1.308  14.048  0.0935  0.1326 -0.3772
  467TMC3    C6 7005   1.250   1.310  13.926 -0.0738  0.0160  0.1112
  467TMC3     C 7006   1.672   1.273  13.969 -0.0177 -0.7643  0.6699
  467TMC3     O 7007   1.716   1.358  14.042  0.3770  0.0902  0.2914
  467TMC3     H 7008   1.525   1.290  13.734  2.2638  3.3597  0.6185
  467TMC3    H1 7009   1.496   1.254  14.158  1.2679  1.0235 -0.7374
  467TMC3    H2 7010   1.152   1.351  13.906 -1.1173 -1.1319  2.8579
  467TMC3    C7 7011   1.222   1.274  14.159 -0.5330 -0.2764  0.5960
  467TMC3    C8 7012   1.284   1.381  13.705 -0.0426  0.1405  0.3791
  467TMC3    O1 7013   1.282   1.233  14.255 -0.3929  0.4641  0.7188
  467TMC3    O2 7014   1.246   1.491  13.735 -0.4436 -0.5105 -0.5506
  468MPD2     C 7015   0.459   3.981  10.158 -0.5405  0.1830  0.5758
  468MPD2    C1 7016   0.437   3.957  10.295 -0.2422 -1.0256  0.3124
  468MPD2    C2 7017   0.358   3.850  10.332 -0.5516  0.8411  0.9678
  468MPD2    C3 7018   0.314   3.757  10.240 -0.5479  0.2075  0.1983
  468MPD2    C4 7019   0.330   3.787  10.108 -0.0765  0.2961 -0.5644
  468MPD2    C5 7020   0.398   3.893  10.068  0.8325  0.7644 -0.1815
  468MPD2     H 7021   0.349   3.827  10.438  1.3595  1.3192  1.2289
  468MPD2    H1 7022   0.285   3.725  10.030  0.3210 -0.7220  0.0130
  468MPD2    H2 7023   0.516   4.064  10.117 -0.0517  0.7948  2.4923
  468MPD2    H3 7024   0.400   3.899   9.960 -0.0238  0.7859 -0.1915
  468MPD2     N 7025   0.261   3.634  10.278  0.1559 -0.0364 -0.5258
  468MPD2    H5 7026   0.255   3.560  10.208  1.6743 -0.5840 -0.0672
  468MPD2    N1 7027   0.501   4.033  10.393 -0.2527  1.1325 -1.1858
  468MPD2    H7 7028   0.472   4.013  10.488  0.8153  0.2938 -1.0355
  469TMC3    C1 7029   0.648   4.179  10.504 -0.9945 -0.3310 -0.1436
  469TMC3    C2 7030   0.662   4.086  10.601 -0.1055 -0.1808  0.3081
  469TMC3    C3 7031   0.691   4.127  10.732  0.7935 -0.4201  0.0002
  469TMC3    C4 7032   0.670   4.310  10.523 -0.7568 -0.1215  0.1810
  469TMC3    C5 7033   0.699   4.351  10.652 -0.4710 -0.2277 -0.4349
  469TMC3    C6 7034   0.709   4.255  10.754  0.0690  0.3440 -0.0230
  469TMC3     C 7035   0.600   4.130  10.373  0.7145 -0.1743 -0.2373
  469TMC3     O 7036   0.646   4.180  10.278 -0.8367 -0.1457  0.7179
  469TMC3     H 7037   0.672   3.981  10.580 -0.0973  0.4604 -2.8192
  469TMC3    H1 7038   0.670   4.376  10.437  2.0233 -0.8024 -0.3512
  469TMC3    H2 7039   0.729   4.298  10.851  0.1286 -2.8541  1.3796
  469TMC3    C7 7040   0.715   4.490  10.665  0.4635 -0.0782 -0.6602
  469TMC3    C8 7041   0.757   4.027  10.814 -0.0698  0.5401  0.4088
  469TMC3    O1 7042   0.649   4.564  10.588 -0.2518  0.2064  0.9131
  469TMC3    O2 7043   0.723   3.911  10.787 -0.3693 -0.5177  0.6324
  470TMC3    C1 7044   2.915   4.723   1.064 -0.1994 -0.3113 -0.4314
  470TMC3    C2 7045   2.945   0.119   1.044  0.5256 -0.3036 -0.1826
  470TMC3    C3 7046   3.031   0.177   1.131  0.5362  0.3811  0.4535
  470TMC3    C4 7047   2.996   4.644   1.146 -0.0178 -0.0925  0.0643
  470TMC3    C5 7048   3.091   4.706   1.214  0.0382 -0.7818  0.1388
  470TMC3    C6 7049   3.112   0.104   1.214 -0.2635  0.5116 -0.4268
  470TMC3     C 7050   2.827   4.652   0.968  0.5559 -0.4628  0.1488
  470TMC3     O 7051   2.815   4.705   0.858  0.0626 -0.0192  0.2188
  470TMC3     H 7052   2.881   0.174   0.976  0.4789 -0.2710 -0.1125
  470TMC3    H1 7053   2.983   4.537   1.151 -0.7434 -0.0263 -0.3079
  470TMC3    H2 7054   3.193   0.144   1.275  1.5538  0.1293 -2.5975
  470TMC3    C7 7055   3.153   4.630   1.320 -0.8444 -0.0406  0.4162
  470TMC3    C8 7056   3.044   0.320   1.160  0.4230 -0.2259 -1.1610
  470TMC3    O1 7057   3.258   4.671   1.363  0.7605 -0.3187 -0.0389
  470TMC3    O2 7058   3.140   0.358   1.221  0.1283 -0.0015 -0.0402
  471MPD2     C 7059   3.268   1.881  16.903  0.8992 -0.5223 -0.1205
  471MPD2    C1 7060   3.197   1.766  16.928 -0.7239  0.4453  0.0528
  471MPD2    C2 7061   3.197   1.710  17.051 -0.7350  0.0049 -0.3207
  471MPD2    C3 7062   3.287   1.750  17.148 -0.3159 -0.9822 -0.1194
  471MPD2    C4 7063   3.373   1.857  17.128  0.6167 -0.1839 -0.0586
  471MPD2    C5 7064   3.349   1.916  17.004 -0.0292 -0.0666  0.0328
  471MPD2     H 7065   3.138   1.620  17.065 -0.9036 -0.0375 -1.2687
  471MPD2    H1 7066   3.446   1.889  17.201 -0.0881 -1.3314  1.1573
  471MPD2    H2 7067   3.263   1.937  16.810  0.3152 -2.3430 -1.1745
  471MPD2    H3 7068   3.410   2.006  16.993 -0.5695  0.0537 -1.8750
  471MPD2     N 7069   3.301   1.686  17.279  0.4452 -0.4772 -0.2364
  471MPD2    H5 7070   3.382   1.701  17.337  0.4898 -4.1358  0.6237
  471MPD2    N1 7071   3.124   1.704  16.831 -0.2229 -0.0772 -0.3126
  471MPD2    H7 7072   3.077   1.617  16.854  0.0363 -0.1076  0.0936
  472TMC3    C1 7073   3.066   1.628  16.610  0.8569  0.3611  0.1315
  472TMC3    C2 7074   2.984   1.636  16.501 -0.0739  0.2386  0.0913
  472TMC3    C3 7075   2.975   1.531  16.417 -0.3443  0.2090 -0.0674
  472TMC3    C4 7076   3.125   1.501  16.634  0.0552  0.0212  0.1813
  472TMC3    C5 7077   3.108   1.398  16.547 -1.1225  0.2608 -1.0248
  472TMC3    C6 7078   3.034   1.413  16.437 -0.7557  0.7370  0.3242
  472TMC3     C 7079   3.099   1.744  16.699 -0.2742  0.1973  0.3048
  472TMC3     O 7080   3.111   1.858  16.656  0.2242 -0.5442  0.3649
  472TMC3     H 7081   2.927   1.725  16.477 -0.8172 -0.1270  0.4752
  472TMC3    H1 7082   3.186   1.483  16.722 -1.5188 -0.2796  1.2018
  472TMC3    H2 7083   3.050   1.345  16.354  0.1854  2.4936 -0.9164
  472TMC3    C7 7084   3.094   1.267  16.609  0.7820 -0.2033  0.4874
  472TMC3    C8 7085   2.876   1.519  16.324  0.0666 -0.6728 -0.3426
  472TMC3    O1 7086   3.082   1.268  16.729  0.0178  0.0663 -0.6295
  472TMC3    O2 7087   2.832   1.613  16.260 -0.1856 -0.1347  0.2026
  473MPD2     C 7088   3.416   3.723  14.055  0.5428 -0.0520  0.2997
  473MPD2    C1 7089   3.358   3.830  13.996 -0.2522  0.0512  0.1055
  473MPD2    C2 7090   3.363   3.949  14.064  0.4515 -0.1152  0.6596
  473MPD2    C3 7091   3.436   3.959  14.180  0.4400 -0.2198 -0.0296
  473MPD2    C4 7092   3.511   3.856  14.223  0.8635 -1.0391 -0.6336
  473MPD2    C5 7093   3.491   3.738  14.165  0.3153 -0.3916 -0.3070
  473MPD2     H 7094   3.317   4.036  14.019  0.6790  0.3153  1.2561
  473MPD2    H1 7095   3.587   3.865  14.300  1.3153  0.2251 -1.2292
  473MPD2    H2 7096   3.404   3.622  14.016  0.2038  0.3381 -0.6078
  473MPD2    H3 7097   3.554   3.659  14.203 -0.8527 -1.4013 -0.4712
  473MPD2     N 7098   3.439   4.089  14.250  0.0124  0.7221 -0.1193
  473MPD2    H5 7099   3.509   4.096  14.323 -0.9504 -0.1184  0.8796
  473MPD2    N1 7100   3.290   3.828  13.874 -0.6936  0.3095 -0.2248
  473MPD2    H7 7101   3.232   3.909  13.855  0.7524  1.0301 -1.4372
  474TMC3    C1 7102   3.406   4.305  14.320  0.5170 -1.0958  0.2324
  474TMC3    C2 7103   3.300   4.381  14.360 -0.3886  0.5818  0.7299
  474TMC3    C3 7104   3.325   4.459  14.470 -0.3354  0.3388 -0.1548
  474TMC3    C4 7105   3.527   4.308  14.382 -0.2000  0.7791 -0.6122
  474TMC3    C5 7106   3.542   4.389  14.490  0.3523  0.3621 -0.2992
  474TMC3    C6 7107   3.441   4.471  14.530  0.4402 -0.6985  0.4949
  474TMC3     C 7108   3.370   4.202  14.223 -0.2271 -0.8214  0.9223
  474TMC3     O 7109   3.273   4.220  14.152 -0.2405  0.2141  0.0997
  474TMC3     H 7110   3.203   4.370  14.312  0.2625  0.4057 -0.5273
  474TMC3    H1 7111   3.608   4.244  14.348 -1.7674 -2.2578  1.3081
  474TMC3    H2 7112   3.456   4.544  14.608 -3.6017  0.7197 -0.0224
  474TMC3    C7 7113   3.680   4.432  14.503  0.1971 -1.0699 -0.1447
  474TMC3    C8 7114   3.225   4.554  14.504 -0.0642 -0.6279 -0.5960
  474TMC3    O1 7115   3.764   4.398  14.418  0.6299 -0.0908 -0.3194
  474TMC3    O2 7116   3.185   4.564  14.622 -0.1055  0.2906  0.3267
  475MPD2     C 7117   1.614   1.734  10.867  0.7760 -0.0217 -0.2127
  475MPD2    C1 7118   1.585   1.850  10.801  0.4869 -0.3016  0.3750
  475MPD2    C2 7119   1.485   1.926  10.849  0.4249  0.2103 -0.0812
  475MPD2    C3 7120   1.414   1.899  10.963  0.2712 -0.1983 -0.5393
  475MPD2    C4 7121   1.438   1.775  11.027  0.1865 -0.1195 -0.1589
  475MPD2    C5 7122   1.543   1.697  10.982 -0.1779 -0.1046 -0.2423
  475MPD2     H 7123   1.466   2.019  10.796  0.0955  0.8212  1.0888
  475MPD2    H1 7124   1.376   1.745  11.111 -0.8528  0.3682 -0.7496
  475MPD2    H2 7125   1.689   1.665  10.830  0.2809  0.1627 -1.5338
  475MPD2    H3 7126   1.547   1.598  11.026  2.3824 -0.9387 -2.3116
  475MPD2     N 7127   1.319   1.999  11.000 -0.5101 -0.3449  0.1694
  475MPD2    H5 7128   1.318   2.084  10.944  1.2023 -0.0143  0.6446
  475MPD2    N1 7129   1.661   1.897  10.697  0.4486  0.2513  0.1105
  475MPD2    H7 7130   1.617   1.977  10.651  0.3192 -0.9195 -1.8143
  476TMC3    C1 7131   1.854   1.971  10.606 -0.4929  0.0623 -0.3473
  476TMC3    C2 7132   1.770   2.051  10.533 -0.2900 -0.2043  0.1979
  476TMC3    C3 7133   1.794   2.189  10.541 -0.1452  0.0814  0.0194
  476TMC3    C4 7134   1.951   2.025  10.691 -0.3598 -0.5207  0.3051
  476TMC3    C5 7135   1.952   2.160  10.710  0.9062  0.6127 -0.2429
  476TMC3    C6 7136   1.887   2.242  10.621 -0.2581  0.1919  0.4854
  476TMC3     C 7137   1.789   1.859  10.672 -0.6100  0.2330  0.6617
  476TMC3     O 7138   1.855   1.772  10.729 -0.2027 -0.0502 -0.3298
  476TMC3     H 7139   1.684   2.011  10.480 -0.1123 -0.5905  0.2001
  476TMC3    H1 7140   2.021   1.961  10.743 -0.5203 -0.2589  0.8441
  476TMC3    H2 7141   1.899   2.349  10.610  0.0143  0.0454 -0.6633
  476TMC3    C7 7142   1.947   2.195  10.847 -0.2746 -0.4626  0.0986
  476TMC3    C8 7143   1.675   2.268  10.526 -0.0133  0.2024 -0.1438
  476TMC3    O1 7144   1.924   2.316  10.866 -0.6341  0.1839 -0.1484
  476TMC3    O2 7145   1.677   2.374  10.587  0.2844 -0.2293  0.1271
  477MPD2     C 7146   3.869   3.680  11.305  0.2566 -0.1811 -0.1539
  477MPD2    C1 7147   3.776   3.645  11.404  0.7457 -0.2160 -0.1578
  477MPD2    C2 7148   3.820   3.638  11.535 -0.3437 -0.6448 -0.4480
  477MPD2    C3 7149   3.949   3.657  11.559 -0.0460 -0.1401 -0.4341
  477MPD2    C4 7150   4.042   3.710  11.466  0.3930  0.9568 -0.6707
  477MPD2    C5 7151   3.995   3.719  11.334  0.1409 -0.7304  0.2463
  477MPD2     H 7152   3.752   3.595  11.609 -1.1720 -0.8091 -1.3007
  477MPD2    H1 7153   4.145   3.733  11.492 -0.2547  1.6137  1.3423
  477MPD2    H2 7154   3.841   3.695  11.202  0.7987 -0.4583 -0.3431
  477MPD2    H3 7155   4.066   3.750  11.258  0.0618 -0.3652  0.3202
  477MPD2     N 7156   3.984   3.632  11.696 -0.1111  0.5822  0.3725
  477MPD2    H5 7157   3.911   3.618  11.765  0.1237 -0.9914  0.3073
  477MPD2    N1 7158   3.646   3.626  11.362 -0.2545  0.1480  0.0610
  477MPD2    H7 7159   3.630   3.648  11.264  0.6772 -0.4014 -0.2177
  478TMC3    C1 7160   3.410   3.600  11.371  0.3620 -0.1148 -0.6578
  478TMC3    C2 7161   3.295   3.626  11.448  0.2701  1.4672 -0.0847
  478TMC3    C3 7162   3.183   3.677  11.387 -0.0602 -0.5262  0.5719
  478TMC3    C4 7163   3.403   3.604  11.235 -0.2472 -0.3629 -0.3148
  478TMC3    C5 7164   3.292   3.651  11.173 -0.8312 -0.3215 -0.6458
  478TMC3    C6 7165   3.178   3.685  11.256  0.1701  0.8933 -0.6611
  478TMC3     C 7166   3.535   3.619  11.441 -0.3390  0.3761 -0.0670
  478TMC3     O 7167   3.537   3.618  11.566 -0.0092  0.2267  0.3655
  478TMC3     H 7168   3.298   3.630  11.556  0.0032 -0.1175 -0.0215
  478TMC3    H1 7169   3.494   3.584  11.179 -0.2051 -2.1331  0.4100
  478TMC3    H2 7170   3.092   3.739  11.218 -0.4759 -0.8730 -1.6884
  478TMC3    C7 7171   3.290   3.652  11.023  0.1140  0.3053  0.0136
  478TMC3    C8 7172   3.085   3.744  11.470 -0.6150 -0.3198 -0.6128
  478TMC3    O1 7173   3.394   3.614  10.972  0.5151 -1.4515  0.2608
  478TMC3    O2 7174   3.053   3.674  11.565  0.1128  0.2400  0.2118
  479MPD2     C 7175   2.813   1.120  15.223 -0.5917 -0.6944  0.5042
  479MPD2    C1 7176   2.770   1.025  15.311 -0.4602  0.0985 -0.5078
  479MPD2    C2 7177   2.814   1.037  15.444 -0.7691  0.4607 -0.5313
  479MPD2    C3 7178   2.876   1.151  15.494 -0.4910 -0.0861 -0.1329
  479MPD2    C4 7179   2.919   1.240  15.399 -0.5667  0.5073  0.3821
  479MPD2    C5 7180   2.892   1.221  15.269  0.3360  0.6497  0.5344
  479MPD2     H 7181   2.804   0.954  15.513  3.1207 -1.4507 -2.2715
  479MPD2    H1 7182   2.987   1.321  15.421 -0.1877  0.3738 -0.2937
  479MPD2    H2 7183   2.793   1.110  15.117 -0.7013  0.8467  0.3734
  479MPD2    H3 7184   2.939   1.298  15.209 -0.6076  1.2730  0.5998
  479MPD2     N 7185   2.917   1.171  15.631 -0.5757 -0.0666 -0.3002
  479MPD2    H5 7186   2.991   1.239  15.649  0.1868 -1.5470  2.1928
  479MPD2    N1 7187   2.668   0.934  15.265 -0.8343 -0.4415  0.3075
  479MPD2    H7 7188   2.656   0.939  15.165  1.4906 -1.9361 -0.0548
  480TMC3    C1 7189   2.535   0.930  15.789 -0.8028  1.4379 -0.3135
  480TMC3    C2 7190   2.443   1.004  15.727 -0.2414  0.5378  0.1088
  480TMC3    C3 7191   2.488   1.108  15.648  0.1395 -0.4421  0.0958
  480TMC3    C4 7192   2.667   0.969  15.795  0.1853 -0.2629 -0.1181
  480TMC3    C5 7193   2.708   1.083  15.728 -0.0938  0.1023  0.4323
  480TMC3    C6 7194   2.617   1.155  15.659 -0.0954 -0.6272 -0.3286
  480TMC3     C 7195   2.502   0.818  15.874 -0.3044 -0.6166  0.2243
  480TMC3     O 7196   2.590   0.732  15.883  0.0431 -0.1967 -0.0089
  480TMC3     H 7197   2.341   0.970  15.720  0.1011 -0.0140 -2.2317
  480TMC3    H1 7198   2.729   0.914  15.865 -1.4389 -2.4912 -0.4320
  480TMC3    H2 7199   2.647   1.254  15.626  1.4094 -0.9776 -0.0030
  480TMC3    C7 7200   2.849   1.129  15.741  0.3479  0.9092 -0.3404
  480TMC3    C8 7201   2.404   1.155  15.548 -0.2788 -0.2030  0.9712
  480TMC3    O1 7202   2.893   1.138  15.850  0.8150 -0.7169 -0.2863
  480TMC3    O2 7203   2.291   1.110  15.546 -0.9589 -0.5192  0.4185
  481MPD2     C 7204   4.626   0.797  13.945 -0.8619  0.3946 -0.2390
  481MPD2    C1 7205   4.537   0.726  14.019  0.0504  1.0123 -0.7329
  481MPD2    C2 7206   4.579   0.677  14.140 -0.0423  0.2008 -0.4548
  481MPD2    C3 7207   4.706   0.705  14.192  0.7349 -0.0886 -0.0688
  481MPD2    C4 7208   0.050   0.791  14.128 -0.3486 -0.1535  1.0764
  481MPD2    C5 7209   0.007   0.830  13.997  0.0392  0.0268 -0.1960
  481MPD2     H 7210   4.516   0.609  14.196  0.5672  1.4676  1.7595
  481MPD2    H1 7211   0.144   0.829  14.166 -0.7415  1.2006  0.7047
  481MPD2    H2 7212   4.599   0.840  13.849 -1.8267  0.3182  0.0016
  481MPD2    H3 7213   0.077   0.887  13.937  0.3806  1.0480  1.1774
  481MPD2     N 7214   0.016   0.661  14.320  0.1014  0.4675 -0.0063
  481MPD2    H5 7215   0.101   0.703  14.356 -0.5582  0.1279  1.9679
  481MPD2    N1 7216   4.405   0.723  13.973 -0.2434 -0.1212  0.1486
  481MPD2    H7 7217   4.385   0.785  13.895 -1.7830  3.5611  3.4550
  482TMC3    C1 7218   4.179   0.696  13.976 -0.2994  0.5202 -0.5033
  482TMC3    C2 7219   4.079   0.599  13.967  0.2219  0.6148  0.1907
  482TMC3    C3 7220   3.977   0.628  13.875 -0.1147 -0.4507  0.0855
  482TMC3    C4 7221   4.169   0.819  13.903 -0.1483  0.5746  0.1525
  482TMC3    C5 7222   4.063   0.850  13.825  0.4218  0.2260 -0.4327
  482TMC3    C6 7223   3.962   0.757  13.808 -0.2619 -0.2066  0.0730
  482TMC3     C 7224   4.299   0.658  14.034 -0.2782  0.3693 -0.1214
  482TMC3     O 7225   4.295   0.585  14.134  0.1073 -0.2529  0.1320
  482TMC3     H 7226   4.077   0.504  14.017  3.4132  0.7610  0.6148
  482TMC3    H1 7227   4.249   0.890  13.919  0.9956 -0.6590 -0.0576
  482TMC3    H2 7228   3.892   0.794  13.734  0.1787 -3.0024 -1.7478
  482TMC3    C7 7229   4.070   0.987  13.765 -0.1252  0.2523 -0.6366
  482TMC3    C8 7230   3.884   0.516  13.841 -0.4623 -0.4329  0.4465
  482TMC3    O1 7231   4.139   1.064  13.829 -0.2989 -0.4517  0.3362
  482TMC3    O2 7232   3.928   0.404  13.857 -0.4375  0.0327 -0.4385
  483TMC3    C1 7233   2.621   3.944   1.305 -0.0141 -0.0969 -0.0454
  483TMC3    C2 7234   2.728   4.023   1.301 -0.3443  0.2727 -0.1881
  483TMC3    C3 7235   2.842   3.972   1.359 -0.0519 -0.1081 -0.4928
  483TMC3    C4 7236   2.626   3.815   1.346 -0.4215  0.1909  0.4146
  483TMC3    C5 7237   2.741   3.765   1.393  0.2103 -0.2202  0.5725
  483TMC3    C6 7238   2.849   3.844   1.411  0.3425 -0.1444 -0.5510
  483TMC3     C 7239   2.518   3.996   1.220  0.4478 -0.0560 -0.7441
  483TMC3     O 7240   2.487   4.113   1.235 -0.3130 -0.2023 -0.1336
  483TMC3     H 7241   2.719   4.110   1.237  0.3612  0.4201 -0.0809
  483TMC3    H1 7242   2.530   3.764   1.343 -1.1387  1.5142  0.7865
  483TMC3    H2 7243   2.940   3.819   1.465  1.6803  1.8841 -1.8744
  483TMC3    C7 7244   2.770   3.627   1.349  0.2638 -0.0230  0.3313
  483TMC3    C8 7245   2.962   4.058   1.352 -0.0445  0.5328 -0.2464
  483TMC3    O1 7246   2.884   3.594   1.346 -0.0655 -0.2059  1.1035
  483TMC3    O2 7247   3.042   4.040   1.443 -0.4199  0.2832 -0.3421
  484MPD2     C 7248   4.492   2.605  12.429  0.3728  0.9435 -0.4693
  484MPD2    C1 7249   4.555   2.484  12.452 -0.4112 -0.6306  0.0187
  484MPD2    C2 7250   4.696   2.480  12.467  0.2856 -0.8327  0.2348
  484MPD2    C3 7251   0.025   2.601  12.466  0.3221 -1.0258  0.9726
  484MPD2    C4 7252   4.694   2.722  12.465  0.0328 -0.7525  0.0062
  484MPD2    C5 7253   4.558   2.723  12.438  0.1147  0.9506 -0.7361
  484MPD2     H 7254   0.012   2.386  12.476  1.7882  0.2459  2.5263
  484MPD2    H1 7255   0.004   2.819  12.474  1.6872 -1.7261  1.7912
  484MPD2    H2 7256   4.385   2.619  12.420  0.2357  0.1863  0.0663
  484MPD2    H3 7257   4.501   2.815  12.437 -3.0121 -0.9891 -1.6427
  484MPD2     N 7258   0.167   2.623  12.471 -0.0832 -0.2810  0.1975
  484MPD2    H5 7259   0.213   2.713  12.480 -0.8114  0.1129 -0.0179
  484MPD2    N1 7260   4.472   2.370  12.454  0.0330 -0.6486 -0.0695
  484MPD2    H7 7261   4.373   2.386  12.439 -0.2166 -1.7941  0.3706
  485TMC3    C1 7262   0.392   2.574  12.483  0.2212 -0.1625 -0.1069
  485TMC3    C2 7263   0.480   2.499  12.552  0.3963 -0.6780  0.0117
  485TMC3    C3 7264   0.602   2.552  12.577 -0.1294  0.2143 -0.3863
  485TMC3    C4 7265   0.415   2.698  12.434  0.3555  0.1409  0.1499
  485TMC3    C5 7266   0.545   2.743  12.443  0.3631  0.0190  0.6556
  485TMC3    C6 7267   0.629   2.672  12.523  0.5907 -0.4722  0.9163
  485TMC3     C 7268   0.260   2.526  12.465  0.7193  0.0779 -0.6124
  485TMC3     O 7269   0.245   2.406  12.433  0.1807  0.1214  0.0977
  485TMC3     H 7270   0.456   2.398  12.584  0.1726 -0.6926 -0.2005
  485TMC3    H1 7271   0.347   2.745  12.364  0.2018  1.7731  1.3946
  485TMC3    H2 7272   0.727   2.715  12.544  1.6911 -1.6065 -1.8589
  485TMC3    C7 7273   0.601   2.756  12.309 -0.2989  1.0037  0.1998
  485TMC3    C8 7274   0.721   2.472  12.584 -0.2171  1.0090  0.6612
  485TMC3    O1 7275   0.549   2.835  12.228  0.0575  0.2527 -0.1753
  485TMC3    O2 7276   0.803   2.495  12.497 -0.2932  0.2733  0.2079
  486MPD2     C 7277   2.782   1.202  13.434 -0.0421  0.8432 -0.4443
  486MPD2    C1 7278   2.688   1.175  13.339  0.5474  0.0187 -0.5624
  486MPD2    C2 7279   2.605   1.275  13.281  0.2073  0.3877  0.2400
  486MPD2    C3 7280   2.621   1.407  13.327 -0.0228 -0.4617  0.3917
  486MPD2    C4 7281   2.720   1.435  13.418 -0.4481  0.0353 -0.1924
  486MPD2    C5 7282   2.793   1.333  13.475 -0.4696  0.1301  0.3152
  486MPD2     H 7283   2.527   1.268  13.206 -0.3532 -1.4888  1.0013
  486MPD2    H1 7284   2.730   1.537  13.454  0.4178  0.4904 -1.7363
  486MPD2    H2 7285   2.838   1.126  13.488 -1.2023 -0.8237 -1.5642
  486MPD2    H3 7286   2.860   1.356  13.558 -2.0802  0.8386  1.4095
  486MPD2     N 7287   2.530   1.499  13.269 -0.4720  0.1504 -0.2118
  486MPD2    H5 7288   2.456   1.463  13.211 -0.4689  1.5636 -1.0958
  486MPD2    N1 7289   2.686   1.041  13.305  0.4095 -0.6600 -0.0858
  486MPD2    H7 7290   2.754   0.986  13.356  0.2263 -0.6843  0.1271
  487TMC3    C1 7291   2.653   0.842  13.198 -0.2558  0.7711  0.1090
  487TMC3    C2 7292   2.642   0.797  13.076 -0.9326 -0.0537  0.3156
  487TMC3    C3 7293   2.655   0.661  13.052  0.4834 -0.2623  0.1906
  487TMC3    C4 7294   2.661   0.754  13.302  0.2317  1.3199  0.2005
  487TMC3    C5 7295   2.659   0.614  13.283 -0.9589 -0.3913  0.3343
  487TMC3    C6 7296   2.671   0.565  13.150 -0.4435 -0.3501  0.2376
  487TMC3     C 7297   2.619   0.981  13.203 -0.3651  0.0281 -0.6129
  487TMC3     O 7298   2.543   1.030  13.118 -0.0985 -0.0012 -0.3162
  487TMC3     H 7299   2.621   0.860  12.990  2.3377 -0.0515 -0.4961
  487TMC3    H1 7300   2.644   0.785  13.405 -1.3028 -0.9948  0.6365
  487TMC3    H2 7301   2.659   0.461  13.125 -0.2515  0.4550 -3.1265
  487TMC3    C7 7302   2.587   0.529  13.378  0.0471  0.0524  0.0353
  487TMC3    C8 7303   2.570   0.603  12.955  0.2485 -0.3023  0.3539
  487TMC3    O1 7304   2.591   0.561  13.497 -0.1499 -0.0059 -0.2638
  487TMC3    O2 7305   2.616   0.512  12.890 -0.0124 -0.6334  0.5272
  488MPD2     C 7306   2.533   2.743  15.857 -0.3724  0.3463  0.6541
  488MPD2    C1 7307   2.534   2.810  15.978 -0.8717 -0.5006  0.4292
  488MPD2    C2 7308   2.488   2.741  16.091  0.3834 -0.2375  0.2310
  488MPD2    C3 7309   2.443   2.610  16.081  0.7191 -0.8308 -0.0976
  488MPD2    C4 7310   2.433   2.547  15.959 -0.0439  0.5519  0.2586
  488MPD2    C5 7311   2.477   2.617  15.850 -0.0202 -0.0805 -0.2392
  488MPD2     H 7312   2.500   2.793  16.186  0.8068  0.0087  0.0409
  488MPD2    H1 7313   2.399   2.444  15.951 -0.2586  0.6096  0.4188
  488MPD2    H2 7314   2.559   2.798  15.767  0.9444  0.0316  0.8471
  488MPD2    H3 7315   2.468   2.578  15.749  1.9161  0.5345 -0.6445
  488MPD2     N 7316   2.409   2.548  16.199 -0.2761  0.2632 -0.6485
  488MPD2    H5 7317   2.438   2.607  16.276 -0.1955 -1.0854  0.3683
  488MPD2    N1 7318   2.579   2.937  15.996 -0.5627 -0.1777 -0.0614
  488MPD2    H7 7319   2.581   2.974  16.090 -0.8872  1.7972 -0.8248
  489TMC3    C1 7320   2.369   2.385  16.356  0.6181  0.5138  0.1123
  489TMC3    C2 7321   2.484   2.436  16.413  0.0169 -0.3712  0.1845
  489TMC3    C3 7322   2.473   2.464  16.546  0.1517  0.5102  0.1232
  489TMC3    C4 7323   2.259   2.336  16.429 -0.4541 -0.2005  0.4484
  489TMC3    C5 7324   2.270   2.347  16.567 -0.6957 -0.1829  0.3719
  489TMC3    C6 7325   2.369   2.416  16.622  0.0700 -0.4873  0.2823
  489TMC3     C 7326   2.354   2.429  16.219 -0.1769 -0.0233  0.5876
  489TMC3     O 7327   2.322   2.338  16.142 -0.1659 -0.2633 -0.1075
  489TMC3     H 7328   2.573   2.467  16.360  0.5477 -0.4234  1.0391
  489TMC3    H1 7329   2.168   2.291  16.391 -0.2948  0.7970 -1.0767
  489TMC3    H2 7330   2.368   2.427  16.730 -1.0853 -1.2199  0.3485
  489TMC3    C7 7331   2.144   2.376  16.637  0.3560 -0.2070  0.0804
  489TMC3    C8 7332   2.571   2.563  16.609 -0.0891  0.0012  0.1547
  489TMC3    O1 7333   2.148   2.474  16.712 -0.0377  0.4117 -0.1013
  489TMC3    O2 7334   2.680   2.575  16.556 -0.5671 -0.4258  0.0615
  490MPD2     C 7335   3.428   2.316  17.210 -0.2234  0.1699  0.2244
  490MPD2    C1 7336   3.333   2.295  17.307 -0.0885  0.3662  0.4767
  490MPD2    C2 7337   3.337   2.384  17.412  0.9741 -0.4717 -0.3120
  490MPD2    C3 7338   3.411   2.496  17.408 -0.0503 -0.2275  0.5023
  490MPD2    C4 7339   3.503   2.521  17.312  0.1380 -0.2854 -0.5033
  490MPD2    C5 7340   3.513   2.420  17.214  0.1650  0.0016  0.5285
  490MPD2     H 7341   3.268   2.364  17.493 -0.1381  3.3228 -0.3033
  490MPD2    H1 7342   3.562   2.612  17.303 -0.0808  0.3191  3.7370
  490MPD2    H2 7343   3.428   2.250  17.125 -1.2463  2.0904 -1.2531
  490MPD2    H3 7344   3.587   2.426  17.136 -1.3346 -1.6073 -1.0049
  490MPD2     N 7345   3.419   2.586  17.519  0.2983  0.0631  0.0795
  490MPD2    H5 7346   3.495   2.653  17.515  1.1984 -0.9379  0.5831
  490MPD2    N1 7347   3.232   2.199  17.301 -0.2778  0.9634  0.1204
  490MPD2    H7 7348   3.192   2.166  17.388 -0.1689  2.5474  0.7812
  491TMC3    C1 7349   3.075   2.047  17.196 -0.6087 -0.3061  0.1529
  491TMC3    C2 7350   3.052   1.975  17.309  0.5605  0.1985 -0.1148
  491TMC3    C3 7351   2.962   1.871  17.304  0.2531 -0.8826  0.1456
  491TMC3    C4 7352   3.008   2.009  17.078  0.1804 -0.4821  0.0334
  491TMC3    C5 7353   2.914   1.918  17.076  0.2349 -0.0179  0.1297
  491TMC3    C6 7354   2.888   1.838  17.188 -0.1206  0.0172 -0.1771
  491TMC3     C 7355   3.171   2.146  17.185  0.4673 -0.6731 -1.0997
  491TMC3     O 7356   3.200   2.181  17.074 -0.4086  0.2799  0.3765
  491TMC3     H 7357   3.111   1.985  17.399  1.6911  3.5486 -1.2338
  491TMC3    H1 7358   3.027   2.061  16.985 -1.7065 -0.5153 -0.3547
  491TMC3    H2 7359   2.818   1.755  17.185  0.1533 -0.3133  2.1791
  491TMC3    C7 7360   2.845   1.885  16.955 -0.1061 -0.6293  0.4906
  491TMC3    C8 7361   2.926   1.812  17.431  0.0002 -0.0135 -0.3053
  491TMC3    O1 7362   2.781   1.780  16.949 -0.9677  0.0360 -0.0139
  491TMC3    O2 7363   3.004   1.827  17.521 -1.3220  0.0299 -0.6792
  492MPD2     C 7364   3.667   2.582  11.600  0.5215  0.4927 -0.2955
  492MPD2    C1 7365   3.558   2.538  11.520 -0.5214  0.3898 -0.4095
  492MPD2    C2 7366   3.471   2.456  11.580 -0.1189  0.5539  0.0946
  492MPD2    C3 7367   3.476   2.419  11.715 -0.0354  0.5153  0.6245
  492MPD2    C4 7368   3.579   2.469  11.792 -0.1886 -0.3853  0.2823
  492MPD2    C5 7369   3.672   2.550  11.734  0.2356  0.3608  0.3155
  492MPD2     H 7370   3.397   2.408  11.516 -2.3753  2.6325  1.1456
  492MPD2    H1 7371   3.581   2.448  11.898  2.0993  3.7263  1.0118
  492MPD2    H2 7372   3.758   2.629  11.563  2.1030 -0.2373  2.6962
  492MPD2    H3 7373   3.758   2.588  11.788  1.9456 -0.0200 -2.1172
  492MPD2     N 7374   3.393   2.330  11.775 -0.0352  0.6307 -0.1054
  492MPD2    H5 7375   3.404   2.324  11.876  1.0712  2.7239 -0.0925
  492MPD2    N1 7376   3.552   2.539  11.380 -1.0851  0.1219  0.2337
  492MPD2    H7 7377   3.477   2.485  11.340  0.7596 -2.6088  0.4927
  493TMC3    C1 7378   3.628   2.578  11.160  0.1851 -0.6233  0.2125
  493TMC3    C2 7379   3.636   2.678  11.061 -0.4415 -0.4151  0.0951
  493TMC3    C3 7380   3.582   2.663  10.931 -0.2214 -0.3732 -0.1134
  493TMC3    C4 7381   3.600   2.452  11.120  0.1940  0.2137  0.0870
  493TMC3    C5 7382   3.547   2.444  10.992 -0.3752 -0.9380  0.0451
  493TMC3    C6 7383   3.530   2.542  10.901 -0.5627  0.8032 -0.2832
  493TMC3     C 7384   3.642   2.609  11.304  0.1085  0.1269  0.0326
  493TMC3     O 7385   3.707   2.708  11.336 -0.1270  0.3267  0.0141
  493TMC3     H 7386   3.653   2.779  11.097  1.8910 -0.6895 -0.2085
  493TMC3    H1 7387   3.609   2.381  11.201  1.8347 -1.3131 -1.4361
  493TMC3    H2 7388   3.479   2.527  10.806 -1.3658  0.8402  0.1343
  493TMC3    C7 7389   3.488   2.319  10.952  0.8882 -0.3958  0.3455
  493TMC3    C8 7390   3.525   2.787  10.871  0.0462 -0.4132 -0.2284
  493TMC3    O1 7391   3.440   2.300  10.841 -0.5767 -0.2371  0.2415
  493TMC3    O2 7392   3.519   2.879  10.949 -0.2591  0.2014 -0.9078
  494TMC3    C1 7393   4.046   4.548   0.602  0.2218  0.2922  0.7569
  494TMC3    C2 7394   3.961   4.439   0.612 -0.3009 -0.3638  0.2634
  494TMC3    C3 7395   3.943   4.367   0.500  0.2286 -0.0120  0.4255
  494TMC3    C4 7396   4.110   4.578   0.487 -0.2244  0.0303  0.4203
  494TMC3    C5 7397   4.096   4.503   0.379 -1.0374 -1.1412 -0.3599
  494TMC3    C6 7398   3.996   4.404   0.374  0.0641 -0.5408 -0.5324
  494TMC3     C 7399   4.089   4.602   0.731 -0.0230 -0.2445 -0.2101
  494TMC3     O 7400   4.206   4.647   0.733 -0.6058  0.4857  0.0718
  494TMC3     H 7401   3.916   4.403   0.703 -0.4830 -1.8205 -0.4060
  494TMC3    H1 7402   4.173   4.666   0.486  0.9468 -0.7993  2.2241
  494TMC3    H2 7403   3.996   4.318   0.308 -0.2840  0.8921 -2.3957
  494TMC3    C7 7404   4.182   4.519   0.267 -0.7994 -0.5253 -0.5130
  494TMC3    C8 7405   3.937   4.224   0.530 -0.7136 -0.0548  0.2333
  494TMC3    O1 7406   4.183   4.421   0.187  0.4701  0.3737 -0.6124
  494TMC3    O2 7407   3.983   4.187   0.638  0.8873  0.4394  0.0036
  495TMC3    C1 7408   2.912   1.249  14.770  0.0145  0.2061 -0.1105
  495TMC3    C2 7409   2.860   1.282  14.645 -0.4732 -0.2334 -0.2218
  495TMC3    C3 7410   2.763   1.377  14.644  0.6846 -0.2488 -0.2505
  495TMC3    C4 7411   2.864   1.305  14.885 -0.5864  0.4372 -0.0513
  495TMC3    C5 7412   2.761   1.390  14.881  0.5782 -0.2141  0.5102
  495TMC3    C6 7413   2.713   1.432  14.759  0.3477  0.0592  0.1487
  495TMC3     C 7414   2.930   1.108  14.783 -0.3748  0.6215 -0.7787
  495TMC3     O 7415   2.884   1.057  14.884 -0.6210 -1.0692 -0.5673
  495TMC3     H 7416   2.884   1.217  14.561 -1.3654  0.0444 -0.6911
  495TMC3    H1 7417   2.912   1.270  14.976  0.1663  2.1713  0.2320
  495TMC3    H2 7418   2.629   1.500  14.757 -0.6498 -1.1165  1.3726
  495TMC3    C7 7419   2.682   1.395  15.000  0.3570  0.6563  0.2426
  495TMC3    C8 7420   2.671   1.374  14.538  0.2748  0.3106 -0.1709
  495TMC3    O1 7421   2.745   1.428  15.101 -0.4210 -0.2460  0.0008
  495TMC3    O2 7422   2.569   1.439  14.553  0.1757  0.1378  0.1942
  496MPD2     C 7423   4.120   1.342  15.127 -0.0844  0.0210 -0.3837
  496MPD2    C1 7424   4.241   1.308  15.195  0.4410 -0.3764  0.2293
  496MPD2    C2 7425   4.250   1.281  15.332 -0.4464 -0.3425 -0.2851
  496MPD2    C3 7426   4.137   1.289  15.409 -1.0936  0.3378 -0.2897
  496MPD2    C4 7427   4.014   1.332  15.348 -0.1290  0.2221  0.4232
  496MPD2    C5 7428   4.010   1.357  15.212  0.2752  0.1499 -0.4790
  496MPD2     H 7429   4.341   1.250  15.382 -1.0676 -0.8825  0.5235
  496MPD2    H1 7430   3.925   1.337  15.409 -3.1406 -2.6148 -3.6769
  496MPD2    H2 7431   4.116   1.360  15.020  0.7402  0.7742 -0.2922
  496MPD2    H3 7432   3.913   1.379  15.170 -0.4916  1.2051  1.8318
  496MPD2     N 7433   4.130   1.251  15.546  0.6587 -0.3199 -0.3753
  496MPD2    H5 7434   4.035   1.242  15.582  0.4198  2.7884 -0.1970
  496MPD2    N1 7435   4.341   1.276  15.101 -0.2746  0.2479 -0.3345
  496MPD2    H7 7436   4.315   1.288  15.004  2.0887  2.2112 -0.7571
  497TMC3    C1 7437   4.181   1.069  15.692  0.6879  0.5893 -0.2206
  497TMC3    C2 7438   4.089   0.998  15.621 -0.1076  0.6073 -0.7536
  497TMC3    C3 7439   4.089   0.858  15.631 -0.8080  0.8562 -0.0189
  497TMC3    C4 7440   4.276   1.014  15.767 -0.3632  0.6177  0.0579
  497TMC3    C5 7441   4.262   0.881  15.791  0.5531 -0.4569 -0.1384
  497TMC3    C6 7442   4.174   0.805  15.725 -0.2694 -0.0053 -0.3292
  497TMC3     C 7443   4.230   1.183  15.616 -0.6262  0.0508  0.2445
  497TMC3     O 7444   4.346   1.216  15.632  0.1605 -0.6941  0.2641
  497TMC3     H 7445   4.011   1.046  15.561 -0.5387  0.0882 -0.6043
  497TMC3    H1 7446   4.340   1.080  15.825  1.6218 -0.2007 -1.2050
  497TMC3    H2 7447   4.175   0.700  15.750 -1.7305 -0.4945 -2.3007
  497TMC3    C7 7448   4.299   0.827  15.915 -0.1015 -0.0665  0.6782
  497TMC3    C8 7449   4.007   0.786  15.534 -0.0506  1.0284  0.4036
  497TMC3    O1 7450   4.215   0.755  15.971  0.3590 -0.1787  0.4683
  497TMC3    O2 7451   3.934   0.855  15.463  0.0661  0.1622 -0.4991
  498MPD2     C 7452   1.002   2.144   9.928  0.1938 -0.3244  0.6876
  498MPD2    C1 7453   0.951   2.243  10.007 -0.4610  0.0465 -0.7845
  498MPD2    C2 7454   0.818   2.237  10.032  0.6709  0.2638  0.0085
  498MPD2    C3 7455   0.742   2.131   9.988 -0.5072  0.2943 -0.7453
  498MPD2    C4 7456   0.797   2.024   9.930  0.0624 -0.1457 -0.7912
  498MPD2    C5 7457   0.929   2.033   9.894 -1.3833 -0.4732 -0.5856
  498MPD2     H 7458   0.766   2.308  10.095  3.0407 -0.4539  2.8202
  498MPD2    H1 7459   0.742   1.935   9.900 -2.0957  1.5614 -1.8503
  498MPD2    H2 7460   1.104   2.146   9.892  0.3314  0.9681  1.1359
  498MPD2    H3 7461   0.966   1.958   9.825 -0.0083  0.4253 -0.8148
  498MPD2     N 7462   0.604   2.126  10.027 -0.3485  0.0655  0.1501
  498MPD2    H5 7463   0.564   2.205  10.078 -2.7028 -2.3949  2.0743
  498MPD2    N1 7464   1.029   2.343  10.065 -0.1907  0.7613 -0.0616
  498MPD2    H7 7465   0.988   2.416  10.122 -0.9469  1.2765 -1.2861
  499TMC3    C1 7466   1.208   2.467  10.133  0.1733  0.8620 -0.4564
  499TMC3    C2 7467   1.332   2.489  10.184  0.3806  0.7886 -0.4063
  499TMC3    C3 7468   1.369   2.611  10.236 -0.9273  0.2377 -0.2560
  499TMC3    C4 7469   1.115   2.574  10.134 -0.8058 -0.4559 -0.2493
  499TMC3    C5 7470   1.150   2.701  10.184  0.1879  0.0334  0.2897
  499TMC3    C6 7471   1.277   2.716  10.232 -0.3274  0.6365 -0.1110
  499TMC3     C 7472   1.168   2.348  10.060  0.3289  0.5350  0.1066
  499TMC3     O 7473   1.248   2.263  10.019  0.1705  0.1065  0.2275
  499TMC3     H 7474   1.401   2.406  10.194 -0.0132  0.6830  1.4574
  499TMC3    H1 7475   1.045   2.572  10.051 -0.1609 -0.2157 -0.8031
  499TMC3    H2 7476   1.302   2.812  10.275  1.8664 -0.1988  0.4809
  499TMC3    C7 7477   1.078   2.816  10.138 -0.9677 -0.5614 -0.2889
  499TMC3    C8 7478   1.509   2.640  10.283  0.1589 -0.2633  0.0762
  499TMC3    O1 7479   1.130   2.925  10.146 -0.4517 -0.4575  0.5689
  499TMC3    O2 7480   1.527   2.757  10.321 -0.4677  0.0175 -0.1200
  500MPD2     C 7481   2.021   3.235  10.988  0.4900 -0.9326  0.3076
  500MPD2    C1 7482   2.020   3.321  10.880  0.0084 -0.6379 -0.3281
  500MPD2    C2 7483   1.902   3.358  10.822  0.0114 -0.2078  1.0391
  500MPD2    C3 7484   1.779   3.311  10.867  0.0201  0.5573  0.3160
  500MPD2    C4 7485   1.786   3.224  10.975  0.0731  0.0830  0.5742
  500MPD2    C5 7486   1.905   3.184  11.028 -0.0367 -0.0443 -0.0351
  500MPD2     H 7487   1.904   3.430  10.741 -1.5939 -0.5902  0.6417
  500MPD2    H1 7488   1.694   3.189  11.020  1.2160 -2.6128  0.8741
  500MPD2    H2 7489   2.108   3.208  11.046 -0.4352 -0.1199  2.0750
  500MPD2    H3 7490   1.897   3.114  11.111  3.3883 -0.1793  0.1639
  500MPD2     N 7491   1.655   3.342  10.811  0.1246 -0.6194 -0.4792
  500MPD2    H5 7492   1.581   3.302  10.867  1.2556 -2.0117  0.0474
  500MPD2    N1 7493   2.137   3.372  10.827  0.3059 -0.2998  0.1284
  500MPD2    H7 7494   2.109   3.422  10.743  0.4730  0.4498  0.5187
  501TMC3    C1 7495   2.375   3.400  10.777  1.4524 -0.1966  0.2041
  501TMC3    C2 7496   2.356   3.508  10.691  0.2733  0.0469 -0.3297
  501TMC3    C3 7497   2.456   3.530  10.600  0.2495 -0.8828 -0.6942
  501TMC3    C4 7498   2.498   3.354  10.796  0.1207  0.1574 -0.1885
  501TMC3    C5 7499   2.604   3.398  10.721 -0.2496 -0.3994 -0.1633
  501TMC3    C6 7500   2.585   3.486  10.614 -0.6455  0.0480 -0.9456
  501TMC3     C 7501   2.265   3.345  10.862 -0.3221  0.0992 -0.5130
  501TMC3     O 7502   2.312   3.278  10.957  0.6307 -0.4651  0.2414
  501TMC3     H 7503   2.262   3.562  10.694  0.4931  0.4639 -0.9296
  501TMC3    H1 7504   2.516   3.264  10.854 -5.5560  1.3711  3.4060
  501TMC3    H2 7505   2.657   3.515  10.539  0.4155 -0.6676 -0.2118
  501TMC3    C7 7506   2.735   3.331  10.733  0.4148  0.7653  0.5761
  501TMC3    C8 7507   2.449   3.654  10.526  0.3061 -0.1209 -0.1051
  501TMC3    O1 7508   2.757   3.296  10.850  0.4979 -0.3955 -1.0666
  501TMC3    O2 7509   2.557   3.708  10.502 -0.1175  0.4959  0.4883
  502TMC3    C1 7510   2.155   2.039  14.523  0.2500  0.0388 -0.0702
  502TMC3    C2 7511   2.172   2.162  14.453 -0.3114  0.2615 -0.7291
  502TMC3    C3 7512   2.081   2.262  14.475  0.0274  0.7393 -0.4190
  502TMC3    C4 7513   2.042   2.019  14.593  0.0363  0.2249  0.7154
  502TMC3    C5 7514   1.950   2.118  14.614 -0.7456  0.2562 -0.0142
  502TMC3    C6 7515   1.969   2.242  14.556 -0.7397  0.1895  0.5470
  502TMC3     C 7516   2.276   1.998  14.589  0.3500 -0.5347 -0.6644
  502TMC3     O 7517   2.384   2.010  14.528 -0.4869  0.8082  0.0530
  502TMC3     H 7518   2.260   2.173  14.390 -0.7444 -0.1284 -1.4015
  502TMC3    H1 7519   2.028   1.920  14.635  0.9876 -0.3830 -0.3774
  502TMC3    H2 7520   1.912   2.325  14.596  2.4447  2.8132 -0.3854
  502TMC3    C7 7521   1.938   2.126  14.759 -0.4296 -0.7818  0.2244
  502TMC3    C8 7522   2.153   2.391  14.506 -0.7951  0.1086 -0.4021
  502TMC3    O1 7523   2.003   2.053  14.834  0.0006 -0.1261  0.3131
  502TMC3    O2 7524   2.090   2.496  14.503 -0.0966 -0.7230  0.4160
  503MPD2     C 7525   4.200   3.040  17.331 -0.8271 -1.1147 -0.2666
  503MPD2    C1 7526   4.289   3.110  17.412 -0.4186  0.0831 -0.0141
  503MPD2    C2 7527   4.406   3.038  17.443 -0.5230 -0.3354 -0.4573
  503MPD2    C3 7528   4.432   2.913  17.389 -0.7563 -0.0909 -0.2589
  503MPD2    C4 7529   4.343   2.856  17.297 -0.0296 -0.1456  0.2554
  503MPD2    C5 7530   4.222   2.912  17.281  0.2478  0.8897  0.1781
  503MPD2     H 7531   4.485   3.081  17.503 -1.7933  0.4302  0.6625
  503MPD2    H1 7532   4.363   2.763  17.246  0.8029  0.6126 -0.8062
  503MPD2    H2 7533   4.107   3.081  17.295  0.0403  0.9813 -0.1297
  503MPD2    H3 7534   4.152   2.859  17.218  1.6365  0.7703 -1.2826
  503MPD2     N 7535   4.563   2.861  17.422 -0.6409 -0.4402  0.4452
  503MPD2    H5 7536   4.627   2.907  17.485 -1.6536  1.0922  0.3449
  503MPD2    N1 7537   4.266   3.237  17.462 -0.5885 -0.2922  0.1357
  503MPD2    H7 7538   4.328   3.276  17.532  1.9162 -1.0427 -1.6709
  504TMC3    C1 7539   0.011   2.734  17.401  0.2154  0.0138  0.1717
  504TMC3    C2 7540   0.049   2.746  17.530 -0.2006 -0.3217  0.6067
  504TMC3    C3 7541   0.163   2.680  17.570  0.0475 -0.4908 -0.0140
  504TMC3    C4 7542   0.094   2.667  17.313  0.1803  0.3681  0.5642
  504TMC3    C5 7543   0.199   2.592  17.358 -0.3545 -0.3733  0.2335
  504TMC3    C6 7544   0.233   2.600  17.489 -0.0883 -0.1742  0.6069
  504TMC3     C 7545   4.613   2.750  17.370 -1.4116 -0.5047  0.6670
  504TMC3     O 7546   4.568   2.671  17.287 -0.2269 -0.2273 -0.3093
  504TMC3     H 7547   4.715   2.777  17.605  2.2594  0.5517  2.6122
  504TMC3    H1 7548   0.070   2.659  17.208 -0.1822  2.3957  0.4777
  504TMC3    H2 7549   0.335   2.576  17.518 -0.2745 -1.9702 -0.2309
  504TMC3    C7 7550   0.303   2.559  17.263  0.0996  0.0283 -0.1320
  504TMC3    C8 7551   0.173   2.657  17.721  0.4400 -0.2258 -1.1139
  504TMC3    O1 7552   0.294   2.608  17.150  0.1500 -0.9503 -0.5570
  504TMC3    O2 7553   0.122   2.740   0.047 -0.5464  0.2408 -0.3286
  505MPD2     C 7554   3.814   2.092  10.209  0.6120  0.4335  0.0122
  505MPD2    C1 7555   3.875   1.987  10.141  0.2299 -0.4286  0.1468
  505MPD2    C2 7556   3.917   1.872  10.209  0.0802 -0.3338  0.6802
  505MPD2    C3 7557   3.915   1.876  10.347  0.5943 -0.2829  0.9478
  505MPD2    C4 7558   3.869   1.983  10.415  0.4507 -0.1198 -0.3594
  505MPD2    C5 7559   3.824   2.088  10.344  0.5819  0.2491  0.3223
  505MPD2     H 7560   3.940   1.776  10.163 -0.1749  0.7716 -1.7060
  505MPD2    H1 7561   3.858   1.974  10.522  0.4018  3.1243 -0.1080
  505MPD2    H2 7562   3.780   2.181  10.156 -1.0753 -0.3102 -0.1653
  505MPD2    H3 7563   3.793   2.177  10.396  0.3075 -0.7933  1.9553
  505MPD2     N 7564   3.967   1.765  10.409 -0.4552 -0.4145  0.7984
  505MPD2    H5 7565   3.987   1.679  10.358  4.8521  1.1990  0.1618
  505MPD2    N1 7566   3.885   2.001   9.996  0.3581  0.0688 -0.4947
  505MPD2    H7 7567   3.835   2.079   9.954 -0.1306 -1.4352 -2.6647
  506TMC3    C1 7568   3.940   1.922   9.773 -0.0572 -0.3493 -0.2194
  506TMC3    C2 7569   3.984   2.044   9.735  0.1658 -0.1129 -0.6526
  506TMC3    C3 7570   4.084   2.044   9.645 -0.4158  0.2716  0.3459
  506TMC3    C4 7571   3.972   1.810   9.712  0.0046  0.0809 -0.2138
  506TMC3    C5 7572   4.081   1.811   9.630 -0.2116  0.1177 -0.0330
  506TMC3    C6 7573   4.142   1.930   9.591 -0.2358 -0.1749 -0.3060
  506TMC3     C 7574   3.947   1.908   9.916 -0.2115 -0.1951  0.8327
  506TMC3     O 7575   3.996   1.796   9.949 -0.0093 -0.4741  0.1237
  506TMC3     H 7576   3.970   2.131   9.798  0.0689  0.1106 -0.9812
  506TMC3    H1 7577   3.928   1.718   9.749 -1.6350  0.2500 -1.7679
  506TMC3    H2 7578   4.231   1.926   9.530 -0.7016 -2.3341 -0.8572
  506TMC3    C7 7579   4.175   1.701   9.643 -0.2381 -0.2838  0.3663
  506TMC3    C8 7580   4.175   2.156   9.658 -0.1747 -0.2329  0.3379
  506TMC3    O1 7581   4.264   1.697   9.558  0.9177  0.0853  0.3496
  506TMC3    O2 7582   4.125   2.265   9.676  0.1957 -0.1644 -1.0921
  507TMC3    C1 7583   0.735   2.402  14.870  0.1979 -0.2058 -0.4096
  507TMC3    C2 7584   0.704   2.314  14.770  0.4933 -0.2084 -0.7988
  507TMC3    C3 7585   0.784   2.310  14.655 -0.2113  0.8091 -0.1314
  507TMC3    C4 7586   0.844   2.484  14.864 -0.0280 -0.1987 -0.1417
  507TMC3    C5 7587   0.928   2.471  14.755 -0.4111  1.0360 -0.4323
  507TMC3    C6 7588   0.900   2.386  14.652 -0.0887  0.3893  0.0435
  507TMC3     C 7589   0.665   2.396  14.995 -0.1781 -0.3531  0.3677
  507TMC3     O 7590   0.718   2.440  15.092 -0.1925 -0.2077 -0.5818
  507TMC3     H 7591   0.616   2.251  14.764  0.8372 -0.8511  1.0355
  507TMC3    H1 7592   0.861   2.568  14.930  2.4682  0.6053 -1.8257
  507TMC3    H2 7593   0.980   2.373  14.580  0.1886 -0.6911  0.5387
  507TMC3    C7 7594   0.966   2.607  14.705 -0.5105 -0.0031  0.5418
  507TMC3    C8 7595   0.704   2.325  14.539 -0.1405  0.0805 -0.2223
  507TMC3    O1 7596   0.974   2.597  14.583  0.3805 -0.0298  0.5108
  507TMC3    O2 7597   0.587   2.299  14.548 -0.2162 -0.3077 -0.2585
  508MPD2     C 7598   1.706   4.668  15.910 -0.6451  0.0289  0.4794
  508MPD2    C1 7599   1.658   0.010  16.017  0.0519 -0.8008  0.0757
  508MPD2    C2 7600   1.653   0.147  15.996 -0.4735  0.4784  0.4812
  508MPD2    C3 7601   1.691   0.209  15.876  0.9242  0.6168  0.2711
  508MPD2    C4 7602   1.740   0.132  15.774  0.0718  0.0532  0.0695
  508MPD2    C5 7603   1.759   4.731  15.791  0.1022 -0.2024 -0.2931
  508MPD2     H 7604   1.621   0.210  16.078  0.5599  1.6980 -0.0633
  508MPD2    H1 7605   1.780   0.182  15.687 -0.8065  0.4936 -0.0685
  508MPD2    H2 7606   1.728   4.563  15.918  1.4767  0.5540  1.6090
  508MPD2    H3 7607   1.806   4.671  15.714 -1.3622 -0.1505 -1.2323
  508MPD2     N 7608   1.674   0.346  15.871  0.4555 -0.0124 -0.4916
  508MPD2    H5 7609   1.655   0.386  15.962  0.4927  0.2218 -0.5888
  508MPD2    N1 7610   1.638   4.691  16.139 -0.1477  0.1012 -0.7785
  508MPD2    H7 7611   1.662   4.595  16.160 -1.7077 -0.3711 -1.1790
  509TMC3    C1 7612   1.466   0.721  15.730 -0.3290  0.3429 -0.0914
  509TMC3    C2 7613   1.508   0.796  15.841  0.4676 -0.4514  0.4198
  509TMC3    C3 7614   1.586   0.733  15.928 -0.4335  0.1581 -0.0259
  509TMC3    C4 7615   1.521   0.602  15.701 -0.0920  1.0107  0.4054
  509TMC3    C5 7616   1.616   0.555  15.785  0.2568  0.7394 -0.0638
  509TMC3    C6 7617   1.642   0.615  15.908  0.0146  0.8615 -0.0841
  509TMC3     C 7618   1.382   0.783  15.630  0.7640 -0.3946  0.2946
  509TMC3     O 7619   1.397   0.740  15.518 -0.0386  0.1787  1.1862
  509TMC3     H 7620   1.464   0.891  15.869  0.5262 -0.3162  0.0556
  509TMC3    H1 7621   1.488   0.542  15.617  0.9974  1.2640 -0.2107
  509TMC3    H2 7622   1.703   0.573  15.986  0.7667  1.8986 -0.1110
  509TMC3    C7 7623   1.648   0.420  15.755 -0.2791  0.1471  0.0404
  509TMC3    C8 7624   1.652   0.811  16.022 -0.1240 -0.3474  0.2111
  509TMC3    O1 7625   1.642   0.374  15.641 -0.3741  0.1325  0.6295
  509TMC3    O2 7626   1.673   0.777  16.135  0.1278  0.1461  0.1409
  510MPD2     C 7627   3.978   1.841  14.360  0.2825 -0.6946 -0.2662
  510MPD2    C1 7628   4.056   1.745  14.417  0.2075  0.0482 -1.0119
  510MPD2    C2 7629   4.180   1.722  14.359  0.2627  0.2562 -0.0661
  510MPD2    C3 7630   4.221   1.788  14.240 -0.0140 -0.3704  0.2061
  510MPD2    C4 7631   4.137   1.877  14.178  0.0292  1.2506  0.2913
  510MPD2    C5 7632   4.017   1.897  14.240  0.2864  0.1857 -0.3896
  510MPD2     H 7633   4.254   1.659  14.406 -1.0093  0.0274  1.6200
  510MPD2    H1 7634   4.165   1.938  14.093 -2.5615  1.8191 -0.1473
  510MPD2    H2 7635   3.878   1.863  14.395  0.5141  0.5987 -0.4364
  510MPD2    H3 7636   3.943   1.965  14.201 -0.1268 -0.8471 -1.3992
  510MPD2     N 7637   4.354   1.775  14.200 -0.2527 -1.2597 -0.8083
  510MPD2    H5 7638   4.406   1.741  14.280  1.0387  0.3757 -0.9327
  510MPD2    N1 7639   4.004   1.676  14.526  0.4210 -0.3789 -0.0415
  510MPD2    H7 7640   3.912   1.704  14.557  0.8679  0.7054  0.3076
  511TMC3    C1 7641   3.987   1.505  14.682  0.0397 -0.0135 -0.0211
  511TMC3    C2 7642   3.913   1.570  14.770  1.1545  1.0106  0.7451
  511TMC3    C3 7643   3.826   1.496  14.853 -0.5864  0.2052 -0.1146
  511TMC3    C4 7644   3.980   1.368  14.666  0.5018  0.8547  0.1218
  511TMC3    C5 7645   3.886   1.305  14.742 -0.2748 -0.2633  0.6228
  511TMC3    C6 7646   3.814   1.363  14.837  0.8254 -0.9613  0.1575
  511TMC3     C 7647   4.070   1.572  14.585  0.2580  0.2377 -0.0130
  511TMC3     O 7648   4.170   1.511  14.547 -0.3065 -0.3001  0.1010
  511TMC3     H 7649   3.922   1.678  14.777 -3.6087  1.4275  0.7163
  511TMC3    H1 7650   4.045   1.317  14.596  0.5749  3.2962 -1.5900
  511TMC3    H2 7651   3.724   1.316  14.875 -1.9466  1.8948 -2.8559
  511TMC3    C7 7652   3.825   1.191  14.674  0.1377  0.9316  0.3893
  511TMC3    C8 7653   3.744   1.569  14.953  0.4022  0.1504 -1.2434
  511TMC3    O1 7654   3.830   1.202  14.554 -0.7459  0.0650 -0.5349
  511TMC3    O2 7655   3.747   1.690  14.950  0.2604 -0.4091  0.9152
  512TMC3    C1 7656   3.275   0.802  13.785 -0.1850  0.4935 -0.0916
  512TMC3    C2 7657   3.345   0.905  13.843  0.1101 -0.3793  0.5943
  512TMC3    C3 7658   3.311   1.028  13.795  0.3735  0.2007  0.0762
  512TMC3    C4 7659   3.185   0.812  13.684  0.3530 -0.3118 -0.1595
  512TMC3    C5 7660   3.150   0.939  13.644  0.1064  0.8403 -0.3222
  512TMC3    C6 7661   3.216   1.051  13.692  0.4323  0.1114 -0.3614
  512TMC3     C 7662   3.330   0.672  13.813 -0.2937 -0.4852  0.3161
  512TMC3     O 7663   3.429   0.666  13.881 -0.2432 -0.1809 -0.4260
  512TMC3     H 7664   3.415   0.899  13.925 -2.0087 -0.2695  2.4323
  512TMC3    H1 7665   3.143   0.724  13.637  2.2458 -1.5159  0.4008
  512TMC3    H2 7666   3.196   1.151  13.656  0.7167 -0.5349 -2.2724
  512TMC3    C7 7667   3.081   0.961  13.514 -0.2098  0.0279 -0.6893
  512TMC3    C8 7668   3.323   1.130  13.894  0.2194 -0.0410  0.2533
  512TMC3    O1 7669   3.086   1.076  13.474  0.4777  0.2061  0.0275
  512TMC3    O2 7670   3.320   1.089  14.007  0.0407 -0.6781  0.0622
  513MPD2     C 7671   4.401   0.835  13.548 -0.8884 -0.0619 -0.0129
  513MPD2    C1 7672   4.513   0.809  13.469  0.1136  0.6869  0.0010
  513MPD2    C2 7673   4.629   0.886  13.486 -1.0917 -0.0943  0.5239
  513MPD2    C3 7674   4.628   0.996  13.566 -0.3984 -0.2732  0.1697
  513MPD2    C4 7675   4.515   1.022  13.641 -0.2455 -0.0961 -0.0642
  513MPD2    C5 7676   4.411   0.935  13.642 -0.2441 -0.4153 -0.6262
  513MPD2     H 7677   4.722   0.869  13.433 -1.1357 -2.4602  1.2080
  513MPD2    H1 7678   4.507   1.110  13.704  0.3480 -0.4285  0.4732
  513MPD2    H2 7679   4.321   0.762  13.549 -2.2178  1.3931  1.7223
  513MPD2    H3 7680   4.326   0.953  13.706  1.4374 -1.0824  1.7858
  513MPD2     N 7681   4.732   1.082  13.570 -0.3537 -0.3422 -0.1523
  513MPD2    H5 7682   0.066   1.062  13.501  1.3740  1.3724  1.1297
  513MPD2    N1 7683   4.528   0.701  13.384 -0.1406 -1.1169  0.5038
  513MPD2    H7 7684   4.621   0.679  13.349  0.6701 -1.1445  2.6587
  514TMC3    C1 7685   4.494   0.522  13.274 -0.1636  0.0373 -0.5378
  514TMC3    C2 7686   4.441   0.535  13.151 -0.4142 -0.1941 -0.6835
  514TMC3    C3 7687   4.528   0.526  13.045  0.2019 -0.0610 -0.4611
  514TMC3    C4 7688   4.623   0.497  13.290  0.9279  0.2088 -0.4345
  514TMC3    C5 7689   4.712   0.495  13.183  0.4700  0.1201  0.4251
  514TMC3    C6 7690   4.662   0.505  13.054  0.9868  0.2621  0.1401
  514TMC3     C 7691   4.436   0.612  13.361  0.4564  0.0862 -0.2305
  514TMC3     O 7692   4.322   0.637  13.339 -0.3639  0.0882  0.5510
  514TMC3     H 7693   4.334   0.545  13.132 -0.7741  1.1298  2.0775
  514TMC3    H1 7694   4.663   0.503  13.391 -0.9191  1.5749  0.2316
  514TMC3    H2 7695   4.720   0.509  12.962  2.7952 -2.4463  1.1867
  514TMC3    C7 7696   0.083   0.590  13.207 -0.0317 -0.0563  0.7893
  514TMC3    C8 7697   4.466   0.545  12.915 -0.0139  0.3199 -0.3757
  514TMC3    O1 7698   0.064   0.662  13.310 -0.5265  0.0225 -0.3067
  514TMC3    O2 7699   4.350   0.514  12.920 -0.3290  0.1373  0.1371
  515MPD2     C 7700   2.696   3.130  14.624 -0.4739 -1.1962  0.1760
  515MPD2    C1 7701   2.759   3.014  14.658 -0.4894 -0.2517  0.1099
  515MPD2    C2 7702   2.860   3.010  14.746 -0.1428 -0.2975  0.5267
  515MPD2    C3 7703   2.896   3.130  14.807 -0.4268 -0.2283 -0.2337
  515MPD2    C4 7704   2.827   3.245  14.784 -0.1928 -0.4180 -0.4144
  515MPD2    C5 7705   2.725   3.244  14.695 -0.0394 -0.1019  0.1019
  515MPD2     H 7706   2.907   2.913  14.757 -0.8622 -0.9946 -2.4564
  515MPD2    H1 7707   2.851   3.345  14.818  0.6029 -1.2536  1.5360
  515MPD2    H2 7708   2.621   3.142  14.546 -0.8792 -1.8394  0.4733
  515MPD2    H3 7709   2.681   3.340  14.673 -1.0340 -0.2434  1.5325
  515MPD2     N 7710   3.010   3.141  14.889  0.0510  0.9742 -1.1062
  515MPD2    H5 7711   3.031   3.233  14.928  0.2143 -0.2564  1.7120
  515MPD2    N1 7712   2.743   2.890  14.590  0.1018 -0.3439  0.0926
  515MPD2    H7 7713   2.799   2.812  14.622 -0.3087 -1.5902 -2.2110
  516TMC3    C1 7714   2.647   2.721  14.449  0.0526  0.0005  0.3783
  516TMC3    C2 7715   2.567   2.693  14.338 -0.2967 -1.3253  0.5430
  516TMC3    C3 7716   2.534   2.561  14.331  0.2821 -0.1112 -0.1086
  516TMC3    C4 7717   2.717   2.625  14.521 -0.0057  0.6280  0.0395
  516TMC3    C5 7718   2.690   2.497  14.485 -0.1428 -0.4567 -0.1275
  516TMC3    C6 7719   2.583   2.460  14.408 -0.3409  0.2272  1.0895
  516TMC3     C 7720   2.660   2.862  14.486  0.0876  0.1360 -0.1885
  516TMC3     O 7721   2.584   2.939  14.430 -0.4807 -0.5104 -0.7067
  516TMC3     H 7722   2.512   2.768  14.283  2.0991 -0.3937 -0.5769
  516TMC3    H1 7723   2.791   2.652  14.596  0.2328  0.8079 -0.2628
  516TMC3    H2 7724   2.562   2.355  14.393  0.5418  0.0292  1.2672
  516TMC3    C7 7725   2.765   2.383  14.548 -0.2388  0.0760  0.0512
  516TMC3    C8 7726   2.407   2.531  14.266  0.4832  0.2383 -0.4231
  516TMC3    O1 7727   2.817   2.398  14.660  0.1359  0.2757  0.0777
  516TMC3    O2 7728   2.334   2.627  14.231  0.8326  0.4606 -0.1282
  517MPD2     C 7729   2.687   4.291   0.075 -0.6184  0.3848  0.1259
  517MPD2    C1 7730   2.820   4.247   0.103  0.5075 -0.5302 -0.2999
  517MPD2    C2 7731   2.901   4.319   0.186  0.4897 -0.5558  0.1319
  517MPD2    C3 7732   2.841   4.411   0.266 -0.1383  0.1357 -0.1632
  517MPD2    C4 7733   2.716   4.458   0.240  0.5845  0.5666 -0.2725
  517MPD2    C5 7734   2.638   4.406   0.138  0.1149 -0.7940 -0.2796
  517MPD2     H 7735   3.001   4.280   0.197 -0.1361 -2.5787 -1.2311
  517MPD2    H1 7736   2.677   4.550   0.282  0.4295  0.5277 -0.3341
  517MPD2    H2 7737   2.620   4.251  17.749 -1.0518 -0.2754  0.8604
  517MPD2    H3 7738   2.537   4.444   0.132  0.5174  0.5368  1.5725
  517MPD2     N 7739   2.907   4.483   0.372 -0.2293  0.0561  0.1687
  517MPD2    H5 7740   2.860   4.565   0.408  2.0105  0.7001  1.5917
  517MPD2    N1 7741   2.877   4.139   0.034 -0.5516 -0.3794 -0.3690
  517MPD2    H7 7742   2.977   4.121   0.044 -0.4373  1.4222  1.6261
  518TMC3    C1 7743   2.878   3.935  17.664 -0.1069  0.0252  0.4185
  518TMC3    C2 7744   2.815   3.818  17.658 -0.3978  0.1955 -0.2085
  518TMC3    C3 7745   2.870   3.721  17.578 -0.0759  0.1659 -0.0291
  518TMC3    C4 7746   3.003   3.959  17.615  0.8483 -0.7219 -0.0964
  518TMC3    C5 7747   3.063   3.847  17.561  0.1150 -1.0339  0.0728
  518TMC3    C6 7748   3.000   3.728  17.536 -0.3914 -0.1147 -0.0815
  518TMC3     C 7749   2.800   4.044  17.717 -0.0616 -0.7723 -0.4480
  518TMC3     O 7750   2.680   4.029  17.725  0.2768  0.0226 -0.1762
  518TMC3     H 7751   2.712   3.810  17.690 -0.6405  2.0294 -0.4991
  518TMC3    H1 7752   3.064   4.047  17.621  0.2594 -0.3778  0.9244
  518TMC3    H2 7753   3.042   3.645  17.479 -0.8013 -0.3251 -0.0756
  518TMC3    C7 7754   3.203   3.868  17.515  0.8262  0.3657  0.8944
  518TMC3    C8 7755   2.791   3.604  17.534  0.2980  0.8098  0.5373
  518TMC3    O1 7756   3.255   3.974  17.540  0.4366 -0.1777 -0.3258
  518TMC3    O2 7757   2.799   3.569  17.418 -0.2049  0.3756  0.4888
  519MPD2     C 7758   4.354   2.907  14.123  0.3544  0.1031 -0.3448
  519MPD2    C1 7759   4.237   2.835  14.130 -0.7651  0.0794 -0.3751
  519MPD2    C2 7760   4.237   2.702  14.158  0.3967 -0.4139 -0.5011
  519MPD2    C3 7761   4.358   2.634  14.183 -0.3338  0.2532 -0.3540
  519MPD2    C4 7762   4.475   2.709  14.180  0.2967  0.9561 -0.9292
  519MPD2    C5 7763   4.472   2.842  14.150 -0.2002 -0.4405  0.0920
  519MPD2     H 7764   4.141   2.652  14.159  0.3681 -0.3099  1.4689
  519MPD2    H1 7765   4.569   2.660  14.201 -0.4300  0.3827  0.9618
  519MPD2    H2 7766   4.353   3.015  14.117 -0.6178  0.0868 -0.3831
  519MPD2    H3 7767   4.563   2.900  14.145  1.0828 -2.5365 -0.8172
  519MPD2     N 7768   4.367   2.493  14.197  1.0730  0.3772  0.1862
  519MPD2    H5 7769   4.460   2.455  14.211  0.5254 -1.3656 -0.8413
  519MPD2    N1 7770   4.112   2.893  14.097 -0.2510 -0.0779 -0.4924
  519MPD2    H7 7771   4.034   2.829  14.110 -2.1068  1.4764 -4.1237
  520TMC3    C1 7772   4.318   2.275  14.127  0.0763  0.0002  0.1787
  520TMC3    C2 7773   4.267   2.243  14.004 -0.1711  0.2100 -1.1256
  520TMC3    C3 7774   4.354   2.169  13.927  0.7573  0.9525 -0.2881
  520TMC3    C4 7775   4.443   2.230  14.177 -0.2691  0.4531  0.6342
  520TMC3    C5 7776   4.519   2.162  14.087 -0.0422 -0.2701 -0.2022
  520TMC3    C6 7777   4.482   2.133  13.966 -0.5322 -0.0081 -0.2370
  520TMC3     C 7778   4.268   2.401  14.176 -0.0808  0.0956 -0.2740
  520TMC3     O 7779   4.143   2.404  14.159 -0.0576  0.3469  0.4215
  520TMC3     H 7780   4.175   2.283  13.964  0.1066  0.1381 -1.8365
  520TMC3    H1 7781   4.476   2.246  14.279  1.5403 -3.0898  0.6102
  520TMC3    H2 7782   4.531   2.061  13.902 -0.2458  0.0777 -0.1124
  520TMC3    C7 7783   4.656   2.159  14.123  0.0100  0.0480 -0.5375
  520TMC3    C8 7784   4.336   2.176  13.778 -0.4415  0.7612 -0.2996
  520TMC3    O1 7785   4.684   2.159  14.242 -0.1135 -0.3843 -0.8625
  520TMC3    O2 7786   4.435   2.174  13.708  0.7319 -0.0440 -0.8718
  521MPD2     C 7787   0.751   0.983  17.394  0.2454 -0.7755  0.0351
  521MPD2    C1 7788   0.744   0.872  17.314 -0.6883  0.2853  0.0327
  521MPD2    C2 7789   0.826   0.857  17.204 -0.2374 -0.7612 -0.1765
  521MPD2    C3 7790   0.922   0.951  17.176  0.1549 -0.0842 -0.0469
  521MPD2    C4 7791   0.936   1.059  17.259 -1.1505  0.1646 -0.4636
  521MPD2    C5 7792   0.848   1.073  17.366  0.4376 -0.1074 -0.0189
  521MPD2     H 7793   0.812   0.776  17.134 -1.4067  0.2666 -1.1287
  521MPD2    H1 7794   1.006   1.141  17.244 -1.2950  0.4049  0.1481
  521MPD2    H2 7795   0.681   1.004  17.474  0.8562  1.5060 -0.0359
  521MPD2    H3 7796   0.853   1.169  17.415  2.3850  0.7093 -1.8535
  521MPD2     N 7797   1.002   0.941  17.060 -0.1854  0.8575 -0.6588
  521MPD2    H5 7798   0.987   0.850  17.019  0.4370  1.2860 -1.8215
  521MPD2    N1 7799   0.631   0.787  17.333 -0.2019  0.0388 -0.1191
  521MPD2    H7 7800   0.564   0.820  17.402  0.9586  1.8676  0.1205
  522TMC3    C1 7801   1.200   0.944  16.935 -0.2850 -0.0905  0.1071
  522TMC3    C2 7802   1.314   0.887  16.984  0.3812  0.2949 -0.3994
  522TMC3    C3 7803   1.362   0.781  16.911 -0.5949 -0.2934 -0.5404
  522TMC3    C4 7804   1.127   0.896  16.835 -0.0376 -0.0098  0.1794
  522TMC3    C5 7805   1.174   0.788  16.767 -0.0891  0.3632  0.1719
  522TMC3    C6 7806   1.292   0.728  16.798 -0.6235 -0.2821  0.1769
  522TMC3     C 7807   1.118   1.016  17.035  0.0338  0.3388  0.7004
  522TMC3     O 7808   1.150   1.131  17.065 -0.0786  1.0528  0.4018
  522TMC3     H 7809   1.364   0.914  17.077  1.7412  1.6283 -1.5172
  522TMC3    H1 7810   1.050   0.962  16.797  0.4735  0.6858  0.3643
  522TMC3    H2 7811   1.345   0.666  16.728 -2.1148 -0.3127 -0.9280
  522TMC3    C7 7812   1.137   0.782  16.625  0.5914 -0.0113 -0.0064
  522TMC3    C8 7813   1.456   0.684  16.975  0.2001 -0.2309 -0.5063
  522TMC3    O1 7814   1.223   0.821  16.547  0.3792  0.0609  0.2464
  522TMC3    O2 7815   1.513   0.715  17.078 -0.2605  0.7699 -0.0860
  523MPD2     C 7816   2.422   0.391   9.940  0.7306 -0.3627  0.1506
  523MPD2    C1 7817   2.421   0.284   9.859 -0.0055 -0.2478 -0.2402
  523MPD2    C2 7818   2.403   0.304   9.726  0.2960  0.1192  0.0366
  523MPD2    C3 7819   2.361   0.423   9.684  0.2965 -0.7120  0.3909
  523MPD2    C4 7820   2.327   0.524   9.778  0.0356 -0.0743 -0.7016
  523MPD2    C5 7821   2.370   0.512   9.908  0.1377 -0.1539 -0.1524
  523MPD2     H 7822   2.420   0.226   9.653 -2.0303  0.9960 -1.4317
  523MPD2    H1 7823   2.272   0.616   9.760  0.0303 -0.1532 -1.0836
  523MPD2    H2 7824   2.468   0.380  10.038 -0.9367 -1.4950  0.8084
  523MPD2    H3 7825   2.358   0.588   9.984  0.0171  1.1625 -1.4776
  523MPD2     N 7826   2.338   0.439   9.547  0.6435 -1.0152  0.0594
  523MPD2    H5 7827   2.361   0.362   9.485 -1.0679 -1.6089  0.1598
  523MPD2    N1 7828   2.458   0.157   9.923 -0.2983  0.6216  0.3269
  523MPD2    H7 7829   2.480   0.159  10.022  0.9528 -1.2883  0.1004
  524TMC3    C1 7830   2.258   0.524   9.350  0.2672  0.2264  0.5024
  524TMC3    C2 7831   2.320   0.418   9.290 -0.3605  0.2916  0.6159
  524TMC3    C3 7832   2.336   0.433   9.159 -0.2636  0.0078 -0.0004
  524TMC3    C4 7833   2.215   0.639   9.291 -0.1932 -0.2078  0.3417
  524TMC3    C5 7834   2.235   0.642   9.158  0.0363  0.3117 -0.1058
  524TMC3    C6 7835   2.292   0.540   9.088  0.2166 -0.4960  0.4404
  524TMC3     C 7836   2.275   0.547   9.493 -0.3585  0.5807  0.4050
  524TMC3     O 7837   2.246   0.662   9.538 -0.1157 -0.3485  0.1331
  524TMC3     H 7838   2.347   0.326   9.341 -0.0091  0.6648  1.1069
  524TMC3    H1 7839   2.163   0.720   9.341  0.1176  1.3667 -1.9328
  524TMC3    H2 7840   2.309   0.541   8.981  0.4300 -2.7878  0.4533
  524TMC3    C7 7841   2.151   0.730   9.079  0.5029 -0.0701 -0.3397
  524TMC3    C8 7842   2.454   0.364   9.107  0.1173 -0.6069 -0.6747
  524TMC3    O1 7843   2.192   0.754   8.966 -0.3371 -0.0724 -0.8793
  524TMC3    O2 7844   2.529   0.302   9.180 -0.2182  0.1030 -0.0698
  525MPD2     C 7845   1.028   2.105  14.403 -0.5573 -1.1389 -0.7763
  525MPD2    C1 7846   1.149   2.112  14.458  0.1113  0.1857  0.0981
  525MPD2    C2 7847   1.226   2.225  14.440  0.9410  0.3315  0.4547
  525MPD2    C3 7848   1.184   2.336  14.379 -0.0629  0.1985 -0.5256
  525MPD2    C4 7849   1.068   2.327  14.315 -0.1208 -0.1137 -0.9982
  525MPD2    C5 7850   0.998   2.205  14.322  0.1572 -0.1276  0.0011
  525MPD2     H 7851   1.324   2.224  14.487 -0.4880 -0.1411  3.4002
  525MPD2    H1 7852   1.041   2.411  14.252 -0.3326 -0.5085 -1.4369
  525MPD2    H2 7853   0.960   2.021  14.416  0.0418 -1.7267 -1.4395
  525MPD2    H3 7854   0.900   2.192  14.278 -1.1197  0.0740  2.7882
  525MPD2     N 7855   1.250   2.463  14.382 -0.6004 -0.2241 -0.5023
  525MPD2    H5 7856   1.196   2.545  14.357 -0.2315  0.1828  0.0383
  525MPD2    N1 7857   1.188   2.015  14.551 -0.4353  0.4592  0.0515
  525MPD2    H7 7858   1.286   2.017  14.577  0.3571  0.9532 -2.9379
  526TMC3    C1 7859   1.183   1.841  14.706 -0.8765 -1.1943 -0.1289
  526TMC3    C2 7860   1.116   1.783  14.810 -0.9475  0.2270  0.7845
  526TMC3    C3 7861   1.189   1.705  14.893  0.2247  0.7100  1.0357
  526TMC3    C4 7862   1.317   1.832  14.670  0.2693 -0.2883 -0.0854
  526TMC3    C5 7863   1.387   1.736  14.751 -0.4870  0.0963  0.2936
  526TMC3    C6 7864   1.321   1.674  14.853  0.1308 -0.3240 -1.0653
  526TMC3     C 7865   1.107   1.920  14.609  0.6624 -0.8838 -0.0150
  526TMC3     O 7866   0.985   1.906  14.612 -0.3091 -0.3536  0.1337
  526TMC3     H 7867   1.011   1.805  14.827 -0.9807  1.3827 -0.9017
  526TMC3    H1 7868   1.356   1.868  14.575  1.9956 -1.0992  0.3242
  526TMC3    H2 7869   1.384   1.620  14.923 -0.4476  2.2476  1.4505
  526TMC3    C7 7870   1.516   1.698  14.706 -0.2825  0.1927  0.7611
  526TMC3    C8 7871   1.164   1.701  15.032 -0.5810  1.0857 -0.2309
  526TMC3    O1 7872   1.558   1.589  14.737  0.3427 -0.0752  0.1536
  526TMC3    O2 7873   1.258   1.695  15.111 -0.2232 -0.0856  0.7473
  527MPD2     C 7874   0.393   0.065   1.764  0.2455 -0.3194  1.2788
  527MPD2    C1 7875   0.345   0.115   1.646 -0.5400  0.0097 -0.2507
  527MPD2    C2 7876   0.364   0.052   1.531 -0.2356 -0.0536 -1.0242
  527MPD2    C3 7877   0.435   4.665   1.527  0.1032  0.0776  0.6813
  527MPD2    C4 7878   0.479   4.614   1.645 -0.0462  0.3760  0.3118
  527MPD2    C5 7879   0.454   4.676   1.761  0.4648 -0.1935  0.4390
  527MPD2     H 7880   0.323   0.103   1.444  1.4243  1.2594 -1.0192
  527MPD2    H1 7881   0.545   4.529   1.658  0.0692  0.6131  1.3401
  527MPD2    H2 7882   0.365   0.094   1.865 -0.5118  3.2352  0.0245
  527MPD2    H3 7883   0.491   4.630   1.852  0.6677 -2.0826 -0.6079
  527MPD2     N 7884   0.441   4.597   1.403  0.3457 -0.2313  0.1023
  527MPD2    H5 7885   0.392   4.648   1.329  0.6991 -2.3722 -1.5886
  527MPD2    N1 7886   0.263   0.234   1.642  0.0987  0.4627 -0.5143
  527MPD2    H7 7887   0.214   0.264   1.558 -5.0932 -2.3701  1.4758
  528TMC3    C1 7888   0.148   0.428   1.708 -0.3588 -0.0384 -0.5816
  528TMC3    C2 7889   0.061   0.403   1.605 -0.0377  0.2640 -1.0703
  528TMC3    C3 7890   4.698   0.496   1.591  0.0488  0.0098  0.0228
  528TMC3    C4 7891   0.149   0.541   1.790  0.1765  0.2822 -0.6540
  528TMC3    C5 7892   0.054   0.637   1.752 -0.4582 -0.2418 -0.5009
  528TMC3    C6 7893   4.697   0.617   1.653 -0.2295  0.2989  0.1291
  528TMC3     C 7894   0.240   0.320   1.747  0.0664 -0.2970 -0.5729
  528TMC3     O 7895   0.280   0.311   1.862 -0.1460 -0.5798  0.5554
  528TMC3     H 7896   0.066   0.316   1.541 -0.4342  0.4102 -1.3034
  528TMC3    H1 7897   0.219   0.548   1.872  1.3735 -1.1239 -1.5530
  528TMC3    H2 7898   4.616   0.679   1.617  1.0305  0.4452 -2.4261
  528TMC3    C7 7899   0.090   0.780   1.775 -0.4092  0.5055 -0.3965
  528TMC3    C8 7900   4.579   0.441   1.539  0.0400 -0.2524 -0.3330
  528TMC3    O1 7901   0.201   0.796   1.824 -0.8975  0.4639 -0.0555
  528TMC3    O2 7902   4.594   0.358   1.448  0.6861  0.3210  0.2904
  529MPD2     C 7903   1.024   2.852   0.893  0.2971  0.2486 -0.0325
  529MPD2    C1 7904   1.115   2.818   0.794 -0.2230  0.2104 -0.4914
  529MPD2    C2 7905   1.143   2.913   0.700 -0.0973 -0.1433  0.8640
  529MPD2    C3 7906   1.106   3.049   0.712 -0.3220  0.1275  0.7523
  529MPD2    C4 7907   1.022   3.083   0.819 -0.2667  0.4306 -0.3908
  529MPD2    C5 7908   0.980   2.985   0.903  0.3612  0.4511  0.4574
  529MPD2     H 7909   1.203   2.881   0.615  0.0928 -1.5162  1.5116
  529MPD2    H1 7910   0.989   3.185   0.831  1.0059  0.6099  1.6142
  529MPD2    H2 7911   1.000   2.781   0.971  0.0500  0.3301 -0.0347
  529MPD2    H3 7912   0.914   3.009   0.985 -0.6394  0.0757 -0.2368
  529MPD2     N 7913   1.147   3.148   0.619 -0.3803 -0.3600 -0.3706
  529MPD2    H5 7914   1.102   3.237   0.639  1.1724  0.3480 -0.0242
  529MPD2    N1 7915   1.186   2.696   0.793 -0.1085 -0.8610 -0.0271
  529MPD2    H7 7916   1.263   2.689   0.727 -0.0412 -2.4606  0.2227
  530TMC3    C1 7917   1.291   2.518   0.906  0.1074 -0.0767 -0.9160
  530TMC3    C2 7918   1.404   2.599   0.932 -0.4160 -0.0184 -0.2465
  530TMC3    C3 7919   1.504   2.548   1.004 -0.2895  0.3743 -0.3033
  530TMC3    C4 7920   1.284   2.394   0.967  0.1728 -0.0796  0.1634
  530TMC3    C5 7921   1.395   2.345   1.030  0.1495 -0.0578 -0.4262
  530TMC3    C6 7922   1.507   2.423   1.053 -1.2050 -0.6575 -0.2308
  530TMC3     C 7923   1.163   2.587   0.878 -0.0063  0.5411  0.0545
  530TMC3     O 7924   1.060   2.555   0.939 -0.0034  0.3042 -0.4068
  530TMC3     H 7925   1.410   2.704   0.907 -0.7188 -0.0658 -0.5078
  530TMC3    H1 7926   1.204   2.332   0.928  1.3724 -0.8103 -1.1349
  530TMC3    H2 7927   1.582   2.397   1.127  0.0543  0.8966 -0.9647
  530TMC3    C7 7928   1.403   2.212   1.080  0.2089 -0.3953 -0.0078
  530TMC3    C8 7929   1.613   2.645   1.028 -0.1553  0.1989  0.0784
  530TMC3    O1 7930   1.518   2.179   1.117 -0.0578  0.1164 -0.1175
  530TMC3    O2 7931   1.576   2.761   1.054 -0.0821 -0.1058 -0.1498
  531MPD2     C 7932   0.542   0.832  13.161  0.0137  0.0882 -0.3064
  531MPD2    C1 7933   0.431   0.862  13.237  0.2464 -0.1640 -1.1632
  531MPD2    C2 7934   0.316   0.784  13.215 -0.2291  0.4149  0.1846
  531MPD2    C3 7935   0.297   0.687  13.116  0.2712 -0.2088 -0.1607
  531MPD2    C4 7936   0.409   0.677  13.031  0.8286 -1.3735  0.3082
  531MPD2    C5 7937   0.523   0.748  13.055  0.0008 -0.1679  0.2214
  531MPD2     H 7938   0.245   0.778  13.297  0.3150  0.5571  0.6689
  531MPD2    H1 7939   0.399   0.626  12.936 -2.5707 -0.4944  0.2032
  531MPD2    H2 7940   0.639   0.880  13.171  0.0828  0.4011 -2.4890
  531MPD2    H3 7941   0.609   0.729  12.992 -0.5481 -0.2665 -0.4900
  531MPD2     N 7942   0.191   0.599  13.117 -0.0685  0.1034 -1.3477
  531MPD2    H5 7943   0.197   0.528  13.045  2.3777 -0.0859 -0.9515
  531MPD2    N1 7944   0.434   0.965  13.339 -1.1410  0.5028  0.6072
  531MPD2    H7 7945   0.518   1.019  13.354 -0.2949 -0.1340 -1.7974
  532TMC3    C1 7946   0.342   1.117  13.499 -0.2820  0.2988 -0.2756
  532TMC3    C2 7947   0.221   1.177  13.532 -0.7464 -0.0618 -0.3235
  532TMC3    C3 7948   0.178   1.185  13.661  0.7487 -0.1809 -0.9154
  532TMC3    C4 7949   0.424   1.074  13.602 -0.5220  0.4832 -0.1956
  532TMC3    C5 7950   0.375   1.077  13.728  0.5093  0.3174 -0.3648
  532TMC3    C6 7951   0.258   1.130  13.761 -0.1963 -0.6780  0.4338
  532TMC3     C 7952   0.320   1.009  13.404 -0.1163 -0.4320 -0.1091
  532TMC3     O 7953   0.205   0.986  13.377  0.2026  0.0917 -0.0040
  532TMC3     H 7954   0.157   1.209  13.451 -1.2538  0.9382  0.4654
  532TMC3    H1 7955   0.516   1.020  13.580 -1.1768  0.2257 -2.3530
  532TMC3    H2 7956   0.226   1.140  13.865 -1.4896  3.0963 -0.3183
  532TMC3    C7 7957   0.469   1.056  13.839 -0.5780 -0.0657 -0.5132
  532TMC3    C8 7958   0.033   1.159  13.679  0.7570  0.3612  0.3676
  532TMC3    O1 7959   0.460   1.110  13.948  0.0800  0.7335 -0.4681
  532TMC3    O2 7960   4.718   1.151  13.789  0.6128  0.1726 -0.1073
  533TMC3    C1 7961   1.408   2.623  14.424 -0.6797 -0.3785 -0.3312
  533TMC3    C2 7962   1.530   2.679  14.398 -0.0589  0.0877 -0.4890
  533TMC3    C3 7963   1.559   2.802  14.442 -0.0673 -0.2569  0.1946
  533TMC3    C4 7964   1.314   2.687  14.505 -0.6723 -0.2274 -0.4432
  533TMC3    C5 7965   1.364   2.803  14.571  0.2770  0.6070  0.0135
  533TMC3    C6 7966   1.483   2.863  14.535 -0.9485 -0.2547  0.1023
  533TMC3     C 7967   1.383   2.482  14.409 -0.4368 -0.7217  0.6043
  533TMC3     O 7968   1.465   2.392  14.406  0.1007  0.4214  0.2890
  533TMC3     H 7969   1.596   2.629  14.329  0.3225  2.6685 -1.9806
  533TMC3    H1 7970   1.220   2.641  14.534 -1.3588  0.1761 -2.0144
  533TMC3    H2 7971   1.524   2.933  14.608 -0.8721 -0.3453  0.1465
  533TMC3    C7 7972   1.363   2.762  14.709 -0.2610  0.3576  0.1913
  533TMC3    C8 7973   1.701   2.840  14.446 -0.0557 -0.0552 -0.0014
  533TMC3    O1 7974   1.368   2.640  14.733  0.3388  0.0397  0.1618
  533TMC3    O2 7975   1.762   2.815  14.548  0.5885 -0.4712  0.0323
  534MPD2     C 7976   4.326   3.259   1.117 -1.0332 -0.0739  0.3014
  534MPD2    C1 7977   4.331   3.389   1.088  0.7357  0.1284  0.3574
  534MPD2    C2 7978   4.215   3.462   1.070  0.0572 -0.4044 -0.4633
  534MPD2    C3 7979   4.093   3.393   1.076  0.5366  0.1345 -0.4053
  534MPD2    C4 7980   4.090   3.257   1.122 -0.2082  0.3837  0.2567
  534MPD2    C5 7981   4.206   3.196   1.128  0.5098 -0.7174 -0.8415
  534MPD2     H 7982   4.221   3.569   1.054 -0.3819 -0.7111 -2.6486
  534MPD2    H1 7983   4.002   3.197   1.141  1.0450 -1.5959 -0.2900
  534MPD2    H2 7984   4.417   3.200   1.122  0.5312  2.2754 -0.9814
  534MPD2    H3 7985   4.214   3.090   1.152 -1.4046 -0.5472  0.4494
  534MPD2     N 7986   3.971   3.461   1.056 -0.6194 -0.0995 -0.8473
  534MPD2    H5 7987   3.881   3.423   1.080 -0.7433  0.2522 -0.7575
  534MPD2    N1 7988   4.454   3.453   1.081  0.4593 -0.0242  0.0654
  534MPD2    H7 7989   4.450   3.555   1.079 -0.9454 -0.1350 -3.3148
  535TMC3    C1 7990   3.804   3.601   0.969 -0.3238 -0.2968  0.3431
  535TMC3    C2 7991   3.717   3.584   1.078 -0.5887 -0.2462 -0.1811
  535TMC3    C3 7992   3.582   3.595   1.045 -0.0206  0.5349  0.6156
  535TMC3    C4 7993   3.761   3.613   0.841 -0.5769  0.5434 -1.6826
  535TMC3    C5 7994   3.631   3.622   0.821 -0.0815 -0.1902 -0.5163
  535TMC3    C6 7995   3.541   3.621   0.921 -0.1537 -0.0458 -0.4475
  535TMC3     C 7996   3.950   3.576   0.984 -0.7828  0.5685  0.3959
  535TMC3     O 7997   4.025   3.626   0.901  0.3649 -0.3761  0.6671
  535TMC3     H 7998   3.750   3.557   1.178  0.2198 -0.4281 -0.4916
  535TMC3    H1 7999   3.827   3.622   0.756 -1.3085 -0.5955 -2.3681
  535TMC3    H2 8000   3.436   3.609   0.896 -0.7284  0.7123  1.5892
  535TMC3    C7 8001   3.578   3.642   0.691  0.8146  0.0873 -0.1260
  535TMC3    C8 8002   3.472   3.569   1.148 -0.3501 -0.3400  0.5327
  535TMC3    O1 8003   3.615   3.567   0.600 -0.1922 -0.7746  0.4272
  535TMC3    O2 8004   3.366   3.538   1.093 -0.1740 -0.0013 -0.2147
  536MPD2     C 8005   2.703   1.748  15.938  0.2885 -0.2513  0.4908
  536MPD2    C1 8006   2.574   1.714  15.960  0.7601 -0.3626  0.8807
  536MPD2    C2 8007   2.490   1.740  15.860 -0.4766  0.1052  0.6491
  536MPD2    C3 8008   2.519   1.791  15.740 -0.0152  0.6432 -0.7050
  536MPD2    C4 8009   2.650   1.813  15.710 -0.2867  0.5586  1.1793
  536MPD2    C5 8010   2.738   1.794  15.808  0.7167 -0.0824  0.5282
  536MPD2     H 8011   2.385   1.715  15.871 -0.8176  0.9007 -0.8306
  536MPD2    H1 8012   2.694   1.843  15.616 -0.3869 -2.3793  0.2246
  536MPD2    H2 8013   2.783   1.741  16.011  0.4490 -1.5432  0.1911
  536MPD2    H3 8014   2.844   1.810  15.791  0.3710  0.0300 -1.4815
  536MPD2     N 8015   2.425   1.826  15.636 -0.8593  0.4002 -0.0379
  536MPD2    H5 8016   2.467   1.888  15.568  0.5917 -2.2554 -1.5889
  536MPD2    N1 8017   2.540   1.663  16.084  0.2215 -0.5295 -0.0287
  536MPD2    H7 8018   2.617   1.665  16.151 -0.6871 -2.3205  1.0497
  537TMC3    C1 8019   2.434   1.549  16.255 -0.0560 -0.1201 -0.2988
  537TMC3    C2 8020   2.517   1.617  16.344  0.3474 -1.0379 -0.1804
  537TMC3    C3 8021   2.489   1.588  16.476 -0.0155 -0.4749  0.1369
  537TMC3    C4 8022   2.344   1.453  16.291 -0.1636 -0.1425 -0.2689
  537TMC3    C5 8023   2.331   1.420  16.421 -0.1576  0.1770 -0.3699
  537TMC3    C6 8024   2.409   1.484  16.512  0.4583  0.0112  0.4565
  537TMC3     C 8025   2.421   1.601  16.119 -0.0983  0.1385 -0.5493
  537TMC3     O 8026   2.320   1.590  16.055  0.4868  0.1350  0.2388
  537TMC3     H 8027   2.588   1.694  16.317 -0.6472 -0.1942 -0.4038
  537TMC3    H1 8028   2.282   1.413  16.212 -1.0650 -0.5563  0.6491
  537TMC3    H2 8029   2.392   1.460  16.617 -1.6765 -1.6978 -0.2900
  537TMC3    C7 8030   2.246   1.310  16.455 -1.0474  0.1258 -0.3534
  537TMC3    C8 8031   2.553   1.681  16.564  0.2114  0.5531 -0.1953
  537TMC3    O1 8032   2.159   1.278  16.374 -0.2743 -0.1530  0.2803
  537TMC3    O2 8033   2.577   1.633  16.673 -0.0006 -0.7414  0.0996
  538TMC3    C1 8034   3.468   4.351  11.017  0.2955 -0.0558  0.4439
  538TMC3    C2 8035   3.574   4.283  10.964  0.3571  0.7563 -0.2503
  538TMC3    C3 8036   3.606   4.301  10.830 -1.2058 -0.8874 -0.3855
  538TMC3    C4 8037   3.378   4.402  10.936  0.2286 -0.8682  0.3214
  538TMC3    C5 8038   3.409   4.422  10.799 -0.4854 -0.4919 -0.0156
  538TMC3    C6 8039   3.527   4.375  10.747  0.3508  0.1462 -0.1008
  538TMC3     C 8040   3.421   4.319  11.152 -0.7666 -0.3957 -0.5920
  538TMC3     O 8041   3.455   4.211  11.198 -0.0787 -0.1534  0.2781
  538TMC3     H 8042   3.641   4.243  11.039  0.2287  0.2583 -0.4013
  538TMC3    H1 8043   3.285   4.438  10.978 -0.8486 -1.0949 -1.8789
  538TMC3    H2 8044   3.560   4.392  10.645  0.2150 -0.5740 -0.2671
  538TMC3    C7 8045   3.306   4.493  10.719  0.8385  0.3516  0.5763
  538TMC3    C8 8046   3.742   4.273  10.799  0.7983 -0.0258  0.5450
  538TMC3    O1 8047   3.228   4.566  10.784  0.2507 -1.0323  0.2824
  538TMC3    O2 8048   3.807   4.209  10.880  0.1184 -0.6307 -0.5792
  539MPD2     C 8049   2.975   3.946  11.671  0.9464 -0.6628 -0.3498
  539MPD2    C1 8050   3.027   3.974  11.550  0.0457  0.0925  0.3745
  539MPD2    C2 8051   3.023   4.108  11.511  1.1230 -0.1482  0.1726
  539MPD2    C3 8052   2.976   4.208  11.596 -0.2849  1.5063 -0.4346
  539MPD2    C4 8053   2.949   4.172  11.727  0.1951  0.2917 -0.5404
  539MPD2    C5 8054   2.941   4.039  11.762  0.1880 -0.4542 -0.2607
  539MPD2     H 8055   3.059   4.129  11.411  1.3669 -1.5328 -0.0418
  539MPD2    H1 8056   2.907   4.240  11.800  1.3937  0.3089  0.1494
  539MPD2    H2 8057   2.975   3.840  11.695  0.9498 -0.7865 -0.8830
  539MPD2    H3 8058   2.930   4.017  11.867 -1.6393  3.3830  0.3613
  539MPD2     N 8059   2.951   4.341  11.551  0.1151  0.0823 -0.4831
  539MPD2    H5 8060   2.923   4.406  11.624 -0.3812 -0.9403  0.2390
  539MPD2    N1 8061   3.072   3.880  11.455 -0.4712 -0.0300 -0.2842
  539MPD2    H7 8062   3.112   3.919  11.370 -1.1302  0.0331 -0.5599
  540TMC3    C1 8063   2.942   4.524  11.424 -0.3184 -0.1656  0.0064
  540TMC3    C2 8064   2.899   4.575  11.305  0.1077  0.1444  0.3254
  540TMC3    C3 8065   2.885   4.707  11.291 -0.1773 -0.0371 -0.4936
  540TMC3    C4 8066   2.981   4.605  11.526 -0.3484  1.2909 -0.8440
  540TMC3    C5 8067   2.973   0.004  11.505  0.3751  0.3615  0.1088
  540TMC3    C6 8068   2.925   0.059  11.387 -0.2201  0.0993 -0.0663
  540TMC3     C 8069   2.962   4.379  11.427  0.3658  0.3677  0.5609
  540TMC3     O 8070   2.933   4.308  11.330  0.2934 -0.1589 -0.2411
  540TMC3     H 8071   2.879   4.517  11.216  0.6688 -1.2124  1.0957
  540TMC3    H1 8072   3.001   4.559  11.623 -0.0695  2.6571 -0.2529
  540TMC3    H2 8073   2.899   0.163  11.371 -2.8940 -0.4863  0.5195
  540TMC3    C7 8074   2.940   0.077  11.625  0.6546 -0.6563 -0.5592
  540TMC3    C8 8075   2.791   0.024  11.187 -0.2610 -0.3350  0.1810
  540TMC3    O1 8076   2.904   0.009  11.720  0.3755  0.2300 -0.3204
  540TMC3    O2 8077   2.775   0.144  11.174 -0.4853  0.0529 -0.5996
  541MPD2     C 8078   1.736   1.124  13.494  0.1863 -0.2509  0.2360
  541MPD2    C1 8079   1.708   1.084  13.364  0.7905 -0.0328  0.4054
  541MPD2    C2 8080   1.697   1.166  13.257 -0.1807  0.1501  0.2778
  541MPD2    C3 8081   1.714   1.303  13.275 -0.4649  0.0242 -0.6680
  541MPD2    C4 8082   1.740   1.349  13.401  0.2755 -0.1748 -0.7117
  541MPD2    C5 8083   1.742   1.263  13.506  0.4219  0.3427  0.1846
  541MPD2     H 8084   1.672   1.134  13.156 -0.2581  0.5462  0.1730
  541MPD2    H1 8085   1.756   1.453  13.424 -0.1041 -0.3524  0.3486
  541MPD2    H2 8086   1.744   1.062  13.582 -0.3782 -0.8266 -0.1177
  541MPD2    H3 8087   1.780   1.304  13.598  0.1946 -1.0102  0.8883
  541MPD2     N 8088   1.705   1.399  13.172 -0.5731 -0.2770 -0.8415
  541MPD2    H5 8089   1.711   1.494  13.209 -2.4766 -0.5479  0.1717
  541MPD2    N1 8090   1.694   0.942  13.351 -0.5725 -0.3428  0.8774
  541MPD2    H7 8091   1.719   0.878  13.427  0.1173  1.1739  1.9296
  542TMC3    C1 8092   1.675   1.493  12.949 -0.1275  0.3050 -0.4833
  542TMC3    C2 8093   1.607   1.480  12.829 -0.3595 -0.4472  0.2733
  542TMC3    C3 8094   1.570   1.593  12.764 -0.7876  0.5060 -0.5687
  542TMC3    C4 8095   1.717   1.612  12.998 -0.7768 -0.3555 -0.1421
  542TMC3    C5 8096   1.678   1.721  12.925 -0.1658  0.0383  0.3366
  542TMC3    C6 8097   1.605   1.720  12.805 -0.0226  0.7637  0.4350
  542TMC3     C 8098   1.684   1.373  13.034 -0.0980  0.0832 -0.1380
  542TMC3     O 8099   1.670   1.264  12.977  0.6496 -0.0085 -0.4590
  542TMC3     H 8100   1.573   1.383  12.794  4.0227 -1.1624 -2.0864
  542TMC3    H1 8101   1.777   1.613  13.088  0.6991  0.4665 -1.1497
  542TMC3    H2 8102   1.587   1.807  12.743  1.6368 -0.5803 -1.9593
  542TMC3    C7 8103   1.720   1.860  12.969 -0.2418 -0.8499  0.1844
  542TMC3    C8 8104   1.513   1.571  12.628  0.4989  0.7713  0.5866
  542TMC3    O1 8105   1.811   1.862  13.056  0.0940 -0.0886  0.6402
  542TMC3    O2 8106   1.438   1.652  12.578  0.1630 -0.5633 -0.0570
  543TMC3    C1 8107   1.344   2.499  17.129  0.0641 -0.1474  0.3522
  543TMC3    C2 8108   1.394   2.386  17.176  0.2629  0.1582 -0.5432
  543TMC3    C3 8109   1.370   2.345  17.308 -0.3392  0.7195  0.6971
  543TMC3    C4 8110   1.278   2.585  17.210  0.1723  0.6554  1.1494
  543TMC3    C5 8111   1.249   2.546  17.337 -0.1456  0.5825 -0.0398
  543TMC3    C6 8112   1.300   2.431  17.389 -0.8438 -0.4248 -0.4414
  543TMC3     C 8113   1.338   2.492  16.983 -0.2680 -0.6200 -0.7080
  543TMC3     O 8114   1.440   2.433  16.938  0.0274 -0.3049 -0.0009
  543TMC3     H 8115   1.445   2.312  17.116  0.9165  1.7799 -1.9602
  543TMC3    H1 8116   1.228   2.671  17.166  2.4485  0.5578 -1.6444
  543TMC3    H2 8117   1.263   2.404  17.487 -1.4532 -0.9782 -0.8243
  543TMC3    C7 8118   1.173   2.634  17.425  0.1135 -0.0271 -0.8966
  543TMC3    C8 8119   1.432   2.224  17.364  0.8409 -0.3123 -0.3360
  543TMC3    O1 8120   1.141   2.588  17.535 -0.1074  0.1691 -0.1745
  543TMC3    O2 8121   1.514   2.169  17.296 -0.2668 -0.3230 -0.2652
  544MPD2     C 8122   1.487   1.812  17.639 -0.0238 -0.9852  0.3203
  544MPD2    C1 8123   1.487   1.824  17.507 -0.3853  0.1460  0.3754
  544MPD2    C2 8124   1.450   1.948  17.445  0.3062  0.2109 -0.0605
  544MPD2    C3 8125   1.403   2.049  17.525  0.5499 -0.1413  0.4336
  544MPD2    C4 8126   1.391   2.028  17.660  0.2891  0.5018 -0.5068
  544MPD2    C5 8127   1.440   1.912  17.719  0.3937 -0.7340 -0.0453
  544MPD2     H 8128   1.446   1.953  17.337  0.2986 -3.2179 -0.2336
  544MPD2    H1 8129   1.337   2.100  17.722 -0.6496 -0.4864 -0.1749
  544MPD2    H2 8130   1.525   1.720  17.682  0.1975 -0.5496  1.0547
  544MPD2    H3 8131   1.434   1.899   0.077 -1.4667  0.2535 -0.0353
  544MPD2     N 8132   1.376   2.177  17.479 -0.5251 -0.5490 -0.5724
  544MPD2    H5 8133   1.317   2.238  17.534 -0.4907  1.2001 -2.4813
  544MPD2    N1 8134   1.533   1.716  17.427  0.2572  0.8183  0.0755
  544MPD2    H7 8135   1.575   1.635  17.472 -1.3307  0.3642  0.7584
  545TMC3    C1 8136   1.596   1.584  17.255 -0.4660  0.2356  0.2093
  545TMC3    C2 8137   1.539   1.509  17.162  0.3843  0.5116  0.6992
  545TMC3    C3 8138   1.567   1.376  17.161  0.2293  0.0051 -0.2539
  545TMC3    C4 8139   1.683   1.531  17.348 -0.3079 -0.1461  0.2401
  545TMC3    C5 8140   1.688   1.395  17.353  0.4015 -0.1225  0.4192
  545TMC3    C6 8141   1.641   1.309  17.255  0.2457 -0.3528  0.3932
  545TMC3     C 8142   1.521   1.704  17.291 -0.2729 -0.1456 -0.2191
  545TMC3     O 8143   1.457   1.765  17.205 -0.1876 -0.6128 -0.4391
  545TMC3     H 8144   1.486   1.557  17.080 -0.0804 -1.8213 -0.3622
  545TMC3    H1 8145   1.743   1.584  17.421 -0.2525  1.2341 -0.8048
  545TMC3    H2 8146   1.629   1.203  17.278 -0.8400 -0.6773 -1.6683
  545TMC3    C7 8147   1.753   1.345  17.477  0.5492  0.4502 -0.0962
  545TMC3    C8 8148   1.528   1.307  17.040 -0.4144 -1.2189 -0.0087
  545TMC3    O1 8149   1.751   1.416  17.579  0.1287 -0.3183  0.2372
  545TMC3    O2 8150   1.452   1.373  16.967  0.6838 -0.2533  0.5870
  546MPD2     C 8151   2.210   2.368  17.005 -0.0486 -0.6434  0.2204
  546MPD2    C1 8152   2.338   2.316  16.998  0.6739 -0.8370 -1.0608
  546MPD2    C2 8153   2.444   2.396  17.044  0.0905  0.8148  0.2807
  546MPD2    C3 8154   2.423   2.521  17.095 -0.0426 -0.3640 -0.6923
  546MPD2    C4 8155   2.292   2.563  17.124  0.0434 -0.5798 -0.0103
  546MPD2    C5 8156   2.191   2.482  17.082 -0.7203 -0.4024 -0.1219
  546MPD2     H 8157   2.544   2.355  17.043  0.6575  2.2493 -1.1764
  546MPD2    H1 8158   2.264   2.655  17.172  2.0794 -1.1072  2.1760
  546MPD2    H2 8159   2.129   2.312  16.960 -0.3145  1.4333 -1.8491
  546MPD2    H3 8160   2.088   2.511  17.096 -0.7971 -0.5779 -0.3277
  546MPD2     N 8161   2.526   2.605  17.145  0.4442  0.1711 -0.2502
  546MPD2    H5 8162   2.503   2.685  17.203  1.4466 -0.9808  1.7084
  546MPD2    N1 8163   2.360   2.187  16.939 -0.2488 -0.0496  0.5188
  546MPD2    H7 8164   2.279   2.137  16.904  0.6369 -1.0056 -0.1653
  547TMC3    C1 8165   2.458   1.980  16.866  0.3381 -0.4626 -0.6509
  547TMC3    C2 8166   2.375   1.985  16.759  0.4781 -0.3587  0.7581
  547TMC3    C3 8167   2.296   1.877  16.729  0.2598  0.1897  0.4106
  547TMC3    C4 8168   2.475   1.867  16.937 -0.2617 -0.0562 -0.6728
  547TMC3    C5 8169   2.400   1.759  16.900  0.3194 -0.4608  0.1178
  547TMC3    C6 8170   2.308   1.762  16.800 -0.7471  0.6046 -0.2384
  547TMC3     C 8171   2.473   2.105  16.948  0.8031  0.2674 -0.3560
  547TMC3     O 8172   2.568   2.120  17.022 -0.4062  0.4142  0.2517
  547TMC3     H 8173   2.351   2.080  16.712  0.4508 -0.4457  0.5948
  547TMC3    H1 8174   2.555   1.852  17.008 -0.8572  0.1840  0.0499
  547TMC3    H2 8175   2.251   1.674  16.771  1.5671 -0.6364 -1.0184
  547TMC3    C7 8176   2.417   1.639  16.970 -0.1877 -0.0724  0.3077
  547TMC3    C8 8177   2.186   1.897  16.629  0.3139  0.8049  0.2755
  547TMC3    O1 8178   2.316   1.574  16.992 -0.0981  0.0161  0.2737
  547TMC3    O2 8179   2.192   1.998  16.558  0.0322 -0.0101  0.5211
  548MPD2     C 8180   2.709   2.606  12.961 -0.1468 -0.2360  0.7507
  548MPD2    C1 8181   2.640   2.628  12.835 -0.4691 -0.5476 -0.0543
  548MPD2    C2 8182   2.714   2.599  12.722  0.1271 -0.0976  1.2688
  548MPD2    C3 8183   2.847   2.583  12.728 -0.2733 -0.4073  0.3816
  548MPD2    C4 8184   2.914   2.580  12.849  0.3061  0.3326  0.4426
  548MPD2    C5 8185   2.846   2.593  12.962  0.2855  0.6487  0.1848
  548MPD2     H 8186   2.663   2.594  12.627  0.7536 -1.3467  1.0086
  548MPD2    H1 8187   3.016   2.548  12.868  0.1134 -0.3345  0.3545
  548MPD2    H2 8188   2.666   2.603  13.060  0.1452  3.2135  0.9940
  548MPD2    H3 8189   2.894   2.572  13.057  0.5211 -0.7866 -0.2556
  548MPD2     N 8190   2.913   2.542  12.608  0.1060 -0.3069 -0.1084
  548MPD2    H5 8191   2.860   2.502  12.532 -0.3609  0.1581 -0.0271
  548MPD2    N1 8192   2.498   2.644  12.837 -0.4151  0.0642 -0.0475
  548MPD2    H7 8193   2.451   2.641  12.927  2.4470  0.9587  1.4712
  549TMC3    C1 8194   2.290   2.732  12.789 -0.1004  0.1716  0.3976
  549TMC3    C2 8195   2.203   2.808  12.715  0.5014 -0.1402  0.2899
  549TMC3    C3 8196   2.083   2.851  12.778 -0.8939  0.2898  0.3643
  549TMC3    C4 8197   2.251   2.677  12.917  0.2840  0.1210 -0.1087
  549TMC3    C5 8198   2.130   2.723  12.962 -0.4760 -0.9305 -0.4808
  549TMC3    C6 8199   2.048   2.805  12.893  0.1866  0.2630 -0.2530
  549TMC3     C 8200   2.419   2.688  12.738 -0.0989 -0.3665 -0.2997
  549TMC3     O 8201   2.456   2.719  12.628 -0.7608  0.4520 -0.2389
  549TMC3     H 8202   2.228   2.838  12.614  3.8458  0.3346  1.2588
  549TMC3    H1 8203   2.316   2.622  12.983 -0.7599 -0.8337  0.1242
  549TMC3    H2 8204   1.957   2.845  12.937  1.6171  3.7278 -0.4444
  549TMC3    C7 8205   2.066   2.656  13.077  0.1396 -0.0910  0.0686
  549TMC3    C8 8206   1.984   2.935  12.709  0.4186  0.6697  0.4877
  549TMC3    O1 8207   1.952   2.693  13.113  0.9505  0.1753  0.3001
  549TMC3    O2 8208   1.871   2.945  12.748  0.0663 -0.3778 -0.4480
  550TMC3    C1 8209   0.936   0.842  12.875 -0.7136 -0.7349  0.4873
  550TMC3    C2 8210   0.920   0.899  13.000  0.1663 -0.7743  0.6505
  550TMC3    C3 8211   0.891   1.030  13.001  0.0933 -0.0056  0.2160
  550TMC3    C4 8212   0.933   0.911  12.763 -0.1017  0.3829  0.0488
  550TMC3    C5 8213   0.910   1.044  12.771  0.4355 -0.1389  0.3008
  550TMC3    C6 8214   0.890   1.113  12.893  0.6748 -0.0209  0.1895
  550TMC3     C 8215   0.867   0.714  12.869 -0.0721 -0.3998 -0.1047
  550TMC3     O 8216   0.900   0.623  12.943  0.3839  0.0981 -0.0500
  550TMC3     H 8217   0.907   0.841  13.090  2.2144 -2.5243 -0.1807
  550TMC3    H1 8218   0.955   0.865  12.668 -1.1219  0.6291 -0.3081
  550TMC3    H2 8219   0.901   1.221  12.896  0.5140 -0.0602  2.7581
  550TMC3    C7 8220   0.803   1.080  12.685 -0.6616  0.2261 -0.2055
  550TMC3    C8 8221   0.830   1.083  13.114  0.3719  0.4165 -0.0338
  550TMC3    O1 8222   0.746   0.985  12.636  0.1228 -0.2832 -0.5249
  550TMC3    O2 8223   0.842   1.031  13.223 -0.2102 -0.0837  0.1469
  551TMC3    C1 8224   3.429   3.586  13.213 -0.3715  0.0147  0.1871
  551TMC3    C2 8225   3.539   3.512  13.173 -0.9591  0.2630 -0.3234
  551TMC3    C3 8226   3.654   3.514  13.252  0.8865  0.0048 -0.7562
  551TMC3    C4 8227   3.422   3.644  13.335  0.5876 -0.0325  0.0806
  551TMC3    C5 8228   3.536   3.630  13.416 -0.3084  0.0792  0.3152
  551TMC3    C6 8229   3.650   3.559  13.377  0.3463  0.4446 -0.0610
  551TMC3     C 8230   3.317   3.595  13.120  0.1992  0.5103 -0.2227
  551TMC3     O 8231   3.317   3.515  13.022 -0.4231  0.0186 -0.2852
  551TMC3     H 8232   3.543   3.466  13.075  1.0765 -0.3697  0.0452
  551TMC3    H1 8233   3.336   3.699  13.371  0.2330 -0.9604  0.6334
  551TMC3    H2 8234   3.739   3.558  13.438 -0.7426 -1.9107  1.4936
  551TMC3    C7 8235   3.547   3.705  13.535  0.3045  0.2597 -0.0136
  551TMC3    C8 8236   3.769   3.501  13.170 -0.7180 -0.6633 -0.6428
  551TMC3    O1 8237   3.607   3.648  13.626  0.1643  0.1434  0.1450
  551TMC3    O2 8238   3.761   3.420  13.079 -0.2165 -0.3299 -0.1476
  552MPD2     C 8239   0.606   0.819  14.239  1.2854  0.2845  0.2110
  552MPD2    C1 8240   0.604   0.681  14.216  0.0215 -0.4290 -0.8318
  552MPD2    C2 8241   0.701   0.601  14.281  0.0686  0.0133  0.3168
  552MPD2    C3 8242   0.794   0.659  14.365 -0.3929  0.0117 -0.4558
  552MPD2    C4 8243   0.801   0.795  14.387 -0.0592  0.0361  0.1916
  552MPD2    C5 8244   0.706   0.868  14.320  0.0554  0.8265  0.3738
  552MPD2     H 8245   0.697   0.494  14.261 -0.6417 -0.0867  0.9645
  552MPD2    H1 8246   0.875   0.838  14.453  1.0780 -2.1015  0.3220
  552MPD2    H2 8247   0.534   0.886  14.195  0.9056  1.1240  2.0948
  552MPD2    H3 8248   0.706   0.976  14.325 -2.1919  0.8420 -0.0878
  552MPD2     N 8249   0.893   0.580  14.428  0.6323  0.1574 -0.9265
  552MPD2    H5 8250   0.966   0.634  14.473  0.0398  0.6688 -0.5723
  552MPD2    N1 8251   0.510   0.622  14.130  0.2969  0.0434  0.0020
  552MPD2    H7 8252   0.522   0.522  14.122  1.6839  0.1834  0.3001
  553TMC3    C1 8253   0.363   0.609  13.949  0.5571  0.5259 -0.2094
  553TMC3    C2 8254   0.341   0.663  13.822  1.0968  0.2057  0.1291
  553TMC3    C3 8255   0.335   0.587  13.705  0.5456  0.2717  0.7344
  553TMC3    C4 8256   0.363   0.471  13.966 -0.2522  0.8348 -0.4014
  553TMC3    C5 8257   0.348   0.395  13.848 -0.2597 -0.2502  0.1488
  553TMC3    C6 8258   0.331   0.451  13.726 -0.1886  0.0211 -0.0839
  553TMC3     C 8259   0.422   0.692  14.052 -1.0075  0.0037 -0.8772
  553TMC3     O 8260   0.378   0.804  14.061  0.1531 -0.7558  0.0128
  553TMC3     H 8261   0.351   0.771  13.814 -2.7809  0.4194 -1.5449
  553TMC3    H1 8262   0.368   0.427  14.065  0.2854  0.8032 -0.4395
  553TMC3    H2 8263   0.343   0.376  13.649 -1.3856  1.9287 -2.1329
  553TMC3    C7 8264   0.403   0.263  13.844  0.1472  1.2102  0.2743
  553TMC3    C8 8265   0.416   0.632  13.592 -1.0015  0.4780 -0.6741
  553TMC3    O1 8266   0.316   0.182  13.814  0.1316  0.0598  0.2268
  553TMC3    O2 8267   0.481   0.734  13.606 -0.2822  0.3655  0.0956
  554TMC3    C1 8268   2.029   0.168  11.314 -1.2744 -0.3437  0.3129
  554TMC3    C2 8269   1.903   0.162  11.250  0.7055  0.0090 -0.9823
  554TMC3    C3 8270   1.895   0.229  11.129 -0.2719 -0.6355  0.1209
  554TMC3    C4 8271   2.134   0.242  11.269  0.1088 -0.5838  0.0341
  554TMC3    C5 8272   2.120   0.304  11.146 -1.0633 -0.6707 -0.3950
  554TMC3    C6 8273   2.000   0.293  11.076  0.1060  0.1523  0.1317
  554TMC3     C 8274   2.032   0.113  11.449  0.1381 -0.8646  0.0004
  554TMC3     O 8275   1.931   0.106  11.516 -0.7898 -0.1552 -0.3094
  554TMC3     H 8276   1.823   0.108  11.299  2.3412 -1.4848  0.0451
  554TMC3    H1 8277   2.231   0.242  11.318 -1.0410  2.4578  2.2730
  554TMC3    H2 8278   1.997   0.360  10.990  2.3807  1.7731  1.3202
  554TMC3    C7 8279   2.235   0.345  11.063  0.0668  0.8005  0.0027
  554TMC3    C8 8280   1.825   0.155  11.022  0.2738  0.1307  0.1106
  554TMC3    O1 8281   2.222   0.317  10.942  0.1374  0.3590  0.2336
  554TMC3    O2 8282   1.817   0.223  10.919 -0.1339 -1.1268  0.1100
  555TMC3    C1 8283   1.890   4.147  15.342 -0.3924 -0.4992 -0.1234
  555TMC3    C2 8284   2.015   4.126  15.384  0.3954  0.1270  0.2794
  555TMC3    C3 8285   2.036   4.021  15.475  0.2209 -0.1746 -0.2989
  555TMC3    C4 8286   1.786   4.066  15.369 -1.1341 -0.7899  0.1588
  555TMC3    C5 8287   1.811   3.963  15.456  0.7789 -0.3015 -0.0543
  555TMC3    C6 8288   1.936   3.939  15.509  0.0906  0.1809  0.0710
  555TMC3     C 8289   1.881   4.242  15.241 -0.4822  0.5063  0.5083
  555TMC3     O 8290   1.986   4.272  15.187  0.1145 -0.3261  0.2415
  555TMC3     H 8291   2.094   4.198  15.365 -2.0804  3.3749  2.1423
  555TMC3    H1 8292   1.696   4.070  15.308  0.4131 -0.6240 -2.1304
  555TMC3    H2 8293   1.952   3.877  15.597  0.8284 -0.5703 -0.5917
  555TMC3    C7 8294   1.709   3.881  15.517  0.3065  0.7340 -0.7996
  555TMC3    C8 8295   2.162   4.023  15.551  0.0290 -0.6528 -0.2637
  555TMC3    O1 8296   1.755   3.787  15.574  0.6367  0.2549  0.3969
  555TMC3    O2 8297   2.224   4.126  15.545  0.0083  0.1259 -0.3961
  556MPD2     C 8298   4.183   0.720  10.117  0.1623 -0.0438 -0.3718
  556MPD2    C1 8299   4.173   0.650  10.236 -0.8980  0.2214  0.6529
  556MPD2    C2 8300   4.155   0.510  10.241 -1.6517  0.6147  0.0030
  556MPD2    C3 8301   4.149   0.434  10.122 -0.2537 -0.1257  0.6772
  556MPD2    C4 8302   4.174   0.503  10.004 -0.4532  0.2842  0.1700
  556MPD2    C5 8303   4.184   0.646  10.000 -0.4543  0.3015  0.6136
  556MPD2     H 8304   4.140   0.463  10.337  0.5191 -2.5097 -1.1892
  556MPD2    H1 8305   4.183   0.447   9.911 -0.3662 -1.6125  1.3247
  556MPD2    H2 8306   4.199   0.827  10.113 -1.1395  0.0505 -2.8919
  556MPD2    H3 8307   4.190   0.699   9.906  0.8656  1.0916  1.1446
  556MPD2     N 8308   4.136   0.289  10.125 -0.0877  0.2241  0.7757
  556MPD2    H5 8309   4.133   0.246  10.217 -3.6560 -0.5393  0.2964
  556MPD2    N1 8310   4.171   0.718  10.358 -0.2836  0.1607 -0.2115
  556MPD2    H7 8311   4.176   0.662  10.442 -0.3726 -0.6371 -0.7390
  557TMC3    C1 8312   4.091   0.058  10.056 -0.2518  0.3141  0.6556
  557TMC3    C2 8313   4.085   4.714   9.948  0.4245 -0.3215  0.0982
  557TMC3    C3 8314   4.080   4.579   9.961  0.4154 -0.0053 -0.4205
  557TMC3    C4 8315   4.098   0.016  10.178 -0.8678 -0.3580 -0.8048
  557TMC3    C5 8316   4.106   4.623  10.193  0.0507  0.1206 -0.5077
  557TMC3    C6 8317   4.101   4.529  10.087 -0.3986 -0.3951  0.0414
  557TMC3     C 8318   4.099   0.208  10.020 -0.3693 -0.3137 -0.6300
  557TMC3     O 8319   4.068   0.250   9.908  0.3227  0.1823 -0.2657
  557TMC3     H 8320   4.097   0.028   9.854  0.0272  1.0347  0.7970
  557TMC3    H1 8321   4.085   0.077  10.266  4.3993  1.0455 -0.9921
  557TMC3    H2 8322   4.104   4.424  10.115  0.1260 -0.1789  0.7914
  557TMC3    C7 8323   4.066   4.578  10.325 -0.2246 -0.1137  0.5352
  557TMC3    C8 8324   4.036   4.503   9.841  0.1130  0.0357 -0.0996
  557TMC3    O1 8325   4.007   4.652  10.396 -0.2925 -0.0401 -0.8230
  557TMC3    O2 8326   4.034   4.570   9.739  0.0234 -0.8755 -0.5981
  558TMC3    C1 8327   1.483   3.402  10.662  0.3950  0.4569  0.0951
  558TMC3    C2 8328   1.397   3.314  10.717  0.2224 -0.4245 -0.1269
  558TMC3    C3 8329   1.270   3.304  10.671  0.1769 -0.5781 -0.1044
  558TMC3    C4 8330   1.452   3.471  10.552  0.5459  0.7431  0.3657
  558TMC3    C5 8331   1.322   3.455  10.506 -0.5644  0.5329  0.2927
  558TMC3    C6 8332   1.225   3.384  10.566 -0.5995 -0.5671  0.3722
  558TMC3     C 8333   1.624   3.407  10.696 -0.0321 -0.2559  0.6364
  558TMC3     O 8334   1.704   3.447  10.615  0.5004 -0.4407  0.4500
  558TMC3     H 8335   1.442   3.241  10.782  0.7325  1.6435  1.8261
  558TMC3    H1 8336   1.525   3.545  10.519  1.6750 -0.6858 -0.3424
  558TMC3    H2 8337   1.125   3.372  10.527 -0.4473 -0.1341 -0.1542
  558TMC3    C7 8338   1.286   3.530  10.385  0.5478 -0.1918 -0.0777
  558TMC3    C8 8339   1.187   3.196  10.712 -1.3197  0.3262 -0.7346
  558TMC3    O1 8340   1.167   3.554  10.370 -0.5493  0.0704  0.3304
  558TMC3    O2 8341   1.113   3.146  10.630 -0.3040  0.0197  0.4163
  559MPD2     C 8342   1.652   3.805  10.681 -0.0647  0.3115 -0.1099
  559MPD2    C1 8343   1.591   3.740  10.792 -0.4807  0.2056 -0.0091
  559MPD2    C2 8344   1.672   3.697  10.893 -0.0203 -0.6123  0.0169
  559MPD2    C3 8345   1.810   3.705  10.883  0.8909  0.1387 -0.0719
  559MPD2    C4 8346   1.874   3.754  10.770  0.0321  0.4260  0.2049
  559MPD2    C5 8347   1.791   3.816  10.677  0.6090 -0.1828  0.0513
  559MPD2     H 8348   1.633   3.665  10.989 -1.4559 -0.5146 -0.5443
  559MPD2    H1 8349   1.980   3.749  10.749 -0.3957  1.0074 -2.1206
  559MPD2    H2 8350   1.602   3.855  10.598  0.9059 -0.9501 -1.4524
  559MPD2    H3 8351   1.829   3.873  10.594  2.3595 -0.8640  0.3797
  559MPD2     N 8352   1.876   3.632  10.985  0.3164 -0.4807 -0.2736
  559MPD2    H5 8353   1.814   3.579  11.045 -1.7029  0.9990 -1.0281
  559MPD2    N1 8354   1.450   3.740  10.797 -0.2288 -0.0491 -0.2685
  559MPD2    H7 8355   1.394   3.777  10.721 -1.1660  0.2255  0.5538
  560TMC3    C1 8356   2.058   3.582  11.117 -0.3871 -0.4189 -0.0949
  560TMC3    C2 8357   1.989   3.481  11.176  0.5962 -0.1246  0.0753
  560TMC3    C3 8358   2.050   3.427  11.290  0.3254  0.0070  0.6486
  560TMC3    C4 8359   2.169   3.642  11.179 -0.0933 -0.3435  0.4227
  560TMC3    C5 8360   2.223   3.583  11.287 -0.0814  0.2130  0.3140
  560TMC3    C6 8361   2.168   3.472  11.345 -0.3044 -0.7715  0.0521
  560TMC3     C 8362   2.015   3.638  11.002 -0.0262 -0.4345 -0.3247
  560TMC3     O 8363   2.101   3.693  10.933  0.7964 -0.3461 -0.0366
  560TMC3     H 8364   1.899   3.441  11.129 -1.3766  1.5997  2.4165
  560TMC3    H1 8365   2.216   3.731  11.137 -0.2510 -1.2473 -1.6726
  560TMC3    H2 8366   2.209   3.429  11.436 -0.6507  0.2052  0.6771
  560TMC3    C7 8367   2.341   3.648  11.350 -0.2287 -0.1287  0.5257
  560TMC3    C8 8368   2.004   3.293  11.327 -0.0445 -0.6685  0.1116
  560TMC3    O1 8369   2.353   3.626  11.470 -0.2614 -0.9990 -0.3509
  560TMC3    O2 8370   1.883   3.266  11.326 -0.5190 -0.1257 -0.4407
  561TMC3    C1 8371   4.521   2.636  11.199  0.2679 -0.5235 -0.3299
  561TMC3    C2 8372   4.466   2.627  11.327  0.9855 -0.2439 -0.4382
  561TMC3    C3 8373   4.389   2.720  11.380 -0.1473  0.6807 -0.8141
  561TMC3    C4 8374   4.490   2.748  11.118 -0.2711  0.3850  1.1149
  561TMC3    C5 8375   4.402   2.839  11.177  0.0306  0.0722 -0.4777
  561TMC3    C6 8376   4.346   2.828  11.303  0.4011  0.0930 -0.0176
  561TMC3     C 8377   4.626   2.542  11.154 -0.0206  0.3441 -0.9225
  561TMC3     O 8378   4.646   2.448  11.235 -0.0850  0.5426 -0.4474
  561TMC3     H 8379   4.486   2.544  11.393  0.6471  0.2670  0.3105
  561TMC3    H1 8380   4.524   2.749  11.015  1.6820  1.1138  1.7654
  561TMC3    H2 8381   4.251   2.875  11.326  0.2929  0.0946 -0.4578
  561TMC3    C7 8382   4.376   2.976  11.124 -0.3300  0.2415 -1.0057
  561TMC3    C8 8383   4.389   2.738  11.524 -0.3859  0.6815  0.3477
  561TMC3    O1 8384   4.267   3.028  11.155 -0.2268 -0.3374 -0.0103
  561TMC3    O2 8385   4.442   2.650  11.591  0.3028 -0.1577  0.2756
  562TMC3    C1 8386   1.280   4.476  16.520 -0.5260 -0.1392  0.1522
  562TMC3    C2 8387   1.234   4.600  16.484  0.0466 -0.5661  1.0257
  562TMC3    C3 8388   1.207   4.618  16.345  0.0013  0.0992 -0.2261
  562TMC3    C4 8389   1.289   4.376  16.428  0.1878 -0.5480 -0.3545
  562TMC3    C5 8390   1.274   4.399  16.294  0.5437 -0.0117 -0.8561
  562TMC3    C6 8391   1.233   4.516  16.247  0.4440  0.0917  0.8719
  562TMC3     C 8392   1.311   4.455  16.662 -0.4898  0.3283  0.3620
  562TMC3     O 8393   1.417   4.394  16.677  0.2209 -0.0898  0.0603
  562TMC3     H 8394   1.212   4.674  16.560 -1.2693  1.4389 -1.3108
  562TMC3    H1 8395   1.335   4.286  16.469  0.2878 -1.5954 -2.7605
  562TMC3    H2 8396   1.218   4.525  16.140  1.2924 -0.6013  0.7024
  562TMC3    C7 8397   1.313   4.299  16.201  0.7398  0.3385  0.4022
  562TMC3    C8 8398   1.166   0.012  16.314 -0.5670  0.0728 -0.5232
  562TMC3    O1 8399   1.339   4.337  16.090  0.2293 -0.2362 -0.1570
  562TMC3    O2 8400   1.165   0.096  16.407 -0.4859 -0.2033  0.4812
  563MPD2     C 8401   3.556   0.755  15.627 -0.5947  0.2160  0.7757
  563MPD2    C1 8402   3.605   0.832  15.724  0.4750  0.1327  0.1150
  563MPD2    C2 8403   3.713   0.785  15.801  0.5336 -0.3804 -0.2943
  563MPD2    C3 8404   3.768   0.658  15.775 -1.0732 -0.5742  0.8736
  563MPD2    C4 8405   3.713   0.585  15.672 -0.2790  0.1238  0.6138
  563MPD2    C5 8406   3.610   0.637  15.601  0.2301  0.2015  0.0466
  563MPD2     H 8407   3.752   0.838  15.887 -1.8153 -2.3576  1.9684
  563MPD2    H1 8408   3.745   0.484  15.649 -2.5762  0.1635 -2.6748
  563MPD2    H2 8409   3.480   0.789  15.558  0.0710 -0.7442 -0.4357
  563MPD2    H3 8410   3.559   0.566  15.536  1.5907 -0.4465 -0.3093
  563MPD2     N 8411   3.868   0.611  15.863 -0.1374  0.3652 -1.4615
  563MPD2    H5 8412   3.899   0.682  15.928 -0.3805 -0.7801 -0.1012
  563MPD2    N1 8413   3.544   0.956  15.747 -0.2865 -0.1425 -0.2632
  563MPD2    H7 8414   3.459   0.969  15.694 -0.6720 -0.8235  0.1910
  564TMC3    C1 8415   3.460   1.116  15.905  0.5251  0.5018 -0.1515
  564TMC3    C2 8416   3.338   1.060  15.872 -0.5670 -0.6671  0.1952
  564TMC3    C3 8417   3.234   1.069  15.961 -0.0207 -0.1166 -0.2103
  564TMC3    C4 8418   3.483   1.179  16.021 -1.1970 -0.5687 -0.1732
  564TMC3    C5 8419   3.375   1.203  16.102 -0.6578  0.0909  0.1063
  564TMC3    C6 8420   3.255   1.142  16.073 -0.2139  0.2712 -1.0659
  564TMC3     C 8421   3.578   1.044  15.848  0.5883 -0.3713 -0.0023
  564TMC3     O 8422   3.691   1.068  15.890 -0.2048 -0.1241 -0.3275
  564TMC3     H 8423   3.306   1.014  15.779 -0.0882 -0.3220 -0.1407
  564TMC3    H1 8424   3.582   1.221  16.035 -0.8764 -1.3622 -0.0480
  564TMC3    H2 8425   3.184   1.137  16.155  1.8429 -0.6749  0.6732
  564TMC3    C7 8426   3.394   1.235  16.241 -0.7493 -0.7920  0.4902
  564TMC3    C8 8427   3.153   0.946  15.978  0.2520  0.2079 -0.3048
  564TMC3    O1 8428   3.313   1.315  16.286 -0.1005  0.0760 -0.5196
  564TMC3    O2 8429   3.199   0.843  15.929  0.0757  0.1649 -0.2658
  565TMC3    C1 8430   3.583   2.575   9.416  0.3867  0.2486  0.5081
  565TMC3    C2 8431   3.581   2.495   9.525 -0.2906  0.4684 -0.1449
  565TMC3    C3 8432   3.461   2.449   9.570 -0.3082 -0.0116 -0.4382
  565TMC3    C4 8433   3.474   2.604   9.341  0.3667 -0.0058  0.4019
  565TMC3    C5 8434   3.362   2.558   9.396 -0.3519 -0.4433  0.3276
  565TMC3    C6 8435   3.346   2.487   9.513 -0.3816  0.2948  0.2056
  565TMC3     C 8436   3.687   2.668   9.392  0.2879  0.3105 -0.1294
  565TMC3     O 8437   3.670   2.764   9.318  0.0038  0.2827 -0.3535
  565TMC3     H 8438   3.672   2.491   9.584  0.7100  0.0922 -1.7188
  565TMC3    H1 8439   3.471   2.665   9.251 -0.8737  0.5850  0.8344
  565TMC3    H2 8440   3.254   2.432   9.528  0.0167 -1.1311 -2.7103
  565TMC3    C7 8441   3.244   2.575   9.309  0.0729 -0.1645 -0.0831
  565TMC3    C8 8442   3.461   2.339   9.670  0.4909  0.1062  0.5977
  565TMC3    O1 8443   3.258   2.623   9.198  0.4086 -0.0477  0.1891
  565TMC3    O2 8444   3.570   2.296   9.708  0.2245 -0.2370  0.2939
  566MPD2     C 8445   0.738   3.888  14.233  0.3098  0.8443  0.0536
  566MPD2    C1 8446   0.714   4.003  14.171  0.0247 -0.1077 -0.2460
  566MPD2    C2 8447   0.634   4.003  14.052 -0.3958  0.7285  0.7754
  566MPD2    C3 8448   0.588   3.884  13.997  0.2704  0.0801 -0.2386
  566MPD2    C4 8449   0.608   3.767  14.076 -0.2110 -0.4484  1.0331
  566MPD2    C5 8450   0.687   3.771  14.189  0.5281  0.1479  0.1549
  566MPD2     H 8451   0.619   4.092  13.992  2.6376 -0.0498 -1.1330
  566MPD2    H1 8452   0.582   3.675  14.024  0.6146 -0.0997  0.0154
  566MPD2    H2 8453   0.796   3.890  14.324  1.2189 -0.1549 -0.5025
  566MPD2    H3 8454   0.704   3.680  14.246 -2.5912 -0.1760  0.6065
  566MPD2     N 8455   0.525   3.875  13.871 -0.0547 -0.0524 -0.5353
  566MPD2    H5 8456   0.485   3.786  13.844  0.6588  0.2511 -2.6535
  566MPD2    N1 8457   0.779   4.118  14.211 -0.3340  0.7270  0.1573
  566MPD2    H7 8458   0.844   4.116  14.288  0.9271 -1.1459 -0.9649
  567TMC3    C1 8459   0.870   4.323  14.146 -0.2526  0.0594  0.6868
  567TMC3    C2 8460   0.910   4.336  14.014  0.4610 -0.5337  0.0637
  567TMC3    C3 8461   1.029   4.393  13.985 -0.6863 -0.5366 -0.8403
  567TMC3    C4 8462   0.951   4.337  14.250 -0.7542  0.4167  0.2171
  567TMC3    C5 8463   1.076   4.395  14.217 -0.1140 -0.3886 -0.9102
  567TMC3    C6 8464   1.112   4.431  14.088  0.1232 -0.0084 -0.4603
  567TMC3     C 8465   0.762   4.238  14.154  0.2971  0.1707 -0.3402
  567TMC3     O 8466   0.664   4.278  14.089 -0.4949 -0.1339 -0.5503
  567TMC3     H 8467   0.853   4.310  13.926  1.8927  0.1470 -1.0729
  567TMC3    H1 8468   0.919   4.313  14.351 -2.2668  1.7876  0.0742
  567TMC3    H2 8469   1.214   4.461  14.067 -0.4457  2.0938 -0.2357
  567TMC3    C7 8470   1.180   4.395  14.316 -0.3395  0.3889  0.2755
  567TMC3    C8 8471   1.043   4.437  13.849 -0.5051 -0.0785  0.3852
  567TMC3    O1 8472   1.274   4.469  14.294 -0.1266 -0.0296  0.4651
  567TMC3    O2 8473   0.940   4.441  13.781  0.6957  0.4723 -0.1426
  568MPD2     C 8474   3.526   4.498  16.391 -0.8429 -0.7875 -0.5475
  568MPD2    C1 8475   3.474   4.514  16.515  0.6195  0.0868  0.3606
  568MPD2    C2 8476   3.372   4.610  16.531 -0.0410 -0.3919 -0.0235
  568MPD2    C3 8477   3.323   4.682  16.422  0.6838  0.2408 -0.0562
  568MPD2    C4 8478   3.387   4.671  16.301 -0.3129  0.3365 -0.1562
  568MPD2    C5 8479   3.486   4.581  16.296 -0.1117  0.4554  0.6723
  568MPD2     H 8480   3.332   4.629  16.630 -3.2058  1.3879 -1.6124
  568MPD2    H1 8481   3.360   4.722  16.209 -0.0770  0.0070 -0.4045
  568MPD2    H2 8482   3.602   4.422  16.379  1.2694  1.0056  1.5727
  568MPD2    H3 8483   3.540   4.571  16.203 -0.9124 -0.3219  0.2964
  568MPD2     N 8484   3.225   0.044  16.448 -0.8853 -0.3274  0.5550
  568MPD2    H5 8485   3.203   0.058  16.546 -1.7499  2.4027 -0.0103
  568MPD2    N1 8486   3.513   4.418  16.609 -0.1530  0.0406  0.0557
  568MPD2    H7 8487   3.566   4.343  16.566 -0.8278  0.6699 -1.8749
  569TMC3    C1 8488   3.079   0.226  16.419 -0.1009  0.3109 -0.3293
  569TMC3    C2 8489   3.062   0.232  16.558  0.4062 -0.2145 -0.4543
  569TMC3    C3 8490   2.951   0.297  16.610 -0.1487  0.5577  0.2384
  569TMC3    C4 8491   3.005   0.310  16.337 -0.9444 -0.6748 -0.9055
  569TMC3    C5 8492   2.902   0.372  16.393  0.1203  0.3327 -1.0886
  569TMC3    C6 8493   2.866   0.364  16.528 -0.1649  0.4776  0.2242
  569TMC3     C 8494   3.171   0.127  16.350 -0.4999 -0.1233 -0.0097
  569TMC3     O 8495   3.191   0.121  16.230  0.1793  0.6583 -0.4532
  569TMC3     H 8496   3.118   0.164  16.621 -0.7467 -0.4536  0.3157
  569TMC3    H1 8497   3.017   0.323  16.230 -1.1902  5.0937 -0.2452
  569TMC3    H2 8498   2.778   0.413  16.568 -0.4825 -0.1172  0.2607
  569TMC3    C7 8499   2.841   0.483  16.329  0.5514 -0.3015  0.6188
  569TMC3    C8 8500   2.938   0.298  16.757 -0.5085  0.4529 -0.1140
  569TMC3    O1 8501   2.729   0.507  16.374  0.2477 -1.1083  0.2321
  569TMC3    O2 8502   2.829   0.274  16.798 -0.3334 -0.6940  0.1509
  570TMC3    C1 8503   2.681   3.145  15.956  0.2531 -0.7771 -0.4806
  570TMC3    C2 8504   2.691   3.248  15.867  0.1260 -1.1054  0.2865
  570TMC3    C3 8505   2.727   3.372  15.907 -0.2486  0.1456 -0.3872
  570TMC3    C4 8506   2.696   3.168  16.092 -0.0457 -0.1718 -0.1147
  570TMC3    C5 8507   2.729   3.297  16.133 -0.4958  0.1619 -0.7440
  570TMC3    C6 8508   2.760   3.391  16.041  0.2489  0.1936 -0.1509
  570TMC3     C 8509   2.623   3.021  15.901  0.8341 -0.4296 -0.0500
  570TMC3     O 8510   2.611   3.018  15.775  0.4658  0.0832  0.0724
  570TMC3     H 8511   2.674   3.223  15.762  1.8176  1.3905 -0.5651
  570TMC3    H1 8512   2.711   3.085  16.160  2.1713 -0.5378 -1.0560
  570TMC3    H2 8513   2.799   3.488  16.070  1.4332  0.1726 -1.6393
  570TMC3    C7 8514   2.744   3.335  16.271  0.5656 -0.1077 -0.0339
  570TMC3    C8 8515   2.810   3.448  15.820 -0.0203  0.2180 -0.6452
  570TMC3    O1 8516   2.804   3.440  16.295  0.1598 -0.0737 -0.0743
  570TMC3    O2 8517   2.909   3.504  15.866 -0.3889  0.0982  0.2012
  571MPD2     C 8518   0.676   0.154  17.435 -0.4324 -0.3666 -0.3053
  571MPD2    C1 8519   0.654   0.129  17.566 -0.2676  1.0343 -0.4530
  571MPD2    C2 8520   0.687   0.226  17.666  0.4641  0.9038  0.3761
  571MPD2    C3 8521   0.740   0.345  17.623 -0.6607  0.7347 -0.1448
  571MPD2    C4 8522   0.766   0.367  17.489  0.4849 -0.3813 -0.9276
  571MPD2    C5 8523   0.729   0.274  17.397  0.3398  0.3357 -0.4174
  571MPD2     H 8524   0.665   0.203   0.021 -1.5073 -0.4312 -0.3245
  571MPD2    H1 8525   0.795   0.467  17.459  0.3051  0.0442  0.3028
  571MPD2    H2 8526   0.661   0.082  17.355 -3.4737 -0.2175  0.1000
  571MPD2    H3 8527   0.742   0.300  17.292  0.3609 -2.2550 -1.0501
  571MPD2     N 8528   0.787   0.445  17.707 -0.7831  0.1387 -0.0753
  571MPD2    H5 8529   0.823   0.526  17.658 -3.9454  3.4007  2.9202
  571MPD2    N1 8530   0.596   4.737  17.590  0.0857  0.2223 -0.0862
  571MPD2    H7 8531   0.573   4.684  17.506  0.1305 -0.4397  0.3191
  572TMC3    C1 8532   0.850   0.558   0.145  0.5871  0.0390 -0.2790
  572TMC3    C2 8533   0.959   0.544   0.220  1.0192 -0.5736  0.1860
  572TMC3    C3 8534   1.017   0.670   0.252  0.0611 -1.4991 -0.0186
  572TMC3    C4 8535   0.791   0.675   0.106 -0.5892  0.2027 -0.9703
  572TMC3    C5 8536   0.860   0.790   0.130 -0.8391  0.4624  0.2289
  572TMC3    C6 8537   0.967   0.792   0.202 -0.1511 -0.1681 -0.2447
  572TMC3     C 8538   0.795   0.437   0.091 -0.1796 -0.3547 -0.3561
  572TMC3     O 8539   0.780   0.340   0.165 -0.8831  0.3506  0.1551
  572TMC3     H 8540   1.008   0.448   0.235  0.6840 -1.1717 -2.5873
  572TMC3    H1 8541   0.707   0.674   0.037 -1.1230 -0.9471 -0.3057
  572TMC3    H2 8542   1.029   0.878   0.226 -0.5658  0.3423 -0.9917
  572TMC3    C7 8543   0.814   0.914   0.084  0.1774  0.2985  0.2723
  572TMC3    C8 8544   1.149   0.677   0.324 -0.2004  0.1527  0.1309
  572TMC3    O1 8545   0.701   0.919   0.043 -0.1962  0.2136 -0.3050
  572TMC3    O2 8546   1.230   0.767   0.296  0.0449  0.7282  0.0051
  573MPD2     C 8547   2.047   4.702   0.306 -0.1261  0.8885 -0.4392
  573MPD2    C1 8548   2.070   0.101   0.318 -0.6525 -0.5380 -0.4722
  573MPD2    C2 8549   2.077   0.167   0.199  0.4019 -0.2227  0.6061
  573MPD2    C3 8550   2.052   0.109   0.081  0.5312 -1.0232 -0.2528
  573MPD2    C4 8551   2.045   4.711   0.071  0.1050  0.1141 -0.2210
  573MPD2    C5 8552   2.034   4.640   0.184 -0.6686 -0.2170 -0.5501
  573MPD2     H 8553   2.080   0.276   0.205  0.5773 -0.1211 -1.1613
  573MPD2    H1 8554   2.032   4.664  17.723  0.6983  0.4836 -0.4819
  573MPD2    H2 8555   2.042   4.640   0.395  2.1994  3.2296  1.3478
  573MPD2    H3 8556   2.022   4.533   0.177  3.9725 -0.8464  1.0814
  573MPD2     N 8557   2.040   0.177  17.704 -0.7014 -0.1389 -0.0519
  573MPD2    H5 8558   2.054   0.125  17.618  0.3521  0.4952 -0.2630
  573MPD2    N1 8559   2.087   0.175   0.437 -0.1790 -0.7078 -0.0996
  573MPD2    H7 8560   2.056   0.134   0.524 -2.4805  0.8710 -0.1766
  574TMC3    C1 8561   1.983   0.366  17.571  0.1822 -0.3713  0.0253
  574TMC3    C2 8562   1.959   0.497  17.568  0.2933 -0.5011 -1.2771
  574TMC3    C3 8563   1.931   0.560  17.445  0.1784  0.3261  0.0674
  574TMC3    C4 8564   1.958   0.285  17.469 -0.1820  0.0209  0.0131
  574TMC3    C5 8565   1.948   0.352  17.347 -0.7082 -0.2152  0.4033
  574TMC3    C6 8566   1.931   0.489  17.333 -0.5874  0.3106  0.8703
  574TMC3     C 8567   2.003   0.311  17.699  0.6529 -0.0419 -0.0438
  574TMC3     O 8568   1.971   0.385   0.042 -0.5176  0.8070 -0.4072
  574TMC3     H 8569   1.968   0.556  17.659  0.2720  1.0551 -2.2700
  574TMC3    H1 8570   1.960   0.177  17.473 -0.1387  0.0658  1.0929
  574TMC3    H2 8571   1.910   0.536  17.237  3.4539  0.3236  0.0197
  574TMC3    C7 8572   1.981   0.276  17.227 -0.8558 -0.2416  0.7993
  574TMC3    C8 8573   1.935   0.707  17.435  0.5133  0.0345 -0.5625
  574TMC3    O1 8574   1.944   0.159  17.232 -0.4658  0.3700 -0.2495
  574TMC3    O2 8575   1.914   0.754  17.326 -0.2867 -0.3172 -0.6313
  575TMC3    C1 8576   3.650   1.664  10.227 -0.1603  0.2016  0.2291
  575TMC3    C2 8577   3.728   1.585  10.144 -0.3799 -0.2889 -0.4260
  575TMC3    C3 8578   3.725   1.605  10.012 -0.0621 -0.4314 -0.0557
  575TMC3    C4 8579   3.568   1.758  10.178 -0.0464  0.1195 -0.3675
  575TMC3    C5 8580   3.572   1.781  10.048  0.0982  0.2792 -0.7358
  575TMC3    C6 8581   3.655   1.708   9.959 -0.1410  0.3742 -0.0510
  575TMC3     C 8582   3.637   1.635  10.371  0.1479  0.2933  0.3997
  575TMC3     O 8583   3.580   1.712  10.447 -0.1986 -0.0524 -0.0990
  575TMC3     H 8584   3.795   1.508  10.180  0.7171  0.4716 -0.8249
  575TMC3    H1 8585   3.500   1.812  10.243  0.0481  1.4056 -1.3408
  575TMC3    H2 8586   3.672   1.732   9.855  2.1636 -2.1800 -0.2765
  575TMC3    C7 8587   3.510   1.900   9.988 -0.8860 -0.1889  0.6880
  575TMC3    C8 8588   3.797   1.508   9.929 -0.0555 -0.0473 -0.0798
  575TMC3    O1 8589   3.506   1.894   9.866  0.1904 -0.2494  0.5166
  575TMC3    O2 8590   3.877   1.432   9.985  1.0519  0.5933  0.0336
  576MPD2     C 8591   3.734   3.474  12.417 -0.4247 -0.1191 -0.3151
  576MPD2    C1 8592   3.849   3.553  12.417 -0.0617  0.1054 -0.1029
  576MPD2    C2 8593   3.864   3.632  12.525 -0.9043 -0.3871  0.2786
  576MPD2    C3 8594   3.770   3.640  12.626 -0.3256  0.0464 -0.4578
  576MPD2    C4 8595   3.654   3.568  12.625  0.1086 -0.3931  0.5326
  576MPD2    C5 8596   3.641   3.481  12.519 -0.1665  0.1252 -0.2022
  576MPD2     H 8597   3.947   3.702  12.520 -0.2822 -1.1038  0.6363
  576MPD2    H1 8598   3.575   3.562  12.699  0.5231 -2.0974  0.8263
  576MPD2    H2 8599   3.712   3.402  12.339 -2.9837 -1.1404  1.3150
  576MPD2    H3 8600   3.552   3.420  12.512  0.8245 -0.9412 -3.5379
  576MPD2     N 8601   3.784   3.741  12.726  0.0333  0.3653  0.1589
  576MPD2    H5 8602   3.863   3.804  12.715  0.7215 -0.4682  0.2847
  576MPD2    N1 8603   3.948   3.563  12.307 -0.2005  0.6427  0.2960
  576MPD2    H7 8604   4.036   3.609  12.330 -0.4511  0.3499  1.8715
  577TMC3    C1 8605   4.019   3.519  12.090  0.2007 -0.7449 -0.4349
  577TMC3    C2 8606   4.119   3.429  12.119 -0.2814 -0.0419 -0.8513
  577TMC3    C3 8607   4.208   3.395  12.021 -0.0382  0.2756  0.2536
  577TMC3    C4 8608   4.003   3.575  11.962  0.4731 -0.1003 -0.2658
  577TMC3    C5 8609   4.108   3.552  11.873 -0.4972  0.1970  0.6454
  577TMC3    C6 8610   4.211   3.455  11.901 -0.1114 -0.3294 -0.3127
  577TMC3     C 8611   3.916   3.515  12.179  0.6341  0.1496  0.0205
  577TMC3     O 8612   3.810   3.474  12.133  0.2719 -0.1549  0.0292
  577TMC3     H 8613   4.129   3.379  12.215  1.5412  0.0509 -0.9951
  577TMC3    H1 8614   3.923   3.647  11.953  1.5046  1.1365  0.4281
  577TMC3    H2 8615   4.278   3.434  11.819 -1.7752 -1.3784 -1.4028
  577TMC3    C7 8616   4.112   3.622  11.745  0.0060  0.5618 -0.1551
  577TMC3    C8 8617   4.250   3.252  12.018  0.6780 -0.2632  0.3315
  577TMC3    O1 8618   4.216   3.607  11.678  0.2446  0.2645 -0.0622
  577TMC3    O2 8619   4.281   3.213  12.129  0.5699  0.2373 -0.2298
  578MPD2     C 8620   2.063   3.373   1.462  0.3596  0.3485 -0.3196
  578MPD2    C1 8621   2.115   3.318   1.350  0.3469  0.6746 -0.4327
  578MPD2    C2 8622   2.246   3.267   1.353  1.0183 -0.6916 -0.2174
  578MPD2    C3 8623   2.328   3.285   1.464  0.1410  0.0733  0.2898
  578MPD2    C4 8624   2.270   3.327   1.583  0.5469  0.5221  0.3626
  578MPD2    C5 8625   2.135   3.372   1.582 -0.1208 -0.0580  0.6164
  578MPD2     H 8626   2.298   3.230   1.265 -1.1142 -1.2338 -1.2387
  578MPD2    H1 8627   2.328   3.343   1.673 -1.4757  0.7965  1.6223
  578MPD2    H2 8628   1.964   3.416   1.460  0.4324  0.5482  0.1979
  578MPD2    H3 8629   2.089   3.400   1.676 -0.6368  0.8410  0.0962
  578MPD2     N 8630   2.458   3.231   1.449  0.3075 -0.2354  0.4347
  578MPD2    H5 8631   2.466   3.178   1.364  1.0654 -0.2288  0.5029
  578MPD2    N1 8632   2.037   3.319   1.226  0.1745 -0.0604 -1.2469
  578MPD2    H7 8633   1.950   3.370   1.235  0.2974 -0.0162 -0.2150
  579TMC3    C1 8634   2.680   3.211   1.496  0.5310 -0.0849  0.5661
  579TMC3    C2 8635   2.789   3.267   1.548 -0.3204  0.2992  0.4116
  579TMC3    C3 8636   2.906   3.246   1.493 -0.0507  0.1159 -0.7039
  579TMC3    C4 8637   2.689   3.100   1.401 -0.2549  0.6770 -0.1862
  579TMC3    C5 8638   2.821   3.069   1.360 -0.3558  0.8690  0.1303
  579TMC3    C6 8639   2.921   3.154   1.394 -0.1605 -0.3591  1.1588
  579TMC3     C 8640   2.555   3.267   1.539  0.3953  0.3194  0.1855
  579TMC3     O 8641   2.549   3.340   1.634  0.3007 -0.1814 -0.0636
  579TMC3     H 8642   2.779   3.331   1.635  0.2709 -0.6062  1.1471
  579TMC3    H1 8643   2.605   3.045   1.359  0.5647  0.3448 -1.3807
  579TMC3    H2 8644   3.022   3.133   1.360 -0.5926  0.3073 -0.5085
  579TMC3    C7 8645   2.859   2.954   1.275  0.6117  0.7566  0.0798
  579TMC3    C8 8646   3.020   3.322   1.550  0.4882 -0.1221  0.1161
  579TMC3    O1 8647   2.976   2.927   1.252  0.8858  0.3725  0.0418
  579TMC3    O2 8648   3.014   3.372   1.661 -0.4722  0.0480 -0.7088
  580TMC3    C1 8649   1.629   2.380  12.525 -0.0947 -0.1889 -0.5310
  580TMC3    C2 8650   1.705   2.494  12.521 -1.1754  0.3913 -0.3506
  580TMC3    C3 8651   1.841   2.493  12.531 -0.5528 -0.7467 -0.0099
  580TMC3    C4 8652   1.692   2.259  12.533 -0.4170  0.2977  1.3241
  580TMC3    C5 8653   1.826   2.256  12.565 -0.3262 -0.1132  0.0945
  580TMC3    C6 8654   1.905   2.370  12.554  0.2646  0.6028 -0.3445
  580TMC3     C 8655   1.506   2.392  12.451 -0.2001 -1.0390  0.5317
  580TMC3     O 8656   1.404   2.337  12.490 -0.3970  0.5806 -0.3034
  580TMC3     H 8657   1.667   2.595  12.520 -1.0320  0.4446 -0.6286
  580TMC3    H1 8658   1.627   2.172  12.526 -0.5458  0.3387  1.9416
  580TMC3    H2 8659   2.012   2.352  12.559  0.2860 -0.0069 -2.5786
  580TMC3    C7 8660   1.890   2.142  12.619  0.0196  0.6357 -0.0187
  580TMC3    C8 8661   1.911   2.611  12.485 -0.4029  0.4502  0.0617
  580TMC3    O1 8662   1.998   2.166  12.673  0.0903 -0.0169  0.5342
  580TMC3    O2 8663   1.845   2.716  12.492 -0.3104  0.1708  0.3156
  581MPD2     C 8664   4.380   1.876  14.580 -0.2109 -0.6377 -0.4487
  581MPD2    C1 8665   4.275   1.870  14.674  0.1730 -0.1128  0.0039
  581MPD2    C2 8666   4.185   1.976  14.678  0.3847  0.2938  0.7126
  581MPD2    C3 8667   4.202   2.078  14.589  0.2943 -0.1863 -0.0703
  581MPD2    C4 8668   4.298   2.080  14.493  0.5929 -0.1793 -0.4488
  581MPD2    C5 8669   4.381   1.978  14.488 -0.6508 -0.1955 -0.2342
  581MPD2     H 8670   4.100   1.982  14.745  0.1346 -0.7655  0.4990
  581MPD2    H1 8671   4.313   2.168  14.430 -0.1967 -0.4174 -0.9590
  581MPD2    H2 8672   4.459   1.802  14.573 -0.4460 -0.8492 -0.8950
  581MPD2    H3 8673   4.459   1.981  14.414 -0.5574  0.3136 -0.1130
  581MPD2     N 8674   4.118   2.184  14.601  0.6972 -0.1575  0.6569
  581MPD2    H5 8675   4.049   2.174  14.675  1.7929  0.7083  1.8026
  581MPD2    N1 8676   4.291   1.770  14.779  0.8723 -0.0577 -0.1130
  581MPD2    H7 8677   4.365   1.702  14.766  1.8928  0.6769  1.9704
  582TMC3    C1 8678   4.262   1.682  14.999  0.6458  0.1132  0.7270
  582TMC3    C2 8679   4.397   1.678  15.027  0.2061  0.1415 -0.4010
  582TMC3    C3 8680   4.438   1.661  15.163 -0.1117 -0.5713 -0.4940
  582TMC3    C4 8681   4.168   1.661  15.093  0.3732 -0.2819 -0.4050
  582TMC3    C5 8682   4.204   1.640  15.220  0.0829  0.8830 -0.1375
  582TMC3    C6 8683   4.334   1.632  15.253 -0.1509 -0.4493  0.3844
  582TMC3     C 8684   4.220   1.768  14.895 -0.1681  0.3642  0.0939
  582TMC3     O 8685   4.129   1.848  14.926 -0.2092  0.2277 -0.1415
  582TMC3     H 8686   4.477   1.697  14.957  1.1810 -0.6481  0.4939
  582TMC3    H1 8687   4.063   1.680  15.073  0.6841  0.7224 -1.0563
  582TMC3    H2 8688   4.352   1.640  15.359 -0.3535 -0.8952  0.4533
  582TMC3    C7 8689   4.141   1.724  15.314 -0.0498 -0.0693 -0.6990
  582TMC3    C8 8690   4.508   1.782  15.216 -0.2820 -0.7258 -0.2639
  582TMC3    O1 8691   4.120   1.681  15.427 -0.3535  0.2916  0.1668
  582TMC3    O2 8692   4.538   1.778  15.333  0.8180 -0.1077  0.0734
  583MPD2     C 8693   4.347   4.031  16.684 -0.3368 -0.1732 -0.3860
  583MPD2    C1 8694   4.377   4.157  16.651 -0.8852  0.3357  0.3299
  583MPD2    C2 8695   4.340   4.255  16.737 -0.1816  0.5530 -1.2944
  583MPD2    C3 8696   4.272   4.231  16.857  0.4070 -0.1015 -0.4490
  583MPD2    C4 8697   4.258   4.101  16.890 -0.2117 -0.7692 -0.3219
  583MPD2    C5 8698   4.281   3.999  16.800  0.0464  0.5778 -0.1019
  583MPD2     H 8699   4.347   4.353  16.692  0.4517  0.8698 -0.5123
  583MPD2    H1 8700   4.232   4.066  16.989  0.7143  0.2717  0.2926
  583MPD2    H2 8701   4.341   3.953  16.609 -2.6937 -0.0520 -0.3145
  583MPD2    H3 8702   4.260   3.894  16.820  0.4892  0.4918 -0.0703
  583MPD2     N 8703   4.243   4.336  16.940 -0.0773 -0.1368 -0.0650
  583MPD2    H5 8704   4.259   4.428  16.900 -2.1034 -0.2580 -1.1391
  583MPD2    N1 8705   4.431   4.200  16.531 -0.2970 -0.5225  0.4512
  583MPD2    H7 8706   4.448   4.298  16.513  0.6501 -1.0294 -1.4678
  584TMC3    C1 8707   4.195   4.451  17.138  0.3070 -0.1098 -0.3736
  584TMC3    C2 8708   4.226   4.566  17.070  0.3322 -0.2129 -0.0606
  584TMC3    C3 8709   4.270   4.670  17.149 -0.0274  0.1101  0.3126
  584TMC3    C4 8710   4.191   4.443  17.275 -0.0378  0.7031 -0.3606
  584TMC3    C5 8711   4.240   4.552  17.347 -0.2565  0.8285  0.4043
  584TMC3    C6 8712   4.279   4.673  17.290  0.1233  0.3758 -0.5543
  584TMC3     C 8713   4.200   4.320  17.070 -0.3586 -0.0125 -0.4892
  584TMC3     O 8714   4.153   4.227  17.141 -0.6668  0.9762  0.0885
  584TMC3     H 8715   4.230   4.577  16.962 -1.8248 -2.0926 -0.3473
  584TMC3    H1 8716   4.163   4.356  17.334 -2.0769  0.3250 -1.9184
  584TMC3    H2 8717   4.298   0.023  17.352  1.9858 -0.5859  0.2474
  584TMC3    C7 8718   4.266   4.528  17.486  0.4437 -0.1855 -0.6970
  584TMC3    C8 8719   4.339   0.038  17.077 -0.3596  0.7171 -0.0024
  584TMC3    O1 8720   4.229   4.424  17.540 -0.1815 -0.2705 -0.5222
  584TMC3    O2 8721   4.308   0.057  16.961 -0.2911 -0.2435 -0.2284
  585MPD2     C 8722   3.760   3.259  17.402  0.3892  0.2779  0.2323
  585MPD2    C1 8723   3.698   3.294  17.522  0.2681 -0.4003 -0.5112
  585MPD2    C2 8724   3.670   3.193  17.605 -0.1174  0.2857 -0.3181
  585MPD2    C3 8725   3.696   3.062  17.563  0.2026  0.1820 -0.0950
  585MPD2    C4 8726   3.757   3.032  17.440 -0.7084 -0.2866  0.0970
  585MPD2    C5 8727   3.795   3.133  17.363  0.9111 -0.0243 -0.3432
  585MPD2     H 8728   3.613   3.204  17.696 -0.4997  0.7214 -0.6065
  585MPD2    H1 8729   3.763   2.929  17.407 -0.8343 -0.3788  0.3543
  585MPD2    H2 8730   3.786   3.336  17.330  1.6115 -1.6257 -1.3755
  585MPD2    H3 8731   3.840   3.127  17.264 -2.0960 -0.5444 -1.7025
  585MPD2     N 8732   3.654   2.955  17.635  0.1904  0.2525 -0.0357
  585MPD2    H5 8733   3.665   2.863  17.595 -1.1718 -0.7810  1.9952
  585MPD2    N1 8734   3.669   3.428  17.548  0.4106  1.0952 -0.6298
  585MPD2    H7 8735   3.695   3.482  17.467  1.6377  1.4455 -0.0090
  586TMC3    C1 8736   3.550   2.835   0.045 -0.6401  0.4159  1.3103
  586TMC3    C2 8737   3.593   2.767   0.155  0.0972  0.1801 -0.0094
  586TMC3    C3 8738   3.554   2.638   0.179 -0.2276 -0.0520 -0.7397
  586TMC3    C4 8739   3.460   2.780  17.700 -0.1808  0.1886 -0.5067
  586TMC3    C5 8740   3.416   2.658  17.732 -0.1277  0.2397 -0.5001
  586TMC3    C6 8741   3.460   2.584   0.092 -0.4665 -0.0135  0.3460
  586TMC3     C 8742   3.603   2.964   0.010 -1.2007 -0.6080 -0.0247
  586TMC3     O 8743   3.621   3.049   0.098 -0.2500 -0.0509 -0.0355
  586TMC3     H 8744   3.639   2.821   0.238 -0.0367  0.8827 -0.3921
  586TMC3    H1 8745   3.417   2.845  17.625 -0.3972  1.7228  0.9434
  586TMC3    H2 8746   3.416   2.486   0.104 -1.7351  0.4782 -0.2802
  586TMC3    C7 8747   3.345   2.590  17.633 -0.3434  0.2042 -1.0639
  586TMC3    C8 8748   3.664   2.544   0.195  0.0029  0.7058  0.0640
  586TMC3    O1 8749   3.258   2.520  17.678 -1.2256 -0.1049 -0.2280
  586TMC3    O2 8750   3.628   2.426   0.209  0.1943 -0.4445  0.7109
  587TMC3    C1 8751   1.183   1.534  16.085 -0.3447 -0.3996  0.2099
  587TMC3    C2 8752   1.211   1.657  16.034 -0.4088  0.0430 -0.5764
  587TMC3    C3 8753   1.274   1.753  16.107  0.7166  0.7784  0.7601
  587TMC3    C4 8754   1.207   1.503  16.218  0.4244  0.5239  0.2484
  587TMC3    C5 8755   1.285   1.594  16.287  0.1298 -0.7880 -0.3513
  587TMC3    C6 8756   1.315   1.716  16.236 -0.6256  0.7110 -0.0185
  587TMC3     C 8757   1.094   1.442  16.022  0.2738 -0.1811 -0.2054
  587TMC3     O 8758   1.078   1.448  15.901  0.1953  0.2933 -0.1219
  587TMC3     H 8759   1.188   1.671  15.929 -1.9945  1.1759 -0.0599
  587TMC3    H1 8760   1.190   1.404  16.260  1.2512  0.9571  1.5954
  587TMC3    H2 8761   1.376   1.788  16.290  0.0608  0.9987 -1.1756
  587TMC3    C7 8762   1.368   1.534  16.382  0.3184  0.7596 -0.1890
  587TMC3    C8 8763   1.272   1.894  16.064 -0.7354 -0.7735 -0.2598
  587TMC3    O1 8764   1.311   1.449  16.446  0.3789  0.5304 -0.6084
  587TMC3    O2 8765   1.276   1.914  15.947 -0.4603  0.1776 -0.0396
  588TMC3    C1 8766   3.274   4.271   9.649  0.1457 -0.4096  0.0820
  588TMC3    C2 8767   3.208   4.157   9.692  0.1103 -0.1745 -0.3662
  588TMC3    C3 8768   3.280   4.059   9.756 -0.4777 -0.4134  0.0944
  588TMC3    C4 8769   3.405   4.281   9.673  0.3959 -0.4870  0.1487
  588TMC3    C5 8770   3.472   4.184   9.746  0.2692  0.0858  0.0757
  588TMC3    C6 8771   3.410   4.072   9.795  0.3941 -0.0792  0.4865
  588TMC3     C 8772   3.193   4.394   9.640 -0.8445 -0.4103  0.2134
  588TMC3     O 8773   3.071   4.390   9.619  0.4637  0.4492  0.2178
  588TMC3     H 8774   3.106   4.154   9.655  0.3606  0.9241 -1.1309
  588TMC3    H1 8775   3.470   4.345   9.614 -0.3321  1.6317  1.6756
  588TMC3    H2 8776   3.458   4.017   9.875  1.1975  0.8411  0.6373
  588TMC3    C7 8777   3.583   4.234   9.834  0.4175  0.0941 -0.2591
  588TMC3    C8 8778   3.204   3.937   9.779  0.2398 -0.4481  0.1184
  588TMC3    O1 8779   3.624   4.148   9.909  0.3313 -0.5570 -0.1696
  588TMC3    O2 8780   3.083   3.946   9.764  0.2921 -0.6140  0.0433
  589TMC3    C1 8781   3.157   1.133   1.514 -0.5815  0.0691  0.6347
  589TMC3    C2 8782   3.293   1.162   1.514 -0.4590 -0.0569 -0.2718
  589TMC3    C3 8783   3.378   1.074   1.455  0.4757 -0.7763  0.1956
  589TMC3    C4 8784   3.118   1.016   1.460  0.4240  0.1412 -0.2818
  589TMC3    C5 8785   3.205   0.937   1.386 -0.8782  0.5864  0.4429
  589TMC3    C6 8786   3.344   0.956   1.388 -0.1588  0.2962 -1.0147
  589TMC3     C 8787   3.054   1.218   1.574 -0.0044 -0.1659  0.0769
  589TMC3     O 8788   2.937   1.182   1.592 -0.2696 -1.1478  0.1914
  589TMC3     H 8789   3.319   1.249   1.572 -0.9119  0.6393 -1.1115
  589TMC3    H1 8790   3.012   0.994   1.455  1.0099 -3.1890  1.8315
  589TMC3    H2 8791   3.416   0.893   1.337 -0.6092  0.1189 -1.4297
  589TMC3    C7 8792   3.155   0.816   1.329 -0.6887  1.1356  0.1856
  589TMC3    C8 8793   3.514   1.116   1.475 -0.1164  0.0037 -0.1269
  589TMC3    O1 8794   3.241   0.736   1.287 -0.1827 -0.1972 -0.1604
  589TMC3    O2 8795   3.525   1.191   1.569  0.0780 -0.6712 -0.1779
  590MPD2     C 8796   2.131   4.504  16.755 -0.0062 -0.5396 -0.3825
  590MPD2    C1 8797   2.107   4.579  16.648  0.5680 -0.5667 -0.6906
  590MPD2    C2 8798   2.213   4.647  16.587 -0.2527  0.0181  0.0324
  590MPD2    C3 8799   2.342   4.631  16.626  0.2919 -0.1856 -0.0834
  590MPD2    C4 8800   2.367   4.548  16.735 -0.1211 -0.0847  0.4615
  590MPD2    C5 8801   2.259   4.487  16.797  0.6910 -0.2429 -0.2041
  590MPD2     H 8802   2.190   4.714  16.504 -2.5947 -1.7030 -0.7028
  590MPD2    H1 8803   2.462   4.543  16.787  1.2240  0.6810 -1.9518
  590MPD2    H2 8804   2.060   4.450  16.817  0.8843 -1.8236 -0.4880
  590MPD2    H3 8805   2.273   4.423  16.883 -1.2084  0.0918  0.3606
  590MPD2     N 8806   2.434   4.723  16.573  0.4991  0.0548 -0.1115
  590MPD2    H5 8807   2.409   0.046  16.496 -2.7625  2.6576  2.9542
  590MPD2    N1 8808   1.972   4.589  16.616 -0.4636 -0.1925 -0.0316
  590MPD2    H7 8809   1.904   4.522  16.651  2.0933 -1.1111  3.1812
  591TMC3    C1 8810   2.622   0.097  16.505  0.0545 -0.8475  0.4035
  591TMC3    C2 8811   2.703   0.055  16.409  0.2854  0.2270  0.0587
  591TMC3    C3 8812   2.702   0.123  16.290 -0.5248 -0.5274 -0.0172
  591TMC3    C4 8813   2.545   0.202  16.488  0.3376 -0.2603  0.1028
  591TMC3    C5 8814   2.541   0.273  16.374 -1.0960  0.2804  0.0840
  591TMC3    C6 8815   2.619   0.237  16.266  0.7161  0.1924  0.5583
  591TMC3     C 8816   2.571   4.729  16.595  0.3119  0.0826  0.5147
  591TMC3     O 8817   2.641   4.637  16.629 -0.2514 -0.4409 -0.1056
  591TMC3     H 8818   2.776   4.714  16.423 -1.5278 -2.0330 -3.3160
  591TMC3    H1 8819   2.478   0.235  16.567 -1.7866 -2.7248 -0.6950
  591TMC3    H2 8820   2.597   0.270  16.165 -1.7434 -1.1894  0.6462
  591TMC3    C7 8821   2.436   0.367  16.359  0.0724  1.0044 -0.1938
  591TMC3    C8 8822   2.795   0.074  16.185 -0.1090 -0.3006  0.5807
  591TMC3    O1 8823   2.349   0.359  16.447  0.1298  0.3657 -0.2449
  591TMC3    O2 8824   2.857   4.711  16.220  0.1172  0.1024 -0.0044
  592MPD2     C 8825   2.639   2.065  11.525  0.1952  0.2236  0.4215
  592MPD2    C1 8826   2.679   2.096  11.655  0.1049  0.3136 -0.3729
  592MPD2    C2 8827   2.630   2.013  11.759 -0.3995  0.0959  0.6831
  592MPD2    C3 8828   2.556   1.900  11.723  0.4937  0.0762  0.4051
  592MPD2    C4 8829   2.523   1.872  11.592 -0.4442  0.0072 -0.0316
  592MPD2    C5 8830   2.559   1.959  11.494  0.9398  1.0257  0.4438
  592MPD2     H 8831   2.641   2.043  11.863  1.1726 -0.9562  0.8195
  592MPD2    H1 8832   2.470   1.781  11.565 -1.6776  0.6669  0.1924
  592MPD2    H2 8833   2.678   2.120  11.440  0.1812  0.9811  0.9046
  592MPD2    H3 8834   2.524   1.940  11.393 -1.0751 -0.8702  1.4903
  592MPD2     N 8835   2.521   1.819  11.832 -0.0156  0.6714  0.3210
  592MPD2    H5 8836   2.566   1.843  11.920 -0.0452 -0.9206  0.7852
  592MPD2    N1 8837   2.760   2.205  11.680  0.1057 -0.2018  0.4331
  592MPD2    H7 8838   2.781   2.264  11.600  2.6887 -1.4640  0.1623
  593TMC3    C1 8839   2.902   2.340  11.799 -0.4868 -0.9857  0.7522
  593TMC3    C2 8840   2.893   2.400  11.921  0.2053  0.4813  0.3126
  593TMC3    C3 8841   2.939   2.531  11.931  0.7226  0.3619  0.9806
  593TMC3    C4 8842   2.950   2.408  11.684 -0.2871 -0.0461 -0.1493
  593TMC3    C5 8843   3.003   2.528  11.698 -0.2269 -0.4277 -0.6988
  593TMC3    C6 8844   3.003   2.587  11.824  0.6445  0.1858  0.1992
  593TMC3     C 8845   2.826   2.226  11.797  0.0686 -0.1501 -0.4438
  593TMC3     O 8846   2.820   2.167  11.901  0.4260 -0.7570 -0.4784
  593TMC3     H 8847   2.834   2.353  11.999 -1.6373  1.9000 -0.2096
  593TMC3    H1 8848   2.967   2.351  11.593 -0.0717 -1.3542  0.7104
  593TMC3    H2 8849   3.071   2.670  11.841  2.7624 -1.5315  0.1005
  593TMC3    C7 8850   3.078   2.597  11.592  0.1175  0.3058  0.1434
  593TMC3    C8 8851   2.901   2.605  12.055  0.0316  0.4011 -0.0778
  593TMC3    O1 8852   3.155   2.686  11.627 -0.3310 -0.2130 -0.3744
  593TMC3    O2 8853   2.867   2.536  12.152  0.3336  0.2616  0.7726
  594MPD2     C 8854   1.461   0.604  14.097 -0.6430  0.3640  0.2338
  594MPD2    C1 8855   1.459   0.631  14.230 -0.2352 -0.3686 -0.8116
  594MPD2    C2 8856   1.539   0.728  14.279 -0.3324 -0.4796  0.5616
  594MPD2    C3 8857   1.620   0.797  14.196 -0.0656  0.4297  1.1127
  594MPD2    C4 8858   1.606   0.781  14.060  0.3248  0.6013 -0.0207
  594MPD2    C5 8859   1.538   0.674  14.012  0.6169  0.3188 -0.1602
  594MPD2     H 8860   1.543   0.746  14.386 -3.3014 -0.0007  0.6050
  594MPD2    H1 8861   1.649   0.844  13.983  0.7013 -0.4608 -0.6782
  594MPD2    H2 8862   1.397   0.530  14.049 -0.5919  0.1367  0.5199
  594MPD2    H3 8863   1.534   0.664  13.904  1.5336 -0.5314 -0.1119
  594MPD2     N 8864   1.699   0.893  14.249  0.4147 -0.0774  0.9107
  594MPD2    H5 8865   1.694   0.926  14.345 -1.5202  0.5904  0.5718
  594MPD2    N1 8866   1.366   0.561  14.304 -0.1974 -0.1004 -0.4958
  594MPD2    H7 8867   1.302   0.507  14.246 -1.6908  2.6878 -1.4280
  595TMC3    C1 8868   2.056   1.183  14.299  0.0319  0.1002 -0.0123
  595TMC3    C2 8869   2.001   1.062  14.252  0.5765  0.6291  0.2207
  595TMC3    C3 8870   1.865   1.056  14.249  0.3021 -0.1208 -0.3674
  595TMC3    C4 8871   1.980   1.290  14.340 -0.4212  0.1944  0.3108
  595TMC3    C5 8872   1.846   1.276  14.316  0.8854  0.9365 -0.3013
  595TMC3    C6 8873   1.781   1.158  14.279 -0.2318 -0.3505 -0.0495
  595TMC3     C 8874   2.193   1.201  14.337  0.0402 -0.1463  0.0626
  595TMC3     O 8875   2.214   1.274  14.434  0.5147 -0.1907  0.6106
  595TMC3     H 8876   2.064   0.989  14.201 -2.4555 -2.4682  0.9183
  595TMC3    H1 8877   2.023   1.382  14.379 -1.0096  0.7999 -0.4797
  595TMC3    H2 8878   1.675   1.151  14.259 -0.5486 -0.6312  1.7452
  595TMC3    C7 8879   1.769   1.389  14.362 -0.4561  0.1120 -0.4703
  595TMC3    C8 8880   1.803   0.949  14.174 -0.2482  0.9323 -0.1429
  595TMC3    O1 8881   1.667   1.366  14.424  0.6364  0.1687 -0.4511
  595TMC3    O2 8882   1.864   0.911  14.075  0.5535 -0.5113  0.4225
  596MPD2     C 8883   0.466   4.064  16.741 -0.1115 -0.6961 -0.1947
  596MPD2    C1 8884   0.447   4.165  16.647  0.1346 -0.4235 -0.0156
  596MPD2    C2 8885   0.475   4.149  16.505 -0.5553  0.3504 -0.1352
  596MPD2    C3 8886   0.517   4.024  16.460  0.2694  0.9517 -0.4075
  596MPD2    C4 8887   0.525   3.913  16.555  0.4046 -0.0825 -0.2724
  596MPD2    C5 8888   0.508   3.942  16.689 -0.0419  0.2364 -0.0844
  596MPD2     H 8889   0.447   4.235  16.445  2.4682  0.8473 -0.8334
  596MPD2    H1 8890   0.563   3.816  16.525  3.0326  0.3601  1.5443
  596MPD2    H2 8891   0.457   4.071  16.849  1.2858 -0.8630 -0.0671
  596MPD2    H3 8892   0.525   3.864  16.762  0.0022  2.3009  2.0830
  596MPD2     N 8893   0.550   3.997  16.323 -0.0909  0.7418 -0.2350
  596MPD2    H5 8894   0.567   3.898  16.308  0.1251  0.8213 -0.5161
  596MPD2    N1 8895   0.405   4.290  16.695  0.6159  0.1856  1.1626
  596MPD2    H7 8896   0.404   4.365  16.627  1.4222 -0.2276  0.6970
  597TMC3    C1 8897   0.313   4.451  16.832 -0.6450 -0.2483  0.1818
  597TMC3    C2 8898   0.379   4.555  16.774  0.2585  0.2245 -0.0546
  597TMC3    C3 8899   0.334   4.679  16.809  0.4996 -0.1710  0.2177
  597TMC3    C4 8900   0.206   4.473  16.920 -0.0659  0.3463  0.1575
  597TMC3    C5 8901   0.178   4.602  16.943 -0.3937 -0.0348  0.3853
  597TMC3    C6 8902   0.236   4.709  16.886  0.1713  0.3112  1.0763
  597TMC3     C 8903   0.351   4.315  16.822  0.4186 -0.0428 -0.3045
  597TMC3     O 8904   0.294   4.240  16.897 -0.0386 -0.0603  0.2993
  597TMC3     H 8905   0.467   4.531  16.716 -0.7664  0.9277 -1.8934
  597TMC3    H1 8906   0.149   4.393  16.967  0.4498  0.0439  0.2716
  597TMC3    H2 8907   0.206   0.074  16.902  0.3941  0.4314  0.7259
  597TMC3    C7 8908   0.143   4.630  17.085  0.1049  0.0026 -0.2819
  597TMC3    C8 8909   0.419   0.055  16.760 -0.6355  0.4593 -0.3228
  597TMC3    O1 8910   0.051   4.576  17.151  0.6242  0.2858  0.0786
  597TMC3    O2 8911   0.401   0.159  16.822 -0.1249  0.6253 -0.1537
  598TMC3    C1 8912   3.370   0.446  15.132  0.5719 -0.3667 -0.1855
  598TMC3    C2 8913   3.345   0.312  15.115 -0.5538 -0.3019  0.1649
  598TMC3    C3 8914   3.386   0.250  14.999 -0.1349 -0.8049 -0.5320
  598TMC3    C4 8915   3.407   0.524  15.027 -0.3451 -0.1807 -0.1400
  598TMC3    C5 8916   3.460   0.451  14.922  0.6330 -0.1178 -0.2103
  598TMC3    C6 8917   3.451   0.317  14.901 -0.1997  0.3218 -0.0081
  598TMC3     C 8918   3.375   0.509  15.263  0.1609 -0.0616 -0.7967
  598TMC3     O 8919   3.365   0.626  15.268 -0.1111 -0.1587 -0.0250
  598TMC3     H 8920   3.309   0.262  15.204  2.5689 -0.6487  1.2527
  598TMC3    H1 8921   3.394   0.631  15.026  2.5378  0.1693  0.1464
  598TMC3    H2 8922   3.489   0.258  14.818 -1.1661  0.6530 -0.6840
  598TMC3    C7 8923   3.535   0.521  14.821 -0.0317  0.0926  0.7847
  598TMC3    C8 8924   3.362   0.107  14.975  0.9016  0.5497 -0.4046
  598TMC3    O1 8925   3.575   0.458  14.722 -0.2732  0.2149 -0.6488
  598TMC3    O2 8926   3.411   0.050  14.880 -0.0586 -0.2077  0.5480
  599MPD2     C 8927   3.547   2.742  15.299  0.2270 -0.1249 -0.9724
  599MPD2    C1 8928   3.511   2.628  15.371 -0.4172  0.3595 -0.0596
  599MPD2    C2 8929   3.382   2.600  15.413 -0.5052 -0.6838  0.5118
  599MPD2    C3 8930   3.294   2.705  15.412 -0.2840  0.1230 -0.7302
  599MPD2    C4 8931   3.322   2.816  15.335 -0.5941 -0.1187 -0.0531
  599MPD2    C5 8932   3.444   2.829  15.277  0.2097 -0.3639 -0.0870
  599MPD2     H 8933   3.365   2.511  15.473  1.6996 -1.7342 -0.4185
  599MPD2    H1 8934   3.247   2.893  15.320 -0.3811  0.3892  1.5420
  599MPD2    H2 8935   3.646   2.761  15.261  0.6244  1.1835  0.6990
  599MPD2    H3 8936   3.458   2.920  15.220  2.7021 -0.5046  0.3089
  599MPD2     N 8937   3.168   2.701  15.488 -0.1312 -0.5163 -0.1831
  599MPD2    H5 8938   3.106   2.781  15.491  0.5572 -0.0424  1.1466
  599MPD2    N1 8939   3.604   2.531  15.412  0.5163  0.5596  0.1155
  599MPD2    H7 8940   3.569   2.470  15.485  3.4017 -0.3996  0.6897
  600TMC3    C1 8941   2.995   2.612  15.626  0.1086 -0.1850 -0.2957
  600TMC3    C2 8942   2.918   2.506  15.658 -0.8054 -0.8454  0.2721
  600TMC3    C3 8943   2.852   2.508  15.781 -0.4154  0.1079 -0.4610
  600TMC3    C4 8944   2.989   2.729  15.700  0.4855  0.7025 -0.1239
  600TMC3    C5 8945   2.905   2.732  15.809  0.3959 -0.6757  0.0910
  600TMC3    C6 8946   2.841   2.624  15.855 -0.2846 -0.6424 -0.1494
  600TMC3     C 8947   3.124   2.590  15.560  0.0695 -0.5947  0.0273
  600TMC3     O 8948   3.154   2.472  15.541  0.5100  0.7144 -0.4155
  600TMC3     H 8949   2.913   2.413  15.603 -0.1894 -0.7079 -0.0220
  600TMC3    H1 8950   3.069   2.802  15.693  0.1958  0.8393 -2.1689
  600TMC3    H2 8951   2.771   2.627  15.937 -0.2333 -1.6340 -0.0681
  600TMC3    C7 8952   2.935   2.832  15.910 -0.2974 -0.7298  0.7175
  600TMC3    C8 8953   2.852   2.378  15.850  0.5718 -0.0788 -0.3852
  600TMC3    O1 8954   2.901   2.799  16.024 -0.1720 -0.8344 -0.3029
  600TMC3    O2 8955   2.923   2.290  15.809  0.0142  0.3059  0.2836
  601MPD2     C 8956   0.867   1.388  17.662  0.2706  0.3207 -0.0266
  601MPD2    C1 8957   0.752   1.322  17.697  0.0115  0.5028 -0.1077
  601MPD2    C2 8958   0.762   1.189  17.732  0.4655  0.1753  0.4312
  601MPD2    C3 8959   0.888   1.128  17.736  0.4206  1.0416 -0.8068
  601MPD2    C4 8960   0.998   1.199  17.696  0.1592 -0.6453 -1.0240
  601MPD2    C5 8961   0.985   1.325  17.650 -0.1445 -0.3548  0.5794
  601MPD2     H 8962   0.671   1.133   0.003  0.4913 -0.1507 -0.3362
  601MPD2    H1 8963   1.095   1.151  17.698  0.4425 -0.0899 -1.9136
  601MPD2    H2 8964   0.864   1.491  17.627 -3.3414  0.0786 -0.3587
  601MPD2    H3 8965   1.074   1.372  17.611 -1.5442 -0.3872 -2.6062
  601MPD2     N 8966   0.920   1.004   0.053  0.1617 -0.5844 -0.3696
  601MPD2    H5 8967   1.012   0.963   0.043  0.4355 -0.2447  0.8532
  601MPD2    N1 8968   0.628   1.389  17.704 -0.3868 -0.0888 -0.4379
  601MPD2    H7 8969   0.548   1.336  17.738 -0.1544 -0.5880 -0.6668
  602TMC3    C1 8970   0.471   1.578  17.671 -0.6799  1.0823 -0.1041
  602TMC3    C2 8971   0.455   1.708  17.637  0.3696 -0.0515 -0.4243
  602TMC3    C3 8972   0.331   1.729  17.584  0.8659  0.1593 -0.1105
  602TMC3    C4 8973   0.375   1.485  17.687 -0.5408  0.1039  0.0233
  602TMC3    C5 8974   0.248   1.517  17.650  0.1283 -0.0524  0.1070
  602TMC3    C6 8975   0.225   1.640  17.594 -0.2633  0.2464 -0.6804
  602TMC3     C 8976   0.610   1.525  17.694  0.0327 -0.0483  0.1362
  602TMC3     O 8977   0.686   1.614  17.679  0.1470 -0.3559  0.4679
  602TMC3     H 8978   0.532   1.783  17.626  0.2345 -0.1482 -2.1767
  602TMC3    H1 8979   0.398   1.383  17.716  0.9677  0.6152  0.6231
  602TMC3    H2 8980   0.129   1.685  17.573 -0.0339  0.8686 -0.3995
  602TMC3    C7 8981   0.181   1.403  17.597  0.4380 -0.5307 -0.3344
  602TMC3    C8 8982   0.321   1.844  17.498 -0.9161  0.1455 -0.3810
  602TMC3    O1 8983   0.229   1.295  17.613  0.4197  0.1155  0.2263
  602TMC3    O2 8984   0.367   1.951  17.538 -0.2498 -0.3539  0.4462
  603TMC3    C1 8985   3.366   1.295  10.547  0.6115  0.5188 -0.6213
  603TMC3    C2 8986   3.435   1.279  10.663 -0.0751 -0.7338  0.3557
  603TMC3    C3 8987   3.441   1.386  10.742  0.6886  1.0733  0.4867
  603TMC3    C4 8988   3.301   1.412  10.513 -0.0145 -0.8001 -1.0825
  603TMC3    C5 8989   3.305   1.512  10.606  0.0472  0.1014  0.0583
  603TMC3    C6 8990   3.381   1.506  10.717 -0.2008  0.1559 -0.8342
  603TMC3     C 8991   3.356   1.174  10.456 -0.9526 -0.4465  0.3549
  603TMC3     O 8992   3.455   1.103  10.446  0.3921  0.2371 -1.2402
  603TMC3     H 8993   3.482   1.186  10.695  0.8915 -0.0108  1.0509
  603TMC3    H1 8994   3.253   1.426  10.417 -1.7654  0.8816  0.0285
  603TMC3    H2 8995   3.375   1.582  10.794  1.5493 -0.2422 -0.3116
  603TMC3    C7 8996   3.212   1.623  10.590 -0.3229  0.2407 -0.0336
  603TMC3    C8 8997   3.500   1.369  10.870 -0.0326  0.6591  0.3878
  603TMC3    O1 8998   3.259   1.739  10.601 -0.3847 -0.5477 -0.0760
  603TMC3    O2 8999   3.517   1.252  10.904 -0.1766 -0.0999 -0.4675
  604MPD2     C 9000   4.256   0.141  16.592 -0.2224  0.8120 -0.4036
  604MPD2    C1 9001   4.153   0.208  16.526  0.3393  0.1322  0.0340
  604MPD2    C2 9002   4.133   0.180  16.393  0.2875 -0.0359 -0.3554
  604MPD2    C3 9003   4.216   0.093  16.320  0.0441  0.1495  1.0662
  604MPD2    C4 9004   4.313   0.028  16.390  0.2091  0.3808  0.2514
  604MPD2    C5 9005   4.331   0.053  16.530  0.0093  0.1878  0.0789
  604MPD2     H 9006   4.052   0.228  16.341 -0.7729  0.1265  1.4306
  604MPD2    H1 9007   4.387   4.697  16.348 -1.0290 -1.3368  0.8986
  604MPD2    H2 9008   4.281   0.159  16.695 -1.0592  2.7861 -0.5490
  604MPD2    H3 9009   4.405   0.001  16.589 -0.5917 -1.0384 -0.2518
  604MPD2     N 9010   4.184   0.062  16.184  0.7152 -0.3644  0.1025
  604MPD2    H5 9011   4.092   0.091  16.152 -0.5969 -4.6493  0.1104
  604MPD2    N1 9012   4.075   0.290  16.606  0.4203 -0.7247 -0.1254
  604MPD2    H7 9013   4.099   0.304  16.703  1.0867  1.7139 -0.6337
  605TMC3    C1 9014   3.964   0.488  16.643  1.1126 -0.0154 -0.1381
  605TMC3    C2 9015   4.076   0.536  16.715 -0.2873  0.4562  0.6948
  605TMC3    C3 9016   4.062   0.664  16.760  0.4929  0.3494 -0.7772
  605TMC3    C4 9017   3.858   0.571  16.614  0.0463 -0.2409 -0.1102
  605TMC3    C5 9018   3.857   0.703  16.652  0.0497  0.0947  0.2273
  605TMC3    C6 9019   3.951   0.749  16.745 -0.0925 -0.1502 -0.1818
  605TMC3     C 9020   3.977   0.368  16.560 -0.3044 -0.1630 -0.1702
  605TMC3     O 9021   3.900   0.359  16.463 -0.1481  0.0872  0.5996
  605TMC3     H 9022   4.167   0.479  16.726 -0.7620 -0.0691  1.9733
  605TMC3    H1 9023   3.778   0.540  16.548 -1.4429  2.5325  0.3772
  605TMC3    H2 9024   3.934   0.835  16.808 -0.1159 -1.7869  2.0547
  605TMC3    C7 9025   3.758   0.797  16.590 -0.0392 -0.1941 -0.3442
  605TMC3    C8 9026   4.178   0.713  16.838 -0.5039  0.5304  0.0296
  605TMC3    O1 9027   3.692   0.747  16.499  0.4789  0.3286  0.0900
  605TMC3    O2 9028   4.158   0.812  16.908  0.5352 -0.3752  0.7568
  606TMC3    C1 9029   0.568   3.890  17.524 -0.0537  0.0947  0.5796
  606TMC3    C2 9030   0.539   3.864  17.658  0.0270  0.1148 -0.1359
  606TMC3    C3 9031   0.468   3.756  17.693  0.0096  0.4280 -0.6037
  606TMC3    C4 9032   0.514   3.809  17.427  0.0323  1.0501  0.1899
  606TMC3    C5 9033   0.437   3.698  17.461 -0.1315  0.5538 -0.6756
  606TMC3    C6 9034   0.403   3.677  17.593 -0.6522  0.0119  0.2056
  606TMC3     C 9035   0.627   4.022  17.483 -0.3919 -0.2445  0.1908
  606TMC3     O 9036   0.617   4.055  17.367  0.2154 -0.3189 -0.1705
  606TMC3     H 9037   0.576   3.924  17.740 -1.5958  1.4589 -0.3814
  606TMC3    H1 9038   0.527   3.828  17.321 -1.8117 -0.4662 -0.3146
  606TMC3    H2 9039   0.362   3.581  17.623  2.6086 -0.9218  1.7175
  606TMC3    C7 9040   0.452   3.575  17.379  0.2946  0.5394 -0.3201
  606TMC3    C8 9041   0.517   3.694   0.056 -0.4098  0.0059 -0.1601
  606TMC3    O1 9042   0.565   3.552  17.344 -0.1639  0.1926  0.3356
  606TMC3    O2 9043   0.621   3.736   0.093 -0.0290 -0.3725 -0.6500
  607MPD2     C 9044   2.816   1.647  11.641 -0.4228  0.1506 -0.3100
  607MPD2    C1 9045   2.842   1.690  11.767 -0.2342  0.2330 -0.1250
  607MPD2    C2 9046   2.787   1.615  11.872 -0.5292  0.7037 -0.0886
  607MPD2    C3 9047   2.711   1.506  11.850  0.0599  0.4373 -0.9236
  607MPD2    C4 9048   2.687   1.456  11.725 -0.2357 -0.3488  0.3500
  607MPD2    C5 9049   2.747   1.529  11.620 -0.0008 -0.3644 -0.6241
  607MPD2     H 9050   2.804   1.648  11.974 -2.1256 -0.9010  0.6992
  607MPD2    H1 9051   2.631   1.366  11.700 -1.3525  0.5976 -0.5672
  607MPD2    H2 9052   2.856   1.704  11.558  1.6434  1.0419  1.2907
  607MPD2    H3 9053   2.721   1.484  11.525 -2.7151  0.7423 -0.3959
  607MPD2     N 9054   2.672   1.440  11.972 -0.4928 -0.1763 -0.2342
  607MPD2    H5 9055   2.712   1.479  12.057  0.3039  0.5483 -0.9424
  607MPD2    N1 9056   2.923   1.800  11.806  0.4189  0.1121 -1.0034
  607MPD2    H7 9057   2.931   1.809  11.907 -1.0507  0.3820 -0.9087
  608TMC3    C1 9058   3.105   1.956  11.801  0.1045 -0.3164 -0.4114
  608TMC3    C2 9059   3.119   1.942  11.936 -0.1706  0.5935  0.4523
  608TMC3    C3 9060   3.194   2.043  12.002  0.1071 -0.0236  0.4599
  608TMC3    C4 9061   3.149   2.064  11.737 -0.2229 -0.4609  0.1468
  608TMC3    C5 9062   3.229   2.152  11.800 -0.3161 -0.5231 -0.3633
  608TMC3    C6 9063   3.255   2.142  11.934 -0.4319  0.1395 -0.3171
  608TMC3     C 9064   3.018   1.869  11.728  0.3182 -0.5173  0.2784
  608TMC3     O 9065   3.019   1.864  11.610  0.4794 -0.0294 -0.1611
  608TMC3     H 9066   3.083   1.850  11.980  0.7183 -0.7838 -1.6724
  608TMC3    H1 9067   3.130   2.063  11.631 -1.3521  0.9778  0.3390
  608TMC3    H2 9068   3.308   2.217  11.992 -3.4594  1.9097  0.1909
  608TMC3    C7 9069   3.287   2.262  11.720 -1.0205  0.9529  0.2138
  608TMC3    C8 9070   3.227   2.010  12.138  0.0784  0.5752  1.5481
  608TMC3    O1 9071   3.248   2.261  11.605  0.1428  0.2066 -0.0659
  608TMC3    O2 9072   3.330   2.063  12.187  0.0702 -0.1185  0.2528
  609TMC3    C1 9073   0.865   0.932   9.501  0.1003  0.1153  0.4870
  609TMC3    C2 9074   0.860   1.063   9.464  0.2289  0.5575 -0.0760
  609TMC3    C3 9075   0.881   1.094   9.329  0.8516 -0.4487  0.8394
  609TMC3    C4 9076   0.924   0.838   9.418  0.6067 -0.6580  0.1959
  609TMC3    C5 9077   0.953   0.876   9.286  0.2528 -0.5129 -0.1464
  609TMC3    C6 9078   0.923   1.002   9.238 -0.3371 -0.1235 -0.7160
  609TMC3     C 9079   0.827   0.896   9.637 -0.8870  0.2953 -0.2881
  609TMC3     O 9080   0.864   0.783   9.673 -0.1266 -0.0526 -0.0861
  609TMC3     H 9081   0.818   1.141   9.527  0.5646 -0.0295  0.8604
  609TMC3    H1 9082   0.963   0.743   9.453 -1.6716 -0.9191  1.9586
  609TMC3    H2 9083   0.936   1.035   9.135 -1.1141  2.0711 -0.1134
  609TMC3    C7 9084   1.044   0.790   9.204 -0.2102  0.4218 -0.0627
  609TMC3    C8 9085   0.882   1.233   9.291 -0.4504  0.7577  0.2925
  609TMC3    O1 9086   1.082   0.686   9.258  0.7115  0.3760  0.6116
  609TMC3    O2 9087   0.939   1.265   9.186 -0.4180 -0.1709 -0.4614
  610TMC3    C1 9088   3.662   2.089  12.145 -0.3667  0.3786  0.0782
  610TMC3    C2 9089   3.609   2.010  12.048 -0.3136 -0.0356  0.2700
  610TMC3    C3 9090   3.570   1.883  12.082  0.2671 -0.1030  0.5298
  610TMC3    C4 9091   3.688   2.039  12.266  0.3816 -0.3647 -0.3964
  610TMC3    C5 9092   3.648   1.913  12.300  0.1456  0.2734  0.4927
  610TMC3    C6 9093   3.587   1.833  12.210  0.1599  0.1566  0.9424
  610TMC3     C 9094   3.645   2.234  12.129 -0.4524  0.1346 -0.6661
  610TMC3     O 9095   3.546   2.272  12.072  0.1851  0.1161  0.1574
  610TMC3     H 9096   3.576   2.053  11.954 -0.3825 -0.6424  0.0159
  610TMC3    H1 9097   3.718   2.103  12.348  1.1026  0.7063 -1.4956
  610TMC3    H2 9098   3.553   1.737  12.246  0.2347 -0.3029 -0.2010
  610TMC3    C7 9099   3.684   1.846  12.434  0.4006  0.0982  0.0395
  610TMC3    C8 9100   3.481   1.822  11.988 -1.1482  0.0687  0.0529
  610TMC3    O1 9101   3.667   1.723  12.428 -0.4121 -0.5218 -0.1692
  610TMC3    O2 9102   3.478   1.870  11.875 -0.3882 -0.3109 -0.0282
  611MPD2     C 9103   2.287   0.953  10.925  0.6843  0.2293 -0.2749
  611MPD2    C1 9104   2.176   0.975  10.843 -0.0460  0.1276 -0.1506
  611MPD2    C2 9105   2.181   1.067  10.739 -0.8991  0.0103  0.9189
  611MPD2    C3 9106   2.286   1.160  10.743  0.7790  0.4247  0.3615
  611MPD2    C4 9107   2.397   1.130  10.822  0.0966  0.7961  0.6372
  611MPD2    C5 9108   2.400   1.028  10.910  0.4399  0.4849  0.2401
  611MPD2     H 9109   2.101   1.082  10.667  1.3625 -2.8794 -2.2090
  611MPD2    H1 9110   2.487   1.190  10.817  2.1769 -2.5335 -1.5593
  611MPD2    H2 9111   2.296   0.877  11.002  1.5318  1.5060  0.8874
  611MPD2    H3 9112   2.483   1.016  10.979  2.1345  2.7563 -1.4096
  611MPD2     N 9113   2.292   1.277  10.666 -0.4118  0.3351 -0.4003
  611MPD2    H5 9114   2.368   1.340  10.689 -0.4812  0.3341 -0.1680
  611MPD2    N1 9115   2.063   0.892  10.865  0.2599 -0.4866 -0.1022
  611MPD2    H7 9116   2.062   0.833  10.947 -0.1379 -1.3401 -0.7225
  612TMC3    C1 9117   2.221   1.451  10.521  0.2849 -0.8331  0.0910
  612TMC3    C2 9118   2.345   1.510  10.551  0.4557  0.4976  0.2143
  612TMC3    C3 9119   2.360   1.650  10.525 -0.3027  0.7118  0.4313
  612TMC3    C4 9120   2.116   1.524  10.467  0.3700 -0.0025  0.9384
  612TMC3    C5 9121   2.145   1.658  10.447 -0.4207  0.5645 -0.6920
  612TMC3    C6 9122   2.264   1.722  10.469 -0.1042  0.5872 -0.5258
  612TMC3     C 9123   2.193   1.319  10.580  0.0172  0.3765  0.0049
  612TMC3     O 9124   2.087   1.269  10.560 -0.4088  0.6023 -0.3995
  612TMC3     H 9125   2.426   1.457  10.599  1.5647  3.8140  1.9370
  612TMC3    H1 9126   2.016   1.485  10.460 -0.1621  1.2728  1.4676
  612TMC3    H2 9127   2.276   1.826  10.443 -1.8785  1.2053  1.1475
  612TMC3    C7 9128   2.036   1.744  10.389  0.3962 -0.3256 -0.0280
  612TMC3    C8 9129   2.487   1.720  10.520 -0.5683  0.1237 -0.3417
  612TMC3    O1 9130   2.055   1.867  10.396 -0.1762  0.1794 -0.4274
  612TMC3    O2 9131   2.482   1.841  10.508 -0.0623  0.2352 -0.3538
  613MPD2     C 9132   2.133   3.632  16.601 -0.2266  0.6171 -0.0880
  613MPD2    C1 9133   2.110   3.516  16.526  1.3415 -0.2310  0.9078
  613MPD2    C2 9134   1.983   3.472  16.523  0.9707 -0.1092 -0.3933
  613MPD2    C3 9135   1.884   3.526  16.599 -0.0899  0.0213 -0.2121
  613MPD2    C4 9136   1.899   3.636  16.679  0.1536 -0.3195  0.6851
  613MPD2    C5 9137   2.029   3.690  16.676  0.1984  0.3971  0.2490
  613MPD2     H 9138   1.967   3.383  16.463  0.2465  2.1860 -3.5776
  613MPD2    H1 9139   1.820   3.673  16.743  0.0705 -0.2785  0.5605
  613MPD2    H2 9140   2.235   3.668  16.607 -0.2324  0.5741  0.2758
  613MPD2    H3 9141   2.063   3.769  16.741 -3.0472  1.0873  1.1222
  613MPD2     N 9142   1.753   3.463  16.590 -0.5298 -0.3910  0.1985
  613MPD2    H5 9143   1.761   3.371  16.547  0.7371 -0.0225 -0.3360
  613MPD2    N1 9144   2.222   3.465  16.454 -0.7607  0.1205 -0.3105
  613MPD2    H7 9145   2.304   3.525  16.451 -0.6212  0.0572  1.9407
  614TMC3    C1 9146   2.338   3.339  16.287  0.2768  1.0687 -0.4191
  614TMC3    C2 9147   2.322   3.219  16.220  0.0599  0.0127  0.3744
  614TMC3    C3 9148   2.331   3.212  16.084  0.3252  0.1553  0.3512
  614TMC3    C4 9149   2.378   3.445  16.220  0.5824 -0.3278  0.1981
  614TMC3    C5 9150   2.412   3.432  16.089 -0.3818  0.1640 -0.2185
  614TMC3    C6 9151   2.383   3.321  16.013 -0.3534 -0.2690  0.3308
  614TMC3     C 9152   2.224   3.350  16.379  0.3007 -0.1588  0.5490
  614TMC3     O 9153   2.142   3.260  16.382 -0.1855 -0.5024  0.2668
  614TMC3     H 9154   2.293   3.135  16.282 -0.1391 -0.7577 -0.7676
  614TMC3    H1 9155   2.397   3.541  16.267  2.0350 -0.5783  0.1219
  614TMC3    H2 9156   2.380   3.335  15.906 -0.3918  1.0309  0.4963
  614TMC3    C7 9157   2.460   3.558  16.033 -0.6996  0.7059 -0.0915
  614TMC3    C8 9158   2.227   3.131  16.018 -0.3707 -0.3539  0.4366
  614TMC3    O1 9159   2.534   3.629  16.102 -0.2707 -0.2748  0.4347
  614TMC3    O2 9160   2.231   3.105  15.900 -0.3925  0.0542 -0.3098
  615MPD2     C 9161   1.287   0.320  15.767  0.3619 -0.6867  0.0733
  615MPD2    C1 9162   1.198   0.429  15.800 -0.3406 -0.4198 -0.1043
  615MPD2    C2 9163   1.123   0.483  15.694 -0.0881  0.8607 -0.6338
  615MPD2    C3 9164   1.135   0.444  15.563 -0.0173  0.6311  0.2792
  615MPD2    C4 9165   1.230   0.353  15.532  0.3033  0.5712 -0.0921
  615MPD2    C5 9166   1.296   0.278  15.629 -0.7431 -0.1583 -1.4053
  615MPD2     H 9167   1.060   0.566  15.724 -1.4914 -0.8518  1.1930
  615MPD2    H1 9168   1.236   0.320  15.429 -1.6567 -0.9553  0.2727
  615MPD2    H2 9169   1.347   0.277  15.846  0.4374  1.2177  1.0655
  615MPD2    H3 9170   1.365   0.201  15.598  0.5603  0.3304  0.3477
  615MPD2     N 9171   1.056   0.510  15.459 -0.2981  0.9943  0.0865
  615MPD2    H5 9172   1.087   0.499  15.363  0.3510  1.7048  0.2133
  615MPD2    N1 9173   1.203   0.508  15.920 -0.0900  1.2195 -0.2635
  615MPD2    H7 9174   1.134   0.581  15.936 -2.1518 -0.7017 -0.3095
  616TMC3    C1 9175   1.289   0.597  16.123 -0.0229  0.0550 -0.3785
  616TMC3    C2 9176   1.361   0.572  16.243 -0.3174  0.7567  0.3098
  616TMC3    C3 9177   1.416   0.675  16.314  0.1350 -0.1402  0.4089
  616TMC3    C4 9178   1.265   0.727  16.077 -0.1695  0.2480 -0.1592
  616TMC3    C5 9179   1.311   0.830  16.157 -0.6958 -0.0173 -0.3266
  616TMC3    C6 9180   1.392   0.806  16.272  0.1853 -0.2950 -0.2024
  616TMC3     C 9181   1.288   0.485  16.027 -0.3315  0.8051  0.0455
  616TMC3     O 9182   1.378   0.402  16.039 -0.7315  0.4251 -0.1718
  616TMC3     H 9183   1.381   0.469  16.269 -0.4238  0.2912 -1.4076
  616TMC3    H1 9184   1.197   0.749  15.996  0.6959 -0.7259 -1.1623
  616TMC3    H2 9185   1.430   0.881  16.340  0.5714 -0.8458  0.1887
  616TMC3    C7 9186   1.328   0.957  16.088  0.1665  0.0592 -0.5080
  616TMC3    C8 9187   1.493   0.633  16.433 -0.6668 -0.3911 -0.3480
  616TMC3    O1 9188   1.265   0.965  15.984  0.1300  0.0633 -0.4212
  616TMC3    O2 9189   1.462   0.524  16.480 -0.2967  0.1142  0.1130
  617MPD2     C 9190   4.161   3.521  13.614 -0.1239  0.6138 -0.0271
  617MPD2    C1 9191   4.164   3.435  13.725 -0.1209  0.4385  1.2714
  617MPD2    C2 9192   4.060   3.430  13.813 -0.5402  0.5936 -0.1312
  617MPD2    C3 9193   3.946   3.498  13.782 -0.6616  0.1192  0.1261
  617MPD2    C4 9194   3.931   3.563  13.662 -0.0761  0.5853 -0.3362
  617MPD2    C5 9195   4.046   3.581  13.582  0.3334  0.4007  0.4371
  617MPD2     H 9196   4.069   3.376  13.907  0.6302 -2.0395 -1.7392
  617MPD2    H1 9197   3.838   3.606  13.625  1.1180  2.0536 -1.6797
  617MPD2    H2 9198   4.246   3.516  13.547  0.1359 -1.7567  0.4508
  617MPD2    H3 9199   4.047   3.643  13.493 -2.4719  0.0772  0.1637
  617MPD2     N 9200   3.827   3.492  13.858 -0.1321 -0.2867 -0.5390
  617MPD2    H5 9201   3.755   3.553  13.820 -0.6075 -1.3157 -1.2830
  617MPD2    N1 9202   4.271   3.343  13.757  0.4929  0.8362 -0.1941
  617MPD2    H7 9203   4.281   3.317  13.855 -1.6527 -0.2584 -0.2606
  618TMC3    C1 9204   4.448   3.193  13.686 -0.0146 -0.1013 -0.6697
  618TMC3    C2 9205   4.479   3.092  13.600 -0.1260  0.1847  0.2185
  618TMC3    C3 9206   4.576   3.003  13.635  0.2390 -0.6891 -0.4613
  618TMC3    C4 9207   4.526   3.213  13.800 -0.0448 -0.8994 -0.3345
  618TMC3    C5 9208   4.630   3.128  13.822 -0.8106  0.2405 -0.4180
  618TMC3    C6 9209   4.664   3.023  13.740  0.0835 -0.4001 -0.0341
  618TMC3     C 9210   4.346   3.295  13.654 -0.2670  0.0162 -0.2224
  618TMC3     O 9211   4.325   3.297  13.535  0.3680 -0.0876 -0.0637
  618TMC3     H 9212   4.411   3.060  13.522 -0.8268  0.8062  0.5806
  618TMC3    H1 9213   4.516   3.306  13.855 -0.0918 -0.2724 -1.4022
  618TMC3    H2 9214   0.006   2.954  13.764 -0.3063 -1.5479 -2.0645
  618TMC3    C7 9215   0.002   3.164  13.902 -0.2921 -0.6517 -0.3934
  618TMC3    C8 9216   4.631   2.926  13.521 -1.0940  0.1181 -0.2885
  618TMC3    O1 9217   0.052   3.069  13.959  0.3583 -0.3016 -0.4392
  618TMC3    O2 9218   4.694   2.824  13.550 -0.1864 -0.2759 -0.1403
  619MPD2     C 9219   1.015   0.114  13.788 -0.1736 -0.1173  0.1455
  619MPD2    C1 9220   0.969   0.188  13.684 -0.4177  0.1990 -0.4141
  619MPD2    C2 9221   0.843   0.154  13.634  1.0027  0.4876 -0.0213
  619MPD2    C3 9222   0.761   0.057  13.693  0.5133  0.2585 -0.0117
  619MPD2    C4 9223   0.799   4.730  13.806 -0.0958  0.9559  0.2679
  619MPD2    C5 9224   0.926   0.020  13.846  0.6989 -0.3395  0.9691
  619MPD2     H 9225   0.814   0.214  13.549 -1.4417  1.0872  1.2505
  619MPD2    H1 9226   0.741   4.660  13.866  2.3383 -0.6358  0.7838
  619MPD2    H2 9227   1.113   0.131  13.831 -1.4074  0.6170  2.7121
  619MPD2    H3 9228   0.958   4.702  13.933 -0.1676  1.9428  2.7688
  619MPD2     N 9229   0.632   0.023  13.645 -0.2651  0.0883 -0.4242
  619MPD2    H5 9230   0.582   4.697  13.707  2.1289  0.4790  1.9086
  619MPD2    N1 9231   1.039   0.295  13.627  0.1694 -0.0107  0.2302
  619MPD2    H7 9232   1.000   0.333  13.541 -2.0721 -2.0266  0.3683
  620TMC3    C1 9233   1.172   0.472  13.613  0.4553  0.0958  0.1879
  620TMC3    C2 9234   1.109   0.502  13.495 -0.2092 -0.0945 -0.3905
  620TMC3    C3 9235   1.064   0.633  13.482 -0.5437  0.1880 -0.9990
  620TMC3    C4 9236   1.202   0.570  13.701  0.7692 -0.3803 -0.0892
  620TMC3    C5 9237   1.167   0.702  13.679 -0.1907  0.1330  0.1321
  620TMC3    C6 9238   1.096   0.734  13.567  0.8282 -0.0389  0.4753
  620TMC3     C 9239   1.163   0.341  13.667 -0.3474 -0.0883  0.3009
  620TMC3     O 9240   1.225   0.321  13.770 -0.0433 -0.1146  0.1130
  620TMC3     H 9241   1.085   0.425  13.422 -1.5507  0.8873 -0.9875
  620TMC3    H1 9242   1.265   0.543  13.786  0.8508  0.1443  0.0167
  620TMC3    H2 9243   1.062   0.835  13.546 -0.1611 -0.8252 -1.7267
  620TMC3    C7 9244   1.120   0.765  13.798  0.4856 -0.1607 -0.4727
  620TMC3    C8 9245   0.922   0.641  13.458 -0.4361  0.2122  0.7982
  620TMC3    O1 9246   1.196   0.776  13.895  0.2740  0.3302 -0.4373
  620TMC3    O2 9247   0.863   0.714  13.534  0.3061 -0.2154  0.0780
  621MPD2     C 9248   0.978   0.024  10.447 -0.2079 -0.3387  0.6078
  621MPD2    C1 9249   1.046   0.044  10.330  0.8007 -0.4903 -0.0137
  621MPD2    C2 9250   1.145   0.142  10.323  0.1217  0.0947 -0.1291
  621MPD2    C3 9251   1.174   0.227  10.426  0.4590 -0.0592 -0.5045
  621MPD2    C4 9252   1.109   0.207  10.544 -0.1717  0.3083 -0.1229
  621MPD2    C5 9253   1.012   0.108  10.554  0.0880  0.4839 -0.0177
  621MPD2     H 9254   1.184   0.161  10.223  0.8780 -0.0310  0.1433
  621MPD2    H1 9255   1.128   0.267  10.632  4.0952 -0.8161 -0.2777
  621MPD2    H2 9256   0.899   4.688  10.459 -0.6508 -0.2057 -1.5490
  621MPD2    H3 9257   0.975   0.089  10.654  0.4730  2.2542  0.4723
  621MPD2     N 9258   1.264   0.333  10.405  0.3456  0.0777  0.3450
  621MPD2    H5 9259   1.299   0.340  10.310 -0.6835 -2.4862 -0.2189
  621MPD2    N1 9260   1.020   4.712  10.210  0.3289  0.4864 -0.0116
  621MPD2    H7 9261   1.086   4.728  10.134  1.2648  1.5764  1.0356
  622TMC3    C1 9262   0.880   4.570  10.066 -0.4335  0.7045  0.0866
  622TMC3    C2 9263   0.752   4.521  10.073  0.2037 -0.4246 -0.5815
  622TMC3    C3 9264   0.662   4.558   9.974  0.2247  0.2721 -0.2613
  622TMC3    C4 9265   0.928   4.647   9.967 -0.2156 -0.0594  0.0788
  622TMC3    C5 9266   0.835   4.688   9.877  0.3500  0.1076  0.1405
  622TMC3    C6 9267   0.706   4.644   9.873 -0.2889 -0.2957 -0.2878
  622TMC3     C 9268   0.926   4.615  10.200  0.1004 -0.3808 -0.2362
  622TMC3     O 9269   0.847   4.581  10.289 -0.3827 -0.1022 -0.2467
  622TMC3     H 9270   0.720   4.449  10.147 -2.7960  0.4975 -0.9981
  622TMC3    H1 9271   1.032   4.678   9.962 -0.6432  1.5438  1.1431
  622TMC3    H2 9272   0.640   4.674   9.793  0.1826  0.1940 -0.4972
  622TMC3    C7 9273   0.878   0.045   9.775 -1.1390  0.7159  0.3487
  622TMC3    C8 9274   0.545   4.476   9.962 -0.2501  0.3148  0.0645
  622TMC3    O1 9275   0.991   0.037   9.729 -0.2783  0.2141 -0.0374
  622TMC3    O2 9276   0.497   4.455   9.855 -0.4512 -0.4701 -0.1521
  623MPD2     C 9277   4.557   0.540  15.792  0.1900 -0.6197 -0.0952
  623MPD2    C1 9278   4.522   0.479  15.913  0.1631  0.2306 -0.2527
  623MPD2    C2 9279   4.608   0.505  16.016 -0.4766  0.5909  1.1439
  623MPD2    C3 9280   4.710   0.597  16.013  0.7884  0.1090  0.2532
  623MPD2    C4 9281   0.013   0.641  15.893  0.0092  0.2439 -0.1309
  623MPD2    C5 9282   4.676   0.604  15.784 -0.4328  0.1115  0.1273
  623MPD2     H 9283   4.586   0.463  16.113  1.9021 -0.5511  1.1894
  623MPD2    H1 9284   0.104   0.698  15.875  0.7196  0.0230  2.6477
  623MPD2    H2 9285   4.496   0.533  15.702  0.1725  0.0528 -0.1341
  623MPD2    H3 9286   4.710   0.638  15.687 -0.0515 -1.5577 -0.3223
  623MPD2     N 9287   0.041   0.611  16.132  0.1551 -0.2026  0.0287
  623MPD2    H5 9288   0.009   0.553  16.209 -1.2563  1.5549  0.7596
  623MPD2    N1 9289   4.393   0.417  15.931 -0.0983  0.2559 -0.2091
  623MPD2    H7 9290   4.334   0.436  15.851 -0.9291  1.1550  0.6125
  624TMC3    C1 9291   0.361   0.744  16.450 -0.3882 -0.6509 -0.2312
  624TMC3    C2 9292   0.282   0.707  16.554 -0.1560 -0.2991 -0.2466
  624TMC3    C3 9293   0.157   0.668  16.521 -0.0676 -0.1680  0.1322
  624TMC3    C4 9294   0.329   0.731  16.317  0.4366 -0.0590  0.2296
  624TMC3    C5 9295   0.201   0.686  16.290 -0.1891  1.2277  0.6439
  624TMC3    C6 9296   0.117   0.647  16.391 -0.3509 -0.5295 -0.2776
  624TMC3     C 9297   0.502   0.736  16.487  0.1329 -0.3956 -0.0281
  624TMC3     O 9298   0.537   0.671  16.584  0.0169 -0.8752  0.4410
  624TMC3     H 9299   0.312   0.714  16.658 -0.8045  1.7088 -0.1913
  624TMC3    H1 9300   0.393   0.737  16.231  0.0794 -0.4414 -0.0651
  624TMC3    H2 9301   0.015   0.617  16.373 -0.1315 -1.2675 -0.2930
  624TMC3    C7 9302   0.151   0.691  16.154 -0.2724  0.3713  0.4809
  624TMC3    C8 9303   0.058   0.623  16.625 -0.4488 -0.0562 -0.1536
  624TMC3    O1 9304   0.214   0.759  16.077 -0.3709  0.3053  0.3637
  624TMC3    O2 9305   4.728   0.536  16.583 -0.3462 -0.1672  0.0886
  625MPD2     C 9306   0.644   1.606   0.870  0.5888  0.1339  0.2368
  625MPD2    C1 9307   0.651   1.727   0.802  1.4147  0.3375 -0.0150
  625MPD2    C2 9308   0.775   1.792   0.783  0.2637 -0.5880  0.3480
  625MPD2    C3 9309   0.893   1.731   0.825  0.3220 -0.2803 -0.2769
  625MPD2    C4 9310   0.884   1.626   0.916 -0.1067 -0.6189  0.5559
  625MPD2    C5 9311   0.768   1.556   0.934 -0.1596  0.0754  0.2657
  625MPD2     H 9312   0.785   1.882   0.723 -1.4962  0.6971  2.0009
  625MPD2    H1 9313   0.977   1.583   0.951 -0.8571  0.0951  3.4655
  625MPD2    H2 9314   0.559   1.539   0.876  0.4462  0.2528 -0.4952
  625MPD2    H3 9315   0.778   1.461   0.985 -0.9486  0.5616  1.3314
  625MPD2     N 9316   1.009   1.791   0.782 -0.1233  0.3805 -0.2920
  625MPD2    H5 9317   0.992   1.878   0.733 -0.6782  0.6218  0.3236
  625MPD2    N1 9318   0.545   1.781   0.723  0.3864 -0.0141 -0.3427
  625MPD2    H7 9319   0.564   1.867   0.673  0.8216  0.6785  1.0146
  626TMC3    C1 9320   0.329   1.815   0.630  0.6348 -0.1963 -0.0294
  626TMC3    C2 9321   0.385   1.933   0.566 -0.1827 -0.4858 -0.1793
  626TMC3    C3 9322   0.295   1.997   0.488  0.2873  0.5487  0.0913
  626TMC3    C4 9323   0.205   1.767   0.597  0.5329 -0.6296  0.1486
  626TMC3    C5 9324   0.127   1.841   0.515  0.4579 -0.1520  0.3128
  626TMC3    C6 9325   0.166   1.962   0.460 -0.2468 -0.6151 -0.4012
  626TMC3     C 9326   0.413   1.733   0.722 -0.1432  0.5874  0.0050
  626TMC3     O 9327   0.359   1.638   0.783  0.0801  0.2593  0.5301
  626TMC3     H 9328   0.478   1.976   0.602 -0.1777 -0.9080  0.3031
  626TMC3    H1 9329   0.164   1.686   0.656  0.6322 -0.9136 -0.1747
  626TMC3    H2 9330   0.100   2.021   0.398  0.5388  0.6676 -0.0018
  626TMC3    C7 9331   4.723   1.798   0.501 -0.5841  0.1481 -0.1165
  626TMC3    C8 9332   0.331   2.140   0.462  0.2801 -0.0365  0.0493
  626TMC3    O1 9333   4.691   1.686   0.531  0.1968  0.5664 -0.0208
  626TMC3    O2 9334   0.430   2.190   0.522  0.1134 -0.4514 -0.2507
  627MPD2     C 9335   3.520   2.312  14.082 -0.2304 -0.7407 -0.3863
  627MPD2    C1 9336   3.564   2.246  14.198  0.7496  0.1295 -0.2953
  627MPD2    C2 9337   3.494   2.129  14.239 -0.3980  0.1750 -0.0861
  627MPD2    C3 9338   3.393   2.081  14.158 -0.8370 -0.1181 -0.5255
  627MPD2    C4 9339   3.347   2.151  14.047 -0.1365 -0.4407  0.2886
  627MPD2    C5 9340   3.410   2.265  14.011 -0.2206  0.3454  0.4329
  627MPD2     H 9341   3.534   2.082  14.328  0.3572  0.3666 -0.3212
  627MPD2    H1 9342   3.264   2.135  13.979  0.0412  3.0839 -0.7481
  627MPD2    H2 9343   3.572   2.400  14.044 -1.6762  0.3977  0.2430
  627MPD2    H3 9344   3.383   2.327  13.926 -0.7519 -0.2690  0.1531
  627MPD2     N 9345   3.321   1.966  14.201 -0.5373  0.0550 -0.1827
  627MPD2    H5 9346   3.346   1.934  14.294  1.4482  1.8389 -0.0923
  627MPD2    N1 9347   3.684   2.285  14.269 -0.5320 -0.7198  0.4705
  627MPD2    H7 9348   3.697   2.232  14.355 -0.1050  0.7542  1.3191
  628TMC3    C1 9349   3.855   2.428  14.360 -0.0630  0.8629 -0.0030
  628TMC3    C2 9350   3.930   2.343  14.437  0.1697 -0.4240  0.3672
  628TMC3    C3 9351   4.007   2.385  14.546  0.7160  0.4735 -0.6342
  628TMC3    C4 9352   3.878   2.565  14.375 -0.3247 -0.1134 -0.0694
  628TMC3    C5 9353   3.972   2.607  14.464  1.4495  0.2314  0.3978
  628TMC3    C6 9354   4.037   2.522  14.553 -0.6377  0.1092 -0.0751
  628TMC3     C 9355   3.764   2.396  14.248 -0.4150 -0.5980  0.0532
  628TMC3     O 9356   3.776   2.466  14.149 -0.7817  0.1566 -0.8713
  628TMC3     H 9357   3.932   2.237  14.414 -0.7907  0.2079 -2.6223
  628TMC3    H1 9358   3.828   2.636  14.310 -2.3837  1.0814  2.8133
  628TMC3    H2 9359   4.086   2.561  14.641  0.7331 -2.0326  0.0957
  628TMC3    C7 9360   3.993   2.744  14.500 -0.2004 -0.2410 -0.3520
  628TMC3    C8 9361   4.130   2.313  14.538 -0.3831  0.1340 -0.8495
  628TMC3    O1 9362   4.108   2.774  14.527  0.5229  0.8390 -0.3805
  628TMC3    O2 9363   4.224   2.369  14.484  0.3647  0.2271 -0.7228
  629MPD2     C 9364   1.910   0.537  16.695  0.0721 -0.2742  0.0660
  629MPD2    C1 9365   1.941   0.632  16.606  0.0125  0.4986  0.3402
  629MPD2    C2 9366   1.846   0.687  16.526 -0.1559 -0.6377  0.4242
  629MPD2    C3 9367   1.712   0.651  16.543  0.1059  0.3621 -0.6279
  629MPD2    C4 9368   1.680   0.550  16.636  0.7442  0.0259 -0.1311
  629MPD2    C5 9369   1.779   0.493  16.708  0.0418 -0.1307 -0.5666
  629MPD2     H 9370   1.872   0.764  16.454  0.0992 -0.7166  0.4333
  629MPD2    H1 9371   1.582   0.521  16.672  0.6130 -2.5036 -2.5496
  629MPD2    H2 9372   1.994   0.487  16.742  0.2231 -0.0899 -0.0061
  629MPD2    H3 9373   1.764   0.406  16.771 -0.2196  0.9491  0.8865
  629MPD2     N 9374   1.612   0.702  16.452 -0.1482  0.4248  0.7759
  629MPD2    H5 9375   1.636   0.777  16.389 -0.6303 -0.9794 -1.0764
  629MPD2    N1 9376   2.081   0.652  16.596 -0.2417  0.5384  0.6640
  629MPD2    H7 9377   2.144   0.593  16.650  0.6247 -0.5854 -1.5436
  630TMC3    C1 9378   2.285   0.762  16.559 -0.3434 -0.0128 -0.2681
  630TMC3    C2 9379   2.362   0.819  16.458  0.2026  0.5360 -0.1185
  630TMC3    C3 9380   2.496   0.842  16.477  0.1010 -0.0060 -0.4654
  630TMC3    C4 9381   2.342   0.720  16.679  0.0405 -0.2221  0.1539
  630TMC3    C5 9382   2.477   0.737  16.692 -0.0471  0.1759  0.0281
  630TMC3    C6 9383   2.554   0.788  16.588 -0.0254 -0.4261 -0.6531
  630TMC3     C 9384   2.142   0.754  16.529  0.1671 -0.0100  0.9830
  630TMC3     O 9385   2.094   0.838  16.453 -0.2422  0.1385 -0.6000
  630TMC3     H 9386   2.308   0.863  16.375  1.2609  0.3150 -0.9194
  630TMC3    H1 9387   2.293   0.698  16.773  0.7374 -2.6435 -0.0659
  630TMC3    H2 9388   2.662   0.800  16.597 -0.1298  0.2937 -0.3053
  630TMC3    C7 9389   2.531   0.785  16.820 -0.4780 -0.0627  0.6066
  630TMC3    C8 9390   2.545   0.969  16.446 -0.1572  0.0681  0.3431
  630TMC3    O1 9391   2.500   0.725  16.920 -0.0908 -0.4391 -0.6626
  630TMC3    O2 9392   2.615   1.021  16.534  1.0716 -0.1202 -0.0136
  631MPD2     C 9393   0.054   0.617  15.194  0.5503  0.3216  0.8881
  631MPD2    C1 9394   0.125   0.735  15.162 -0.0983 -0.3531 -0.1372
  631MPD2    C2 9395   0.264   0.744  15.183 -0.1717 -0.1966  0.2270
  631MPD2    C3 9396   0.336   0.641  15.244 -0.4220 -0.3856  0.7677
  631MPD2    C4 9397   0.263   0.529  15.284 -0.7379 -0.6043  0.1809
  631MPD2    C5 9398   0.132   0.522  15.252 -0.4068 -0.0086  0.3654
  631MPD2     H 9399   0.311   0.832  15.141 -0.5861 -0.5199 -0.8944
  631MPD2    H1 9400   0.315   0.446  15.332 -3.7796 -1.4267  2.0240
  631MPD2    H2 9401   4.690   0.594  15.165 -0.0119  2.5629  1.0665
  631MPD2    H3 9402   0.090   0.424  15.271 -0.8252 -0.0266 -0.6422
  631MPD2     N 9403   0.478   0.640  15.260 -0.2063  0.6699  0.1199
  631MPD2    H5 9404   0.522   0.557  15.300 -1.9396  0.3767  1.4132
  631MPD2    N1 9405   0.043   0.842  15.108 -0.1747  0.2723 -0.1917
  631MPD2    H7 9406   4.688   0.820  15.074 -0.1909  0.1049 -0.0352
  632TMC3    C1 9407   4.725   1.049  15.019  0.4691 -0.0795  0.1959
  632TMC3    C2 9408   4.593   1.048  15.049 -0.3136  0.2160  0.0687
  632TMC3    C3 9409   4.515   1.154  15.015 -0.4186 -0.6582  0.0016
  632TMC3    C4 9410   0.048   1.162  14.964 -0.6310 -0.1382  0.3878
  632TMC3    C5 9411   4.704   1.267  14.945  0.2469 -0.4600  0.2659
  632TMC3    C6 9412   4.576   1.265  14.962  0.0003 -0.1525  0.1858
  632TMC3     C 9413   0.080   0.975  15.094 -0.7400 -0.5416 -0.8954
  632TMC3     O 9414   0.186   1.029  15.119 -0.0474  0.4105 -0.6220
  632TMC3     H 9415   4.551   0.958  15.094  0.0253 -0.5599 -1.1720
  632TMC3    H1 9416   0.155   1.161  14.945 -0.3501 -0.1476  1.9805
  632TMC3    H2 9417   4.517   1.351  14.934 -0.3347 -0.8804 -1.3064
  632TMC3    C7 9418   0.029   1.392  14.916 -0.1336 -0.1447 -0.5689
  632TMC3    C8 9419   4.441   1.189  15.128  0.2334 -0.3743 -0.1267
  632TMC3    O1 9420   4.694   1.485  14.870  0.4983 -0.2508 -0.6139
  632TMC3    O2 9421   4.482   1.148  15.234 -0.5392  0.2579  0.3676
  633MPD2     C 9422   4.481   3.803  17.241  0.2026  0.4405 -0.7069
  633MPD2    C1 9423   4.470   3.752  17.114 -0.7530 -0.4614  0.2131
  633MPD2    C2 9424   4.428   3.620  17.093 -0.8301 -0.1886  0.5973
  633MPD2    C3 9425   4.442   3.536  17.202 -0.2326 -0.2053 -0.5581
  633MPD2    C4 9426   4.468   3.585  17.325 -0.2760  0.0831 -0.4318
  633MPD2    C5 9427   4.474   3.718  17.346 -0.0825  0.2079  0.3629
  633MPD2     H 9428   4.399   3.585  16.995  0.2999  0.2812  0.0886
  633MPD2    H1 9429   4.483   3.520  17.411 -1.4245  1.4723  0.8440
  633MPD2    H2 9430   4.484   3.908  17.267 -1.3136 -0.4460  3.1798
  633MPD2    H3 9431   4.482   3.761  17.445 -1.5520  3.3399 -0.8929
  633MPD2     N 9432   4.437   3.397  17.192  0.0943 -0.0772 -0.1887
  633MPD2    H5 9433   4.489   3.346  17.263 -1.5654 -0.8564  0.4767
  633MPD2    N1 9434   4.505   3.829  16.997  0.1257  0.1988 -0.3600
  633MPD2    H7 9435   4.488   3.782  16.909  0.6687  0.9191 -0.8355
  634TMC3    C1 9436   4.628   4.003  16.883 -0.1688 -0.3683 -0.0520
  634TMC3    C2 9437   4.690   3.909  16.810  0.0374 -0.1731 -0.1580
  634TMC3    C3 9438   0.029   3.960  16.707  0.0712 -0.1693  0.0183
  634TMC3    C4 9439   4.632   4.142  16.857  0.4371 -0.0018 -1.0091
  634TMC3    C5 9440   4.712   4.186  16.755  0.5707  0.0038  0.3727
  634TMC3    C6 9441   0.044   4.092  16.678 -0.1107  0.1899  0.6158
  634TMC3     C 9442   4.561   3.961  17.003  0.6124 -0.1210 -0.1759
  634TMC3     O 9443   4.564   4.038  17.098  0.0099  0.0757  0.4927
  634TMC3     H 9444   4.708   3.805  16.834 -0.7297 -0.4896 -0.9765
  634TMC3    H1 9445   4.574   4.208  16.920 -2.7052 -0.5864 -3.2934
  634TMC3    H2 9446   0.118   4.128  16.608  0.3227 -0.4635  0.7413
  634TMC3    C7 9447   4.700   4.314  16.697 -0.4992 -0.2741  0.4862
  634TMC3    C8 9448   0.118   3.867  16.638 -0.4786 -0.8510 -0.0884
  634TMC3    O1 9449   0.011   4.322  16.587  0.2687 -0.2031  0.2187
  634TMC3    O2 9450   0.148   3.758  16.691  0.3096  0.4697  0.2356
  635TMC3    C1 9451   0.518   4.542  17.714 -0.2888  0.1155 -0.3232
  635TMC3    C2 9452   0.458   4.491  17.602  0.3206  0.6283  0.2755
  635TMC3    C3 9453   0.407   4.362  17.610 -0.1301  0.4426 -0.1352
  635TMC3    C4 9454   0.532   4.466   0.072 -0.4582 -0.4184 -0.3692
  635TMC3    C5 9455   0.494   4.338   0.071  0.0833  0.2771  0.0693
  635TMC3    C6 9456   0.435   4.282  17.716 -0.6973  0.2673 -0.0530
  635TMC3     C 9457   0.581   4.671  17.717  0.2523  0.4345 -0.4249
  635TMC3     O 9458   0.618   4.711   0.075 -0.7533 -0.3544 -0.2730
  635TMC3     H 9459   0.430   4.553  17.517  1.0961  0.1087 -0.3610
  635TMC3    H1 9460   0.564   4.511   0.166 -0.6521  0.2674 -0.6280
  635TMC3    H2 9461   0.397   4.180  17.714  0.4814 -0.1957  1.7617
  635TMC3    C7 9462   0.536   4.242   0.165 -0.7121  0.6115 -0.5149
  635TMC3    C8 9463   0.350   4.299  17.491  0.5952  0.7486 -0.4617
  635TMC3    O1 9464   0.543   4.127   0.124  0.3224 -0.7517  0.0744
  635TMC3    O2 9465   0.364   4.361  17.387 -0.0804 -0.5978  0.7318
  636MPD2     C 9466   1.409   4.056  16.061  0.2997 -0.0697  0.3560
  636MPD2    C1 9467   1.355   4.053  16.195 -0.3183  0.0903  0.1466
  636MPD2    C2 9468   1.356   3.934  16.268  0.1693 -0.3078  0.3527
  636MPD2    C3 9469   1.403   3.816  16.216 -0.1293 -0.3038 -0.0872
  636MPD2    C4 9470   1.457   3.818  16.089  0.1697 -0.2258  0.6850
  636MPD2    C5 9471   1.446   3.930  16.009  1.0473  0.8597  0.2506
  636MPD2     H 9472   1.313   3.924  16.367  1.4796 -0.6962  0.8882
  636MPD2    H1 9473   1.495   3.734  16.032 -2.5154 -1.2839  0.4791
  636MPD2    H2 9474   1.422   4.145  16.000 -2.0521 -0.8510 -1.2995
  636MPD2    H3 9475   1.465   3.917  15.903 -2.0128 -0.6255 -0.1273
  636MPD2     N 9476   1.397   3.707  16.300  0.6645 -0.2907 -0.0438
  636MPD2    H5 9477   1.366   3.725  16.395 -0.4533 -0.0872 -0.4548
  636MPD2    N1 9478   1.309   4.169  16.255  0.2413 -1.0491 -0.2239
  636MPD2    H7 9479   1.289   4.150  16.353 -1.6115  1.7825 -0.0537
  637TMC3    C1 9480   1.442   3.478  16.370  0.1863 -0.1572  0.4662
  637TMC3    C2 9481   1.466   3.513  16.499 -0.6715  0.4123 -1.0622
  637TMC3    C3 9482   1.527   3.430  16.591 -0.3633 -0.1625  0.1701
  637TMC3    C4 9483   1.479   3.349  16.329  0.8446 -0.0400  0.0459
  637TMC3    C5 9484   1.547   3.267  16.414 -0.0143  0.4834 -0.1949
  637TMC3    C6 9485   1.570   3.307  16.544  0.1525  0.4225 -0.3461
  637TMC3     C 9486   1.427   3.576  16.263 -0.0430  0.1692  0.0903
  637TMC3     O 9487   1.436   3.531  16.150  0.2504 -0.3413 -0.4500
  637TMC3     H 9488   1.428   3.612  16.520  1.5192  1.5730 -2.5591
  637TMC3    H1 9489   1.466   3.315  16.227  1.3102  0.5262 -0.2031
  637TMC3    H2 9490   1.593   3.230  16.617 -1.4242  0.4032  0.1427
  637TMC3    C7 9491   1.669   3.206  16.375  0.3508 -1.0133  0.3790
  637TMC3    C8 9492   1.634   3.504  16.639  0.5763  0.9198  0.7124
  637TMC3    O1 9493   1.766   3.215  16.452 -0.6977 -0.3867 -0.0039
  637TMC3    O2 9494   1.608   3.605  16.699  0.6025  0.2672 -0.7325
  638MPD2     C 9495   1.382   2.977  15.007  0.2093  0.5884  0.7040
  638MPD2    C1 9496   1.348   2.859  14.936  0.1849  0.0988  0.2801
  638MPD2    C2 9497   1.304   2.750  15.005  0.7149 -0.5895  0.3171
  638MPD2    C3 9498   1.273   2.756  15.139 -0.8124  0.6490  0.2561
  638MPD2    C4 9499   1.317   2.867  15.212 -0.3725  0.4201  0.1476
  638MPD2    C5 9500   1.369   2.976  15.144 -0.9532 -0.1004 -0.1423
  638MPD2     H 9501   1.271   2.662  14.951  0.5292 -0.3439  0.0286
  638MPD2    H1 9502   1.311   2.872  15.320 -0.0961 -1.9805  0.2568
  638MPD2    H2 9503   1.414   3.072  14.965  0.4750  0.1511 -0.0919
  638MPD2    H3 9504   1.390   3.068  15.199  0.4932  0.0870 -1.0328
  638MPD2     N 9505   1.217   2.648  15.206  0.6252 -0.3743  0.0515
  638MPD2    H5 9506   1.203   2.665  15.305 -3.2054  1.8438 -0.8860
  638MPD2    N1 9507   1.360   2.867  14.795 -0.4436  0.5377  0.3262
  638MPD2    H7 9508   1.372   2.958  14.752 -3.0195  0.6054 -0.2930
  639TMC3    C1 9509   1.135   2.426  15.224 -0.2625  0.0533  0.0547
  639TMC3    C2 9510   1.050   2.343  15.159 -0.3256 -0.0233 -0.1244
  639TMC3    C3 9511   1.086   2.217  15.126  1.5196 -0.1978 -0.0920
  639TMC3    C4 9512   1.256   2.384  15.269 -0.0638  0.1435 -0.4415
  639TMC3    C5 9513   1.296   2.265  15.228  0.1207 -0.8823 -0.4224
  639TMC3    C6 9514   1.223   2.183  15.142  0.1961  0.4759 -0.5460
  639TMC3     C 9515   1.153   2.543  15.145  0.2798  0.5471  0.2286
  639TMC3     O 9516   1.099   2.542  15.031 -0.2305  0.2224 -0.1002
  639TMC3     H 9517   0.950   2.367  15.125 -0.3976 -3.3391 -2.2396
  639TMC3    H1 9518   1.314   2.442  15.340 -1.4730  0.5763  0.3623
  639TMC3    H2 9519   1.257   2.091  15.096 -2.8210 -1.5293  1.2744
  639TMC3    C7 9520   1.436   2.249  15.242 -0.2648  0.7886 -0.0025
  639TMC3    C8 9521   1.005   2.146  15.027 -0.6626 -0.0284 -0.4123
  639TMC3    O1 9522   1.487   2.254  15.349  0.1213  0.4912 -0.4561
  639TMC3    O2 9523   1.074   2.093  14.937 -0.4218 -0.1979  0.0413
  640MPD2     C 9524   1.464   1.513   9.825  0.3673  0.2211  0.0037
  640MPD2    C1 9525   1.360   1.444   9.880 -0.0956 -0.4201 -0.8115
  640MPD2    C2 9526   1.253   1.517   9.927 -0.0735 -0.0508  0.9038
  640MPD2    C3 9527   1.251   1.653   9.922  1.0535 -0.2290  0.0834
  640MPD2    C4 9528   1.355   1.724   9.879 -0.5266 -0.1515 -0.2792
  640MPD2    C5 9529   1.462   1.655   9.833 -0.2849 -0.1655  0.0592
  640MPD2     H 9530   1.171   1.462   9.971  0.1936 -1.7903 -0.7720
  640MPD2    H1 9531   1.353   1.832   9.874  0.1171 -0.0423  1.8924
  640MPD2    H2 9532   1.552   1.474   9.775  0.7896  0.2318  0.7390
  640MPD2    H3 9533   1.550   1.714   9.806  0.0028 -0.0616  1.2554
  640MPD2     N 9534   1.157   1.733   9.993  0.7426 -0.1721  0.4318
  640MPD2    H5 9535   1.181   1.829  10.013  0.2575  0.0311  0.0443
  640MPD2    N1 9536   1.369   1.299   9.886  0.0340  0.0700  0.5138
  640MPD2    H7 9537   1.452   1.249   9.856  1.2920  2.2504  0.4033
  641TMC3    C1 9538   1.312   1.082   9.949  0.1280  0.8279  0.0743
  641TMC3    C2 9539   1.414   1.035   9.870 -0.4786 -0.4949 -0.6467
  641TMC3    C3 9540   1.432   0.892   9.884 -0.4187 -0.3880  0.1021
  641TMC3    C4 9541   1.246   1.006  10.039 -0.1751 -0.2979  0.1660
  641TMC3    C5 9542   1.270   0.869  10.042  0.4374  0.3156  0.2035
  641TMC3    C6 9543   1.367   0.810   9.969 -0.1193  0.1136 -0.0694
  641TMC3     C 9544   1.271   1.218   9.939  0.1557  0.0086 -0.9408
  641TMC3     O 9545   1.154   1.253   9.967  0.2096 -0.5839  0.0309
  641TMC3     H 9546   1.475   1.102   9.810 -0.4581  1.0460  1.0918
  641TMC3    H1 9547   1.191   1.052  10.120  0.2926  1.5293 -0.5442
  641TMC3    H2 9548   1.380   0.703   9.977 -0.1133  0.0873 -0.4516
  641TMC3    C7 9549   1.199   0.778  10.131  0.0355  0.0493 -0.3838
  641TMC3    C8 9550   1.537   0.831   9.797  0.2581 -0.0527 -0.1174
  641TMC3    O1 9551   1.243   0.671  10.160  0.9897  0.6332 -0.7211
  641TMC3    O2 9552   1.562   0.883   9.689 -0.0968  0.4120 -0.4217
  642TMC3    C1 9553   3.086   2.452  12.489  0.0083  0.5951  0.1704
  642TMC3    C2 9554   3.178   2.500  12.398 -0.2471 -1.1320  1.1035
  642TMC3    C3 9555   3.195   2.433  12.282 -0.3639 -0.2896  0.6168
  642TMC3    C4 9556   3.018   2.341  12.475 -0.1720 -0.6381 -0.0235
  642TMC3    C5 9557   3.026   2.282  12.353  0.2711  0.6447 -1.2007
  642TMC3    C6 9558   3.111   2.330  12.254  0.0414  0.3147  0.8722
  642TMC3     C 9559   3.054   2.528  12.603 -0.5784 -0.9335 -0.4870
  642TMC3     O 9560   3.143   2.590  12.661 -0.4743 -0.0501  0.4203
  642TMC3     H 9561   3.235   2.585  12.433 -0.9982 -0.5192  0.8353
  642TMC3    H1 9562   2.945   2.308  12.548  0.8336 -0.4037  1.0682
  642TMC3    H2 9563   3.116   2.286  12.154 -0.6372 -0.8295  1.3376
  642TMC3    C7 9564   2.943   2.169  12.334  0.1709  0.1997  0.2018
  642TMC3    C8 9565   3.254   2.506  12.173 -0.8417 -0.1681 -0.2617
  642TMC3    O1 9566   2.918   2.134  12.220 -0.6726 -0.4305 -0.3865
  642TMC3    O2 9567   3.263   2.455  12.057 -1.0928 -0.4235  0.2613
  643TMC3    C1 9568   2.202   1.431   0.013  0.6184  0.0938  0.0460
  643TMC3    C2 9569   2.095   1.459  17.674  0.4928 -0.1315  0.3348
  643TMC3    C3 9570   2.096   1.395  17.553  1.0498  0.1550 -0.0616
  643TMC3    C4 9571   2.307   1.340  17.731 -0.1554  0.3548 -0.4177
  643TMC3    C5 9572   2.301   1.286  17.604 -0.2502 -0.2048 -0.0524
  643TMC3    C6 9573   2.193   1.304  17.522 -0.3817  0.1967  0.2687
  643TMC3     C 9574   2.237   1.532   0.115  0.3937 -0.6017  0.6698
  643TMC3     O 9575   2.211   1.644   0.080  0.0933  0.1219  0.6574
  643TMC3     H 9576   2.015   1.521  17.711 -0.9638 -0.8232 -1.6836
  643TMC3    H1 9577   2.404   1.339   0.029 -0.6788 -1.3005  0.5939
  643TMC3    H2 9578   2.186   1.248  17.430  0.8232  1.9747 -0.9088
  643TMC3    C7 9579   2.427   1.290  17.528 -0.3865 -0.5832  0.3807
  643TMC3    C8 9580   2.119   1.496  17.453 -0.3074  0.6517  0.2360
  643TMC3    O1 9581   2.522   1.229  17.576 -0.0373 -0.5133 -0.2010
  643TMC3    O2 9582   2.168   1.457  17.345 -0.4889  0.5438 -0.3385
  644MPD2     C 9583   1.385   1.414   9.411  0.6335  0.0249 -0.6715
  644MPD2    C1 9584   1.284   1.331   9.468  0.4398  0.2638 -0.5629
  644MPD2    C2 9585   1.163   1.391   9.508 -0.2241 -0.1016  0.3003
  644MPD2    C3 9586   1.154   1.529   9.504  0.2241 -0.0018  0.3802
  644MPD2    C4 9587   1.253   1.608   9.455 -0.9518 -0.2201 -0.0950
  644MPD2    C5 9588   1.370   1.555   9.408 -0.2263  0.8324  0.2515
  644MPD2     H 9589   1.083   1.336   9.557 -1.1830  1.4488  0.4597
  644MPD2    H1 9590   1.233   1.715   9.459  0.6195 -0.0147  1.9556
  644MPD2    H2 9591   1.477   1.374   9.371  0.9800  2.7491 -2.6365
  644MPD2    H3 9592   1.452   1.621   9.380  0.0769  0.4068  0.1363
  644MPD2     N 9593   1.034   1.573   9.558 -1.0122 -0.0314  0.0106
  644MPD2    H5 9594   0.972   1.496   9.578  0.5061 -1.2027  0.2080
  644MPD2    N1 9595   1.303   1.195   9.472 -0.5833  0.1121 -0.0774
  644MPD2    H7 9596   1.392   1.171   9.430 -2.6294 -4.0670 -1.9983
  645TMC3    C1 9597   0.869   1.718   9.641 -0.5879 -0.3526  0.1465
  645TMC3    C2 9598   0.831   1.618   9.718  0.5632  0.3984 -0.1903
  645TMC3    C3 9599   0.710   1.638   9.777 -0.1456 -0.1007  0.1064
  645TMC3    C4 9600   0.805   1.835   9.612 -0.6102 -0.6060  0.5709
  645TMC3    C5 9601   0.675   1.846   9.663  0.2453 -0.0141  0.2217
  645TMC3    C6 9602   0.637   1.755   9.756 -0.3786  0.9285 -0.1539
  645TMC3     C 9603   1.000   1.704   9.577 -0.2214  0.6933 -0.1553
  645TMC3     O 9604   1.059   1.805   9.554 -0.3048 -0.3410 -0.3156
  645TMC3     H 9605   0.883   1.524   9.736 -1.1396 -0.4715  0.2280
  645TMC3    H1 9606   0.852   1.902   9.541  0.9088 -1.8349  0.4153
  645TMC3    H2 9607   0.542   1.756   9.808 -0.0313  2.5082  0.4504
  645TMC3    C7 9608   0.597   1.968   9.642  0.2295 -0.4643 -0.2234
  645TMC3    C8 9609   0.646   1.537   9.871  0.4000 -0.2254 -0.4334
  645TMC3    O1 9610   0.664   2.061   9.599  0.0587 -0.2019  0.2269
  645TMC3    O2 9611   0.524   1.531   9.874 -0.1823  0.0917 -0.1104
  646MPD2     C 9612   1.376   1.527  14.437  0.3005  0.2127  0.8553
  646MPD2    C1 9613   1.271   1.492  14.525  0.3900  0.5582  0.7761
  646MPD2    C2 9614   1.149   1.553  14.511  0.4959  0.2115  0.2159
  646MPD2    C3 9615   1.121   1.633  14.396  0.8190 -0.3668 -0.5129
  646MPD2    C4 9616   1.220   1.653  14.304  0.4333  0.3801 -0.2542
  646MPD2    C5 9617   1.350   1.605  14.329  0.0639 -0.5023 -0.8418
  646MPD2     H 9618   1.067   1.542  14.582 -0.9795 -1.1107 -1.6807
  646MPD2    H1 9619   1.200   1.717  14.218  0.4447  0.3263 -0.2972
  646MPD2    H2 9620   1.474   1.483  14.450  0.2415 -0.2143 -0.0912
  646MPD2    H3 9621   1.429   1.626  14.258 -1.5104  0.6352 -2.2741
  646MPD2     N 9622   0.995   1.691  14.386  0.5571 -0.1749 -0.2002
  646MPD2    H5 9623   0.931   1.680  14.464  0.6874  0.4907  0.0044
  646MPD2    N1 9624   1.306   1.417  14.637 -0.2463  0.2237 -0.2454
  646MPD2    H7 9625   1.400   1.378  14.639 -0.9542 -1.4503  0.5070
  647TMC3    C1 9626   1.292   1.338  14.862  0.6576  0.1907 -0.5809
  647TMC3    C2 9627   1.209   1.310  14.965 -0.2239 -0.4627 -0.7770
  647TMC3    C3 9628   1.266   1.234  15.071  0.3788  0.6181  0.0465
  647TMC3    C4 9629   1.426   1.304  14.863 -0.5043  0.2452  0.3110
  647TMC3    C5 9630   1.470   1.228  14.964  0.1790 -0.1544 -0.6420
  647TMC3    C6 9631   1.393   1.197  15.071  0.1249  0.4957  0.2248
  647TMC3     C 9632   1.222   1.388  14.742 -0.0949 -0.1492 -0.4218
  647TMC3     O 9633   1.101   1.414  14.760  0.2185  0.0325 -0.7649
  647TMC3     H 9634   1.105   1.339  14.978 -0.1038  0.3797 -1.7526
  647TMC3    H1 9635   1.474   1.304  14.766  2.3498  1.1885  1.7161
  647TMC3    H2 9636   1.444   1.160  15.160  0.0209 -0.9041 -0.2961
  647TMC3    C7 9637   1.609   1.175  14.962  0.1170 -0.2552 -0.7936
  647TMC3    C8 9638   1.204   1.242  15.201  0.0917  0.1939  0.5403
  647TMC3    O1 9639   1.646   1.143  15.073  0.4412 -0.0210 -0.2933
  647TMC3    O2 9640   1.129   1.335  15.227 -0.6546  0.1633 -0.1463
  648TMC3    C1 9641   0.566   4.028  16.100 -0.3035  0.6749 -0.1374
  648TMC3    C2 9642   0.664   3.936  16.077  0.1419  0.4586 -0.1799
  648TMC3    C3 9643   0.647   3.858  15.969 -0.0961 -0.1455  0.6605
  648TMC3    C4 9644   0.475   4.064  16.006  0.2484  0.4940  0.1812
  648TMC3    C5 9645   0.471   3.989  15.887  0.2937 -0.3639  0.9749
  648TMC3    C6 9646   0.563   3.889  15.870 -0.3317  0.2808 -0.4299
  648TMC3     C 9647   0.573   4.092  16.229 -0.1891  0.2254  0.3378
  648TMC3     O 9648   0.566   4.215  16.238  0.3701  0.3245 -0.0093
  648TMC3     H 9649   0.744   3.922  16.148  0.2914 -0.2076 -0.4778
  648TMC3    H1 9650   0.403   4.139  16.038 -1.1927 -0.8612  0.1161
  648TMC3    H2 9651   0.556   3.825  15.783  1.4046 -0.6018  0.0924
  648TMC3    C7 9652   0.364   4.011  15.793 -0.2191  0.2268  0.3838
  648TMC3    C8 9653   0.722   3.732  15.953 -0.2982  0.3840  0.3148
  648TMC3    O1 9654   0.311   3.916  15.738 -0.1589 -0.1779 -0.3203
  648TMC3    O2 9655   0.829   3.728  16.011  0.3089  0.4677  0.3540
  649TMC3    C1 9656   4.179   0.249  12.943  0.2445 -1.0885 -0.5145
  649TMC3    C2 9657   4.299   0.219  12.867 -0.5734  1.0330 -0.2576
  649TMC3    C3 9658   4.404   0.183  12.944  0.0472  0.5823 -0.1110
  649TMC3    C4 9659   4.163   0.227  13.075 -0.0965  0.7410  0.5676
  649TMC3    C5 9660   4.278   0.175  13.136 -0.3854 -0.3859  0.5034
  649TMC3    C6 9661   4.394   0.156  13.075  0.4064  0.5439  0.6054
  649TMC3     C 9662   4.053   0.275  12.870 -0.1263  0.1780 -0.0955
  649TMC3     O 9663   3.956   0.285  12.940  0.2864  0.4033 -0.2093
  649TMC3     H 9664   4.308   0.234  12.760 -0.3254  0.2540 -0.3476
  649TMC3    H1 9665   4.085   0.254  13.145  1.0105 -1.9542  2.8690
  649TMC3    H2 9666   4.485   0.133  13.130 -1.2939 -3.1699  1.9066
  649TMC3    C7 9667   4.262   0.153  13.280 -0.1746  0.0157 -0.3421
  649TMC3    C8 9668   4.529   0.152  12.889 -0.0230  0.0879  0.2526
  649TMC3    O1 9669   4.196   0.227  13.346  0.3787 -0.7761 -0.3042
  649TMC3    O2 9670   4.605   0.079  12.949  0.1064  0.0034 -0.4209
  650TMC3    C1 9671   2.420   1.714  13.242  0.7292 -1.0046 -0.6041
  650TMC3    C2 9672   2.412   1.846  13.276 -0.5765  0.0829 -0.3554
  650TMC3    C3 9673   2.294   1.907  13.250 -0.6056  0.1248  0.7241
  650TMC3    C4 9674   2.328   1.658  13.154 -0.0946  0.0331 -0.0655
  650TMC3    C5 9675   2.220   1.733  13.109 -0.6484  0.2681 -0.0393
  650TMC3    C6 9676   2.201   1.862  13.157 -0.0964 -0.3786  0.0361
  650TMC3     C 9677   2.537   1.639  13.287 -0.4888 -0.0853  0.2186
  650TMC3     O 9678   2.616   1.705  13.357  0.1816  0.0399 -0.5516
  650TMC3     H 9679   2.475   1.889  13.352 -0.4766 -0.0416 -0.3683
  650TMC3    H1 9680   2.356   1.565  13.107 -0.3595 -0.5294  0.8993
  650TMC3    H2 9681   2.127   1.931  13.118 -0.2873 -0.9734 -0.6595
  650TMC3    C7 9682   2.171   1.690  12.979  0.4333 -0.2550 -0.6620
  650TMC3    C8 9683   2.284   2.049  13.283 -0.0226  0.4018  0.7532
  650TMC3    O1 9684   2.199   1.580  12.939  0.1572 -0.0959 -0.6749
  650TMC3    O2 9685   2.384   2.120  13.276 -0.8306 -0.6811  0.2090
  651MPD2     C 9686   0.639   3.113  10.638 -0.3632  0.0077 -0.2631
  651MPD2    C1 9687   0.619   3.227  10.574  0.3607 -0.3150  0.3347
  651MPD2    C2 9688   0.708   3.331  10.591 -0.1869  0.2673 -0.2318
  651MPD2    C3 9689   0.806   3.331  10.687 -0.2276  0.0560 -0.4801
  651MPD2    C4 9690   0.816   3.211  10.754 -0.1561 -0.3778  0.2014
  651MPD2    C5 9691   0.735   3.105  10.734 -0.2645  0.9083 -0.3592
  651MPD2     H 9692   0.697   3.419  10.529  0.6610  1.4381  1.2954
  651MPD2    H1 9693   0.898   3.200  10.824 -1.1290 -1.0304  1.2359
  651MPD2    H2 9694   0.575   3.026  10.626 -0.6753  0.3096 -0.8066
  651MPD2    H3 9695   0.750   3.009  10.782  1.0548  1.1363 -0.3132
  651MPD2     N 9696   0.879   3.447  10.724  0.4733 -0.0446  0.0538
  651MPD2    H5 9697   0.863   3.528  10.666 -2.5675  1.3473  2.8402
  651MPD2    N1 9698   0.520   3.260  10.484 -0.4022  0.4667  0.4357
  651MPD2    H7 9699   0.493   3.357  10.481  0.7125  0.8133  1.6660
  652TMC3    C1 9700   1.236   3.685  10.864 -0.3597 -0.2201 -0.4883
  652TMC3    C2 9701   1.155   3.580  10.883 -0.8349  1.0879  0.4787
  652TMC3    C3 9702   1.034   3.583  10.824  0.5337  0.0362 -0.6855
  652TMC3    C4 9703   1.197   3.796  10.795  0.0550 -0.2479  0.0024
  652TMC3    C5 9704   1.066   3.797  10.737  0.4457 -0.1226  0.7554
  652TMC3    C6 9705   0.990   3.684  10.747 -0.5213 -0.0726  0.0395
  652TMC3     C 9706   1.375   3.666  10.887  0.5911 -0.5786 -0.2434
  652TMC3     O 9707   1.409   3.587  10.978  0.0356  0.1919 -0.0331
  652TMC3     H 9708   1.193   3.494  10.937 -0.3829  0.2708 -1.1400
  652TMC3    H1 9709   1.258   3.881  10.764  0.5531 -0.9118 -0.8435
  652TMC3    H2 9710   0.887   3.695  10.717 -1.3928 -1.8837  2.3579
  652TMC3    C7 9711   1.031   3.909  10.651 -0.8832 -0.0360  0.3189
  652TMC3    C8 9712   0.968   3.453  10.828 -0.1514 -0.5342 -0.3603
  652TMC3    O1 9713   0.940   3.887  10.570  0.3337  0.0434 -0.9964
  652TMC3    O2 9714   1.013   3.371  10.905  0.4574 -0.4999  0.7091
  653MPD2     C 9715   0.038   3.955   0.054  0.0847 -0.4330  0.1131
  653MPD2    C1 9716   4.663   4.030   0.069 -0.0969 -0.1083  0.1723
  653MPD2    C2 9717   4.541   3.964   0.049  0.4814  0.4903  0.2638
  653MPD2    C3 9718   4.534   3.830   0.008 -0.0431 -0.0634 -0.1637
  653MPD2    C4 9719   4.649   3.757   0.017  0.6373 -0.8415  1.0418
  653MPD2    C5 9720   0.031   3.823   0.032 -0.2363  0.1151  0.4940
  653MPD2     H 9721   4.454   4.028   0.051 -0.7263 -1.1222 -0.6596
  653MPD2    H1 9722   4.665   3.650   0.007  2.2169 -0.5765  0.6780
  653MPD2    H2 9723   0.136   4.002   0.055 -0.0347 -0.1842  0.1662
  653MPD2    H3 9724   0.125   3.769   0.021 -0.1930  0.4990 -0.9181
  653MPD2     N 9725   4.412   3.767  17.730 -0.5163 -0.4654 -0.2186
  653MPD2    H5 9726   4.327   3.822  17.735 -0.8983 -1.1389  0.6095
  653MPD2    N1 9727   4.664   4.172   0.092  0.3531  0.3318  0.0455
  653MPD2    H7 9728   4.577   4.221   0.111 -0.1787 -0.4735 -0.3252
  654TMC3    C1 9729   4.262   3.608  17.638  0.4109  0.3713  0.1127
  654TMC3    C2 9730   4.205   3.708  17.567 -0.4182  0.1593  0.0184
  654TMC3    C3 9731   4.116   3.676  17.464  0.2685 -0.4654 -0.1868
  654TMC3    C4 9732   4.226   3.477  17.607  0.2055  0.2024 -0.4367
  654TMC3    C5 9733   4.150   3.446  17.496  0.0150 -0.1349  0.1136
  654TMC3    C6 9734   4.083   3.541  17.427  0.6035 -1.1505  0.2535
  654TMC3     C 9735   4.392   3.637  17.700 -0.3667 -0.1088  0.3160
  654TMC3     O 9736   4.465   3.538  17.723  0.2159  0.4395 -0.1199
  654TMC3     H 9737   4.209   3.810  17.605 -0.3336  0.2309 -0.1821
  654TMC3    H1 9738   4.273   3.396  17.662 -0.9586 -0.5634 -0.5472
  654TMC3    H2 9739   4.009   3.521  17.351  1.0813  0.5409 -0.6662
  654TMC3    C7 9740   4.154   3.317  17.428  0.4856 -0.0623  0.4093
  654TMC3    C8 9741   4.089   3.778  17.363 -0.2333 -0.3030  0.5959
  654TMC3    O1 9742   4.073   3.297  17.337 -0.1649 -1.0193  0.0363
  654TMC3    O2 9743   4.054   3.892  17.392 -0.3881  0.1267 -0.4457
  655MPD2     C 9744   1.003   4.430  15.471  0.4183  0.4004 -0.0204
  655MPD2    C1 9745   0.897   4.347  15.455 -0.0325  0.1900  0.4362
  655MPD2    C2 9746   0.922   4.224  15.403 -0.1405 -1.0248  0.1149
  655MPD2    C3 9747   1.048   4.193  15.356 -0.3400 -0.2516 -0.1464
  655MPD2    C4 9748   1.150   4.285  15.378  0.1247  0.1436 -0.1012
  655MPD2    C5 9749   1.131   4.402  15.440  0.2813  0.0299 -0.4030
  655MPD2     H 9750   0.837   4.158  15.388 -0.9212 -0.5825  2.4960
  655MPD2    H1 9751   1.253   4.259  15.357 -0.5171 -0.2769 -2.7501
  655MPD2    H2 9752   0.978   4.530  15.505  3.6203  1.1832  0.0309
  655MPD2    H3 9753   1.202   4.482  15.458 -0.9261  0.8707  0.7012
  655MPD2     N 9754   1.083   4.083  15.276  0.5318 -0.4497  0.1794
  655MPD2    H5 9755   1.179   4.076  15.243  0.4621 -2.4940  0.3735
  655MPD2    N1 9756   0.769   4.377  15.497  0.2352  0.0132 -0.4105
  655MPD2    H7 9757   0.697   4.305  15.504  0.5912 -0.5149 -2.1112
  656TMC3    C1 9758   0.606   4.527  15.571  0.2552  0.0806  0.3151
  656TMC3    C2 9759   0.592   4.477  15.700 -0.6695 -0.2151  1.2818
  656TMC3    C3 9760   0.514   4.547  15.783 -0.0020  0.0715 -0.1606
  656TMC3    C4 9761   0.535   4.640  15.533 -0.0169 -0.3881  0.0308
  656TMC3    C5 9762   0.452   4.694  15.623 -0.1741  0.4170  1.1072
  656TMC3    C6 9763   0.434   4.657  15.751 -0.2140  0.3024 -0.4465
  656TMC3     C 9764   0.730   4.505  15.502 -0.6448  0.3617  0.3815
  656TMC3     O 9765   0.771   4.600  15.437  0.1350  0.2150 -0.1939
  656TMC3     H 9766   0.655   4.394  15.731 -0.3366 -0.0236  1.1241
  656TMC3    H1 9767   0.556   4.684  15.436 -0.9327 -3.4258 -1.5496
  656TMC3    H2 9768   0.372   4.717  15.818 -0.8229  0.7345 -1.3845
  656TMC3    C7 9769   0.345   0.036  15.561 -0.7014  0.4598  0.2852
  656TMC3    C8 9770   0.479   4.486  15.911 -0.5723 -0.0081  0.1340
  656TMC3    O1 9771   0.376   0.085  15.455  0.1327 -0.0889  0.6355
  656TMC3    O2 9772   0.481   4.364  15.914  0.1013 -0.5149  0.7084
  657TMC3    C1 9773   4.589   3.112  14.968 -0.5518 -0.2087 -0.2988
  657TMC3    C2 9774   4.596   3.158  15.098 -0.6856 -0.4583 -0.4555
  657TMC3    C3 9775   4.587   3.294  15.112  0.7689 -0.4663 -0.9352
  657TMC3    C4 9776   4.605   3.192  14.859 -0.5113 -0.7052  0.1955
  657TMC3    C5 9777   4.584   3.325  14.880 -0.1402 -0.5779  0.3605
  657TMC3    C6 9778   4.573   3.382  15.005 -0.8551  0.7214  0.0684
  657TMC3     C 9779   4.592   2.972  14.936  0.3016  0.1271  1.1541
  657TMC3     O 9780   4.543   2.940  14.826 -0.2726  0.0642  0.3644
  657TMC3     H 9781   4.592   3.090  15.182 -0.7696 -1.6172 -1.3838
  657TMC3    H1 9782   4.600   3.152  14.759 -0.7915  1.5529 -0.6979
  657TMC3    H2 9783   4.586   3.488  15.025 -0.2073  0.9307 -1.4217
  657TMC3    C7 9784   4.595   3.412  14.769 -0.1414 -0.0220  0.5853
  657TMC3    C8 9785   4.615   3.341  15.244 -0.5061 -0.0562  0.0062
  657TMC3    O1 9786   4.657   3.361  14.674  0.6365  0.1119 -0.2084
  657TMC3    O2 9787   4.581   3.459  15.264  0.3138 -0.5938  0.5998
  658MPD2     C 9788   1.399   4.245  14.763  0.4213  1.3804 -0.2481
  658MPD2    C1 9789   1.297   4.160  14.738 -0.1169 -0.4945  0.6597
  658MPD2    C2 9790   1.208   4.193  14.632 -0.4201 -0.2406 -0.9632
  658MPD2    C3 9791   1.230   4.304  14.547  0.4108  0.0086  0.3312
  658MPD2    C4 9792   1.345   4.376  14.567 -0.3483  0.4423 -0.3493
  658MPD2    C5 9793   1.426   4.344  14.672  0.1700  1.0885 -1.1522
  658MPD2     H 9794   1.129   4.123  14.610 -1.7664  0.9149  0.1404
  658MPD2    H1 9795   1.376   4.460  14.506  4.0695 -0.6709  0.3610
  658MPD2    H2 9796   1.467   4.223  14.845  2.0006 -1.0068 -2.2054
  658MPD2    H3 9797   1.504   4.419  14.683  0.3227  0.8075 -0.3086
  658MPD2     N 9798   1.150   4.321  14.433 -0.4109 -0.0552  0.7264
  658MPD2    H5 9799   1.063   4.270  14.433  0.2463 -1.1730  1.1054
  658MPD2    N1 9800   1.269   4.054  14.832 -0.0725  0.2586  0.8802
  658MPD2    H7 9801   1.323   4.044  14.917  2.2117 -2.1526 -0.8122
  659TMC3    C1 9802   1.154   3.870  14.928  0.0547  0.1042 -0.4946
  659TMC3    C2 9803   1.147   3.940  15.052 -0.1197  0.2791 -0.4522
  659TMC3    C3 9804   1.056   3.892  15.142 -0.5115  0.5051 -0.1328
  659TMC3    C4 9805   1.068   3.764  14.897 -0.5254  0.6259  0.7787
  659TMC3    C5 9806   0.976   3.723  14.994  0.2526  0.0343 -1.0270
  659TMC3    C6 9807   0.976   3.782  15.109  0.8092  0.2563  0.5376
  659TMC3     C 9808   1.187   3.949  14.805  0.1855 -0.3550  0.4154
  659TMC3     O 9809   1.136   3.911  14.698  0.0581  0.5263 -0.0246
  659TMC3     H 9810   1.203   4.032  15.063  0.8907 -0.4111  0.1863
  659TMC3    H1 9811   1.046   3.726  14.798  0.7912  3.1132 -0.4605
  659TMC3    H2 9812   0.906   3.744  15.183 -1.5292 -0.9637 -2.3072
  659TMC3    C7 9813   0.860   3.650  14.951  0.2436 -0.2685  0.5942
  659TMC3    C8 9814   1.003   3.977  15.250  1.0403  0.4667 -0.3649
  659TMC3    O1 9815   0.756   3.657  15.012 -0.1379 -0.4400  0.1635
  659TMC3    O2 9816   0.891   3.942  15.293 -0.4070  0.5388 -0.0551
  660MPD2     C 9817   3.504   2.990  12.413  0.0663  0.4940 -0.3105
  660MPD2    C1 9818   3.410   3.075  12.453 -0.5696 -0.2049  0.3123
  660MPD2    C2 9819   3.314   3.040  12.550 -0.4388  0.3769  0.2998
  660MPD2    C3 9820   3.310   2.913  12.603  0.1206  0.9959 -0.7562
  660MPD2    C4 9821   3.405   2.822  12.557 -0.3038  0.1940  0.4061
  660MPD2    C5 9822   3.499   2.864  12.460 -0.3454 -0.3039  0.4256
  660MPD2     H 9823   3.246   3.111  12.596 -0.6195  1.1058 -1.0854
  660MPD2    H1 9824   3.421   2.723  12.599 -1.5245  0.6002  1.8140
  660MPD2    H2 9825   3.576   3.020  12.337 -1.8076  1.1901 -1.8022
  660MPD2    H3 9826   3.567   2.786  12.427 -1.0576 -0.8877  0.3570
  660MPD2     N 9827   3.232   2.869  12.708  0.1547  0.5885 -0.3702
  660MPD2    H5 9828   3.255   2.777  12.745  1.1038  1.6356  1.5888
  660MPD2    N1 9829   3.412   3.206  12.399  0.0389  0.0381 -0.0997
  660MPD2    H7 9830   3.475   3.227  12.322 -0.2730 -0.4238 -0.4785
  661TMC3    C1 9831   3.307   3.397  12.312  0.1493 -0.1118  0.2430
  661TMC3    C2 9832   3.427   3.404  12.243 -0.4064  0.2702  0.0524
  661TMC3    C3 9833   3.422   3.380  12.103  0.2564  0.0089 -0.0125
  661TMC3    C4 9834   3.194   3.395  12.248  0.0989 -0.4073  0.4995
  661TMC3    C5 9835   3.188   3.344  12.122 -0.4782 -0.0061 -0.4664
  661TMC3    C6 9836   3.303   3.341  12.044 -0.2362  0.0182 -0.1462
  661TMC3     C 9837   3.305   3.293  12.416 -0.0110 -0.0440 -0.4877
  661TMC3     O 9838   3.192   3.283  12.458  0.5474  0.0992  0.0766
  661TMC3     H 9839   3.519   3.400  12.300 -1.8634 -0.5229  2.3587
  661TMC3    H1 9840   3.104   3.408  12.308 -1.0190 -0.9460 -1.0588
  661TMC3    H2 9841   3.294   3.311  11.940  1.6177  3.1677 -1.1971
  661TMC3    C7 9842   3.124   3.221  12.099 -0.1098 -0.0767  0.3585
  661TMC3    C8 9843   3.535   3.300  12.060  0.1231 -0.0184 -0.8551
  661TMC3    O1 9844   3.118   3.180  11.984 -0.3868  0.3897  0.4841
  661TMC3    O2 9845   3.575   3.213  12.140  0.0558  0.3912 -0.2959
  662MPD2     C 9846   4.132   2.428   0.030  0.0844 -0.1153 -0.2445
  662MPD2    C1 9847   4.020   2.351   0.042  0.3853  0.3301 -0.8175
  662MPD2    C2 9848   3.911   2.407   0.102 -0.1187 -0.2333  0.5518
  662MPD2    C3 9849   3.907   2.538   0.143  0.0151  0.7687  0.0809
  662MPD2    C4 9850   4.024   2.615   0.129  0.2521  0.7230  0.0408
  662MPD2    C5 9851   4.135   2.557   0.076  0.1269 -0.4096 -0.6678
  662MPD2     H 9852   3.829   2.337   0.110  0.0512 -0.5996 -1.0005
  662MPD2    H1 9853   4.035   2.718   0.162 -0.0103  1.8055 -3.2392
  662MPD2    H2 9854   4.230   2.395  17.748 -0.2707  0.0203 -1.5037
  662MPD2    H3 9855   4.218   2.627   0.070 -1.1050  1.1813  0.6168
  662MPD2     N 9856   3.787   2.602   0.188 -0.3742 -0.3114  0.1216
  662MPD2    H5 9857   3.799   2.702   0.204  0.9211  0.1184 -3.4297
  662MPD2    N1 9858   4.013   2.218  17.743 -0.2207  0.1626 -0.0577
  662MPD2    H7 9859   3.926   2.169   0.010 -1.9760  3.3375  0.0404
  663TMC3    C1 9860   4.067   2.014  17.631  0.5326 -0.9322 -0.7724
  663TMC3    C2 9861   3.945   2.016  17.561 -0.3433 -0.3193 -0.0203
  663TMC3    C3 9862   3.907   1.908  17.480  0.6820 -0.4772 -0.4578
  663TMC3    C4 9863   4.166   1.932  17.598 -0.1467  0.8136 -0.7115
  663TMC3    C5 9864   4.132   1.825  17.514 -0.3110  0.0086 -0.1685
  663TMC3    C6 9865   4.011   1.809  17.458 -0.5179  0.0689 -0.5561
  663TMC3     C 9866   4.112   2.144  17.692 -0.8305 -0.5227  0.1894
  663TMC3     O 9867   4.230   2.171  17.668  0.3474  0.7052  0.2651
  663TMC3     H 9868   3.868   2.089  17.583  0.4536  0.5015  0.0055
  663TMC3    H1 9869   4.269   1.933  17.634  0.0667  2.5358 -1.3674
  663TMC3    H2 9870   3.998   1.748  17.369  0.9511 -1.2224  0.1151
  663TMC3    C7 9871   4.212   1.702  17.523 -0.0013 -0.0603  0.0125
  663TMC3    C8 9872   3.792   1.843  17.519 -0.2901 -0.6196  0.3818
  663TMC3    O1 9873   4.333   1.703  17.535  0.4086 -0.1260  0.3746
  663TMC3    O2 9874   3.794   1.720  17.530  0.0335 -0.0847 -0.2340
  664MPD2     C 9875   2.297   0.302  17.352 -0.4376 -0.1969  0.2354
  664MPD2    C1 9876   2.357   0.401  17.432  0.2063  0.2940 -0.9980
  664MPD2    C2 9877   2.395   0.357  17.561  0.1473 -0.0880 -0.2519
  664MPD2    C3 9878   2.382   0.224  17.594 -0.2607 -0.1835  0.4081
  664MPD2    C4 9879   2.323   0.128  17.509 -0.9605  0.3057  0.7581
  664MPD2    C5 9880   2.284   0.171  17.390 -0.7573 -0.0217  0.1588
  664MPD2     H 9881   2.438   0.423  17.635 -0.1942  0.4606 -0.5396
  664MPD2    H1 9882   2.311   0.029  17.550 -0.9667  0.1854  0.4684
  664MPD2    H2 9883   2.271   0.323  17.249  0.8199 -1.4588 -0.3475
  664MPD2    H3 9884   2.242   0.105  17.316 -0.0955 -0.6754  0.3631
  664MPD2     N 9885   2.419   0.200  17.725 -0.2126 -0.1357 -0.0653
  664MPD2    H5 9886   2.430   0.289   0.024 -0.9381  0.1767 -0.4764
  664MPD2    N1 9887   2.361   0.541  17.399 -0.0821 -0.6964 -0.1725
  664MPD2    H7 9888   2.415   0.600  17.462 -1.2888 -0.1089  0.3201
  665TMC3    C1 9889   2.462   0.082   0.177  0.6488 -0.3258 -0.0375
  665TMC3    C2 9890   2.394   4.726   0.260 -0.2434  0.3995  0.4414
  665TMC3    C3 9891   2.411   0.003   0.396  0.3482  0.0275  0.2002
  665TMC3    C4 9892   2.516   0.194   0.222  0.1449 -0.3366  0.1920
  665TMC3    C5 9893   2.509   0.217   0.354  0.1918  0.1428  0.0762
  665TMC3    C6 9894   2.463   0.121   0.445 -0.6290  0.4392 -1.0372
  665TMC3     C 9895   2.408   0.077   0.041 -0.1787  0.3475  0.1959
  665TMC3     O 9896   2.390   4.704  17.743  0.4401 -0.2495 -0.1180
  665TMC3     H 9897   2.364   4.635   0.209 -3.4457  1.5097  0.3521
  665TMC3    H1 9898   2.565   0.261   0.153 -0.8824 -0.9992 -1.1962
  665TMC3    H2 9899   2.450   0.134   0.552  1.1744  0.3248 -0.8094
  665TMC3    C7 9900   2.528   0.354   0.390  0.2468 -0.1235 -0.3596
  665TMC3    C8 9901   2.342   4.652   0.487 -0.0871 -0.1450  0.7016
  665TMC3    O1 9902   2.525   0.436   0.298 -0.0832  0.3459 -0.8358
  665TMC3    O2 9903   2.328   4.692   0.599  0.3601 -0.6025  0.0091
  666TMC3    C1 9904   1.346   0.544  10.436  0.5114 -0.9887 -0.2532
  666TMC3    C2 9905   1.446   0.526  10.345 -0.6071 -0.0821  0.0623
  666TMC3    C3 9906   1.536   0.626  10.324 -0.8650 -0.4357  0.4945
  666TMC3    C4 9907   1.317   0.670  10.483 -0.0159  0.1685 -0.6070
  666TMC3    C5 9908   1.399   0.774  10.444  0.4336  0.3158 -0.0415
  666TMC3    C6 9909   1.517   0.752  10.371 -0.2125 -0.0204 -0.2348
  666TMC3     C 9910   1.275   0.439  10.492 -0.4384 -0.2343  0.9553
  666TMC3     O 9911   1.244   0.461  10.606 -0.2051 -0.7312 -0.4619
  666TMC3     H 9912   1.482   0.433  10.303  1.0831  1.1293 -1.1210
  666TMC3    H1 9913   1.222   0.693  10.531  0.7254  0.1136  0.8812
  666TMC3    H2 9914   1.592   0.828  10.358  1.1948 -0.6056  4.4761
  666TMC3    C7 9915   1.350   0.908  10.452 -0.0458 -0.4235 -0.3792
  666TMC3    C8 9916   1.646   0.612  10.235  0.3167  0.2589  0.4152
  666TMC3    O1 9917   1.241   0.931  10.508 -1.0493 -0.1868 -0.5249
  666TMC3    O2 9918   1.620   0.673  10.134 -0.5022  0.1325  0.0448
  667MPD2     C 9919   3.237   0.525  14.694  0.2086  0.1113  0.1421
  667MPD2    C1 9920   3.157   0.543  14.802 -0.6506  0.1715 -0.3027
  667MPD2    C2 9921   3.070   0.438  14.835  0.3371  0.3471 -0.6854
  667MPD2    C3 9922   3.068   0.315  14.773  0.3123 -0.1253  0.7115
  667MPD2    C4 9923   3.139   0.301  14.658  1.0101 -0.5635  0.0378
  667MPD2    C5 9924   3.226   0.408  14.624 -0.0478 -0.6022  0.3417
  667MPD2     H 9925   2.998   0.453  14.915  0.0518 -1.5950 -0.5583
  667MPD2    H1 9926   3.139   0.214  14.594  0.1319 -0.4676 -0.0911
  667MPD2    H2 9927   3.315   0.593  14.660  2.2128 -2.8578 -1.1641
  667MPD2    H3 9928   3.285   0.404  14.533 -0.5848  0.2184 -0.0476
  667MPD2     N 9929   3.003   0.202  14.823  0.1011 -0.2116 -0.6934
  667MPD2    H5 9930   3.000   0.119  14.765  0.1643 -0.2804 -0.5979
  667MPD2    N1 9931   3.153   0.661  14.873 -0.2610  0.0444 -0.5368
  667MPD2    H7 9932   3.085   0.660  14.948 -0.9786  0.8643 -1.1861
  668TMC3    C1 9933   3.194   0.882  14.937  0.0238 -0.4938 -0.0058
  668TMC3    C2 9934   3.248   1.011  14.912  0.1646  0.8729  0.5724
  668TMC3    C3 9935   3.217   1.109  15.001  0.3875 -0.0771 -0.4877
  668TMC3    C4 9936   3.139   0.847  15.057  0.2661 -0.2648  0.5906
  668TMC3    C5 9937   3.122   0.949  15.150  0.5282  0.1148  0.4051
  668TMC3    C6 9938   3.165   1.073  15.123 -0.1231  0.5644 -0.1833
  668TMC3     C 9939   3.225   0.778  14.845  0.3862 -0.0867  0.3532
  668TMC3     O 9940   3.303   0.809  14.756 -0.0298  0.1031  0.5937
  668TMC3     H 9941   3.301   1.031  14.820  0.8528  0.5388  0.8955
  668TMC3    H1 9942   3.107   0.746  15.078  1.1515 -0.3096  1.6836
  668TMC3    H2 9943   3.165   1.144  15.205 -0.1500 -0.8247  1.0135
  668TMC3    C7 9944   3.105   0.912  15.289  0.9208 -0.5273 -0.4373
  668TMC3    C8 9945   3.267   1.245  14.992  0.1810  0.1592  0.0881
  668TMC3    O1 9946   3.171   0.966  15.377 -0.5753 -0.5560  0.7085
  668TMC3    O2 9947   3.219   1.324  15.070  0.2897  0.2051  0.0849
  669TMC3    C1 9948   1.148   0.343  14.645 -0.2793 -0.6097  1.0410
  669TMC3    C2 9949   1.036   0.332  14.571  0.5935 -0.6544  0.0207
  669TMC3    C3 9950   1.026   0.407  14.461 -0.4714 -0.0956  0.1229
  669TMC3    C4 9951   1.262   0.412  14.605  0.4551  0.3237  0.1946
  669TMC3    C5 9952   1.249   0.471  14.482  0.6219  0.3463  0.3820
  669TMC3    C6 9953   1.129   0.481  14.414  0.2301  0.1425  0.7752
  669TMC3     C 9954   1.139   0.276  14.773 -0.2521 -0.1320 -0.3540
  669TMC3     O 9955   1.027   0.243  14.812  0.6938 -0.2829 -0.4887
  669TMC3     H 9956   0.944   0.290  14.611  0.5274  0.3440  0.9316
  669TMC3    H1 9957   1.352   0.418  14.665  1.2679  0.8202 -1.1022
  669TMC3    H2 9958   1.114   0.542  14.326 -0.3058  2.3148  2.3661
  669TMC3    C7 9959   1.365   0.546  14.442  0.0180  0.0274  0.7407
  669TMC3    C8 9960   0.900   0.444  14.416 -0.0180  0.0451 -0.0114
  669TMC3    O1 9961   1.445   0.576  14.528 -0.9724  0.1128 -0.7364
  669TMC3    O2 9962   0.819   0.356  14.389 -0.2122 -0.0644 -0.1107
  670MPD2     C 9963   3.954   3.190  13.238 -0.2737  0.0397  0.8287
  670MPD2    C1 9964   4.037   3.238  13.334 -0.6292 -0.5457  0.0815
  670MPD2    C2 9965   4.009   3.222  13.470 -0.6311 -0.2290 -0.1681
  670MPD2    C3 9966   3.888   3.178  13.512  0.2498  0.3284 -0.1223
  670MPD2    C4 9967   3.793   3.148  13.417 -0.0328 -0.0907  0.1963
  670MPD2    C5 9968   3.828   3.142  13.282  0.1647 -0.1376  0.2624
  670MPD2     H 9969   4.081   3.245  13.547  1.5473  0.5606 -2.4256
  670MPD2    H1 9970   3.693   3.115  13.443 -0.3412 -0.0790 -0.9590
  670MPD2    H2 9971   3.985   3.165  13.137  1.9287 -2.2555  2.0879
  670MPD2    H3 9972   3.752   3.100  13.217  1.0772 -0.2898 -0.7022
  670MPD2     N 9973   3.859   3.186  13.651  0.0585 -0.2472 -0.5023
  670MPD2    H5 9974   3.923   3.244  13.705 -1.4239 -0.0241  1.0440
  670MPD2    N1 9975   4.161   3.284  13.300  0.0253  0.5323 -0.4231
  670MPD2    H7 9976   4.224   3.308  13.376  0.1072 -1.5723  0.1717
  671TMC3    C1 9977   3.797   3.107  13.857  0.7482 -0.2245 -0.3030
  671TMC3    C2 9978   3.926   3.098  13.894 -0.8772 -0.5630 -0.6537
  671TMC3    C3 9979   3.950   3.029  14.007  0.0842  0.2390  0.2130
  671TMC3    C4 9980   3.696   3.072  13.941 -0.3922 -0.5351 -0.3713
  671TMC3    C5 9981   3.723   3.001  14.059  0.7768 -0.3802 -0.4186
  671TMC3    C6 9982   3.855   2.981  14.094  0.2712  0.0849 -0.5745
  671TMC3     C 9983   3.771   3.111  13.714  0.3955 -0.3848 -0.2832
  671TMC3     O 9984   3.700   3.019  13.671  0.7108  0.1487 -0.6436
  671TMC3     H 9985   4.009   3.105  13.824  1.4033  1.6989  2.3044
  671TMC3    H1 9986   3.598   3.054  13.898 -0.9403  1.1648  0.1699
  671TMC3    H2 9987   3.878   2.913  14.175 -0.2247  0.8235  0.1901
  671TMC3    C7 9988   3.639   2.880  14.067  0.6774  0.8746 -0.0446
  671TMC3    C8 9989   4.090   3.010  14.043  1.1889  0.2024  0.7327
  671TMC3    O1 9990   3.693   2.772  14.030 -0.3426  0.0472 -0.0679
  671TMC3    O2 9991   4.174   3.083  13.989 -0.0328 -0.1664 -0.1323
  672MPD2     C 9992   4.698   3.754   0.808  0.5036 -0.1534  0.2626
  672MPD2    C1 9993   4.697   3.640   0.734  0.7832  0.3744 -0.2103
  672MPD2    C2 9994   0.080   3.589   0.678 -0.6601  0.4756  0.2374
  672MPD2    C3 9995   0.199   3.657   0.697 -0.0815 -0.5057  0.2313
  672MPD2    C4 9996   0.200   3.774   0.772  0.2136  0.3109 -0.2877
  672MPD2    C5 9997   0.078   3.820   0.825 -1.0353  0.1528  0.6157
  672MPD2     H 9998   0.072   3.499   0.618  0.3273  0.0496  0.7513
  672MPD2    H1 9999   0.285   3.837   0.797 -0.4624  1.7228 -1.5378
  672MPD2    H210000   4.614   3.782   0.870  0.1364 -1.6338  0.4259
  672MPD2    H310001   0.072   3.907   0.888  2.7087 -0.0539  1.2624
  672MPD2     N10002   0.319   3.621   0.633 -0.0463 -0.9209 -0.0813
  672MPD2    H510003   0.404   3.673   0.650 -0.5036  0.0323 -0.7383
  672MPD2    N110004   4.581   3.562   0.713 -0.4885 -0.2363 -0.4436
  672MPD2    H710005   4.603   3.463   0.704 -0.0873 -0.4554  2.8072
  673TMC3    C110006   4.341   3.533   0.702  0.1133  0.2528 -0.0255
  673TMC3    C210007   4.348   3.400   0.736 -0.9577  0.8386  0.6438
  673TMC3    C310008   4.229   3.330   0.706 -0.5859 -0.2119 -0.0863
  673TMC3    C410009   4.233   3.595   0.650 -0.1168  0.2411 -0.6756
  673TMC3    C510010   4.123   3.523   0.630 -0.0861  0.0984  0.2125
  673TMC3    C610011   4.123   3.386   0.648  0.5387  0.2849  0.1161
  673TMC3     C10012   4.456   3.622   0.722 -0.3390  0.5698  0.4500
  673TMC3     O10013   4.437   3.740   0.718  0.3340 -0.1707  0.0202
  673TMC3     H10014   4.428   3.371   0.802  0.3480  1.4009 -0.6820
  673TMC3    H110015   4.242   3.703   0.641 -0.0874  0.5224  2.5290
  673TMC3    H210016   4.044   3.324   0.606 -0.9290  1.7141  0.7296
  673TMC3    C710017   4.010   3.577   0.570  0.1061 -0.1846 -0.3043
  673TMC3    C810018   4.215   3.182   0.718 -0.1563  0.1041 -0.1306
  673TMC3    O110019   3.945   3.491   0.512  0.4918 -0.1185  0.4905
  673TMC3    O210020   4.101   3.135   0.706  0.3124 -0.0519  0.3634
  674MPD2     C10021   4.209   3.913   0.298  0.0452  0.0373 -0.6202
  674MPD2    C110022   4.195   3.784   0.258  0.3120 -0.2016  0.0971
  674MPD2    C210023   4.099   3.750   0.157  0.2692 -0.0747 -0.1125
  674MPD2    C310024   4.020   3.851   0.100 -0.6327  0.3612  1.5671
  674MPD2    C410025   4.048   3.986   0.132  0.3178  0.4391  0.1549
  674MPD2    C510026   4.140   4.007   0.232 -0.7592  0.2534  0.5050
  674MPD2     H10027   4.081   3.647   0.128 -3.8920  0.2792  1.1956
  674MPD2    H110028   4.011   4.074   0.079 -3.3681 -0.4970  1.1771
  674MPD2    H210029   4.293   3.947   0.357 -0.4157 -0.1512  0.1373
  674MPD2    H310030   4.152   4.111   0.262 -1.0683  0.3837  0.1877
  674MPD2     N10031   3.922   3.807   0.009  0.1722  0.4206  0.6725
  674MPD2    H510032   3.904   3.707   0.013 -0.5164  0.5576  1.1456
  674MPD2    N110033   4.282   3.690   0.316  0.1053 -0.1810  0.3798
  674MPD2    H710034   4.355   3.714   0.383 -0.3432 -0.7231  1.0635
  675TMC3    C110035   4.433   3.504   0.310 -0.3613  0.4434 -0.2510
  675TMC3    C210036   4.444   3.371   0.327 -1.0557  0.5901 -0.0515
  675TMC3    C310037   4.570   3.318   0.353 -0.5851  0.1296  0.0849
  675TMC3    C410038   4.541   3.589   0.290  0.1770  0.2646 -0.2384
  675TMC3    C510039   4.666   3.532   0.306  0.3117 -0.4622  0.1739
  675TMC3    C610040   4.681   3.399   0.340 -0.2260 -0.3600 -0.0178
  675TMC3     C10041   4.306   3.558   0.272  0.5407  0.2263  0.0565
  675TMC3     O10042   4.236   3.482   0.212  0.1771  0.1045 -0.0079
  675TMC3     H10043   4.352   3.319   0.303 -0.3528  0.1143 -1.6422
  675TMC3    H110044   4.527   3.692   0.261  0.7709  0.1773 -0.8217
  675TMC3    H210045   0.044   3.365   0.357 -0.2576  0.5113  1.9043
  675TMC3    C710046   0.044   3.608   0.292  0.0374  0.0157 -0.3946
  675TMC3    C810047   4.597   3.178   0.386 -0.5269  0.1971  0.2983
  675TMC3    O110048   0.139   3.547   0.251 -0.0900  0.3644  0.6612
  675TMC3    O210049   4.713   3.151   0.419  0.0054 -0.1000  0.0739
  676MPD2     C10050   1.148   1.863  11.861 -0.5716 -0.0728  0.2153
  676MPD2    C110051   1.247   1.821  11.944  0.6512  1.2155  0.3660
  676MPD2    C210052   1.271   1.689  11.952 -0.3276 -0.6849 -0.1058
  676MPD2    C310053   1.206   1.600  11.880 -0.1182  0.1861 -0.4072
  676MPD2    C410054   1.091   1.645  11.812 -0.4899 -0.0532  0.0097
  676MPD2    C510055   1.063   1.774  11.803  0.4748  0.6260  1.0339
  676MPD2     H10056   1.361   1.668  12.009 -0.4366  0.4871  0.4950
  676MPD2    H110057   1.036   1.570  11.756 -1.1931 -1.1026  2.0953
  676MPD2    H210058   1.129   1.965  11.831  2.5728  0.5564  0.3672
  676MPD2    H310059   0.974   1.798  11.746  1.4597  2.4753  0.2610
  676MPD2     N10060   1.237   1.466  11.874 -0.8746 -0.0127  0.0319
  676MPD2    H510061   1.166   1.407  11.831 -0.2538 -0.6660 -0.1066
  676MPD2    N110062   1.352   1.906  11.997 -0.5769 -0.3267 -0.3085
  676MPD2    H710063   1.423   1.860  12.054  0.7199  0.4655 -1.2961
  677TMC3    C110064   1.496   2.085  12.023  0.0177 -0.2274 -0.3093
  677TMC3    C210065   1.547   2.013  12.125 -0.4038  0.4409  0.3367
  677TMC3    C310066   1.674   2.036  12.169 -0.1839 -0.0291 -0.4148
  677TMC3    C410067   1.569   2.171  11.948 -0.4040  0.0374  0.4931
  677TMC3    C510068   1.693   2.191  11.986 -0.2234 -0.0530 -0.1657
  677TMC3    C610069   1.749   2.132  12.095 -0.2804 -0.4463 -0.3071
  677TMC3     C10070   1.377   2.032  11.951  0.0656  0.2436  0.4299
  677TMC3     O10071   1.316   2.104  11.878  0.6678  0.1107 -0.0253
  677TMC3     H10072   1.485   1.965  12.200  1.4989 -1.1250  0.9125
  677TMC3    H110073   1.540   2.223  11.858  0.9351 -1.7875 -1.0041
  677TMC3    H210074   1.854   2.137  12.119 -0.4390  0.8384  0.0915
  677TMC3    C710075   1.778   2.160  11.874  0.5243 -0.4024  0.0572
  677TMC3    C810076   1.742   1.937  12.256 -0.4567  0.1764 -0.6863
  677TMC3    O110077   1.741   2.070  11.805  0.4325 -0.4603  0.1038
  677TMC3    O210078   1.856   1.956  12.293  0.2299 -0.5443 -0.0713
  678MPD2     C10079   4.021   1.107   1.381 -0.2770 -0.4648 -0.3343
  678MPD2    C110080   3.952   1.062   1.273  0.5448 -0.2800 -0.4833
  678MPD2    C210081   3.815   1.058   1.278  0.5661 -0.2500  0.6872
  678MPD2    C310082   3.739   1.086   1.390 -1.0187  0.4235 -0.2707
  678MPD2    C410083   3.813   1.121   1.501  0.4345  0.1658  0.2791
  678MPD2    C510084   3.949   1.134   1.494 -0.1210  0.0203 -0.2540
  678MPD2     H10085   3.765   1.018   1.191 -0.0261  1.0915  0.4006
  678MPD2    H110086   3.756   1.138   1.592 -0.3119  0.8252 -0.3132
  678MPD2    H210087   4.128   1.122   1.381 -0.3646  0.0838 -1.9507
  678MPD2    H310088   4.004   1.157   1.585  1.3183 -3.8647 -0.1581
  678MPD2     N10089   3.599   1.074   1.378  0.0257 -0.4795  0.3989
  678MPD2    H510090   3.553   1.046   1.292 -1.6111  2.3222  0.3625
  678MPD2    N110091   4.017   1.031   1.149  0.5716 -0.2127  0.0274
  678MPD2    H710092   3.958   1.039   1.067 -0.2449 -0.6711  0.5623
  679TMC3    C110093   4.352   1.004   0.830  0.1020 -0.5328 -0.0344
  679TMC3    C210094   4.321   1.002   0.961 -0.1781 -0.5042  0.1783
  679TMC3    C310095   4.186   1.003   0.987 -0.7751 -0.2763 -0.7189
  679TMC3    C410096   4.264   1.025   0.729 -0.3798  0.7979  0.5357
  679TMC3    C510097   4.130   1.032   0.762 -0.5250  0.3979  0.0279
  679TMC3    C610098   4.086   1.015   0.889 -0.8637  0.1474 -0.3448
  679TMC3     C10099   4.490   0.985   0.790 -0.2471 -0.4805  0.5953
  679TMC3     O10100   4.517   0.999   0.670  0.4339 -0.0200 -0.3123
  679TMC3     H10101   4.389   0.986   1.044 -2.1709 -0.9053  1.7331
  679TMC3    H110102   4.297   1.024   0.626 -0.3202 -0.3133  0.5670
  679TMC3    H210103   3.980   1.024   0.911 -0.5854 -0.5422  1.2899
  679TMC3    C710104   4.023   1.044   0.656 -0.7104  0.7293 -0.0613
  679TMC3    C810105   4.151   1.012   1.126 -0.0072  0.1017  0.1994
  679TMC3    O110106   3.921   1.102   0.689 -0.7959 -1.0617 -0.2471
  679TMC3    O210107   4.243   1.005   1.207  0.0647  0.2882 -1.0031
  680MPD2     C10108   3.511   0.365  13.529 -1.0073  0.7623 -0.2393
  680MPD2    C110109   3.602   0.294  13.600 -0.1575  0.1160  0.0015
  680MPD2    C210110   3.689   0.354  13.685 -0.5824  0.8887  0.0572
  680MPD2    C310111   3.686   0.496  13.696  0.1289 -0.7578  0.3240
  680MPD2    C410112   3.602   0.566  13.615  0.0957 -0.1410  0.3858
  680MPD2    C510113   3.507   0.500  13.535 -0.9212 -0.4776 -0.3252
  680MPD2     H10114   3.754   0.287  13.740 -0.5055  0.4527 -0.5631
  680MPD2    H110115   3.593   0.673  13.633  1.4525  0.0999 -0.2895
  680MPD2    H210116   3.448   0.302  13.466 -0.0194 -1.2432  0.7604
  680MPD2    H310117   3.429   0.551  13.479 -0.4566  0.1749 -0.3795
  680MPD2     N10118   3.773   0.568  13.782  0.1777  0.6531  0.3725
  680MPD2    H510119   3.750   0.664  13.805  1.2233  1.0324 -0.1608
  680MPD2    N110120   3.620   0.152  13.592  0.2012 -0.7992 -0.2617
  680MPD2    H710121   3.709   0.117  13.627 -0.4215 -0.5187  1.5992
  681TMC3    C110122   3.565   4.670  13.582  0.8929  0.8452 -0.3007
  681TMC3    C210123   3.495   4.617  13.688 -0.4464 -0.1422  0.2380
  681TMC3    C310124   3.555   4.530  13.776 -0.0872 -0.3252 -0.2974
  681TMC3    C410125   3.701   4.640  13.564  0.1593 -0.3961 -0.7184
  681TMC3    C510126   3.761   4.554  13.662  1.1632 -0.3763 -0.0268
  681TMC3    C610127   3.690   4.500  13.761  0.3376 -0.0723  0.7612
  681TMC3     C10128   3.521   0.068  13.559  0.4103  0.0043 -0.3914
  681TMC3     O10129   3.405   0.078  13.536 -0.1023  0.5364  0.1909
  681TMC3     H10130   3.390   4.642  13.699 -0.1449  1.4760 -0.6522
  681TMC3    H110131   3.763   4.686  13.488 -0.2453  1.0421 -0.1711
  681TMC3    H210132   3.746   4.436  13.828  0.0014  0.0076  1.1203
  681TMC3    C710133   3.910   4.543  13.673  0.5329  0.4460  1.2440
  681TMC3    C810134   3.520   4.563  13.912  0.2543 -0.1380 -0.0752
  681TMC3    O110135   3.962   4.460  13.746  0.2272 -0.0062 -0.2001
  681TMC3    O210136   3.400   4.580  13.942 -0.5146 -0.5846 -0.0482
  682MPD2     C10137   0.745   1.945  10.913  0.4420  0.0002  0.4903
  682MPD2    C110138   0.710   1.812  10.899  0.0519 -0.4042  1.1347
  682MPD2    C210139   0.654   1.744  11.007 -0.4362  0.5195  0.7978
  682MPD2    C310140   0.631   1.811  11.123 -1.1066  0.0792  0.3378
  682MPD2    C410141   0.648   1.945  11.131  0.4084  0.5710 -0.3094
  682MPD2    C510142   0.702   2.012  11.028 -0.2496  0.0350  0.4651
  682MPD2     H10143   0.639   1.638  10.996 -0.7525  0.6137  0.3245
  682MPD2    H110144   0.622   2.007  11.215 -0.7327  0.3505 -0.5023
  682MPD2    H210145   0.794   2.007  10.838 -1.7273 -2.0988 -2.6555
  682MPD2    H310146   0.721   2.118  11.027  0.1078 -0.0232  1.1879
  682MPD2     N10147   0.580   1.743  11.237  0.2335  0.0758 -0.1002
  682MPD2    H510148   0.551   1.798  11.317 -1.1604 -2.6442  1.2524
  682MPD2    N110149   0.733   1.738  10.780  0.0950  0.5672  0.0972
  682MPD2    H710150   0.699   1.643  10.789  1.0977  0.2550  0.6586
  683TMC3    C110151   0.527   1.601  11.609  1.0019  0.7968 -0.4725
  683TMC3    C210152   0.407   1.535  11.632  1.2809  0.1789  0.4763
  683TMC3    C310153   0.330   1.498  11.526  0.4591  0.9431 -1.6537
  683TMC3    C410154   0.570   1.623  11.477  0.5601 -0.2548  0.2003
  683TMC3    C510155   0.495   1.576  11.379  0.0665  0.5215  0.2082
  683TMC3    C610156   0.373   1.518  11.396 -0.0040  0.3239 -0.3380
  683TMC3     C10157   0.631   1.636  11.713  0.1015  0.1766  0.0251
  683TMC3     O10158   0.735   1.690  11.674 -0.3217  0.0296 -0.0955
  683TMC3     H10159   0.378   1.510  11.733 -0.6010  1.5597  0.2754
  683TMC3    H110160   0.667   1.662  11.446 -0.3612  0.5398 -1.7373
  683TMC3    H210161   0.317   1.493  11.307 -2.1869 -0.2889  1.1850
  683TMC3    C710162   0.535   1.615  11.242  0.1744 -0.1662 -0.4310
  683TMC3    C810163   0.206   1.422  11.548  0.0169  0.0902 -0.1853
  683TMC3    O110164   0.526   1.524  11.160  0.1798  0.2009 -0.4469
  683TMC3    O210165   0.122   1.421  11.460 -0.0719  0.3244 -0.4516
  684MPD2     C10166   4.131   0.833  16.468  0.2249 -0.8237 -0.0426
  684MPD2    C110167   4.042   0.828  16.365 -0.4941 -0.5502 -0.3666
  684MPD2    C210168   3.958   0.939  16.340  0.1111 -0.2767  0.3547
  684MPD2    C310169   3.989   1.064  16.402  0.0848  0.3474  0.1070
  684MPD2    C410170   4.074   1.066  16.507  0.5494  0.1437 -0.1411
  684MPD2    C510171   4.139   0.951  16.536 -0.2751 -0.0096 -0.7662
  684MPD2     H10172   3.880   0.932  16.265  1.2038  0.1864 -0.8279
  684MPD2    H110173   4.084   1.150  16.575  3.4033 -0.0165 -0.3635
  684MPD2    H210174   4.194   0.752  16.505  1.7183  1.3148  2.1037
  684MPD2    H310175   4.208   0.955  16.620  1.4404 -0.8636 -2.1416
  684MPD2     N10176   3.939   1.188  16.356  0.3387  0.2017  0.3290
  684MPD2    H510177   3.975   1.271  16.403 -0.5913  1.0352 -0.4419
  684MPD2    N110178   4.014   0.709  16.293 -0.4548  0.3350 -0.2316
  684MPD2    H710179   3.939   0.723  16.227 -1.3819  2.6134  1.3159
  685TMC3    C110180   4.066   0.499  16.192  0.4378  0.1329  0.3378
  685TMC3    C210181   3.996   0.534  16.084 -0.3287  0.1695  0.0339
  685TMC3    C310182   4.027   0.476  15.961  0.6376 -0.2695 -0.4544
  685TMC3    C410183   4.182   0.421  16.179  0.4134 -0.5333  0.0844
  685TMC3    C510184   4.210   0.379  16.055 -0.3555 -0.7387 -0.3746
  685TMC3    C610185   4.124   0.394  15.947  0.8141  0.1159  0.0890
  685TMC3     C10186   4.083   0.590  16.303 -0.0832  0.1310 -0.1596
  685TMC3     O10187   4.168   0.562  16.387  0.2385  0.3599  0.0697
  685TMC3     H10188   3.915   0.603  16.105  0.8239  1.7844 -0.7694
  685TMC3    H110189   4.255   0.411  16.258  1.5988  0.1679 -0.9270
  685TMC3    H210190   4.146   0.346  15.852  0.9937 -0.0878  0.2334
  685TMC3    C710191   4.352   0.357  16.041 -0.3925 -0.0391 -0.0638
  685TMC3    C810192   3.936   0.492  15.846  1.3136  0.0219  0.4841
  685TMC3    O110193   4.412   0.311  16.138 -0.7641  0.3741 -0.0787
  685TMC3    O210194   3.942   0.400  15.761  0.7593 -0.4555 -0.0913
  686MPD2     C10195   0.670   1.261  15.257  0.6541  0.6959 -0.0257
  686MPD2    C110196   0.702   1.148  15.331 -0.2085 -0.1730  0.5761
  686MPD2    C210197   0.810   1.075  15.286  0.5000 -0.0576 -0.2437
  686MPD2    C310198   0.877   1.099  15.167 -0.0722 -0.2067 -0.3549
  686MPD2    C410199   0.846   1.214  15.105  0.3527  0.8511  0.5689
  686MPD2    C510200   0.743   1.297  15.147 -0.8438  0.0528  0.3681
  686MPD2     H10201   0.845   0.992  15.347  0.7270 -1.5105 -2.3524
  686MPD2    H110202   0.894   1.247  15.014 -0.4364 -0.8990 -0.4941
  686MPD2    H210203   0.599   1.330  15.300 -0.5140 -0.2413 -0.4425
  686MPD2    H310204   0.703   1.384  15.095 -1.9405 -0.3770  0.4936
  686MPD2     N10205   0.977   1.015  15.114  0.3387  0.2118  0.2658
  686MPD2    H510206   1.032   1.061  15.043  0.2718 -1.0523 -0.6101
  686MPD2    N110207   0.622   1.124  15.441  0.5012  0.7971 -0.2721
  686MPD2    H710208   0.546   1.185  15.468  0.6269  0.5530  0.6536
  687TMC3    C110209   0.915   0.805  15.210 -0.3805  0.1155 -0.0555
  687TMC3    C210210   0.783   0.802  15.172  1.1995  0.0693 -0.0449
  687TMC3    C310211   0.701   0.719  15.242 -0.8044 -0.2835  0.4913
  687TMC3    C410212   0.974   0.723  15.310 -0.0525 -0.9869 -0.0568
  687TMC3    C510213   0.882   0.645  15.378 -0.2623  0.8279  0.1898
  687TMC3    C610214   0.746   0.642  15.349 -0.3787  0.5794  0.0867
  687TMC3     C10215   1.017   0.890  15.151 -0.0134 -0.2495 -0.1071
  687TMC3     O10216   1.114   0.829  15.105  0.3742  0.2951 -0.1352
  687TMC3     H10217   0.756   0.874  15.096 -0.1063 -0.1217  0.2445
  687TMC3    H110218   1.079   0.728  15.337 -0.2913  0.2890  0.6533
  687TMC3    H210219   0.676   0.578  15.400  0.5930  0.1676  0.8963
  687TMC3    C710220   0.936   0.556  15.478 -0.4485 -0.0777 -0.3795
  687TMC3    C810221   0.557   0.745  15.221  0.3153  0.3676 -0.4912
  687TMC3    O110222   0.870   0.518  15.573 -0.9144 -0.3384  0.3708
  687TMC3    O210223   0.532   0.852  15.171 -0.4374 -0.0398  0.4742
  688MPD2     C10224   0.283   0.113  17.527  0.7008 -0.5469  0.2067
  688MPD2    C110225   0.205   0.005  17.505  0.5909 -0.4435 -0.0379
  688MPD2    C210226   0.190   4.698  17.373  0.6562 -0.1953 -0.3040
  688MPD2    C310227   0.242   0.030  17.268 -0.7700  0.5424  0.1605
  688MPD2    C410228   0.324   0.135  17.293  0.6858 -0.3330  0.3533
  688MPD2    C510229   0.348   0.172  17.420 -0.0034  0.4230  0.7007
  688MPD2     H10230   0.139   4.604  17.359 -1.5018  1.0164 -0.6250
  688MPD2    H110231   0.365   0.191  17.210 -0.9835 -1.2683 -1.1011
  688MPD2    H210232   0.304   0.148  17.628 -1.4493  0.6096  0.2384
  688MPD2    H310233   0.424   0.247  17.435 -1.6367  2.4866 -1.3107
  688MPD2     N10234   0.234   4.720  17.139  0.0093 -0.2066  0.5486
  688MPD2    H510235   0.286   0.025  17.063 -0.8812  0.3310  0.2434
  688MPD2    N110236   0.148   4.668  17.608 -0.2278 -1.4377  0.5456
  688MPD2    H710237   0.098   4.583  17.585  0.1334 -1.5684  0.2550
  689TMC3    C110238   0.121   4.589   0.076 -0.1654  0.3563  0.8865
  689TMC3    C210239   0.107   4.610   0.212  0.0460 -0.3766 -0.4863
  689TMC3    C310240   0.032   4.522   0.277 -0.3879 -0.2658  0.5322
  689TMC3    C410241   0.077   4.478   0.017 -1.0656 -0.3285 -0.0950
  689TMC3    C510242   0.012   4.387   0.091 -0.2364  0.5347 -0.3830
  689TMC3    C610243   4.727   4.404   0.225  0.2173  0.3484 -0.9068
  689TMC3     C10244   0.166   4.695  17.744  0.3384  1.1561  0.1607
  689TMC3     O10245   0.205   0.056   0.053 -0.0930 -0.6194  0.3342
  689TMC3     H10246   0.144   4.701   0.258 -1.2754  0.9729 -2.1369
  689TMC3    H110247   0.113   4.441  17.671  1.9752 -0.0287  0.9401
  689TMC3    H210248   4.673   4.337   0.291 -0.1860  1.2638 -0.3104
  689TMC3    C710249   0.037   4.250   0.058  0.6591 -0.2354  0.0827
  689TMC3    C810250   0.065   4.506   0.417  0.1994 -0.4452  0.0772
  689TMC3    O110251   0.136   4.219  17.743 -0.3649 -0.5893 -0.1167
  689TMC3    O210252   0.175   4.532   0.457  0.0528 -0.2633  0.1872
  690MPD2     C10253   2.777   1.508  15.664 -0.8005  0.3690  0.0872
  690MPD2    C110254   2.698   1.508  15.551 -0.2348 -0.0353 -0.2207
  690MPD2    C210255   2.748   1.536  15.425 -0.3742 -0.5884 -0.4102
  690MPD2    C310256   2.882   1.560  15.410  0.2709 -0.1161 -0.3369
  690MPD2    C410257   2.957   1.574  15.525  0.0142 -0.6478  0.9643
  690MPD2    C510258   2.911   1.539  15.653 -0.3377 -0.0463 -0.7038
  690MPD2     H10259   2.684   1.537  15.337 -0.9953 -2.9068 -0.0019
  690MPD2    H110260   3.059   1.610  15.536  0.2805 -2.3250  3.8968
  690MPD2    H210261   2.738   1.497  15.764  1.7621 -0.9322  0.9524
  690MPD2    H310262   2.974   1.518  15.738 -0.1940 -0.3828 -0.8945
  690MPD2     N10263   2.942   1.590  15.281  0.5671 -0.4192 -0.4943
  690MPD2    H510264   2.883   1.584  15.199  0.3949 -1.9384 -0.2623
  690MPD2    N110265   2.556   1.485  15.566 -0.3891 -0.0490 -1.0285
  690MPD2    H710266   2.510   1.504  15.477  2.9867  0.4087 -2.6829
  691TMC3    C110267   2.348   1.464  15.678  0.2696  0.1792 -0.3580
  691TMC3    C210268   2.285   1.499  15.562 -0.2995 -0.2610  0.0356
  691TMC3    C310269   2.145   1.505  15.560 -0.1354 -0.2216 -1.1162
  691TMC3    C410270   2.276   1.429  15.788  0.7026 -0.8486 -0.0608
  691TMC3    C510271   2.136   1.444  15.786  0.6829  0.5160 -0.1785
  691TMC3    C610272   2.066   1.468  15.669 -0.5979  0.2659 -0.1312
  691TMC3     C10273   2.491   1.460  15.684 -0.0708 -0.1567 -0.2754
  691TMC3     O10274   2.536   1.430  15.794  0.8134  0.4043 -0.4337
  691TMC3     H10275   2.344   1.523  15.474  0.0336  0.7217  0.5358
  691TMC3    H110276   2.327   1.398  15.878  0.3892  2.1693  1.1867
  691TMC3    H210277   1.958   1.470  15.675 -0.5895  0.7531 -0.0886
  691TMC3    C710278   2.082   1.376  15.899 -0.0944  0.2743 -0.2215
  691TMC3    C810279   2.088   1.597  15.459  0.3036 -0.1939  0.6571
  691TMC3    O110280   2.149   1.359  16.000  0.6476 -0.5425 -0.0682
  691TMC3    O210281   2.165   1.620  15.366 -0.0316  0.5765 -0.0789
  692TMC3    C110282   3.801   2.443  15.487  0.7609  0.4077  0.0709
  692TMC3    C210283   3.904   2.493  15.564 -0.3192 -0.3020 -0.1569
  692TMC3    C310284   3.956   2.409  15.663  0.4590 -0.3189  0.9575
  692TMC3    C410285   3.736   2.329  15.516  1.2163 -0.4227 -0.7096
  692TMC3    C510286   3.799   2.245  15.607 -0.3775 -0.0903 -0.1036
  692TMC3    C610287   3.899   2.288  15.690  0.3773 -0.2064 -0.2055
  692TMC3     C10288   3.739   2.532  15.391  0.0290 -0.3383 -0.2939
  692TMC3     O10289   3.810   2.611  15.331 -0.4765 -0.0571  0.1869
  692TMC3     H10290   3.974   2.563  15.520 -0.7049  1.0835  1.4450
  692TMC3    H110291   3.658   2.292  15.450 -1.0029 -2.5480  3.1023
  692TMC3    H210292   3.948   2.213  15.752  0.8064 -0.0626 -0.3715
  692TMC3    C710293   3.782   2.109  15.573 -0.5991 -0.0557 -0.0962
  692TMC3    C810294   3.982   2.478  15.788 -0.4156  0.3728  0.0744
  692TMC3    O110295   3.765   2.081  15.458 -0.3303  0.3042 -0.5677
  692TMC3    O210296   4.044   2.421  15.876 -0.4124 -0.0044 -0.9841
  693MPD2     C10297   3.066   4.604  10.274  0.0593  0.1865  0.0394
  693MPD2    C110298   3.060   4.671  10.392  0.5984 -0.4303 -0.3377
  693MPD2    C210299   3.138   4.628  10.498 -0.4449 -0.3900 -0.1877
  693MPD2    C310300   3.211   4.506  10.489 -0.5168  0.4087 -0.3052
  693MPD2    C410301   3.206   4.437  10.371  0.9096 -0.5780  0.5817
  693MPD2    C510302   3.137   4.487  10.259  0.2937 -0.0756 -1.3302
  693MPD2     H10303   3.145   4.686  10.589  1.9546 -1.6708  0.4595
  693MPD2    H110304   3.265   4.347  10.360 -0.3483 -1.3697  0.2886
  693MPD2    H210305   3.001   4.631  10.193 -0.6582 -1.3678  0.0873
  693MPD2    H310306   3.121   4.426  10.171  0.6167  1.7330 -2.6441
  693MPD2     N10307   3.301   4.455  10.586  0.2273  0.4621  0.6821
  693MPD2    H510308   3.353   4.375  10.551  0.7445  1.6416 -1.2515
  693MPD2    N110309   2.982   0.055  10.383  0.6946 -0.6155  0.4748
  693MPD2    H710310   2.926   0.061  10.298 -2.0663  0.2485  2.3493
  694TMC3    C110311   2.887   0.262  10.463  0.0235  1.0488 -0.1924
  694TMC3    C210312   2.773   0.251  10.385  0.0205 -0.0691 -0.0955
  694TMC3    C310313   2.675   0.346  10.404  0.9612  0.0327  0.4269
  694TMC3    C410314   2.890   0.355  10.564 -0.5353  0.3203 -0.0159
  694TMC3    C510315   2.785   0.433  10.592  0.3316  0.3051  0.0005
  694TMC3    C610316   2.676   0.429  10.516 -0.1658 -0.0034  0.7029
  694TMC3     C10317   2.980   0.149  10.482  0.0188  0.4697  0.3529
  694TMC3     O10318   3.044   0.148  10.580  0.3986 -0.2545  0.3544
  694TMC3     H10319   2.747   0.173  10.314  1.3492 -1.7092  1.1952
  694TMC3    H110320   2.980   0.364  10.624 -0.0668 -0.4034 -0.6286
  694TMC3    H210321   2.590   0.487  10.547 -1.0171 -0.9195  0.0818
  694TMC3    C710322   2.779   0.476  10.728  1.1380  0.3167  0.5355
  694TMC3    C810323   2.557   0.338  10.328  0.4046  0.1386 -0.2714
  694TMC3    O110324   2.873   0.541  10.769  0.3373 -0.6062 -0.5068
  694TMC3    O210325   2.526   0.239  10.263 -0.1039  0.1586  0.4771
  695MPD2     C10326   4.249   2.277  13.510  0.6411  1.3100  0.5578
  695MPD2    C110327   4.167   2.264  13.622 -0.1009 -0.2107 -0.2981
  695MPD2    C210328   4.033   2.302  13.613 -0.1574 -0.2511  0.7411
  695MPD2    C310329   3.982   2.368  13.501  0.0124 -0.4047 -0.0665
  695MPD2    C410330   4.071   2.381  13.393 -0.2522 -0.0933 -0.5505
  695MPD2    C510331   4.203   2.344  13.399 -0.5716  0.1821 -0.4040
  695MPD2     H10332   3.972   2.287  13.701 -1.9866  0.1852 -0.4364
  695MPD2    H110333   4.041   2.428  13.300 -3.1901  1.5906  1.2306
  695MPD2    H210334   4.349   2.236  13.503  0.1359 -0.1364  1.6862
  695MPD2    H310335   4.257   2.336  13.306  0.9823  0.3186  0.4786
  695MPD2     N10336   3.855   2.417  13.513 -0.6824  0.0731 -0.0053
  695MPD2    H510337   3.814   2.411  13.606 -0.6479  0.6524  0.0492
  695MPD2    N110338   4.208   2.212  13.744  0.3200 -0.2361 -0.5444
  695MPD2    H710339   4.132   2.194  13.809  2.1712  1.4518  2.0786
  696TMC3    C110340   3.657   2.554  13.460 -0.3230  0.1814  0.8637
  696TMC3    C210341   3.578   2.488  13.554 -0.7608 -0.3304  0.4421
  696TMC3    C310342   3.453   2.531  13.588  0.3281 -0.1462  0.1510
  696TMC3    C410343   3.621   2.680  13.412 -0.8087 -0.3955 -0.2125
  696TMC3    C510344   3.495   2.718  13.441  0.5952 -0.1095  0.1863
  696TMC3    C610345   3.415   2.652  13.535 -0.1770 -0.7288 -0.0873
  696TMC3     C10346   3.790   2.503  13.422 -0.7600 -0.0724  1.1937
  696TMC3     O10347   3.836   2.533  13.314 -0.5832 -0.1934 -0.7379
  696TMC3     H10348   3.613   2.398  13.602 -1.2924 -0.7582  0.0406
  696TMC3    H110349   3.679   2.730  13.335 -1.0499 -0.5934 -0.5239
  696TMC3    H210350   3.318   2.695  13.555  0.8811 -0.3451  4.1886
  696TMC3    C710351   3.458   2.853  13.405  0.4273  0.7181  0.9645
  696TMC3    C810352   3.437   2.529  13.734 -0.1031  0.0731  0.0339
  696TMC3    O110353   3.465   2.875  13.286  0.1885  0.6948 -0.3198
  696TMC3    O210354   3.530   2.479  13.801  0.2420 -0.4157  0.1089
  697MPD2     C10355   3.752   4.159  15.777 -0.2289 -0.3229  0.1510
  697MPD2    C110356   3.753   4.134  15.640 -0.4699 -0.1868 -0.5065
  697MPD2    C210357   3.809   4.223  15.557 -0.1012  0.9341  0.1128
  697MPD2    C310358   3.878   4.337  15.609 -0.3549  0.0771 -0.0968
  697MPD2    C410359   3.881   4.360  15.746  0.6286 -0.3339 -0.4181
  697MPD2    C510360   3.825   4.267  15.823  0.2993 -0.6734  0.1471
  697MPD2     H10361   3.826   4.209  15.451  0.1755 -1.7953  0.5342
  697MPD2    H110362   3.926   4.450  15.788  0.8016  0.7173 -2.8440
  697MPD2    H210363   3.704   4.091  15.846  0.8091  0.1186  1.3160
  697MPD2    H310364   3.815   4.294  15.927 -1.0077 -0.5698 -0.0100
  697MPD2     N10365   3.954   4.408  15.512 -0.1038 -0.1109  0.3198
  697MPD2    H510366   3.945   4.382  15.414 -0.3190  0.7970  0.0998
  697MPD2    N110367   3.689   4.017  15.581  0.1065  0.4143  0.1696
  697MPD2    H710368   3.684   4.026  15.480 -0.2906 -3.0960 -0.1197
  698TMC3    C110369   4.086   4.573  15.420  0.4331  0.2620  0.0286
  698TMC3    C210370   4.216   4.603  15.413 -0.3570 -0.7657  0.7026
  698TMC3    C310371   4.259   4.657  15.298 -0.2440  0.0356 -0.3631
  698TMC3    C410372   3.991   4.588  15.317 -0.4259  1.3951 -0.6403
  698TMC3    C510373   4.047   4.624  15.199  0.0421 -0.4690  0.6056
  698TMC3    C610374   4.179   4.664  15.184 -0.1954  0.4287  0.1735
  698TMC3     C10375   4.041   4.516  15.545  0.0402  0.4351 -0.0975
  698TMC3     O10376   4.106   4.537  15.647 -0.4057  0.0010  0.1766
  698TMC3     H10377   4.285   4.587  15.496 -1.3833 -2.5996  1.1958
  698TMC3    H110378   3.888   4.559  15.331  0.0074  0.5944  0.8479
  698TMC3    H210379   4.228   4.681  15.088  0.5602 -1.3684  0.2364
  698TMC3    C710380   3.962   4.604  15.082  0.0371 -0.2334  0.4192
  698TMC3    C810381   4.403   4.683  15.294  0.4504  0.4125  0.3408
  698TMC3    O110382   3.858   4.538  15.087 -0.0986  0.5139  0.2323
  698TMC3    O210383   4.474   4.632  15.379  0.2130 -0.1818  0.4960
  699TMC3    C110384   3.076   2.883  12.888 -0.5120  0.0105  0.1758
  699TMC3    C210385   3.159   2.836  12.973 -0.5461  0.3252  0.3878
  699TMC3    C310386   3.116   2.817  13.102 -0.7004 -0.1843 -0.0667
  699TMC3    C410387   2.947   2.916  12.922  0.2219 -0.2401  0.6986
  699TMC3    C510388   2.912   2.900  13.049  0.3504  0.4973  0.4443
  699TMC3    C610389   2.992   2.855  13.141 -1.1181  1.0025  0.6786
  699TMC3     C10390   3.124   2.940  12.768 -0.1174  0.0906  0.0831
  699TMC3     O10391   3.064   3.040  12.728 -0.5222 -0.0781 -0.2537
  699TMC3     H10392   3.261   2.808  12.948 -0.1375  2.7424 -0.6822
  699TMC3    H110393   2.882   2.957  12.846 -0.0464  1.1866  1.6971
  699TMC3    H210394   2.966   2.841  13.245 -0.9287 -1.3522  0.3968
  699TMC3    C710395   2.771   2.898  13.086 -0.6720 -0.0573 -0.5064
  699TMC3    C810396   3.162   2.695  13.175  0.3748 -0.7390 -0.4517
  699TMC3    O110397   2.755   2.841  13.191 -0.0434  0.1444  0.2118
  699TMC3    O210398   3.082   2.628  13.231 -0.0719  0.8750 -0.4876
  700TMC3    C110399   2.601   4.560  17.476  0.6103  0.7114  0.2275
  700TMC3    C210400   2.677   4.448  17.463 -0.3212  0.2928  1.0393
  700TMC3    C310401   2.791   4.434  17.541 -0.0415  0.6255 -0.4865
  700TMC3    C410402   2.640   4.658  17.565 -0.1209 -0.4204  0.1431
  700TMC3    C510403   2.753   4.639  17.641  0.2554  0.2741  0.0865
  700TMC3    C610404   2.824   4.526  17.629  0.1813  0.2501  0.1424
  700TMC3     C10405   2.546   4.610  17.353  0.3755 -0.3778 -0.0921
  700TMC3     O10406   2.492   4.531  17.276 -0.0373 -0.6477  0.1625
  700TMC3     H10407   2.651   4.379  17.383 -0.9977 -1.4355  2.7712
  700TMC3    H110408   2.582   0.011  17.577 -1.4272 -1.1968 -0.4244
  700TMC3    H210409   2.918   4.513  17.683  0.7294  1.0916 -0.6192
  700TMC3    C710410   2.800   0.010  17.734  0.5176  0.5221 -0.0477
  700TMC3    C810411   2.898   4.370  17.471  0.4733  0.1458  0.3207
  700TMC3    O110412   2.889   4.724   0.064  0.2748  0.1496  0.3364
  700TMC3    O210413   3.003   4.431  17.481 -0.2893 -0.4367  0.1762
  701TMC3    C110414   2.453   4.205  15.177  0.0345 -0.9486 -0.2850
  701TMC3    C210415   2.405   4.103  15.250 -0.0108 -0.3947 -0.5537
  701TMC3    C310416   2.486   3.991  15.260 -0.0588  0.1103  0.7675
  701TMC3    C410417   2.578   4.200  15.121 -0.0297 -0.3353 -0.1532
  701TMC3    C510418   2.665   4.102  15.156  0.2970  0.6310 -0.2488
  701TMC3    C610419   2.618   3.990  15.220  0.1400  0.1524 -0.1802
  701TMC3     C10420   2.399   4.330  15.197  0.3223  0.1646 -0.2322
  701TMC3     O10421   2.430   4.412  15.114  0.0040 -0.6382  0.0226
  701TMC3     H10422   2.304   4.097  15.288  0.6506 -2.4964  0.9185
  701TMC3    H110423   2.616   4.286  15.066  1.2516 -1.3000 -0.7908
  701TMC3    H210424   2.686   3.912  15.250 -0.5513  0.1007  1.2710
  701TMC3    C710425   2.803   4.137  15.162 -0.0769 -0.2104 -0.1580
  701TMC3    C810426   2.409   3.872  15.282  0.0910  0.4369  0.1787
  701TMC3    O110427   2.828   4.257  15.164 -0.1362 -0.2567  0.3163
  701TMC3    O210428   2.289   3.877  15.319  0.0940  0.3415  0.0427
  702MPD2     C10429   1.836   0.917  11.668 -0.0243 -0.0360  0.0630
  702MPD2    C110430   1.731   0.941  11.591  0.0050 -0.2741 -0.1989
  702MPD2    C210431   1.729   0.893  11.457 -0.2527 -0.3101  0.6592
  702MPD2    C310432   1.839   0.828  11.405  0.5093 -0.0723 -0.2810
  702MPD2    C410433   1.952   0.829  11.480  0.2226 -0.4885  0.9420
  702MPD2    C510434   1.949   0.861  11.615 -0.5292  0.3740 -0.3901
  702MPD2     H10435   1.640   0.916  11.400  0.0504 -1.5846 -0.3229
  702MPD2    H110436   2.047   0.802  11.436 -1.1500  0.9206 -2.9155
  702MPD2    H210437   1.828   0.935  11.775  2.0128 -0.9885  0.3795
  702MPD2    H310438   2.036   0.837  11.674  1.1951  3.6897 -1.5713
  702MPD2     N10439   1.843   0.799  11.268  0.3258 -0.1070 -0.4532
  702MPD2    H510440   1.932   0.799  11.219 -0.0165  3.0264 -1.1159
  702MPD2    N110441   1.610   0.992  11.645  0.4872 -0.5879 -0.1733
  702MPD2    H710442   1.529   0.983  11.584  1.0222  0.9561 -1.1234
  703TMC3    C110443   1.780   0.716  11.058  0.0861 -0.3048  1.0497
  703TMC3    C210444   1.695   0.635  10.984 -0.0744  0.4839  0.2625
  703TMC3    C310445   1.698   0.641  10.850  0.4681  0.4257 -0.2494
  703TMC3    C410446   1.864   0.804  10.990 -0.9046 -0.3245  0.4844
  703TMC3    C510447   1.858   0.802  10.854 -0.8979  0.1101  0.1762
  703TMC3    C610448   1.779   0.721  10.778 -0.2960 -0.0862 -0.0323
  703TMC3     C10449   1.739   0.757  11.192 -0.1204 -0.0903  0.2533
  703TMC3     O10450   1.622   0.745  11.222  0.1614 -1.1593 -0.6334
  703TMC3     H10451   1.619   0.574  11.031 -0.3531  0.8911  0.3423
  703TMC3    H110452   1.910   0.887  11.042  0.3310  0.2249 -1.4789
  703TMC3    H210453   1.771   0.727  10.670 -1.4997 -0.0326  0.0600
  703TMC3    C710454   1.953   0.880  10.783 -0.2513 -0.0985 -0.5384
  703TMC3    C810455   1.561   0.646  10.794  0.2867 -0.1799  0.1648
  703TMC3    O110456   1.936   0.901  10.663 -0.3713  0.0947 -0.5830
  703TMC3    O210457   1.520   0.540  10.749  0.2929 -0.2663  0.2248
  704TMC3    C110458   0.854   4.479  12.182  0.5713 -0.3219 -0.0282
  704TMC3    C210459   0.977   4.425  12.200 -0.3331  0.5557 -0.1963
  704TMC3    C310460   0.995   4.309  12.269 -0.4568  0.4687  0.2466
  704TMC3    C410461   0.749   4.425  12.257 -0.9478 -0.3171  0.0012
  704TMC3    C510462   0.775   4.324  12.346 -0.5326 -0.2225 -0.4017
  704TMC3    C610463   0.898   4.263  12.347 -0.3393 -0.2468  0.7039
  704TMC3     C10464   0.823   4.477  12.040  0.5438 -0.2283  0.0424
  704TMC3     O10465   0.913   4.452  11.965 -0.0866  0.3565 -0.0357
  704TMC3     H10466   1.060   4.465  12.143 -0.5284 -1.0745 -1.6323
  704TMC3    H110467   0.647   4.462  12.248 -0.4188  0.1463 -4.2512
  704TMC3    H210468   0.915   4.168  12.397  0.7236 -1.0551 -1.2368
  704TMC3    C710469   0.657   4.247  12.389 -0.0010 -0.4737  0.2644
  704TMC3    C810470   1.052   4.200  12.194  0.0039  0.4786  0.2354
  704TMC3    O110471   0.550   4.275  12.338  0.1242  0.0096 -0.2119
  704TMC3    O210472   1.118   4.119  12.254 -0.3053 -0.7479  0.3264
  705MPD2     C10473   4.049   2.016  16.171 -0.1006 -0.5862  0.2557
  705MPD2    C110474   4.032   2.138  16.114  0.1805  0.3307  0.3358
  705MPD2    C210475   3.907   2.212  16.135  0.3559 -0.4670 -0.1044
  705MPD2    C310476   3.804   2.154  16.219  0.3949  0.3050  0.0804
  705MPD2    C410477   3.827   2.023  16.267  0.5583  0.1603  0.7416
  705MPD2    C510478   3.950   1.962  16.250 -0.9591 -0.0465 -0.0400
  705MPD2     H10479   3.879   2.295  16.071  0.4962 -1.5372 -1.5544
  705MPD2    H110480   3.751   1.963  16.314 -2.8097  0.4926 -4.2591
  705MPD2    H210481   4.137   1.954  16.159  0.1319 -0.1489 -0.3318
  705MPD2    H310482   3.944   1.861  16.289 -2.0013  0.1541  0.3329
  705MPD2     N10483   3.683   2.210  16.247  0.9380  0.1316 -0.0278
  705MPD2    H510484   3.626   2.167  16.319  1.6692 -1.8125 -0.6161
  705MPD2    N110485   4.124   2.186  16.020 -0.4361  0.4762  0.1659
  705MPD2    H710486   4.099   2.280  15.990 -1.1728  0.7429  1.6287
  706TMC3    C110487   4.439   2.229  15.692  0.3242 -0.0044 -0.3613
  706TMC3    C210488   4.438   2.363  15.711 -0.7576 -0.5359  0.2321
  706TMC3    C310489   4.381   2.412  15.825  0.2117 -0.5027  0.7581
  706TMC3    C410490   4.382   2.148  15.784 -0.0698 -0.6717  0.6281
  706TMC3    C510491   4.312   2.202  15.884  0.2891 -0.2036 -0.4133
  706TMC3    C610492   4.312   2.331  15.916  1.0570 -0.2210  0.8740
  706TMC3     C10493   4.512   2.167  15.578  0.6704 -0.3192  0.7787
  706TMC3     O10494   4.530   2.048  15.586 -0.1680  0.4513 -0.5317
  706TMC3     H10495   4.475   2.442  15.646 -2.9844 -0.3118 -0.7598
  706TMC3    H110496   4.391   2.041  15.772 -0.9599 -0.7319  0.5404
  706TMC3    H210497   4.266   2.368  16.007 -1.2958 -2.3171  0.5531
  706TMC3    C710498   4.233   2.118  15.970  0.4600 -0.5429  0.3269
  706TMC3    C810499   4.363   2.553  15.842  0.2458  0.0637 -0.2746
  706TMC3    O110500   4.253   2.000  15.974  0.5747 -0.5244 -0.2951
  706TMC3    O210501   4.395   2.628  15.752  0.5664 -1.0981 -0.5077
  707TMC3    C110502   1.448   0.725   0.987 -0.1986  0.6282  0.6499
  707TMC3    C210503   1.418   0.629   1.091 -0.0548  0.2799 -0.2162
  707TMC3    C310504   1.296   0.577   1.100  0.0999 -0.4192  0.3269
  707TMC3    C410505   1.349   0.771   0.899 -0.2953 -0.3571 -0.2651
  707TMC3    C510506   1.223   0.720   0.920  0.0010 -0.1487 -0.1385
  707TMC3    C610507   1.198   0.618   1.014 -0.3552 -1.1430  0.3685
  707TMC3     C10508   1.591   0.736   0.954  0.1866 -0.8707 -0.3972
  707TMC3     O10509   1.663   0.660   1.022  0.0161 -0.1599 -0.1949
  707TMC3     H10510   1.496   0.590   1.156 -1.3330 -1.9296  0.0035
  707TMC3    H110511   1.369   0.840   0.817 -1.4403  1.2717  0.8025
  707TMC3    H210512   1.101   0.568   1.018  0.6377 -2.9994  1.1069
  707TMC3    C710513   1.128   0.765   0.823 -0.2529  0.3999  0.0409
  707TMC3    C810514   1.276   0.462   1.189 -0.5347  1.0565  0.0192
  707TMC3    O110515   1.138   0.881   0.788 -0.2222 -0.4339 -0.6697
  707TMC3    O210516   1.155   0.438   1.206  0.2043 -0.0710 -0.3771
  708MPD2     C10517   2.477   4.640  14.290 -0.0143 -0.6177  0.0917
  708MPD2    C110518   2.390   0.006  14.300  0.2359 -0.1867  0.4467
  708MPD2    C210519   2.381   0.079  14.418 -0.8709  0.0687  0.4563
  708MPD2    C310520   2.470   0.065  14.523 -0.2242 -0.4605 -0.0758
  708MPD2    C410521   2.554   4.695  14.516 -0.5692  0.0468  0.3668
  708MPD2    C510522   2.558   4.621  14.396  1.2885 -0.1183 -0.7670
  708MPD2     H10523   2.307   0.159  14.422 -0.0755  0.7653  1.3006
  708MPD2    H110524   2.617   4.665  14.599 -0.0534  0.6575  0.1930
  708MPD2    H210525   2.479   4.581  14.199 -2.4349  1.0423 -1.0225
  708MPD2    H310526   2.618   4.532  14.379  0.4468 -0.7820 -0.2438
  708MPD2     N10527   2.468   0.157  14.635  0.1425  0.6912 -0.3782
  708MPD2    H510528   2.393   0.226  14.625 -0.4234 -0.2612 -2.6517
  708MPD2    N110529   2.287   0.027  14.208  0.1615 -0.2754  0.3750
  708MPD2    H710530   2.213   0.090  14.236  1.5269  1.3638  0.3309
  709TMC3    C110531   2.168   0.063  14.015 -0.3572 -0.5594 -0.4611
  709TMC3    C210532   2.196   0.152  13.909  0.1765  0.0367  0.3440
  709TMC3    C310533   2.119   0.261  13.894 -0.6809 -0.2142  0.2348
  709TMC3    C410534   2.069   0.103  14.102 -0.4718 -0.3345 -0.7441
  709TMC3    C510535   2.013   0.223  14.085  0.2637 -0.6203  0.3879
  709TMC3    C610536   2.020   0.304  13.977  0.2651  0.4494  0.5788
  709TMC3     C10537   2.287   4.731  14.070 -0.1260  0.1565 -0.1075
  709TMC3     O10538   2.386   4.719  13.999  0.0039  0.1857  0.0911
  709TMC3     H10539   2.266   0.117  13.834  1.8380  0.7341  1.5652
  709TMC3    H110540   2.051   0.039  14.188  0.3934  0.3263 -0.0748
  709TMC3    H210541   1.987   0.407  13.973 -2.6803 -0.4279  2.5834
  709TMC3    C710542   2.028   0.295  14.213 -0.4458  0.3599 -0.3527
  709TMC3    C810543   2.102   0.306  13.759  0.0250 -0.7150 -0.4055
  709TMC3    O110544   2.085   0.225  14.295  0.3389 -0.1761 -0.8647
  709TMC3    O210545   1.992   0.331  13.712 -0.3237  0.5709  0.3265
  710TMC3    C110546   3.392   1.331   0.359 -0.2550 -0.3386 -0.6648
  710TMC3    C210547   3.401   1.440   0.281 -0.4039 -1.4436  0.0625
  710TMC3    C310548   3.481   1.420   0.171 -0.6703  0.2575 -0.6937
  710TMC3    C410549   3.438   1.207   0.329 -0.0409  0.2037 -0.0611
  710TMC3    C510550   3.498   1.186   0.205  0.6350  0.6968 -0.2383
  710TMC3    C610551   3.533   1.298   0.130 -0.1656  0.6278 -0.3680
  710TMC3     C10552   3.338   1.337   0.489  0.0787  0.1201  0.0103
  710TMC3     O10553   3.322   1.229   0.542  0.1536  0.1106  0.1411
  710TMC3     H10554   3.368   1.538   0.314 -2.3073 -1.8200 -0.6979
  710TMC3    H110555   3.422   1.116   0.386 -0.2337  1.0662  1.2541
  710TMC3    H210556   3.590   1.271   0.042  1.2935  0.3146  0.6730
  710TMC3    C710557   3.575   1.064   0.195  0.4999  0.5425 -0.1824
  710TMC3    C810558   3.522   1.530   0.087 -0.1206 -0.1720 -0.0060
  710TMC3    O110559   3.526   0.967   0.141 -0.0053 -0.3691 -0.3001
  710TMC3    O210560   3.616   1.508   0.015 -0.2431  0.3624  0.2317
  711TMC3    C110561   3.222   3.101  14.964 -0.0477  0.7172  0.2055
  711TMC3    C210562   3.213   3.198  15.057  0.1836  0.3065 -0.3277
  711TMC3    C310563   3.322   3.255  15.107 -0.3438  0.3629 -0.4018
  711TMC3    C410564   3.341   3.055  14.914  0.1818  0.3109  0.0323
  711TMC3    C510565   3.453   3.117  14.955  0.4832  0.1614  0.4338
  711TMC3    C610566   3.447   3.215  15.051  0.0575  0.9199 -0.5542
  711TMC3     C10567   3.104   3.048  14.898 -0.2453 -0.3375  0.7615
  711TMC3     O10568   3.125   2.937  14.850  0.3849  0.1062  0.1363
  711TMC3     H10569   3.117   3.216  15.104 -0.5659 -0.8453 -1.4332
  711TMC3    H110570   3.334   2.990  14.827  1.8436 -0.8282  0.7412
  711TMC3    H210571   3.541   3.263  15.078  0.7375 -1.4583  1.2880
  711TMC3    C710572   3.578   3.045  14.939  0.6059 -0.0930  0.1982
  711TMC3    C810573   3.310   3.320  15.238 -0.4736 -0.7229  0.3816
  711TMC3    O110574   3.670   3.087  15.012 -0.9615  0.0380 -0.0661
  711TMC3    O210575   3.200   3.353  15.278 -0.0692  0.3352 -0.5368
  712MPD2     C10576   0.158   4.071  13.864  0.8888  0.0583  0.3443
  712MPD2    C110577   0.077   4.121  13.760 -0.5454  0.0385 -0.4074
  712MPD2    C210578   0.111   4.244  13.697 -0.3416 -0.2508  0.1290
  712MPD2    C310579   0.208   4.331  13.753  0.4476 -0.0759 -0.5801
  712MPD2    C410580   0.285   4.286  13.860  0.3342 -0.1180  0.2281
  712MPD2    C510581   0.255   4.154  13.908  0.2522 -0.0344 -0.4453
  712MPD2     H10582   0.055   4.279  13.611  1.3159 -2.1179 -1.7044
  712MPD2    H110583   0.371   4.338  13.900  1.3134 -1.5664  0.0096
  712MPD2    H210584   0.146   3.974  13.912 -2.4306  1.3402  2.1096
  712MPD2    H310585   0.316   4.117  13.990 -2.0956 -2.4755  0.1790
  712MPD2     N10586   0.242   4.466  13.709  0.2755  0.0772  1.1966
  712MPD2    H510587   0.307   4.513  13.769  1.3655  1.1880 -0.8573
  712MPD2    N110588   4.710   4.058  13.697  0.1483  0.0897 -0.5061
  712MPD2    H710589   4.661   4.109  13.624 -2.3839 -1.2194  0.2788
  713TMC3    C110590   0.239   4.655  13.568 -0.2322  1.2595 -0.2769
  713TMC3    C210591   0.378   4.666  13.569  0.0876  0.2366  0.8344
  713TMC3    C310592   0.429   0.040  13.514  0.2864 -0.4972 -0.3305
  713TMC3    C410593   0.151   0.007  13.515  0.8187  0.2409  0.2494
  713TMC3    C510594   0.213   0.113  13.463  0.2245  0.6021 -0.3894
  713TMC3    C610595   0.346   0.136  13.463 -0.1581 -0.4074  0.4441
  713TMC3     C10596   0.182   4.532  13.606  0.6253  0.5518  0.9358
  713TMC3     O10597   0.079   4.502  13.548 -0.0647 -0.1552 -0.2121
  713TMC3     H10598   0.439   4.607  13.637  0.6955 -1.0973 -0.8593
  713TMC3    H110599   0.043   4.734  13.513  0.7856  0.4295  1.0030
  713TMC3    H210600   0.386   0.233  13.435 -1.3714  0.0880  0.4511
  713TMC3    C710601   0.129   0.231  13.461  0.7722  0.7269 -0.3007
  713TMC3    C810602   0.570   0.087  13.538  0.1830  0.4448 -0.4402
  713TMC3    O110603   0.186   0.337  13.450  0.3735 -1.0280  0.4764
  713TMC3    O210604   0.611   0.186  13.476 -0.2230 -0.4697 -0.1525
  714MPD2     C10605   2.055   2.816   1.197  0.0938 -0.6261  1.0748
  714MPD2    C110606   2.060   2.679   1.194 -0.0604 -0.7501  0.5701
  714MPD2    C210607   1.955   2.607   1.137 -0.0778 -0.2026  0.4705
  714MPD2    C310608   1.846   2.680   1.086  0.3977  0.8732  0.3499
  714MPD2    C410609   1.850   2.815   1.080  0.3268  0.3289  0.1041
  714MPD2    C510610   1.952   2.881   1.133 -0.1612 -0.0122 -0.4066
  714MPD2     H10611   1.953   2.500   1.124 -0.5020 -0.3478  1.6877
  714MPD2    H110612   1.776   2.876   1.029 -0.0031  0.4848  0.7605
  714MPD2    H210613   2.139   2.862   1.248 -0.2138 -1.1102  2.0385
  714MPD2    H310614   1.961   2.989   1.128  1.3272  0.0034  2.9830
  714MPD2     N10615   1.738   2.593   1.044 -1.0228  0.0401 -0.4940
  714MPD2    H510616   1.748   2.492   1.045 -1.6009 -0.0170 -0.7982
  714MPD2    N110617   2.173   2.613   1.241 -0.0262  0.1381 -0.4937
  714MPD2    H710618   2.233   2.672   1.298 -0.0973  0.5813 -0.8840
  715TMC3    C110619   2.319   2.434   1.289 -0.2159  0.0083 -0.2291
  715TMC3    C210620   2.347   2.303   1.270  0.2570  0.2738 -0.3567
  715TMC3    C310621   2.472   2.257   1.304 -0.2851 -0.4636  0.4393
  715TMC3    C410622   2.416   2.523   1.336 -0.1111  0.5564 -0.3555
  715TMC3    C510623   2.540   2.469   1.360  0.4607 -0.0555 -0.0677
  715TMC3    C610624   2.571   2.333   1.363 -0.1761 -0.2952  0.0010
  715TMC3     C10625   2.198   2.483   1.231  0.4946 -0.5641  0.0877
  715TMC3     O10626   2.144   2.402   1.155 -0.0785 -0.4831 -0.2122
  715TMC3     H10627   2.268   2.229   1.259 -1.0114  1.3028  1.8805
  715TMC3    H110628   2.402   2.630   1.348 -1.0064  0.5160 -1.0320
  715TMC3    H210629   2.673   2.300   1.375 -0.8080 -2.2857 -0.2252
  715TMC3    C710630   2.636   2.556   1.424 -0.1330 -0.0533 -0.2024
  715TMC3    C810631   2.484   2.118   1.274 -0.5310 -0.0855 -0.8888
  715TMC3    O110632   2.749   2.513   1.439  0.2171  0.1677  0.6132
  715TMC3    O210633   2.396   2.058   1.215  0.1715  0.0509  0.0554
  716MPD2     C10634   1.819   0.615   9.873  0.1969  0.4967 -0.4091
  716MPD2    C110635   1.719   0.666   9.797  0.1366  0.1296  1.0366
  716MPD2    C210636   1.718   0.643   9.660 -0.9745 -1.0061 -0.1336
  716MPD2    C310637   1.823   0.567   9.605  0.4934 -0.0163  0.2392
  716MPD2    C410638   1.928   0.522   9.683 -0.2726  0.0046  0.3925
  716MPD2    C510639   1.918   0.541   9.817 -0.1893 -0.4463  0.0100
  716MPD2     H10640   1.628   0.666   9.604 -1.3699 -1.5537  0.2813
  716MPD2    H110641   2.018   0.478   9.641 -1.1754 -0.2322 -1.2997
  716MPD2    H210642   1.821   0.629   9.980 -1.2155  1.1385 -0.4702
  716MPD2    H310643   1.999   0.497   9.874  0.2093  2.0821  1.4069
  716MPD2     N10644   1.805   0.533   9.470 -0.1208 -0.4061 -0.3496
  716MPD2    H510645   1.726   0.579   9.427 -0.0900  1.1487  1.2661
  716MPD2    N110646   1.610   0.738   9.863  0.2001  0.8344  0.4103
  716MPD2    H710647   1.598   0.733   9.964  1.0242 -0.5671  0.4355
  717TMC3    C110648   1.821   0.424   9.266 -0.2834 -0.8319 -0.7988
  717TMC3    C210649   1.687   0.453   9.258 -0.1652  0.4074 -0.4541
  717TMC3    C310650   1.645   0.490   9.135  0.7905 -0.7420 -0.7087
  717TMC3    C410651   1.909   0.432   9.165 -0.7570 -0.3786  0.6685
  717TMC3    C510652   1.859   0.453   9.044 -0.3003  0.0739 -0.3264
  717TMC3    C610653   1.728   0.480   9.024 -0.1349 -0.3347  0.3338
  717TMC3     C10654   1.878   0.442   9.392 -0.1814  0.2414  0.0086
  717TMC3     O10655   1.991   0.400   9.411  0.2952  0.0342  0.0174
  717TMC3     H10656   1.619   0.462   9.342  0.7160 -1.7174  0.4754
  717TMC3    H110657   2.015   0.416   9.183 -0.6950  0.2454  0.8674
  717TMC3    H210658   1.689   0.491   8.924  0.1680  0.3761  0.2931
  717TMC3    C710659   1.941   0.431   8.931 -0.3228  0.0961 -0.0907
  717TMC3    C810660   1.513   0.543   9.118 -0.4069 -0.4771 -0.0317
  717TMC3    O110661   1.909   0.486   8.831 -0.6375 -0.4243 -0.0793
  717TMC3    O210662   1.427   0.513   9.201  0.2620 -0.5430 -0.0656
  718MPD2     C10663   1.236   4.710  12.216  0.1577  0.3798 -0.6251
  718MPD2    C110664   1.273   4.583  12.253 -0.6694  0.2046  0.1333
  718MPD2    C210665   1.238   4.538  12.381  0.3689 -0.3745  0.1601
  718MPD2    C310666   1.167   4.618  12.469  0.2124  0.2936 -0.0487
  718MPD2    C410667   1.136   0.004  12.428  0.0697 -0.2427  0.0198
  718MPD2    C510668   1.173   0.051  12.308  0.3012  0.3509  0.4066
  718MPD2     H10669   1.270   4.442  12.421  0.5637 -0.4265 -0.1269
  718MPD2    H110670   1.082   0.079  12.486 -0.4209  0.5842 -1.4989
  718MPD2    H210671   1.259   0.013  12.118 -0.1573  0.8274 -0.5139
  718MPD2    H310672   1.135   0.146  12.272 -0.0353 -0.1830 -0.6366
  718MPD2     N10673   1.141   4.570  12.599 -0.3612  0.5828 -0.0737
  718MPD2    H510674   1.174   4.475  12.609 -0.5257  0.2552 -2.7397
  718MPD2    N110675   1.362   4.504  12.177  0.0420  0.1403 -0.2192
  718MPD2    H710676   1.406   4.549  12.097 -0.8664 -2.0666 -1.9455
  719TMC3    C110677   1.495   4.313  12.104  1.0501 -0.4803 -0.0858
  719TMC3    C210678   1.505   4.178  12.135 -0.0744  0.9706  0.3262
  719TMC3    C310679   1.622   4.112  12.148  0.6398 -0.0267 -0.3385
  719TMC3    C410680   1.614   4.383  12.092  0.1174  0.1848  0.8200
  719TMC3    C510681   1.732   4.313  12.094 -0.9393 -0.1762  0.4981
  719TMC3    C610682   1.736   4.177  12.122  0.4497 -0.0342 -0.4485
  719TMC3     C10683   1.391   4.374  12.192 -0.3445 -0.6039 -0.2136
  719TMC3     O10684   1.349   4.300  12.278 -0.0932 -0.0094 -0.7832
  719TMC3     H10685   1.415   4.123  12.158  1.4181 -1.3816  0.5733
  719TMC3    H110686   1.611   4.492  12.086  2.6130  0.3139  1.9485
  719TMC3    H210687   1.829   4.125  12.142 -0.7585 -1.2717  1.9702
  719TMC3    C710688   1.857   4.396  12.086 -0.1800 -0.0889  0.9564
  719TMC3    C810689   1.639   4.048  12.274 -0.5725  0.1478 -0.0208
  719TMC3    O110690   1.841   4.510  12.046 -0.3157 -0.1740 -0.1778
  719TMC3    O210691   1.730   3.965  12.294  0.0836 -0.6424  0.7940
  720MPD2     C10692   4.443   1.473  13.828  0.1794  0.8866 -0.0525
  720MPD2    C110693   4.561   1.478  13.760 -0.2508  0.4106 -0.5252
  720MPD2    C210694   4.684   1.459  13.819  0.2402 -0.2556 -0.4365
  720MPD2    C310695   4.688   1.439  13.959 -0.3143  0.6242  0.2195
  720MPD2    C410696   4.571   1.444  14.030  0.2228  0.0753  0.2401
  720MPD2    C510697   4.449   1.461  13.967 -0.2906  0.1262 -0.4336
  720MPD2     H10698   0.029   1.421  13.760  0.7255  0.9713 -0.5388
  720MPD2    H110699   4.563   1.441  14.138 -2.4900  0.2418  0.0491
  720MPD2    H210700   4.345   1.480  13.784  0.2511 -1.1948 -0.5388
  720MPD2    H310701   4.360   1.446  14.027  0.2375 -1.8818 -0.1548
  720MPD2     N10702   0.075   1.421  14.027 -0.2691 -0.0090  0.3157
  720MPD2    H510703   0.160   1.416  13.972 -0.1381  0.8720  0.4407
  720MPD2    N110704   4.564   1.471  13.618 -0.0765 -0.3797  0.4406
  720MPD2    H710705   4.656   1.458  13.577 -0.7775 -0.5021 -1.0840
  721TMC3    C110706   0.229   1.476  14.207  0.2514 -0.2630 -0.0197
  721TMC3    C210707   0.247   1.539  14.332 -0.4977  0.2970  0.4273
  721TMC3    C310708   0.381   1.577  14.354  0.4134 -0.5061 -0.3351
  721TMC3    C410709   0.332   1.416  14.137  0.4200 -0.4524  0.0833
  721TMC3    C510710   0.456   1.471  14.155 -0.0906 -0.5781 -0.5301
  721TMC3    C610711   0.482   1.547  14.267  0.1493 -0.1179  0.1492
  721TMC3     C10712   0.093   1.455  14.161  0.6564  0.5964 -0.2382
  721TMC3     O10713   0.014   1.488  14.248  0.1151  0.4788  0.1859
  721TMC3     H10714   0.179   1.606  14.384  0.4293  0.5260  1.3502
  721TMC3    H110715   0.316   1.351  14.052  1.8420 -0.0784 -0.4569
  721TMC3    H210716   0.586   1.564  14.295 -0.7982  2.4697  2.1467
  721TMC3    C710717   0.571   1.391  14.138  0.0379  1.4647  0.4599
  721TMC3    C810718   0.431   1.593  14.488 -0.1500  0.3947 -0.0972
  721TMC3    O110719   0.625   1.407  14.028  0.2694 -0.2218 -0.4167
  721TMC3    O210720   0.549   1.565  14.507  0.0866 -0.1409  0.9006
  722MPD2     C10721   3.680   0.033  13.247 -0.0351 -0.0946 -0.1934
  722MPD2    C110722   3.661   0.169  13.231 -0.2157  0.2158  0.2130
  722MPD2    C210723   3.540   0.210  13.175 -0.2557  0.0129  0.1651
  722MPD2    C310724   3.441   0.123  13.142  0.4258  0.3160 -0.6391
  722MPD2    C410725   3.466   4.726  13.158 -0.3141  0.6873 -0.3303
  722MPD2    C510726   3.581   4.682  13.220 -0.6123 -0.5551 -0.4876
  722MPD2     H10727   3.526   0.315  13.151 -0.7693  0.0996  0.8496
  722MPD2    H110728   3.383   4.657  13.146  0.5801 -0.3164 -0.7331
  722MPD2    H210729   3.777   4.724  13.260 -1.6383 -2.7364  2.1647
  722MPD2    H310730   3.606   4.577  13.227  1.0890 -0.0592  0.8476
  722MPD2     N10731   3.321   0.168  13.079  0.3139  0.0627 -0.6701
  722MPD2    H510732   3.314   0.267  13.057  3.1948  0.6977  1.2875
  722MPD2    N110733   3.761   0.265  13.269 -0.6150  0.1652 -0.4478
  722MPD2    H710734   3.732   0.357  13.236  0.3736  0.7307  0.2554
  723TMC3    C110735   3.114   0.180  12.968 -0.0901  0.0426  0.1209
  723TMC3    C210736   3.035   0.124  12.872  0.0654 -0.1220 -0.2933
  723TMC3    C310737   2.964   0.206  12.798  0.5514 -0.1044  0.9018
  723TMC3    C410738   3.106   0.304  13.010  0.1608  0.4747  0.4482
  723TMC3    C510739   3.019   0.379  12.936 -0.0941  0.4941  0.2001
  723TMC3    C610740   2.953   0.339  12.823  0.2894 -0.2019  0.8613
  723TMC3     C10741   3.207   0.097  13.044  0.2850  0.5632  0.3458
  723TMC3     O10742   3.176   4.719  13.049  0.0256  0.1781  0.1871
  723TMC3     H10743   3.055   0.020  12.848  0.6764 -0.2830  0.9350
  723TMC3    H110744   3.155   0.342  13.099  4.2646 -1.0724 -1.1697
  723TMC3    H210745   2.894   0.409  12.765  0.3673  1.9037  3.3244
  723TMC3    C710746   3.024   0.522  12.942  0.1874  0.4433  0.8341
  723TMC3    C810747   2.850   0.146  12.718 -0.5874 -0.4222  0.3173
  723TMC3    O110748   3.036   0.591  12.840  0.0371  0.4023 -0.0420
  723TMC3    O210749   2.764   0.226  12.672  0.0937  0.0371  0.1887
  724TMC3    C110750   3.865   2.891   9.694  0.2996 -1.4575  0.6317
  724TMC3    C210751   3.811   2.981   9.600 -0.0294 -0.3021 -0.0246
  724TMC3    C310752   3.893   3.067   9.533  0.2025 -0.3222 -0.1871
  724TMC3    C410753   3.992   2.907   9.737 -0.0250  0.1623  0.1566
  724TMC3    C510754   4.066   3.003   9.680  0.9862  1.2939 -0.4737
  724TMC3    C610755   4.023   3.082   9.569 -0.2526  0.7919  0.6748
  724TMC3     C10756   3.777   2.807   9.771  0.3715  0.2094 -0.7139
  724TMC3     O10757   3.830   2.727   9.849 -0.2500  0.0956  0.5975
  724TMC3     H10758   3.713   2.956   9.559 -0.3604 -1.0779  1.2426
  724TMC3    H110759   4.036   2.837   9.809  1.6783 -1.2336 -2.2327
  724TMC3    H210760   4.094   3.139   9.510 -1.7555  0.2838 -1.6223
  724TMC3    C710761   4.209   3.015   9.713 -0.4485  0.2777 -0.0492
  724TMC3    C810762   3.853   3.139   9.417  0.4839 -0.2862 -0.4137
  724TMC3    O110763   4.281   3.089   9.648  0.2256 -0.1593 -0.6487
  724TMC3    O210764   3.792   3.078   9.337  0.7888  0.3789  0.3358
  725TMC3    C110765   0.288   1.924  12.991  0.2183 -0.5823 -0.3608
  725TMC3    C210766   0.299   1.890  12.861  0.5789 -0.1961 -0.1504
  725TMC3    C310767   0.280   1.758  12.828 -0.1233 -0.0297 -0.0739
  725TMC3    C410768   0.262   1.831  13.089  0.4979 -0.3037  0.6645
  725TMC3    C510769   0.267   1.699  13.057 -0.5537 -0.3664 -0.1612
  725TMC3    C610770   0.283   1.660  12.923 -0.3352 -0.7325  0.2790
  725TMC3     C10771   0.392   2.028  13.029 -0.0903  0.0725 -0.4618
  725TMC3     O10772   0.396   2.120  12.949  0.4846 -0.4204  0.4570
  725TMC3     H10773   0.332   1.968  12.794 -0.7109  1.9351  1.6846
  725TMC3    H110774   0.236   1.869  13.187 -0.6459  0.4461  0.0577
  725TMC3    H210775   0.308   1.558  12.894 -0.7221  0.1306 -3.0306
  725TMC3    C710776   0.350   1.633  13.157 -0.0929  0.0683  0.4397
  725TMC3    C810777   0.261   1.715  12.693 -0.2094 -0.2812  0.0046
  725TMC3    O110778   0.378   1.703  13.254 -0.1573  0.2858  0.4342
  725TMC3    O210779   0.238   1.593  12.682 -0.4969 -0.4705 -0.9493
  726MPD2     C10780   3.030   2.964  10.385  0.1562  0.5633  0.1099
  726MPD2    C110781   2.930   3.061  10.387  0.2563 -0.6924  0.2506
  726MPD2    C210782   2.821   3.053  10.471 -0.3172  0.0838 -0.0923
  726MPD2    C310783   2.812   2.940  10.554 -0.5007  0.2734 -0.8573
  726MPD2    C410784   2.907   2.844  10.552 -0.0123 -0.5960 -0.1532
  726MPD2    C510785   3.011   2.860  10.468 -0.7027  0.0227 -0.6040
  726MPD2     H10786   2.765   3.143  10.493  2.1730  1.3758  0.9198
  726MPD2    H110787   2.911   2.758  10.618  0.4781  0.0751  0.6884
  726MPD2    H210788   3.117   2.956  10.321  0.5602  1.3579  0.5594
  726MPD2    H310789   3.093   2.790  10.482 -0.8060 -0.0907 -0.5648
  726MPD2     N10790   2.716   2.933  10.660  0.3506  0.3038  0.0441
  726MPD2    H510791   2.738   2.872  10.737 -0.3098 -0.7741 -0.6073
  726MPD2    N110792   2.949   3.176  10.305  0.1955 -0.0895  0.6624
  726MPD2    H710793   2.882   3.252  10.308  0.0689 -0.1165 -1.6322
  727TMC3    C110794   3.050   3.332  10.151  0.9375 -0.0954  0.1258
  727TMC3    C210795   3.152   3.419  10.151  0.3940 -0.6648 -0.1444
  727TMC3    C310796   3.124   3.551  10.153  0.2973 -0.2083 -0.5509
  727TMC3    C410797   2.917   3.367  10.140 -0.1896 -0.1731  1.1156
  727TMC3    C510798   2.896   3.502  10.115 -0.7547 -0.2627 -0.8484
  727TMC3    C610799   2.996   3.599  10.139  0.2159  0.2807  0.5728
  727TMC3     C10800   3.063   3.211  10.232 -0.1570 -0.1836  0.1757
  727TMC3     O10801   3.174   3.164  10.245  0.3958  0.1800 -0.0100
  727TMC3     H10802   3.254   3.384  10.156  0.4919 -0.2580  0.8963
  727TMC3    H110803   2.844   3.292  10.110  2.5682 -1.5718 -2.1047
  727TMC3    H210804   2.968   3.703  10.155 -0.7110  0.0004  0.7638
  727TMC3    C710805   2.758   3.538  10.085 -0.4084  0.2845  0.0276
  727TMC3    C810806   3.231   3.640  10.200  0.4712  1.0559  0.7275
  727TMC3    O110807   2.673   3.446  10.083 -0.3988 -0.7584  0.5238
  727TMC3    O210808   3.338   3.586  10.224 -0.2664 -0.3721  0.0844
  728TMC3    C110809   3.103   1.685  15.127 -0.4538 -0.1914  0.4669
  728TMC3    C210810   3.214   1.765  15.120  0.2522 -0.0296 -0.1752
  728TMC3    C310811   3.211   1.869  15.036 -0.0730 -0.3713  0.6613
  728TMC3    C410812   2.998   1.703  15.038  0.3642 -0.2051  0.5873
  728TMC3    C510813   3.000   1.807  14.951  0.3579  0.5026 -0.7130
  728TMC3    C610814   3.103   1.901  14.956 -0.3604 -0.3542  0.0609
  728TMC3     C10815   3.073   1.639  15.261  0.1047 -0.0334 -0.1230
  728TMC3     O10816   3.167   1.636  15.338  0.0763 -0.2972  0.1559
  728TMC3     H10817   3.310   1.743  15.164  0.2055  0.9462  0.4006
  728TMC3    H110818   2.911   1.639  15.038  0.9787 -1.0437  0.9829
  728TMC3    H210819   3.115   1.977  14.880  0.0740 -1.0375 -0.5683
  728TMC3    C710820   2.907   1.803  14.835  0.2664 -0.6135 -0.1193
  728TMC3    C810821   3.310   1.974  15.054 -0.0543  0.8422 -0.6196
  728TMC3    O110822   2.850   1.693  14.815 -0.3113 -0.1745  0.5329
  728TMC3    O210823   3.423   1.939  15.078  0.0914 -0.0937 -0.3575
  729MPD2     C10824   4.624   3.223  16.315  0.6130 -0.5241 -0.6300
  729MPD2    C110825   4.709   3.164  16.402  0.1353 -0.3753  0.2824
  729MPD2    C210826   4.662   3.127  16.526  0.2707 -0.9582  0.2732
  729MPD2    C310827   4.527   3.142  16.564  0.8030  0.2105  0.1381
  729MPD2    C410828   4.443   3.205  16.480  0.5780  0.0471 -0.4391
  729MPD2    C510829   4.489   3.240  16.355  0.2104  0.3543 -0.2998
  729MPD2     H10830   4.732   3.107  16.606  0.3805 -1.7070 -0.0139
  729MPD2    H110831   4.336   3.211  16.499  0.7076 -0.6844  0.5340
  729MPD2    H210832   4.657   3.240  16.213 -0.5473 -2.2330 -1.2917
  729MPD2    H310833   4.420   3.269  16.277  0.6253 -0.3772 -0.9459
  729MPD2     N10834   4.475   3.101  16.690 -0.1236  0.1092 -0.3116
  729MPD2    H510835   4.387   3.147  16.711 -0.2697 -0.0708 -0.5304
  729MPD2    N110836   0.110   3.165  16.372 -0.3415 -0.1054 -0.2067
  729MPD2    H710837   0.139   3.209  16.285 -0.3357  1.9542  0.8308
  730TMC3    C110838   4.491   3.033  16.912  0.3768 -0.3314  0.3898
  730TMC3    C210839   4.573   2.972  17.002 -0.7664  0.1804 -0.0857
  730TMC3    C310840   4.598   3.037  17.115  0.4070 -0.2460 -0.1045
  730TMC3    C410841   4.414   3.140  16.946 -0.4425 -0.2532 -0.6865
  730TMC3    C510842   4.443   3.203  17.063 -0.3764 -0.0274  0.0461
  730TMC3    C610843   4.530   3.143  17.156  0.5268 -0.2899  0.0721
  730TMC3     C10844   4.545   3.028  16.779  0.2223 -0.0296  0.0111
  730TMC3     O10845   4.652   2.969  16.768 -0.4730 -0.4365 -0.2360
  730TMC3     H10846   4.632   2.884  16.977 -1.1696  0.3251 -1.5314
  730TMC3    H110847   4.358   3.196  16.873  0.8028  1.0029 -0.6720
  730TMC3    H210848   4.556   3.188  17.251 -0.4993 -2.8672  1.5973
  730TMC3    C710849   4.392   3.337  17.084  0.0965  0.2184 -0.8817
  730TMC3    C810850   0.001   3.042  17.163  0.1808  0.0680  0.0827
  730TMC3    O110851   4.307   3.384  17.011  0.1643  0.0141 -0.0440
  730TMC3    O210852   0.064   2.941  17.139  0.1643  0.0827 -0.7632
  731MPD2     C10853   4.443   0.636  12.414  0.2976  0.2017 -0.7534
  731MPD2    C110854   4.560   0.693  12.457  0.4329  0.5418 -0.9772
  731MPD2    C210855   4.598   0.684  12.593 -0.6999  0.8512 -0.5310
  731MPD2    C310856   4.514   0.620  12.686 -0.6793  0.0852 -0.1621
  731MPD2    C410857   4.390   0.579  12.637 -0.1150  0.5400  0.2385
  731MPD2    C510858   4.361   0.576  12.505 -0.1071  0.5774  0.7222
  731MPD2     H10859   4.689   0.733  12.626  1.0015 -2.6027 -0.0952
  731MPD2    H110860   4.318   0.521  12.695 -0.2743  1.1297  0.6306
  731MPD2    H210861   4.411   0.634  12.310  1.8562 -0.0799 -1.2305
  731MPD2    H310862   4.277   0.525  12.458  0.5961  1.6146 -1.6232
  731MPD2     N10863   4.549   0.604  12.824 -0.4315  0.0057  0.2197
  731MPD2    H510864   4.646   0.627  12.844  0.7711 -2.4045 -2.7043
  731MPD2    N110865   4.632   0.767  12.358  0.1503  0.2729  0.2886
  731MPD2    H710866   4.586   0.776  12.268  0.9853 -2.1834 -0.3739
  732TMC3    C110867   0.052   0.943  12.287  0.5686  0.6796  0.4453
  732TMC3    C210868   4.704   0.986  12.184 -0.4013  0.6063  0.2334
  732TMC3    C310869   4.731   1.104  12.119 -0.5357 -0.2113  0.2194
  732TMC3    C410870   0.161   1.020  12.326 -0.1673  0.7430  0.2406
  732TMC3    C510871   0.176   1.141  12.269  0.1510 -0.2681  0.3488
  732TMC3    C610872   0.095   1.178  12.165  0.3558  0.6937 -0.2910
  732TMC3     C10873   0.008   0.839  12.388  0.5760 -0.4683  0.2883
  732TMC3     O10874   0.070   0.842  12.492  0.1035  0.8692 -0.3267
  732TMC3     H10875   4.638   0.909  12.146  0.6230 -0.3408  0.3728
  732TMC3    H110876   0.236   0.983  12.396  1.5579 -1.6883 -2.9151
  732TMC3    H210877   0.111   1.277  12.123  1.4650  0.5435 -0.2152
  732TMC3    C710878   0.286   1.235  12.300 -0.4941  0.1564 -0.2427
  732TMC3    C810879   4.629   1.166  12.040  0.5453 -0.7061 -0.3487
  732TMC3    O110880   0.311   1.328  12.224 -0.1113 -0.1433 -0.3381
  732TMC3    O210881   4.673   1.241  11.950  0.0186  0.3610 -0.0753
  733TMC3    C110882   1.055   4.434  13.001 -0.6417  0.3629  0.3650
  733TMC3    C210883   1.041   4.543  12.914  0.3839  0.1183 -0.4809
  733TMC3    C310884   1.146   4.560  12.827  0.1471  0.6417  0.3642
  733TMC3    C410885   1.167   4.349  13.002  0.0617  0.0184 -0.4329
  733TMC3    C510886   1.262   4.375  12.905  0.0472 -0.0836 -0.3005
  733TMC3    C610887   1.258   4.480  12.823  0.2158  0.5174 -0.2121
  733TMC3     C10888   0.922   4.380  13.047 -0.1208  0.2507 -0.3243
  733TMC3     O10889   0.835   4.452  13.004  0.7939 -0.2676 -0.8177
  733TMC3     H10890   0.948   4.597  12.901  0.6014  0.5986 -0.0740
  733TMC3    H110891   1.172   4.263  13.067 -0.5204  0.5975  0.3656
  733TMC3    H210892   1.339   4.510  12.758  1.2639 -1.2659  0.2645
  733TMC3    C710893   1.368   4.273  12.890  0.3557  0.5164 -0.0696
  733TMC3    C810894   1.116   4.638  12.709 -0.3640 -0.1317  0.2317
  733TMC3    O110895   1.386   4.205  12.993  0.1973 -0.6298 -0.3572
  733TMC3    O210896   1.104   0.020  12.723  0.0646 -0.1343  0.7317
  734MPD2     C10897   3.186   1.589  12.438  0.1662  0.3191  0.4907
  734MPD2    C110898   3.077   1.591  12.351  0.2626 -0.4268  0.1370
  734MPD2    C210899   3.064   1.708  12.284 -0.7006  0.1921  0.4151
  734MPD2    C310900   3.156   1.818  12.290  0.2825  0.3062 -0.8143
  734MPD2    C410901   3.256   1.813  12.379  0.2969  0.6385  0.2274
  734MPD2    C510902   3.273   1.692  12.447  0.3434 -0.1139  0.2020
  734MPD2     H10903   2.984   1.711  12.211  0.6675 -0.0011 -1.0832
  734MPD2    H110904   3.325   1.896  12.387 -0.4938  1.3497 -0.3164
  734MPD2    H210905   3.204   1.505  12.504  0.0858  0.0928  0.2265
  734MPD2    H310906   3.352   1.691  12.521  1.5763  1.5594 -1.0961
  734MPD2     N10907   3.138   1.916  12.194 -0.2744  0.3866 -0.1065
  734MPD2    H510908   3.050   1.913  12.144  0.0043  1.4814 -0.6558
  734MPD2    N110909   2.988   1.482  12.349  0.2722 -0.3647  0.2604
  734MPD2    H710910   3.009   1.405  12.412  0.6808 -0.5878 -0.1461
  735TMC3    C110911   2.816   1.346  12.272  0.1868 -0.2271 -0.2456
  735TMC3    C210912   2.691   1.345  12.205 -0.2159 -0.3356 -0.8239
  735TMC3    C310913   2.665   1.249  12.112 -0.4207  0.1665  0.2334
  735TMC3    C410914   2.911   1.245  12.239 -0.9691  0.0385  0.3908
  735TMC3    C510915   2.868   1.138  12.158 -0.1270  0.1828 -0.2318
  735TMC3    C610916   2.745   1.132  12.105 -0.0574  0.2928  1.1325
  735TMC3     C10917   2.873   1.474  12.281  0.3334  0.4808  0.0356
  735TMC3     O10918   2.804   1.550  12.214 -0.9057 -0.2777 -0.3059
  735TMC3     H10919   2.624   1.428  12.221  0.6079 -0.0932  1.5240
  735TMC3    H110920   3.008   1.242  12.288 -0.2877  0.0847 -0.9527
  735TMC3    H210921   2.716   1.055  12.035  2.3916 -0.0157  0.4833
  735TMC3    C710922   2.974   1.054  12.108 -0.4391 -0.1204  0.5823
  735TMC3    C810923   2.637   1.310  11.986  0.4821 -0.0919 -0.8317
  735TMC3    O110924   3.087   1.106  12.112  0.1304 -0.1517 -0.6670
  735TMC3    O210925   2.627   1.232  11.891  0.4016  0.1274  0.0851
  736MPD2     C10926   3.026   0.701  12.028  0.6704 -0.2628 -0.3025
  736MPD2    C110927   3.043   0.841  12.029 -0.0029  0.4382  0.6094
  736MPD2    C210928   3.156   0.888  11.961  0.0530  0.1426  0.4020
  736MPD2    C310929   3.239   0.801  11.890 -0.7387 -0.1724  0.1268
  736MPD2    C410930   3.211   0.667  11.886  0.4125 -0.0024  0.8209
  736MPD2    C510931   3.107   0.616  11.956  0.4691  0.5375  0.4107
  736MPD2     H10932   3.178   0.993  11.970 -0.4111  0.3657 -1.0761
  736MPD2    H110933   3.273   0.604  11.824  1.7609  1.1804  0.9873
  736MPD2    H210934   2.945   0.651  12.079  0.3584  0.3394 -0.2155
  736MPD2    H310935   3.097   0.508  11.961  1.4015  0.3926 -0.6147
  736MPD2     N10936   3.346   0.847  11.820 -0.0991 -0.2592 -0.0267
  736MPD2    H510937   3.413   0.775  11.796  0.4440  0.6948 -1.3258
  736MPD2    N110938   2.942   0.924  12.080  0.6707 -0.4662  0.5767
  736MPD2    H710939   2.854   0.885  12.111  0.5008 -2.3186 -2.2545
  737TMC3    C110940   3.496   1.002  11.714  0.5499 -0.0808 -0.0792
  737TMC3    C210941   3.504   1.129  11.660  0.7751 -0.0699  0.7748
  737TMC3    C310942   3.584   1.150  11.546 -0.4490 -0.8416 -0.1086
  737TMC3    C410943   3.556   0.898  11.647 -0.5853  0.9639 -0.4004
  737TMC3    C510944   3.627   0.922  11.535  0.0100 -0.2748 -0.8613
  737TMC3    C610945   3.646   1.048  11.484 -0.5937  0.4792 -0.5972
  737TMC3     C10946   3.368   0.978  11.779 -0.3127  0.0030  0.1840
  737TMC3     O10947   3.288   1.070  11.774  0.1491  0.3103 -0.5054
  737TMC3     H10948   3.457   1.216  11.706  0.4132 -0.1940  0.6420
  737TMC3    H110949   3.542   0.796  11.680  1.2946  0.3146 -1.6021
  737TMC3    H210950   3.710   1.073  11.400  1.4606 -0.1740  0.7625
  737TMC3    C710951   3.660   0.811  11.453  0.0989  0.3063  0.0759
  737TMC3    C810952   3.614   1.291  11.510 -0.3298  0.1366  0.2480
  737TMC3    O110953   3.693   0.713  11.518  0.1111  0.1579  0.0342
  737TMC3    O210954   3.625   1.378  11.595  0.4378 -0.3787 -0.4924
  738MPD2     C10955   4.677   0.050  15.255 -0.3779  0.2031  0.7885
  738MPD2    C110956   4.573   0.068  15.163  0.1948 -0.0837  1.0955
  738MPD2    C210957   4.599   0.149  15.051  0.1321 -0.1322 -0.4862
  738MPD2    C310958   4.720   0.207  15.028 -0.7757 -0.0073  0.3359
  738MPD2    C410959   0.084   0.173  15.113 -0.1423  0.1326 -0.4744
  738MPD2    C510960   0.063   0.094  15.226 -0.9016 -0.2007  0.0296
  738MPD2     H10961   4.516   0.194  14.997  1.3013 -0.7911 -2.8724
  738MPD2    H110962   0.183   0.215  15.101 -0.6680  1.8175  1.1562
  738MPD2    H210963   4.669   4.736  15.349  1.2292 -1.0402  0.2255
  738MPD2    H310964   0.147   0.079  15.293 -0.9323  0.3276  0.1846
  738MPD2     N10965   0.004   0.313  14.932  0.2427 -0.2288 -0.2509
  738MPD2    H510966   0.090   0.368  14.934 -1.5280  2.5447 -0.6605
  738MPD2    N110967   4.445   0.025  15.188 -0.8802 -0.4229 -0.4833
  738MPD2    H710968   4.379   0.046  15.114  1.0459 -0.7860 -2.2732
  739TMC3    C110969   4.697   0.460  14.747 -1.0911 -0.4636  0.1566
  739TMC3    C210970   4.670   0.466  14.613 -0.0104 -0.4132 -0.2721
  739TMC3    C310971   4.719   0.574  14.544  0.3825  0.0437  0.2631
  739TMC3    C410972   0.027   0.564  14.811  0.1029 -0.3990  0.0136
  739TMC3    C510973   0.062   0.677  14.739  0.5561 -0.2538  0.0299
  739TMC3    C610974   0.039   0.685  14.608 -0.0498 -0.2906 -0.2607
  739TMC3     C10975   4.651   0.344  14.827  0.5585  0.3166 -0.4319
  739TMC3     O10976   4.549   0.285  14.796 -0.5356 -0.1272  0.2200
  739TMC3     H10977   4.632   0.379  14.561 -0.0794 -0.4991 -0.0794
  739TMC3    H110978   0.047   0.550  14.917 -1.4028  0.9904  0.4764
  739TMC3    H210979   0.082   0.756  14.538 -0.6642  1.1309  0.8191
  739TMC3    C710980   0.186   0.740  14.781  0.5385 -0.1581  0.0960
  739TMC3    C810981   4.682   0.577  14.405  0.2296 -0.5620  0.9895
  739TMC3    O110982   0.254   0.688  14.869  0.2802 -0.1561 -0.0404
  739TMC3    O210983   4.597   0.499  14.372  0.2463 -0.1913  0.3232
  740TMC3    C110984   4.555   1.796  14.070 -0.6387 -0.7227 -0.4014
  740TMC3    C210985   4.620   1.828  14.185 -0.0658  0.4162 -0.9150
  740TMC3    C310986   0.019   1.836  14.176  0.4656 -0.3391 -0.1303
  740TMC3    C410987   4.615   1.768  13.953  0.2496  0.4862 -0.4815
  740TMC3    C510988   0.012   1.782  13.950 -0.5628 -0.3640  0.1430
  740TMC3    C610989   0.083   1.818  14.058 -0.1036  0.4877 -0.0090
  740TMC3     C10990   4.412   1.812  14.078 -0.2128 -0.0816 -0.3189
  740TMC3     O10991   4.359   1.849  13.977 -0.3771  0.0123  0.1995
  740TMC3     H10992   4.571   1.856  14.278  0.5482 -0.2083 -0.4019
  740TMC3    H110993   4.550   1.750  13.869 -3.3346  0.1503  2.3612
  740TMC3    H210994   0.191   1.826  14.055 -0.0866  0.7062  1.2291
  740TMC3    C710995   0.083   1.741  13.830  0.0102  0.5715  0.5338
  740TMC3    C810996   0.098   1.861  14.298  0.4387 -0.0561  0.5306
  740TMC3    O110997   0.188   1.685  13.859 -0.1411  0.1500 -0.0286
  740TMC3    O210998   0.221   1.881  14.292  0.1554 -0.1473 -0.7319
  741TMC3    C110999   4.085   1.121  14.256  0.7961 -0.6735  0.4551
  741TMC3    C211000   4.032   1.010  14.190  0.3719  0.2909  0.7685
  741TMC3    C311001   4.013   0.891  14.265 -0.1213  0.4908 -0.3002
  741TMC3    C411002   4.115   1.112  14.390 -0.2891  0.5868 -0.1476
  741TMC3    C511003   4.090   0.995  14.457 -0.7240 -0.2168 -0.5803
  741TMC3    C611004   4.048   0.884  14.397 -0.5206 -0.2084 -0.5569
  741TMC3     C11005   4.093   1.252  14.185  0.1966 -0.4988  0.2587
  741TMC3     O11006   4.124   1.344  14.258  0.7935 -0.1071  0.1329
  741TMC3     H11007   4.010   1.011  14.084  0.1862  0.8253  0.8120
  741TMC3    H111008   4.157   1.199  14.439 -1.8022  2.9815 -3.0777
  741TMC3    H211009   4.045   0.790  14.450  2.4871  1.0580  1.8943
  741TMC3    C711010   4.093   1.004  14.602  0.1082  1.2996  0.5817
  741TMC3    C811011   3.892   0.806  14.234 -0.3027  1.0367  0.1452
  741TMC3    O111012   4.145   1.109  14.647 -0.0965  0.4809  0.1548
  741TMC3    O211013   3.790   0.867  14.202  0.3280 -0.1680  1.1157
  742TMC3    C111014   4.159   4.172  15.332 -0.2078  0.0322  0.4541
  742TMC3    C211015   4.087   4.205  15.221  0.6425 -0.8174 -0.0923
  742TMC3    C311016   4.150   4.274  15.119  0.3258  0.1648  0.3961
  742TMC3    C411017   4.291   4.215  15.350  0.4553  0.4014  0.0171
  742TMC3    C511018   4.349   4.279  15.239 -0.6915 -0.2732 -0.3902
  742TMC3    C611019   4.278   4.319  15.126  0.0619  0.5130 -0.0011
  742TMC3     C11020   4.093   4.090  15.425  0.8361  0.3474  0.4085
  742TMC3     O11021   3.983   4.041  15.399 -0.1146 -0.1807  0.0776
  742TMC3     H11022   3.994   4.154  15.199  0.0307  0.4860 -0.5179
  742TMC3    H111023   4.359   4.164  15.416 -0.3008 -2.9086 -1.7852
  742TMC3    H211024   4.330   4.351  15.037  1.1463 -2.3269 -0.3726
  742TMC3    C711025   4.467   4.206  15.194 -0.0107  0.2057  0.1784
  742TMC3    C811026   4.090   4.256  14.986 -0.2090  0.7591 -0.1263
  742TMC3    O111027   4.472   4.181  15.076 -0.8547 -0.2155 -0.1097
  742TMC3    O211028   4.166   4.235  14.890  0.2673  0.0868 -0.1048
  743MPD2     C11029   2.021   3.939   1.225 -0.0476 -0.5007  0.6030
  743MPD2    C111030   2.035   4.065   1.276 -0.3313 -0.3420  0.7043
  743MPD2    C211031   2.130   4.089   1.368  0.2560 -0.3339  0.2590
  743MPD2    C311032   2.205   3.986   1.418 -0.2563 -0.4243 -0.5769
  743MPD2    C411033   2.186   3.855   1.373  0.5319 -0.3656  0.0184
  743MPD2    C511034   2.092   3.835   1.279  0.2308 -0.1192 -0.6529
  743MPD2     H11035   2.139   4.192   1.402  0.1197  0.5509 -2.3867
  743MPD2    H111036   2.254   3.776   1.403  0.2759 -0.8547 -0.7201
  743MPD2    H211037   1.948   3.915   1.149 -3.7423 -0.8230  4.2765
  743MPD2    H311038   2.076   3.734   1.244 -1.9607 -0.8885  2.5750
  743MPD2     N11039   2.305   4.018   1.517 -0.4579  0.0228  0.3886
  743MPD2    H511040   2.315   4.116   1.541  1.4667 -0.5112  1.6791
  743MPD2    N111041   1.946   4.158   1.223 -0.3620 -0.1984 -0.3702
  743MPD2    H711042   1.895   4.130   1.140 -0.4494 -1.9989  0.2925
  744TMC3    C111043   1.843   4.365   1.169 -0.3790 -0.0277  0.2395
  744TMC3    C211044   1.780   4.481   1.215 -0.5462  0.1032 -0.0132
  744TMC3    C311045   1.739   4.575   1.128  0.4278  0.1267 -0.7932
  744TMC3    C411046   1.880   4.356   1.038  0.2137 -0.0487  0.0799
  744TMC3    C511047   1.851   4.459   0.952  0.5074 -0.3995 -0.1681
  744TMC3    C611048   1.780   4.571   0.996 -0.3157  0.2130  0.4190
  744TMC3     C11049   1.911   4.287   1.267  0.2473  0.2097  0.4910
  744TMC3     O11050   1.947   4.348   1.367  0.1571 -0.1108  0.0910
  744TMC3     H11051   1.755   4.485   1.321 -0.1467  3.2610 -0.0390
  744TMC3    H111052   1.938   4.268   1.012 -0.7128 -0.4233 -0.7281
  744TMC3    H211053   1.767   4.653   0.926 -2.5034  1.7321  2.6103
  744TMC3    C711054   1.932   4.477   0.831 -0.1064 -0.0806 -0.5142
  744TMC3    C811055   1.669   4.702   1.166  0.1924  0.5002  0.6154
  744TMC3    O111056   1.929   4.585   0.769  0.5125 -0.0503  0.1420
  744TMC3    O211057   1.692   0.054   1.085  0.3611  0.5310 -0.4465
  745TMC3    C111058   4.579   3.871  13.632  0.3303  0.0518  0.0599
  745TMC3    C211059   4.485   3.790  13.698 -0.0251 -0.3945 -0.5139
  745TMC3    C311060   4.352   3.821  13.695 -0.7048  1.1023  0.9654
  745TMC3    C411061   4.534   3.944  13.525 -0.3332  0.0321 -0.5648
  745TMC3    C511062   4.398   3.949  13.500 -0.3098  0.2956  0.9770
  745TMC3    C611063   4.307   3.898  13.593 -0.8380  0.4152  1.1125
  745TMC3     C11064   4.674   3.930  13.723  0.1646  0.4915 -1.0003
  745TMC3     O11065   4.675   3.877  13.833 -0.5311  0.2843  0.4179
  745TMC3     H11066   4.518   3.723  13.777 -1.4788  0.1733  0.5878
  745TMC3    H111067   4.608   4.001  13.471  1.1442 -0.0842  1.3229
  745TMC3    H211068   4.202   3.924  13.588 -1.4627 -2.6578 -1.7933
  745TMC3    C711069   4.349   4.058  13.434 -0.6385 -0.2152 -0.3101
  745TMC3    C811070   4.296   3.867  13.819  0.0165 -0.5354 -0.8313
  745TMC3    O111071   4.255   4.125  13.483  0.8140  0.0409  0.0450
  745TMC3    O211072   4.178   3.898  13.813 -0.3920  0.1593 -0.2763
  746TMC3    C111073   1.340   1.273  11.917 -0.1308 -0.2698  0.0175
  746TMC3    C211074   1.459   1.227  11.875  0.2043 -0.1168  0.6082
  746TMC3    C311075   1.461   1.117  11.796 -0.1064  0.9448 -0.0907
  746TMC3    C411076   1.217   1.215  11.890 -0.0840 -0.2991  0.7655
  746TMC3    C511077   1.224   1.104  11.812  0.2881  0.2324 -0.0751
  746TMC3    C611078   1.342   1.061  11.749  0.1680  0.4449 -0.1165
  746TMC3     C11079   1.342   1.412  11.935  0.0462 -0.7174 -0.2524
  746TMC3     O11080   1.443   1.466  11.975  0.5435 -0.4803  0.4035
  746TMC3     H11081   1.549   1.275  11.910  0.7392  1.1560 -2.4672
  746TMC3    H111082   1.126   1.256  11.933 -0.1440 -1.3752  1.6455
  746TMC3    H211083   1.336   0.981  11.676 -1.7501 -0.3636  0.9097
  746TMC3    C711084   1.105   1.057  11.743  0.1970 -0.6011 -1.4877
  746TMC3    C811085   1.597   1.067  11.760  0.6878  0.3559  0.3349
  746TMC3    O111086   1.112   1.049  11.618 -0.4887  0.0484 -0.6349
  746TMC3    O211087   1.676   1.118  11.835  0.3328 -0.6326 -0.6765
  747TMC3    C111088   4.144   0.879  10.518 -0.3628 -0.0780 -0.0722
  747TMC3    C211089   4.094   0.791  10.608  0.6075  0.4063 -0.1553
  747TMC3    C311090   4.059   0.835  10.732  0.1876  0.5761  0.1030
  747TMC3    C411091   4.172   1.008  10.551  0.4355 -0.0686  0.3328
  747TMC3    C511092   4.137   1.049  10.673 -0.3151 -0.3901  0.2567
  747TMC3    C611093   4.082   0.964  10.767 -0.1806 -0.0582  0.2635
  747TMC3     C11094   4.160   0.850  10.376  0.1929  0.3824  0.2229
  747TMC3     O11095   4.150   0.938  10.298  0.2365 -0.2815  0.5933
  747TMC3     H11096   4.069   0.687  10.592 -3.1033  1.1703  0.5961
  747TMC3    H111097   4.221   1.076  10.482 -1.4327  1.3674  0.4262
  747TMC3    H211098   4.065   1.004  10.867 -1.1841  1.0027 -0.3282
  747TMC3    C711099   4.220   1.155  10.735 -0.0244  0.1817 -0.2575
  747TMC3    C811100   3.999   0.740  10.816  0.5104  0.7402  0.4927
  747TMC3    O111101   4.184   1.200  10.844 -0.2012 -0.0439 -0.2460
  747TMC3    O211102   4.000   0.622  10.780  0.5962  0.1009 -0.4024
  748MPD2     C11103   1.497   1.296   0.354  0.5451  0.4285  0.4424
  748MPD2    C111104   1.455   1.327   0.483 -0.4809  0.1458  0.4493
  748MPD2    C211105   1.557   1.333   0.580  0.0765  0.4565  0.4118
  748MPD2    C311106   1.692   1.310   0.547  0.1601  0.1426 -0.1864
  748MPD2    C411107   1.729   1.263   0.425 -0.4086  0.4902 -0.1398
  748MPD2    C511108   1.625   1.267   0.329  0.3955 -0.1702 -0.2092
  748MPD2     H11109   1.538   1.373   0.679  3.7615  1.6195  0.6562
  748MPD2    H111110   1.827   1.231   0.394 -0.9281 -1.2506  0.0540
  748MPD2    H211111   1.423   1.298   0.275 -0.6033  0.2193  1.5243
  748MPD2    H311112   1.639   1.232   0.227  1.2472 -2.5148  0.7196
  748MPD2     N11113   1.788   1.336   0.644  0.0844  0.0785 -0.6429
  748MPD2    H511114   1.760   1.388   0.727  2.8024  1.9502 -0.8880
  748MPD2    N111115   1.322   1.366   0.516  0.2996  0.1545  0.0448
  748MPD2    H711116   1.246   1.365   0.448  2.6191 -1.3466 -2.5105
  749TMC3    C111117   1.992   1.428   0.709 -0.5165 -0.2408  0.3031
  749TMC3    C211118   2.004   1.387   0.835 -0.0132 -0.0919 -0.5492
  749TMC3    C311119   2.022   1.478   0.931 -0.0104  0.1194 -0.9072
  749TMC3    C411120   2.014   1.551   0.662 -0.1926  0.2403  0.4728
  749TMC3    C511121   2.038   1.642   0.756  0.0800 -0.8782 -0.1627
  749TMC3    C611122   2.033   1.607   0.890 -0.2005 -0.3335  0.1824
  749TMC3     C11123   1.922   1.341   0.618  0.2063 -0.1625  0.7039
  749TMC3     O11124   1.982   1.333   0.512  0.1640  0.3119  0.5510
  749TMC3     H11125   1.979   1.285   0.858  0.0264 -0.1708 -0.8517
  749TMC3    H111126   2.009   1.569   0.555 -0.8454  0.3152  0.5196
  749TMC3    H211127   2.042   1.687   0.963  1.0828  0.0788 -0.4282
  749TMC3    C711128   2.020   1.783   0.726  0.7289  0.2272  0.7139
  749TMC3    C811129   2.055   1.458   1.069  0.5668 -0.6262  0.3841
  749TMC3    O111130   1.999   1.861   0.821 -0.0143  0.2623  0.2762
  749TMC3    O211131   2.071   1.560   1.138  0.0538  0.0673 -0.4472
  750MPD2     C11132   2.158   2.716  11.696  0.1502  0.4580  0.1158
  750MPD2    C111133   2.026   2.668  11.683  0.0390  0.0221  0.3685
  750MPD2    C211134   2.008   2.546  11.634 -0.2021 -0.7309 -0.7557
  750MPD2    C311135   2.107   2.466  11.593  0.4861 -0.1135 -0.4768
  750MPD2    C411136   2.233   2.506  11.612  0.8276  0.2540 -0.1043
  750MPD2    C511137   2.256   2.633  11.666  0.0450 -1.2052 -0.1765
  750MPD2     H11138   1.907   2.515  11.611 -0.5375 -2.4027  2.9917
  750MPD2    H111139   2.318   2.440  11.599 -1.2741 -2.4537 -0.3495
  750MPD2    H211140   2.183   2.815  11.732  0.6688  1.0608 -1.9178
  750MPD2    H311141   2.358   2.661  11.691 -0.3722  0.8480 -0.7818
  750MPD2     N11142   2.088   2.333  11.542  0.1405  0.0336 -0.4586
  750MPD2    H511143   2.166   2.271  11.524 -0.0705 -0.6627  1.0226
  750MPD2    N111144   1.923   2.758  11.711  0.1989 -0.2331 -0.3958
  750MPD2    H711145   1.953   2.852  11.734 -0.1957  0.2577 -1.8909
  751TMC3    C111146   1.971   2.137  11.462 -0.0648 -0.1635 -0.3662
  751TMC3    C211147   1.868   2.054  11.495 -0.2663 -0.0090  0.3183
  751TMC3    C311148   1.889   1.914  11.483 -0.0444 -0.6672 -0.1490
  751TMC3    C411149   2.084   2.096  11.405 -0.5189  0.2780 -0.0964
  751TMC3    C511150   2.097   1.965  11.382  0.0428  0.5717 -0.1574
  751TMC3    C611151   2.001   1.874  11.414 -0.7267 -0.3025  0.2815
  751TMC3     C11152   1.965   2.275  11.508 -0.2307 -0.2967 -0.0097
  751TMC3     O11153   1.858   2.324  11.524  0.3012  0.5230  0.1939
  751TMC3     H11154   1.780   2.099  11.538  0.0373 -0.3980  1.3615
  751TMC3    H111155   2.162   2.170  11.392  0.5919 -1.1945 -1.7147
  751TMC3    H211156   2.006   1.768  11.393  1.1550  0.0095 -0.8538
  751TMC3    C711157   2.223   1.923  11.330 -0.3244  0.4698 -0.1156
  751TMC3    C811158   1.765   1.836  11.470  0.2094 -0.0079  0.1556
  751TMC3    O111159   2.280   2.016  11.271 -0.0415  0.4270  0.2041
  751TMC3    O211160   1.767   1.736  11.401 -0.4589  0.3043  0.3002
  752TMC3    C111161   0.829   2.636  17.172 -0.9706 -0.0352 -0.1025
  752TMC3    C211162   0.887   2.518  17.184 -0.7854 -0.4161 -0.0994
  752TMC3    C311163   0.864   2.446  17.299 -0.1390  0.1552 -0.2192
  752TMC3    C411164   0.762   2.694  17.274 -1.0894 -0.1302  0.1444
  752TMC3    C511165   0.730   2.609  17.379 -0.5764  0.1473 -0.0159
  752TMC3    C611166   0.794   2.489  17.403  0.6340 -0.7260  0.1390
  752TMC3     C11167   0.898   2.721  17.081  0.5541 -0.8267  0.1514
  752TMC3     O11168   1.019   2.692  17.064 -0.0036  0.6253  0.0902
  752TMC3     H11169   0.931   2.485  17.091  2.7875  1.2915  1.0114
  752TMC3    H111170   0.733   2.798  17.281  2.4475  0.8832 -0.0855
  752TMC3    H211171   0.770   2.428  17.489  0.8030  0.0946  0.7574
  752TMC3    C711172   0.616   2.639  17.477 -0.4018  0.2310 -0.0050
  752TMC3    C811173   0.936   2.321  17.322 -0.5288 -0.6205  0.0403
  752TMC3    O111174   0.582   2.553  17.557 -0.4838  0.1795  0.1027
  752TMC3    O211175   0.925   2.269  17.433  0.2327  0.4642 -0.3974
  753TMC3    C111176   3.084   3.896  13.533  0.6521 -0.7590 -0.1398
  753TMC3    C211177   3.170   3.879  13.646 -0.0243  0.5024 -0.4471
  753TMC3    C311178   3.194   3.749  13.682  0.0545 -0.3312  0.2968
  753TMC3    C411179   3.028   3.788  13.470 -0.0200  0.6286  0.3654
  753TMC3    C511180   3.060   3.664  13.509  0.6375  0.4525 -0.4075
  753TMC3    C611181   3.141   3.643  13.614 -0.4935 -0.9029 -0.3584
  753TMC3     C11182   3.037   4.036  13.485  0.2351  0.0594 -0.1126
  753TMC3     O11183   2.962   4.041  13.392  0.6480  0.2949  0.5874
  753TMC3     H11184   3.232   3.959  13.686 -1.0982  1.3028 -0.3772
  753TMC3    H111185   2.970   3.804  13.381 -1.3850 -1.0089  0.9668
  753TMC3    H211186   3.163   3.543  13.653 -0.4277 -1.3587 -1.5805
  753TMC3    C711187   3.028   3.548  13.429 -0.3504 -0.5851  0.0080
  753TMC3    C811188   3.289   3.720  13.789  0.4694 -0.2848 -0.3023
  753TMC3    O111189   3.089   3.446  13.445  0.4878 -0.0142  1.0666
  753TMC3    O211190   3.324   3.602  13.805  0.0331  0.0998 -0.0518
  754MPD2     C11191   1.661   2.592  13.306 -0.4289 -0.2913 -0.4788
  754MPD2    C111192   1.597   2.475  13.269  0.1162 -0.2239 -1.1904
  754MPD2    C211193   1.479   2.481  13.192 -1.0723 -0.3443 -0.6812
  754MPD2    C311194   1.426   2.603  13.157 -0.3143  0.5264 -0.4089
  754MPD2    C411195   1.494   2.721  13.179 -0.5794  0.0538  0.1920
  754MPD2    C511196   1.613   2.707  13.253  0.1759  0.2542  0.3698
  754MPD2     H11197   1.417   2.395  13.168 -1.6706 -0.5144  1.4891
  754MPD2    H111198   1.465   2.819  13.143 -2.1257 -0.7649 -0.7621
  754MPD2    H211199   1.754   2.594  13.362  0.2452  0.0287 -1.6308
  754MPD2    H311200   1.666   2.797  13.282 -0.4190  0.4532  0.8505
  754MPD2     N11201   1.298   2.628  13.094 -0.1013 -0.6678  0.0057
  754MPD2    H511202   1.278   2.721  13.058  1.4143  0.1831  1.3890
  754MPD2    N111203   1.647   2.354  13.321 -0.2200  0.3400 -0.0860
  754MPD2    H711204   1.741   2.357  13.357 -0.8130  0.0933  1.4701
  755MPD2     C11205   0.900   3.383  12.932  0.1890  0.0189 -0.0784
  755MPD2    C111206   0.795   3.300  12.938 -0.1856 -0.1977 -0.0739
  755MPD2    C211207   0.818   3.165  12.930 -0.3998 -0.6510 -0.2688
  755MPD2    C311208   0.947   3.111  12.949 -0.0903 -0.0480 -0.4169
  755MPD2    C411209   1.050   3.204  12.952  0.2942 -0.6193  0.1289
  755MPD2    C511210   1.026   3.337  12.941  0.5790  0.0268  0.1569
  755MPD2     H11211   0.732   3.102  12.910 -0.4537 -0.4350 -0.7134
  755MPD2    H111212   1.153   3.173  12.961  0.7553  1.1460  0.8630
  755MPD2    H211213   0.895   3.491  12.925  2.7946  0.1130 -0.7348
  755MPD2    H311214   1.106   3.410  12.941  0.2129  0.4307  0.4931
  755MPD2     N11215   0.970   2.969  12.940  0.0438  0.2345 -0.3610
  755MPD2    H511216   1.067   2.942  12.930  0.5128  1.7687 -0.0192
  755MPD2    N111217   0.659   3.338  12.952  0.0510 -0.8682 -0.6246
  755MPD2    H711218   0.580   3.274  12.941  0.5211 -1.0929 -2.6838
  756MPD2     C11219   1.482   3.641  10.103  0.2395 -0.3318  0.7224
  756MPD2    C111220   1.370   3.588  10.169  0.3362  0.1411  0.2571
  756MPD2    C211221   1.254   3.568  10.095  0.0315  0.0187 -0.3616
  756MPD2    C311222   1.245   3.612   9.960  0.0356  0.1833 -0.2482
  756MPD2    C411223   1.349   3.682   9.904 -0.5859  0.1694  0.1384
  756MPD2    C511224   1.465   3.703   9.977 -0.4901 -0.2652 -0.6142
  756MPD2     H11225   1.164   3.520  10.130 -0.7623 -1.1157 -3.9332
  756MPD2    H111226   1.340   3.725   9.805  2.2443  0.0399 -0.1944
  756MPD2    H211227   1.577   3.640  10.155  1.2188  0.7841 -1.0285
  756MPD2    H311228   1.536   3.780   9.947  0.7927 -2.1169 -2.3095
  756MPD2     N11229   1.128   3.587   9.895  0.8064 -0.3113 -1.0609
  756MPD2    H511230   1.058   3.535   9.946  1.2204 -1.3608 -1.5575
  756MPD2    N111231   1.394   3.551  10.299 -0.7075  0.1578  0.1747
  756MPD2    H711232   1.491   3.529  10.320 -0.3270  1.0748 -0.6327
  757MPD2     C11233   0.743   2.807   9.991 -0.5740  0.4744  0.1417
  757MPD2    C111234   0.862   2.865  10.028  0.3577  0.1031 -0.6443
  757MPD2    C211235   0.885   2.995   9.983  0.2352  0.6088 -0.1668
  757MPD2    C311236   0.787   3.078   9.925 -0.1267 -0.2255 -0.0236
  757MPD2    C411237   0.666   3.027   9.891 -0.1055 -0.1955  0.6180
  757MPD2    C511238   0.653   2.889   9.926 -0.0928 -0.4845  0.4803
  757MPD2     H11239   0.975   3.046  10.014  0.6221  0.3102 -0.7859
  757MPD2    H111240   0.574   3.071   9.853  0.2222 -0.7357 -0.8005
  757MPD2    H211241   0.726   2.702  10.012  0.2845  0.2812 -0.1623
  757MPD2    H311242   0.568   2.831   9.891  0.9484 -1.2549 -0.8178
  757MPD2     N11243   0.816   3.215   9.901  0.6122 -0.1071 -0.2264
  757MPD2    H511244   0.910   3.239   9.932  0.2884  1.1634 -0.1966
  757MPD2    N111245   0.953   2.784  10.096  1.0334  0.2935 -0.0628
  757MPD2    H711246   0.928   2.686  10.105  1.3192  0.3639  1.5775
  758MPD2     C11247   1.877   2.512  15.560  0.0096 -0.0044 -0.1998
  758MPD2    C111248   1.853   2.374  15.589 -0.7057  0.7690 -0.5314
  758MPD2    C211249   1.770   2.340  15.695  0.1956  0.2359 -0.3377
  758MPD2    C311250   1.727   2.439  15.781 -0.3898  0.3648 -0.0621
  758MPD2    C411251   1.749   2.571  15.757  0.1511  0.6299  0.0637
  758MPD2    C511252   1.834   2.600  15.654  0.3923 -0.7517  0.1705
  758MPD2     H11253   1.742   2.236  15.708  0.1217  0.2229 -0.5936
  758MPD2    H111254   1.717   2.651  15.823 -2.6541 -0.9106  0.5875
  758MPD2    H211255   1.942   2.547  15.481  0.7315  0.0764  0.4301
  758MPD2    H311256   1.868   2.702  15.638 -1.1694 -0.6672 -2.5821
  758MPD2     N11257   1.671   2.409  15.907  0.2316 -0.1457 -0.1424
  758MPD2    H511258   1.629   2.487  15.957 -0.1317 -0.4030 -0.0439
  758MPD2    N111259   1.949   2.283  15.532  0.0287  0.0936  0.1764
  758MPD2    H711260   2.022   2.316  15.470  0.7495 -4.1211 -1.1838
  759MPD2     C11261   0.370   0.038  10.927 -0.3230  0.3790  0.5322
  759MPD2    C111262   0.406   4.683  10.822 -0.6440  1.4416 -0.3754
  759MPD2    C211263   0.430   0.007  10.702  0.1565 -0.0414 -0.0154
  759MPD2    C311264   0.431   0.145  10.682 -0.4684 -0.1604 -0.3856
  759MPD2    C411265   0.411   0.227  10.793  0.6670  0.7010  0.1242
  759MPD2    C511266   0.381   0.170  10.911 -0.0924 -0.6719  0.1934
  759MPD2     H11267   0.439   4.682  10.614  0.4572 -1.1514  0.8049
  759MPD2    H111268   0.411   0.335  10.784 -0.2306  0.6786 -0.1171
  759MPD2    H211269   0.338   0.000  11.024  1.3730 -0.3746  0.7927
  759MPD2    H311270   0.377   0.237  10.996  0.1288  2.0439 -1.9189
  759MPD2     N11271   0.446   0.202  10.558  0.7426  0.3728  0.2165
  759MPD2    H511272   0.454   0.127  10.491  1.8962  1.5082 -0.9125
  759MPD2    N111273   0.400   4.544  10.828 -0.1187  0.0464  0.6700
  759MPD2    H711274   0.413   4.499  10.738  0.6251  0.8317  0.3823
  760MPD2     C11275   0.123   2.837  12.093  0.3647  0.1116 -0.2331
  760MPD2    C111276   0.258   2.843  12.053  0.3314  0.0470 -0.3368
  760MPD2    C211277   0.335   2.732  12.050  0.1450 -0.0103 -0.6354
  760MPD2    C311278   0.277   2.607  12.081 -0.2938  0.2956 -0.5951
  760MPD2    C411279   0.150   2.607  12.129 -0.0951  0.1881 -0.1855
  760MPD2    C511280   0.075   2.721  12.135 -0.0967 -0.2760  0.0847
  760MPD2     H11281   0.434   2.748  12.010 -0.0870  0.4083 -1.0456
  760MPD2    H111282   0.103   2.519  12.170  1.3807 -0.9648 -0.9533
  760MPD2    H211283   0.050   2.916  12.083  0.1297 -0.0525  0.1513
  760MPD2    H311284   4.714   2.724  12.179 -0.5221  1.2047 -0.9441
  760MPD2     N11285   0.348   2.480  12.065 -0.8259  0.6129  0.1734
  760MPD2    H511286   0.294   2.400  12.095 -2.0596  1.2753 -0.2318
  760MPD2    N111287   0.314   2.959  11.991 -0.6384  0.2431  0.3014
  760MPD2    H711288   0.410   2.956  11.956 -0.4885 -3.2240  1.0172
  761MPD2     C11289   1.255   1.845  11.517  0.4655  0.1520  0.8339
  761MPD2    C111290   1.332   1.747  11.462 -0.2509 -0.1803  0.5582
  761MPD2    C211291   1.468   1.760  11.457  0.6020 -0.5968  0.3933
  761MPD2    C311292   1.530   1.874  11.523  0.1575 -0.3213 -0.2648
  761MPD2    C411293   1.447   1.963  11.591 -0.2607 -0.4489 -0.3697
  761MPD2    C511294   1.307   1.947  11.586 -0.7317  0.4171  0.0012
  761MPD2     H11295   1.533   1.691  11.405  2.4920  1.4834 -0.0106
  761MPD2    H111296   1.487   2.047  11.646 -0.0252 -2.3625  2.3642
  761MPD2    H211297   1.147   1.831  11.517  0.1749  2.4515 -0.7848
  761MPD2    H311298   1.245   2.019  11.639 -3.2070 -0.1625 -2.1080
  761MPD2     N11299   1.668   1.900  11.535 -0.0177  0.0473 -0.6982
  761MPD2    H511300   1.695   1.981  11.591 -0.8614 -1.7018  2.2537
  761MPD2    N111301   1.264   1.641  11.404 -0.1699 -0.4534  0.2226
  761MPD2    H711302   1.164   1.653  11.404 -0.0001  0.9339  2.0298
  762MPD2     C11303   1.115   0.892  10.873  0.0267  0.6325  0.6636
  762MPD2    C111304   1.215   0.978  10.911 -0.2658  0.2849  0.1564
  762MPD2    C211305   1.347   0.931  10.906  0.1554  0.2209 -0.2139
  762MPD2    C311306   1.370   0.802  10.854 -0.3961  0.3578  0.0068
  762MPD2    C411307   1.269   0.721  10.801 -0.1070 -0.7340  0.5425
  762MPD2    C511308   1.145   0.770  10.813  0.5834  0.2980 -0.3547
  762MPD2     H11309   1.431   0.988  10.944  0.4867 -0.2550 -0.2391
  762MPD2    H111310   1.283   0.622  10.760 -2.0685 -1.2854  1.2095
  762MPD2    H211311   1.013   0.928  10.882 -0.0748  0.4929  0.0416
  762MPD2    H311312   1.066   0.701  10.782  0.9979 -1.2322  2.0198
  762MPD2     N11313   1.508   0.760  10.852  0.0083 -0.1815 -0.0228
  762MPD2    H511314   1.577   0.829  10.881 -0.8397  0.7747 -0.2570
  762MPD2    N111315   1.180   1.100  10.967  0.1433  0.2838 -0.6292
  762MPD2    H711316   1.081   1.122  10.972 -0.2729 -1.3670 -1.6947
  763MPD2     C11317   3.191   2.337  16.025 -1.0297  0.0777 -0.0459
  763MPD2    C111318   3.240   2.405  15.918 -0.4503  0.6768  0.5829
  763MPD2    C211319   3.252   2.548  15.918 -0.1041 -0.5645  0.9144
  763MPD2    C311320   3.218   2.618  16.031  0.3674  0.0932  0.2128
  763MPD2    C411321   3.178   2.546  16.140 -0.1415  0.0593  0.6201
  763MPD2    C511322   3.155   2.408  16.137  0.5493  0.3919  0.3861
  763MPD2     H11323   3.263   2.599  15.824 -0.0968 -1.6317  0.3385
  763MPD2    H111324   3.157   2.592  16.236  0.5644  0.8875  0.3707
  763MPD2    H211325   3.173   2.230  16.020  0.3405 -0.0176 -2.9235
  763MPD2    H311326   3.130   2.353  16.227  0.1218  4.1679  2.5921
  763MPD2     N11327   3.237   2.762  16.041  0.0537  0.2245  0.1252
  763MPD2    H511328   3.213   2.801  16.132  0.9754 -0.6816  0.7649
  763MPD2    N111329   3.268   2.333  15.799  0.1718 -0.1772 -0.4169
  763MPD2    H711330   3.279   2.394  15.718 -1.7071 -1.4083 -1.5947
  764MPD2     C11331   1.645   3.662  17.532  0.4704 -0.8682  0.8286
  764MPD2    C111332   1.514   3.618  17.488  1.1549 -0.7766  0.1691
  764MPD2    C211333   1.443   3.529  17.577  0.2765 -0.1463 -0.1065
  764MPD2    C311334   1.506   3.484  17.693  0.2808 -0.1160  0.2888
  764MPD2    C411335   1.633   3.528  17.727  0.2335  0.0550 -0.0670
  764MPD2    C511336   1.698   3.612  17.644  0.0975  0.5696  0.2695
  764MPD2     H11337   1.342   3.501  17.550  0.5383 -0.8610 -0.3477
  764MPD2    H111338   1.683   3.485   0.064  0.7533  0.5058 -0.1389
  764MPD2    H211339   1.711   3.719  17.468 -1.1106  0.2900  0.2164
  764MPD2    H311340   1.803   3.625  17.667  0.8331  0.3746 -2.9678
  764MPD2     N11341   1.428   3.399   0.025 -0.0374  0.0249  0.1244
  764MPD2    H511342   1.339   3.373  17.733  0.1891 -1.6721  0.7105
  764MPD2    N111343   1.445   3.647  17.368 -0.2686 -0.1507  0.0147
  764MPD2    H711344   1.352   3.610  17.351  0.4251 -1.1457 -1.5796
  765MPD2     C11345   1.786   1.977  15.299 -0.8729 -0.0015 -0.3166
  765MPD2    C111346   1.725   1.930  15.413 -0.2016  0.5537 -0.0989
  765MPD2    C211347   1.788   1.822  15.481 -0.3160  0.0073  1.1025
  765MPD2    C311348   1.905   1.761  15.428 -0.2594 -0.4920  0.1585
  765MPD2    C411349   1.965   1.823  15.318  0.0435  0.4210  0.2416
  765MPD2    C511350   1.908   1.930  15.254  0.3546  0.0929 -0.2177
  765MPD2     H11351   1.736   1.779  15.566  0.3760 -0.1908  1.4259
  765MPD2    H111352   2.064   1.805  15.279 -0.4062  1.3167 -1.2993
  765MPD2    H211353   1.725   2.046  15.242 -0.0461 -0.1924 -1.4319
  765MPD2    H311354   1.958   1.980  15.172 -0.2640  0.8604 -0.1300
  765MPD2     N11355   1.962   1.649  15.492  0.3647 -0.2565  0.4532
  765MPD2    H511356   1.907   1.615  15.570 -0.6347  0.8395  0.2099
  765MPD2    N111357   1.615   1.997  15.465  0.5516  0.2373 -0.0164
  765MPD2    H711358   1.589   2.079  15.411 -1.6116 -0.6123 -0.2566
  766MPD2     C11359   0.864   1.855  15.420 -0.2350 -0.2820 -0.5174
  766MPD2    C111360   1.006   1.861  15.407 -0.8999 -0.4686 -0.0805
  766MPD2    C211361   1.061   1.812  15.291 -0.0497 -0.6481  0.1823
  766MPD2    C311362   0.979   1.754  15.189 -0.1762 -0.6029 -0.3070
  766MPD2    C411363   0.848   1.748  15.214  0.0163  0.3795  0.3707
  766MPD2    C511364   0.790   1.792  15.327  1.0474  0.5900 -0.5095
  766MPD2     H11365   1.169   1.808  15.276 -0.3536  1.4756 -2.4832
  766MPD2    H111366   0.792   1.702  15.133  0.2942 -1.0706  1.0184
  766MPD2    H211367   0.803   1.898  15.498 -1.9024 -0.8094 -1.5175
  766MPD2    H311368   0.682   1.779  15.327  1.0676  0.4278 -0.3728
  766MPD2     N11369   1.028   1.701  15.066  0.8740  0.0674  0.8326
  766MPD2    H511370   0.956   1.690  14.995 -0.4302  0.3341  2.0929
  766MPD2    N111371   1.094   1.911  15.506 -0.5602 -0.3679  0.1750
  766MPD2    H711372   1.193   1.895  15.492 -0.2467  1.2703  0.5183
  767MPD2     C11373   0.663   2.013  15.075 -0.3400 -0.2279 -0.2539
  767MPD2    C111374   0.780   2.051  15.017  0.2186  0.8417 -0.0481
  767MPD2    C211375   0.793   2.028  14.882  0.3940 -0.2995 -0.0787
  767MPD2    C311376   0.699   1.963  14.816 -0.0565  0.3399 -0.4445
  767MPD2    C411377   0.587   1.918  14.878 -0.4574  0.3455 -0.6405
  767MPD2    C511378   0.564   1.945  15.010  0.3255  0.1663 -0.4627
  767MPD2     H11379   0.876   2.063  14.823  0.7348 -0.4995  0.2867
  767MPD2    H111380   0.512   1.852  14.837 -1.2193 -0.5458  2.1766
  767MPD2    H211381   0.644   2.044  15.177 -0.6784  1.1657 -0.7460
  767MPD2    H311382   0.481   1.901  15.064  0.5864 -0.7286 -0.7889
  767MPD2     N11383   0.707   1.956  14.679 -0.9239  0.1917  0.7908
  767MPD2    H511384   0.799   1.972  14.640 -1.3609 -0.7907 -0.6477
  767MPD2    N111385   0.884   2.119  15.085 -0.6120 -0.2125 -0.4336
  767MPD2    H711386   0.870   2.150  15.181 -2.5038 -0.6243 -0.5845
  768MPD2     C11387   1.117   0.592  11.101 -0.0531  0.5853 -0.0023
  768MPD2    C111388   1.056   0.647  11.208  0.6807 -0.4312 -0.3772
  768MPD2    C211389   1.121   0.644  11.327 -0.1539  0.5347 -0.1577
  768MPD2    C311390   1.246   0.601  11.349  0.6906  0.8039 -0.3116
  768MPD2    C411391   1.312   0.559  11.235 -0.9630  0.1666 -0.5238
  768MPD2    C511392   1.248   0.550  11.113  0.0466 -0.0700  0.2238
  768MPD2     H11393   1.068   0.682  11.414 -0.0464 -0.7371  0.4654
  768MPD2    H111394   1.415   0.524  11.236 -0.7646  0.8239  1.3632
  768MPD2    H211395   1.066   0.586  11.006  0.5144  2.4893 -0.4368
  768MPD2    H311396   1.299   0.515  11.023 -2.6462  0.8733 -1.6598
  768MPD2     N11397   1.311   0.591  11.480 -0.3234 -0.2201 -0.3394
  768MPD2    H511398   1.410   0.575  11.493 -0.6423  0.0876  2.5811
  768MPD2    N111399   0.924   0.703  11.205  0.4367  0.1059  0.2181
  768MPD2    H711400   0.886   0.747  11.289 -0.0362  2.3216 -1.1712
  769MPD2     C11401   2.307   3.379  15.291  0.3542  0.2898  0.1057
  769MPD2    C111402   2.388   3.406  15.181  0.2790  0.5304  0.3570
  769MPD2    C211403   2.454   3.529  15.176 -0.3323 -0.3031 -1.0179
  769MPD2    C311404   2.420   3.626  15.269  1.0301 -0.4906 -0.0213
  769MPD2    C411405   2.324   3.603  15.362 -0.4554  0.0224  0.6433
  769MPD2    C511406   2.275   3.477  15.376  0.5618 -0.7694  0.1424
  769MPD2     H11407   2.517   3.567  15.096 -0.8162 -0.7008 -1.5827
  769MPD2    H111408   2.293   3.681  15.430  0.4026 -2.3223  3.7048
  769MPD2    H211409   2.269   3.280  15.312 -1.1125  0.3641 -2.1191
  769MPD2    H311410   2.216   3.464  15.466  1.6213  1.5663  1.1763
  769MPD2     N11411   2.475   3.751  15.252  0.1782 -0.5365  0.3586
  769MPD2    H511412   2.568   3.747  15.211 -1.4003 -1.4347 -3.1581
  769MPD2    N111413   2.390   3.314  15.072 -0.2275  0.3868 -0.2470
  769MPD2    H711414   2.355   3.220  15.084 -0.5730  1.0143  3.5396
  770MPD2     C11415   2.439   2.372  14.747  0.0281 -0.5420 -0.0406
  770MPD2    C111416   2.351   2.437  14.663  0.3602  0.4783  0.3482
  770MPD2    C211417   2.342   2.574  14.667  0.2199 -0.4971 -0.3736
  770MPD2    C311418   2.412   2.650  14.761 -0.2914 -0.1882  0.0805
  770MPD2    C411419   2.503   2.583  14.839 -0.7854 -0.1446  0.7419
  770MPD2    C511420   2.517   2.446  14.832  0.4033  0.3155 -0.7056
  770MPD2     H11421   2.260   2.618  14.611  1.0659  2.5527  0.7390
  770MPD2    H111422   2.569   2.644  14.900 -0.9512 -1.1592  1.9367
  770MPD2    H211423   2.462   2.266  14.753  0.3860 -0.3618  1.6456
  770MPD2    H311424   2.595   2.389  14.881 -0.0089  0.3387 -0.0224
  770MPD2     N11425   2.384   2.785  14.764 -0.3887  0.0272  0.7979
  770MPD2    H511426   2.322   2.821  14.692 -0.9198  1.3521  1.9163
  770MPD2    N111427   2.264   2.357  14.585  0.3641 -0.2610 -0.3094
  770MPD2    H711428   2.285   2.258  14.581  0.5858 -0.3221  2.4768
  771MPD2     C11429   3.418   1.603  14.044  0.3220 -0.0354 -0.0067
  771MPD2    C111430   3.415   1.608  13.903 -0.7406 -0.3160 -0.6615
  771MPD2    C211431   3.399   1.486  13.841 -0.4978 -0.6731  0.0599
  771MPD2    C311432   3.374   1.370  13.908 -0.0509 -0.0998 -0.4268
  771MPD2    C411433   3.363   1.374  14.049  0.4572 -0.0833 -0.0130
  771MPD2    C511434   3.387   1.491  14.113  0.0009  0.2650 -0.1482
  771MPD2     H11435   3.407   1.476  13.733  0.6190  0.6450  0.0133
  771MPD2    H111436   3.355   1.288  14.114 -0.1981 -0.6203 -0.8133
  771MPD2    H211437   3.427   1.694  14.102  2.2343  0.1397 -0.5746
  771MPD2    H311438   3.378   1.502  14.220  0.6080  0.0996 -0.0787
  771MPD2     N11439   3.348   1.251  13.833  0.0537  0.3308  0.2669
  771MPD2    H511440   3.340   1.266  13.733  0.6225 -1.3555 -0.0246
  771MPD2    N111441   3.404   1.730  13.838 -0.5195  0.4788  0.2710
  771MPD2    H711442   3.370   1.811  13.888  0.3168  0.8693  0.2196
  772MPD2     C11443   2.773   2.097  13.837 -0.1523  0.0324  0.1592
  772MPD2    C111444   2.855   1.992  13.856 -0.1174  0.3070  0.3375
  772MPD2    C211445   2.816   1.890  13.942  0.7151 -0.2868  0.3912
  772MPD2    C311446   2.691   1.901  14.000  0.2780 -0.2634 -0.2303
  772MPD2    C411447   2.606   2.002  13.973  0.1802 -0.4284  0.7282
  772MPD2    C511448   2.646   2.096  13.884 -0.8781 -0.0828  0.1607
  772MPD2     H11449   2.880   1.806  13.966 -0.2759 -1.0856  0.2630
  772MPD2    H111450   2.507   2.011  14.015 -0.6379 -1.1377 -1.0935
  772MPD2    H211451   2.807   2.186  13.785  0.7709 -0.2734  0.2308
  772MPD2    H311452   2.585   2.184  13.867 -0.0652  0.3597 -0.5024
  772MPD2     N11453   2.640   1.805  14.085  0.0401  0.1322 -0.0207
  772MPD2    H511454   2.554   1.822  14.136  0.1489 -0.9933  0.5391
  772MPD2    N111455   2.985   1.978  13.792 -0.3658 -0.1325  0.6396
  772MPD2    H711456   3.040   1.901  13.828 -0.2431 -0.5297 -0.4138
  773MPD2     C11457   2.346   2.350   0.457  0.4649  0.9553 -0.7340
  773MPD2    C111458   2.377   2.276   0.347 -0.6874 -0.2288 -0.0068
  773MPD2    C211459   2.470   2.176   0.355 -0.2788 -0.1975  1.3266
  773MPD2    C311460   2.536   2.153   0.475  0.3389  0.5564 -0.4110
  773MPD2    C411461   2.497   2.221   0.587 -0.1647 -0.0078  0.0854
  773MPD2    C511462   2.402   2.322   0.581 -0.9316  0.0700  0.1611
  773MPD2     H11463   2.501   2.121   0.267 -0.3288  1.4747  0.2858
  773MPD2    H111464   2.528   2.200   0.689 -1.8538 -0.1595  0.5720
  773MPD2    H211465   2.282   2.437   0.448 -1.0855 -0.2125 -1.0453
  773MPD2    H311466   2.365   2.365   0.673 -0.6954  0.3464  0.1259
  773MPD2     N11467   2.622   2.045   0.471  0.0036 -0.4385  0.1044
  773MPD2    H511468   2.648   2.009   0.379  2.0121  0.2512  0.4014
  773MPD2    N111469   2.327   2.302   0.213  0.1393  0.4370  0.0898
  773MPD2    H711470   2.368   2.253   0.134  1.4367 -2.7161  2.7302
  774MPD2     C11471   1.367   1.332  13.351  0.3629 -0.0604  0.1003
  774MPD2    C111472   1.332   1.405  13.466 -0.7734  0.3514 -0.8118
  774MPD2    C211473   1.317   1.544  13.449  0.0473 -0.3026  0.2339
  774MPD2    C311474   1.329   1.613  13.334  0.8386  0.0145  1.3294
  774MPD2    C411475   1.360   1.537  13.218  0.0074  0.1255 -0.4626
  774MPD2    C511476   1.377   1.398  13.231 -0.1389 -0.1380  0.1470
  774MPD2     H11477   1.291   1.596  13.540  0.4596  0.8975 -0.3342
  774MPD2    H111478   1.374   1.580  13.119  0.3928 -1.7439 -1.2058
  774MPD2    H211479   1.384   1.225  13.358 -0.2070 -0.3414 -2.8197
  774MPD2    H311480   1.408   1.347  13.141  0.2742  0.4658 -0.0585
  774MPD2     N11481   1.325   1.756  13.337 -0.5448 -0.0841  0.3279
  774MPD2    H511482   1.301   1.800  13.425 -0.3426  0.9376 -0.1280
  774MPD2    N111483   1.325   1.331  13.585 -0.1396  0.0194 -0.7849
  774MPD2    H711484   1.358   1.235  13.583 -2.7787 -0.8974 -0.5703
  775MPD2     C11485   2.770   3.442  15.455 -0.1393 -0.4547  0.2712
  775MPD2    C111486   2.837   3.466  15.569 -0.6366 -0.6105  0.5131
  775MPD2    C211487   2.958   3.537  15.564 -0.1153  0.5422 -0.4158
  775MPD2    C311488   3.007   3.586  15.441 -0.4122  0.4157  0.0699
  775MPD2    C411489   2.930   3.565  15.325 -0.0090  0.8405  0.3809
  775MPD2    C511490   2.812   3.493  15.333  0.0297  0.4375 -1.1373
  775MPD2     H11491   3.010   3.546  15.659 -0.8134  0.1377  0.0050
  775MPD2    H111492   2.962   3.593  15.225  1.1320  1.2438  0.8594
  775MPD2    H211493   2.672   3.397  15.459  0.3081 -1.4026  0.3867
  775MPD2    H311494   2.756   3.470  15.244 -0.8697  1.2329 -0.7815
  775MPD2     N11495   3.130   3.647  15.434 -0.4418 -0.2902  0.2333
  775MPD2    H511496   3.173   3.652  15.343  1.1904  1.4939  1.1008
  775MPD2    N111497   2.774   3.427  15.686  0.8466 -0.1707 -0.5505
  775MPD2    H711498   2.687   3.379  15.668 -0.6623  1.8057  1.5930
  776MPD2     C11499   2.032   3.408  11.722 -0.4943  0.4664 -1.0073
  776MPD2    C111500   1.896   3.382  11.700  0.4970  0.0914 -0.3338
  776MPD2    C211501   1.831   3.471  11.617 -0.1461 -0.0941 -0.3272
  776MPD2    C311502   1.885   3.587  11.573 -0.1429  0.0205  0.7718
  776MPD2    C411503   2.015   3.606  11.604  0.0905  0.3021 -0.2218
  776MPD2    C511504   2.091   3.522  11.676  0.1584 -0.8132 -0.2868
  776MPD2     H11505   1.734   3.437  11.582 -0.0874 -0.5348 -0.0582
  776MPD2    H111506   2.062   3.695  11.562 -0.4800  0.2455 -0.9835
  776MPD2    H211507   2.092   3.339  11.780 -2.0166  1.1104  1.3506
  776MPD2    H311508   2.185   3.562  11.713 -2.4004  1.6627  3.5391
  776MPD2     N11509   1.822   3.685  11.499 -1.1431  0.7149  0.1518
  776MPD2    H511510   1.879   3.767  11.481 -0.0239 -0.6792 -2.6692
  776MPD2    N111511   1.851   3.254  11.732  0.2422 -0.5738  0.2402
  776MPD2    H711512   1.922   3.192  11.771  1.2849  0.4267 -0.0574
  777MPD2     C11513   2.446   0.747   0.716  0.4767  0.6595 -0.1725
  777MPD2    C111514   2.466   0.628   0.790  0.1423  0.0882  0.0323
  777MPD2    C211515   2.505   0.511   0.725  0.0935  0.4556 -0.4670
  777MPD2    C311516   2.515   0.498   0.586 -0.5386 -0.1996  0.3704
  777MPD2    C411517   2.511   0.619   0.521  0.4168 -0.2576  0.3937
  777MPD2    C511518   2.481   0.731   0.583 -0.8300 -0.0958  0.5743
  777MPD2     H11519   2.509   0.418   0.780 -0.0917 -0.2457 -1.6448
  777MPD2    H111520   2.513   0.634   0.413  0.8526  1.1146  0.5920
  777MPD2    H211521   2.398   0.834   0.758  0.2112  0.0120  0.8641
  777MPD2    H311522   2.472   0.820   0.522 -2.0303 -0.3805  0.3370
  777MPD2     N11523   2.532   0.373   0.526 -0.1716  0.0589  0.9068
  777MPD2    H511524   2.538   0.298   0.594  1.9223 -0.6109 -0.0280
  777MPD2    N111525   2.445   0.629   0.932  0.3871 -0.5489  0.3976
  777MPD2    H711526   2.412   0.720   0.964 -0.7424 -1.3952  1.6740
  778MPD2     C11527   3.393   1.494  14.900  0.2506 -0.5605  0.0183
  778MPD2    C111528   3.422   1.368  14.842  0.7467  0.1019 -0.0679
  778MPD2    C211529   3.504   1.358  14.732 -0.1616  0.3791  0.5868
  778MPD2    C311530   3.557   1.475  14.675  0.2306 -0.5579 -0.2807
  778MPD2    C411531   3.524   1.598  14.728 -0.0713 -0.1039 -0.3604
  778MPD2    C511532   3.437   1.613  14.835  0.7457 -0.0453 -0.2439
  778MPD2     H11533   3.527   1.257  14.698 -2.3613  0.4494 -1.1592
  778MPD2    H111534   3.564   1.689  14.685  1.2711 -1.2363 -1.4911
  778MPD2    H211535   3.324   1.505  14.983  1.4228  1.8517  0.6692
  778MPD2    H311536   3.396   1.708  14.867  0.2505 -0.9215  1.7198
  778MPD2     N11537   3.628   1.465  14.551 -0.1651 -0.1077 -0.4096
  778MPD2    H511538   3.631   1.379  14.497 -2.5617 -1.3244  1.4244
  778MPD2    N111539   3.361   1.257  14.894 -0.2221  0.0585  0.3865
  778MPD2    H711540   3.379   1.169  14.847 -2.1238  0.3879 -0.9521
  779MPD2     C11541   2.965   4.707  14.477  0.3996  0.9558 -0.2742
  779MPD2    C111542   3.075   4.717  14.389  1.1093  0.4618 -0.4594
  779MPD2    C211543   3.077   0.092  14.304  0.8520  1.5939  0.5061
  779MPD2    C311544   2.990   0.187  14.309  0.0730  0.2363 -0.1327
  779MPD2    C411545   2.879   0.177  14.384 -0.1572  0.3454  0.5046
  779MPD2    C511546   2.870   0.065  14.465 -0.1685 -0.2352  0.0560
  779MPD2     H11547   3.163   0.098  14.237  1.3998  1.4029  1.1912
  779MPD2    H111548   2.801   0.250  14.401 -1.1377 -0.4608 -0.4547
  779MPD2    H211549   2.948   4.630  14.551 -0.9773  1.0860 -0.4412
  779MPD2    H311550   2.781   0.066  14.527 -0.5713  0.3837 -0.5239
  779MPD2     N11551   3.031   0.310  14.252  0.4689 -0.1593  0.0233
  779MPD2    H511552   3.118   0.306  14.200 -0.2992 -1.0153 -1.1786
  779MPD2    N111553   3.185   4.626  14.394  0.4406 -0.1367 -0.6017
  779MPD2    H711554   3.240   4.603  14.311  2.1021  0.4622  0.3436
  780MPD2     C11555   3.188   4.240   1.284  0.3310 -0.8960  0.0608
  780MPD2    C111556   3.078   4.211   1.201 -0.7219  0.3801 -0.3786
  780MPD2    C211557   3.067   4.278   1.080  0.3978  0.3908  0.1607
  780MPD2    C311558   3.153   4.371   1.041 -0.2023  0.0355  0.1249
  780MPD2    C411559   3.264   4.393   1.120 -0.4236 -0.5717 -0.8780
  780MPD2    C511560   3.284   4.326   1.240  0.4165 -0.5500  0.1256
  780MPD2     H11561   2.982   4.252   1.018 -0.8929 -0.1261  2.1430
  780MPD2    H111562   3.340   4.462   1.085  1.1788 -1.3723  1.0197
  780MPD2    H211563   3.199   4.189   1.379 -2.8975  1.5026  1.7170
  780MPD2    H311564   3.366   4.347   1.308 -0.3993 -1.1682  1.3138
  780MPD2     N11565   3.137   4.422   0.908  0.2427 -0.2389  0.3155
  780MPD2    H511566   3.087   4.365   0.841 -2.0240  2.0876  0.0296
  780MPD2    N111567   2.971   4.125   1.239 -0.4358 -0.1862  0.5648
  780MPD2    H711568   2.896   4.122   1.170  0.1567  0.7943 -0.1214
  781MPD2     C11569   3.975   1.393  11.595  0.1367  0.6237 -0.0506
  781MPD2    C111570   4.077   1.438  11.675 -0.3665 -0.2971 -0.3702
  781MPD2    C211571   4.189   1.494  11.617 -0.5909  0.3025 -0.2715
  781MPD2    C311572   4.208   1.496  11.478  0.7055  0.1272  0.0797
  781MPD2    C411573   4.096   1.468  11.402 -0.4809  0.0808  0.7229
  781MPD2    C511574   3.987   1.414  11.461  0.4597  0.0737 -0.0669
  781MPD2     H11575   4.260   1.513  11.696  0.8984 -1.1401 -1.2611
  781MPD2    H111576   4.086   1.487  11.295 -1.4764  0.6587  0.9200
  781MPD2    H211577   3.881   1.353  11.631  0.6900 -3.1275 -2.7832
  781MPD2    H311578   3.904   1.382  11.398  0.2519  1.8732 -0.7270
  781MPD2     N11579   4.331   1.530  11.413 -0.3045  0.1112 -0.1916
  781MPD2    H511580   4.321   1.543  11.312 -1.2103  0.0322 -0.1065
  781MPD2    N111581   4.081   1.423  11.816 -0.0894  0.0913 -0.4412
  781MPD2    H711582   4.159   1.464  11.866 -0.0859 -1.4689  0.8355
  782MPD2     C11583   2.357   2.143  10.554  0.8224  0.0844 -0.5067
  782MPD2    C111584   2.465   2.165  10.634  0.4276  0.1042  0.2285
  782MPD2    C211585   2.480   2.289  10.694 -0.4092 -0.2158 -0.3867
  782MPD2    C311586   2.376   2.386  10.680 -0.2426 -0.9886 -0.4305
  782MPD2    C411587   2.269   2.359  10.598 -0.5342  0.3030 -0.1185
  782MPD2    C511588   2.262   2.236  10.532 -0.4542  0.1453 -0.9760
  782MPD2     H11589   2.567   2.322  10.750 -0.7301 -0.4736  0.2690
  782MPD2    H111590   2.187   2.429  10.590 -0.3167  0.4399 -1.2171
  782MPD2    H211591   2.347   2.048  10.502 -0.1036 -0.9942  1.6291
  782MPD2    H311592   2.172   2.216  10.475 -2.0364 -1.3551  2.0557
  782MPD2     N11593   2.393   2.516  10.737  0.2190  0.0375  0.1639
  782MPD2    H511594   2.479   2.524  10.789  0.7574 -1.5168 -0.4808
  782MPD2    N111595   2.563   2.063  10.649 -0.6943  0.0608  0.2771
  782MPD2    H711596   2.536   1.972  10.613  0.9006  0.3401 -1.6396
  783MPD2     C11597   2.376   1.604  11.342  0.2342  0.3064 -0.9610
  783MPD2    C111598   2.364   1.733  11.296  0.3199 -0.5705  0.1067
  783MPD2    C211599   2.432   1.787  11.192 -0.1921  0.2153  0.9376
  783MPD2    C311600   2.538   1.723  11.147 -0.2325 -0.7082 -0.6749
  783MPD2    C411601   2.565   1.597  11.201 -0.1546 -0.3557  0.6856
  783MPD2    C511602   2.476   1.536  11.291  0.2300  0.3549 -0.2367
  783MPD2     H11603   2.406   1.883  11.150 -0.5701 -0.4908 -0.4337
  783MPD2    H111604   2.644   1.543  11.151  1.4433  1.4522  1.2685
  783MPD2    H211605   2.313   1.561  11.420 -0.2448  2.0909 -0.3547
  783MPD2    H311606   2.472   1.431  11.316  0.5202  0.5739  0.7271
  783MPD2     N11607   2.620   1.781  11.046  0.2656 -0.0584 -0.0694
  783MPD2    H511608   2.577   1.860  10.997  1.9626 -0.8054 -2.7445
  783MPD2    N111609   2.263   1.797  11.362 -0.6787  0.4160 -0.4274
  783MPD2    H711610   2.211   1.759  11.441 -0.1079  1.4434  0.4328
  784MPD2     C11611   4.366   2.708   0.794 -0.5115  0.1959  0.0117
  784MPD2    C111612   4.479   2.783   0.770  0.1079  0.4198 -1.0613
  784MPD2    C211613   4.460   2.919   0.760 -0.2500 -0.2051 -0.3991
  784MPD2    C311614   4.332   2.974   0.763  0.1154  0.0349 -1.4853
  784MPD2    C411615   4.218   2.894   0.786 -0.1391 -0.9803 -0.0883
  784MPD2    C511616   4.244   2.764   0.807 -0.7259  0.1508 -0.2525
  784MPD2     H11617   4.551   2.977   0.747 -1.2116  1.5185  0.7046
  784MPD2    H111618   4.118   2.936   0.792 -0.6039 -2.1301  0.1913
  784MPD2    H211619   4.373   2.600   0.804  1.2932  0.4685  1.6232
  784MPD2    H311620   4.165   2.694   0.831 -1.9902  0.5905 -3.1690
  784MPD2     N11621   4.328   3.113   0.746  0.0682  0.0212  0.7418
  784MPD2    H511622   4.416   3.160   0.731 -0.0152  0.9766  3.2836
  784MPD2    N111623   4.603   2.725   0.764  0.2774 -0.1741  0.3409
  784MPD2    H711624   4.677   2.794   0.752 -1.4373  2.1952  3.2757
  785MPD2     C11625   4.377   1.366   9.985  0.9932  0.3229  0.5444
  785MPD2    C111626   4.278   1.440  10.045 -0.4786 -0.2797 -0.4552
  785MPD2    C211627   4.208   1.536   9.974  0.0655 -0.5973 -0.1185
  785MPD2    C311628   4.234   1.551   9.838  0.0162  0.0903 -0.5109
  785MPD2    C411629   4.348   1.482   9.779  0.5128  0.0319  0.0861
  785MPD2    C511630   4.406   1.385   9.852  0.1599  0.4309  0.5844
  785MPD2     H11631   4.130   1.596  10.019 -0.7461 -1.7273  0.0011
  785MPD2    H111632   4.385   1.498   9.678 -1.3392  3.0569 -0.1140
  785MPD2    H211633   4.427   1.284  10.034 -0.8594 -0.9548  0.3270
  785MPD2    H311634   4.492   1.337   9.806 -0.0939 -0.3370  0.9214
  785MPD2     N11635   4.159   1.643   9.770  0.3983  0.3996 -0.5043
  785MPD2    H511636   4.082   1.682   9.823  0.7535 -0.0823  0.3678
  785MPD2    N111637   4.243   1.415  10.178  0.2225 -0.0727 -0.3812
  785MPD2    H711638   4.294   1.346  10.232 -0.2402  0.1496  0.3419
  786MPD2     C11639   3.680   4.144  14.704 -0.3052  0.0494 -0.3766
  786MPD2    C111640   3.813   4.145  14.672 -0.7314  0.9815  0.2436
  786MPD2    C211641   3.905   4.190  14.767  0.2244 -0.3086 -0.4717
  786MPD2    C311642   3.860   4.219  14.895  0.0494  0.8396 -0.3717
  786MPD2    C411643   3.730   4.215  14.925  0.2751 -0.2623  0.5465
  786MPD2    C511644   3.644   4.172  14.832  0.9855  0.3436 -0.0419
  786MPD2     H11645   4.006   4.212  14.734  0.8724 -1.7911  0.5375
  786MPD2    H111646   3.693   4.226  15.026  0.2293  0.0212  0.4990
  786MPD2    H211647   3.598   4.115  14.640  0.5680  1.0448 -1.9422
  786MPD2    H311648   3.538   4.161  14.852  0.6785  0.8281 -1.3961
  786MPD2     N11649   3.952   4.255  14.993  0.2933 -0.2429 -0.7461
  786MPD2    H511650   3.902   4.284  15.076  0.9943  2.8434 -1.4168
  786MPD2    N111651   3.859   4.097  14.544  0.4519 -0.4795  0.3834
  786MPD2    H711652   3.959   4.090  14.529  0.5526  0.8839  0.4473
  787MPD2     C11653   4.053   3.601  14.665 -0.4658 -0.8201 -0.5821
  787MPD2    C111654   4.095   3.600  14.536 -0.4810  0.1941  0.3846
  787MPD2    C211655   4.196   3.510  14.509 -0.8820  0.3919 -0.1154
  787MPD2    C311656   4.244   3.417  14.604 -0.1240  0.3303 -0.4897
  787MPD2    C411657   4.184   3.418  14.729 -0.4693 -0.1927  0.7451
  787MPD2    C511658   4.085   3.504  14.757 -0.0846 -0.0500 -0.3540
  787MPD2     H11659   4.234   3.507  14.408 -1.5791  1.5789 -0.4151
  787MPD2    H111660   4.222   3.360  14.812 -1.3635 -0.4526  0.9757
  787MPD2    H211661   3.993   3.682  14.705  0.3134 -0.3251 -0.4120
  787MPD2    H311662   4.057   3.516  14.861  0.0664  0.5113 -0.3808
  787MPD2     N11663   4.321   3.312  14.553  0.2547  0.4860  0.4573
  787MPD2    H511664   4.364   3.325  14.461 -1.0556 -2.9885 -0.6322
  787MPD2    N111665   4.034   3.687  14.442 -0.2159  0.1821 -0.3809
  787MPD2    H711666   3.972   3.760  14.475  1.4185  0.3831  2.2610
  788MPD2     C11667   0.977   2.328   0.602 -0.3122  0.6413  0.5476
  788MPD2    C111668   1.117   2.316   0.592  0.2174 -0.2748  0.3921
  788MPD2    C211669   1.183   2.422   0.529  0.2818  0.1920  0.2819
  788MPD2    C311670   1.112   2.527   0.468 -0.7635 -0.0327  0.2938
  788MPD2    C411671   0.974   2.528   0.482  0.7005  0.2531  0.2976
  788MPD2    C511672   0.908   2.427   0.541  0.4030 -0.4243  0.2848
  788MPD2     H11673   1.289   2.415   0.509 -0.0367  1.0074 -1.6625
  788MPD2    H111674   0.921   2.607   0.429 -0.1386 -0.1051  0.6044
  788MPD2    H211675   0.922   2.252   0.657 -0.2899 -0.0126 -0.3244
  788MPD2    H311676   0.799   2.426   0.544  0.2716  0.8473 -3.5961
  788MPD2     N11677   1.168   2.634   0.396 -0.4520 -0.3054 -0.3196
  788MPD2    H511678   1.095   2.696   0.361  0.5945  1.4190  0.5707
  788MPD2    N111679   1.177   2.209   0.663  0.7456 -0.7125  0.5168
  788MPD2    H711680   1.109   2.136   0.679 -0.2529 -0.0448 -0.6538
  789MPD2     C11681   1.215   2.177  16.031 -0.6090 -0.4815 -0.3711
  789MPD2    C111682   1.185   2.106  16.146 -0.6748 -0.0797 -0.0517
  789MPD2    C211683   1.120   2.178  16.246 -0.4549  0.7983 -0.5727
  789MPD2    C311684   1.099   2.313  16.239  0.2857  0.4708  0.4138
  789MPD2    C411685   1.130   2.379  16.126 -0.1506  0.1774 -1.1742
  789MPD2    C511686   1.189   2.312  16.016  0.5861 -0.8251 -0.2931
  789MPD2     H11687   1.085   2.125  16.334  0.8553  1.1438  0.1702
  789MPD2    H111688   1.117   2.483  16.100 -0.3928  0.1867 -1.0216
  789MPD2    H211689   1.256   2.137  15.939 -1.0096  2.0556 -1.6190
  789MPD2    H311690   1.210   2.363  15.923 -4.3777 -1.4578 -1.7889
  789MPD2     N11691   1.019   2.388  16.334  0.4956  0.2165 -0.2313
  789MPD2    H511692   0.996   2.482  16.303 -1.0229 -0.5595 -1.4053
  789MPD2    N111693   1.224   1.970  16.163 -0.0984  0.4551  0.2327
  789MPD2    H711694   1.206   1.935  16.256  0.0256  0.4519  0.2547
  790MPD2     C11695   2.112   3.891  13.641  0.6937  0.1840  0.0701
  790MPD2    C111696   2.200   3.908  13.539  0.0888  0.0956  0.1700
  790MPD2    C211697   2.164   3.876  13.411  0.9872  0.0708  0.7159
  790MPD2    C311698   2.030   3.834  13.384 -0.2248  0.3216  0.1046
  790MPD2    C411699   1.940   3.814  13.488  0.5633  0.4738  0.1127
  790MPD2    C511700   1.983   3.848  13.619  0.0789 -0.4136  0.2824
  790MPD2     H11701   2.239   3.873  13.333 -0.2872 -3.5149 -0.3691
  790MPD2    H111702   1.836   3.790  13.469  0.3318  1.3552  0.2628
  790MPD2    H211703   2.138   3.912  13.745 -1.2268  1.8162  0.2319
  790MPD2    H311704   1.923   3.832  13.708 -1.7954 -3.6811 -1.6112
  790MPD2     N11705   2.005   3.788  13.250  0.0526 -0.5998 -0.2202
  790MPD2    H511706   2.084   3.770  13.189 -0.7679 -1.8194 -0.9329
  790MPD2    N111707   2.327   3.954  13.567 -0.9473 -0.5016 -0.5300
  790MPD2    H711708   2.356   3.961  13.664 -0.3283 -0.6894 -0.7034
  791MPD2     C11709   1.430   3.732  12.738  0.3238  1.0060 -0.3247
  791MPD2    C111710   1.465   3.602  12.767 -0.2358  0.0437 -0.3687
  791MPD2    C211711   1.383   3.498  12.730 -0.5410 -0.3437  0.4565
  791MPD2    C311712   1.261   3.520  12.660 -0.4301  0.1505  0.4436
  791MPD2    C411713   1.236   3.646  12.627  0.0629  0.5926  0.3136
  791MPD2    C511714   1.319   3.749  12.666  0.1324 -1.0054 -0.2296
  791MPD2     H11715   1.421   3.399  12.754 -0.8834 -0.6859 -0.4189
  791MPD2    H111716   1.156   3.679  12.562 -0.2877  2.4671  1.6890
  791MPD2    H211717   1.495   3.815  12.763  0.3754  1.2684 -1.3191
  791MPD2    H311718   1.313   3.854  12.638  1.9417 -1.2379 -1.5583
  791MPD2     N11719   1.192   3.413  12.607 -0.1932 -0.0343 -0.4733
  791MPD2    H511720   1.210   3.322  12.648  1.8589  0.8235  0.5570
  791MPD2    N111721   1.590   3.595  12.824  0.1420 -0.0909 -0.3588
  791MPD2    H711722   1.642   3.680  12.844 -1.6997  0.5125  1.9171
  792MPD2     C11723   2.221   2.985  11.333  0.5524 -0.2367 -0.3116
  792MPD2    C111724   2.106   3.060  11.347 -0.0864 -0.0557 -0.7573
  792MPD2    C211725   1.984   2.994  11.355 -0.2085 -0.0859 -0.3251
  792MPD2    C311726   1.985   2.854  11.360 -0.3572  0.4834 -0.2033
  792MPD2    C411727   2.102   2.784  11.366  0.1453 -0.7445 -0.0473
  792MPD2    C511728   2.218   2.850  11.347 -0.1144  0.0050 -0.0396
  792MPD2     H11729   1.886   3.039  11.349 -0.1830  0.2040  1.3731
  792MPD2    H111730   2.106   2.676  11.376 -2.2067 -0.7439  0.7386
  792MPD2    H211731   2.315   3.037  11.320  0.8753 -1.0670 -1.2664
  792MPD2    H311732   2.313   2.799  11.353  0.0235  0.1827 -0.7701
  792MPD2     N11733   1.866   2.778  11.356 -0.1075  0.7440 -0.0965
  792MPD2    H511734   1.881   2.678  11.347 -0.2760  0.9890 -3.0672
  792MPD2    N111735   2.111   3.199  11.337 -0.1111  0.1578  0.1104
  792MPD2    H711736   2.205   3.239  11.338 -0.8521  1.9743 -1.9450
  793MPD2     C11737   1.062   2.980  10.855 -0.1708 -1.2579 -0.2170
  793MPD2    C111738   1.180   3.038  10.896 -0.9616 -0.7353 -0.6086
  793MPD2    C211739   1.264   2.985  10.995 -0.2601  0.1348  0.0954
  793MPD2    C311740   1.226   2.870  11.059 -0.0214 -0.0894  0.1126
  793MPD2    C411741   1.099   2.822  11.031  0.0370 -0.3621  0.5510
  793MPD2    C511742   1.012   2.880  10.940 -0.1280  0.0097 -0.7710
  793MPD2     H11743   1.358   3.033  11.021  0.6669 -1.7365  0.1330
  793MPD2    H111744   1.063   2.727  11.071 -0.3991 -0.1751  0.5974
  793MPD2    H211745   1.007   3.015  10.768 -2.3399  1.0853  2.1159
  793MPD2    H311746   0.919   2.831  10.913 -0.3067 -0.3236  0.4532
  793MPD2     N11747   1.324   2.800  11.129  0.3787  0.3917  0.2799
  793MPD2    H511748   1.413   2.849  11.131  0.8217 -0.2969 -2.8899
  793MPD2    N111749   1.232   3.151  10.830  0.0961 -0.0140  0.3304
  793MPD2    H711750   1.316   3.200  10.857 -0.1323 -0.2046  1.3862
  794MPD2     C11751   1.979   2.898  17.414  0.1237  0.0974 -0.0321
  794MPD2    C111752   1.978   2.770  17.362 -0.2525 -0.1038  0.2299
  794MPD2    C211753   1.928   2.751  17.234 -0.0204 -0.0174 -0.0819
  794MPD2    C311754   1.861   2.853  17.176  0.8512 -0.0502 -0.5716
  794MPD2    C411755   1.843   2.974  17.232 -0.0725 -0.2905 -0.2148
  794MPD2    C511756   1.909   2.996  17.351  0.2618 -0.4533  0.1844
  794MPD2     H11757   1.933   2.651  17.191 -1.8237 -0.6704  1.2150
  794MPD2    H111758   1.793   3.055  17.181 -0.5965 -1.0433 -0.9033
  794MPD2    H211759   2.038   2.926  17.501 -1.6086 -1.3351  1.5959
  794MPD2    H311760   1.911   3.096  17.394  3.6206 -1.5111  2.5215
  794MPD2     N11761   1.786   2.840  17.058 -0.2415 -0.2129  0.2226
  794MPD2    H511762   1.730   2.921  17.035 -1.4753 -1.5322 -1.5041
  794MPD2    N111763   2.026   2.660  17.434  0.0708 -0.1333 -0.0911
  794MPD2    H711764   2.017   2.570  17.387  0.0598  0.1363 -0.6084
  795MPD2     C11765   4.478   0.477  13.687 -0.2800 -0.2999  1.0443
  795MPD2    C111766   4.418   0.381  13.604 -0.9236  0.4089 -0.4588
  795MPD2    C211767   4.505   0.289  13.550  1.0511 -0.2093  0.2130
  795MPD2    C311768   4.643   0.307  13.553  0.1380 -0.1584  0.7765
  795MPD2    C411769   4.703   0.411  13.625 -1.0773 -0.0294 -0.1699
  795MPD2    C511770   4.615   0.494  13.690  0.2952 -0.1482  0.2037
  795MPD2     H11771   4.474   0.211  13.480 -0.7335  1.2663 -0.6574
  795MPD2    H111772   0.074   0.417  13.630 -1.0049 -1.6909 -0.0031
  795MPD2    H211773   4.426   0.547  13.752 -1.7402 -0.6331  0.2437
  795MPD2    H311774   4.661   0.579  13.738  0.2381  1.0605 -1.8707
  795MPD2     N11775   4.728   0.211  13.485  0.4382  0.6820 -0.2793
  795MPD2    H511776   4.679   0.126  13.458  0.0421  0.9207 -0.3161
  795MPD2    N111777   4.277   0.375  13.584  0.0669 -0.2427 -0.0143
  795MPD2    H711778   4.239   0.309  13.517  0.2360  0.6462 -0.9842
  796MPD2     C11779   3.832   1.613  15.686 -0.0918 -0.1731  0.2346
  796MPD2    C111780   3.803   1.681  15.803  0.0287 -0.7784 -0.5613
  796MPD2    C211781   3.779   1.813  15.801  0.2757  0.2989 -0.1508
  796MPD2    C311782   3.796   1.885  15.683 -0.3044 -0.5438 -0.0564
  796MPD2    C411783   3.828   1.816  15.561  0.0359 -0.4637  0.5513
  796MPD2    C511784   3.844   1.681  15.563  0.3294  0.9000  0.6873
  796MPD2     H11785   3.773   1.862  15.898 -0.4488 -2.1039  1.0044
  796MPD2    H111786   3.863   1.866  15.471  1.4563 -2.5155 -0.0315
  796MPD2    H211787   3.849   1.506  15.683  1.0918  0.0364 -0.3854
  796MPD2    H311788   3.865   1.615  15.480 -0.4547  1.5141  0.0096
  796MPD2     N11789   3.796   2.025  15.687  0.3130 -0.1587 -0.1987
  796MPD2    H511790   3.795   2.064  15.781  0.9463 -0.6350  0.0076
  796MPD2    N111791   3.799   1.600  15.920 -1.1107 -0.1064 -0.5258
  796MPD2    H711792   3.858   1.517  15.916 -1.0456 -0.0808 -0.0796
  797MPD2     C11793   0.032   1.214  17.406 -0.3044  0.8109  0.2656
  797MPD2    C111794   0.018   1.348  17.410 -0.2625 -0.8723 -0.8189
  797MPD2    C211795   4.668   1.410  17.322  0.2973 -0.4314  1.2028
  797MPD2    C311796   4.609   1.341  17.219  0.1456 -0.4385  0.3180
  797MPD2    C411797   4.625   1.204  17.219 -0.0587  0.0737  0.1696
  797MPD2    C511798   4.703   1.146  17.311 -0.3981  0.0524  0.4930
  797MPD2     H11799   4.661   1.518  17.329 -2.7945 -0.7335  3.1228
  797MPD2    H111800   4.592   1.135  17.142  2.3276 -3.3428  2.2140
  797MPD2    H211801   0.094   1.168  17.482 -0.2981 -1.4436 -1.1185
  797MPD2    H311802   4.705   1.038  17.305  2.1380  0.1567 -0.4252
  797MPD2     N11803   4.525   1.402  17.120  0.0846 -0.3320  0.1346
  797MPD2    H511804   4.490   1.346  17.043 -0.1134 -0.8080  0.5697
  797MPD2    N111805   0.087   1.431  17.505 -0.2109  0.1172  0.3037
  797MPD2    H711806   0.049   1.524  17.518 -0.5297  0.0555 -0.2154
  798MPD2     C11807   0.046   2.068  17.131  0.0086  0.2055  0.6857
  798MPD2    C111808   0.043   1.932  17.114  0.4514  0.2136 -0.4721
  798MPD2    C211809   0.131   1.859  17.187 -0.6805 -0.1625 -0.5253
  798MPD2    C311810   0.206   1.915  17.288  0.1152  0.0837  0.7303
  798MPD2    C411811   0.194   2.051  17.322 -0.1052  0.1699  0.1633
  798MPD2    C511812   0.119   2.128  17.232 -0.4120  0.4987 -0.1239
  798MPD2     H11813   0.144   1.752  17.177 -3.0031 -0.4030 -1.0612
  798MPD2    H111814   0.246   2.095  17.407 -1.9935 -1.4066  2.1331
  798MPD2    H211815   4.716   2.127  17.070 -1.1556 -0.1832  1.6133
  798MPD2    H311816   0.104   2.233  17.252  1.9746  1.1256 -1.7127
  798MPD2     N11817   0.265   1.821  17.374 -0.0199 -0.3202 -0.2617
  798MPD2    H511818   0.253   1.724  17.346 -0.8308 -0.5752  0.9559
  798MPD2    N111819   4.689   1.872  17.022  0.1789 -0.0491 -0.0335
  798MPD2    H711820   4.616   1.936  16.990 -1.5985 -1.2937  1.5481
  799MPD2     C11821   3.956   3.019  14.594  0.2419 -0.1612  0.3072
  799MPD2    C111822   3.867   2.960  14.505 -0.2591  0.2020 -0.1734
  799MPD2    C211823   3.773   3.038  14.437 -0.4845 -0.5865  0.3022
  799MPD2    C311824   3.754   3.166  14.464 -0.5101  0.2580  0.0868
  799MPD2    C411825   3.838   3.219  14.558  0.0611  0.2768 -0.0074
  799MPD2    C511826   3.935   3.151  14.624 -0.0545  0.1507  0.2401
  799MPD2     H11827   3.707   2.989  14.366 -2.1110  0.9430  0.7378
  799MPD2    H111828   3.826   3.324  14.581  1.0933  0.5617 -0.7823
  799MPD2    H211829   4.039   2.966  14.639  0.8812 -0.1397 -0.8441
  799MPD2    H311830   4.005   3.205  14.686 -0.4099 -0.6117  1.3107
  799MPD2     N11831   3.669   3.248  14.395 -0.3141 -0.0178 -0.1669
  799MPD2    H511832   3.669   3.348  14.413  0.2809 -0.0066 -0.2204
  799MPD2    N111833   3.885   2.821  14.467  0.0062 -0.0427  0.0978
  799MPD2    H711834   3.802   2.773  14.436 -1.4347  1.4677  1.5791
  800MPD2     C11835   4.366   4.179  14.206 -0.2118 -0.3833 -0.0994
  800MPD2    C111836   4.490   4.130  14.173  0.1513 -0.2718  0.2551
  800MPD2    C211837   4.500   4.015  14.093 -0.4686 -0.4492 -0.1487
  800MPD2    C311838   4.382   3.973  14.024  0.4376  0.2578 -0.0089
  800MPD2    C411839   4.256   4.024  14.068  0.6758  0.4196 -0.1399
  800MPD2    C511840   4.253   4.120  14.161 -0.5309 -1.1689 -0.8251
  800MPD2     H11841   4.594   3.970  14.063 -1.2446 -2.2091  0.0768
  800MPD2    H111842   4.161   3.992  14.027  0.5518 -2.7403  2.6803
  800MPD2    H211843   4.356   4.266  14.269 -0.0570  0.4473 -1.2335
  800MPD2    H311844   4.154   4.161  14.176 -0.7339 -1.2355 -2.0520
  800MPD2     N11845   4.397   3.891  13.910  0.2845  0.1167  1.0660
  800MPD2    H511846   4.490   3.856  13.889 -0.1725 -1.5911  1.8573
  800MPD2    N111847   4.608   4.195  14.215  0.1698 -0.1926  0.4354
  800MPD2    H711848   4.595   4.282  14.266 -0.6409  1.1276 -2.0426
  801MPD2     C11849   0.135   0.111  14.093 -0.9120  0.0830  0.1555
  801MPD2    C111850   0.041   0.015  14.138  0.0240  0.1798  0.5345
  801MPD2    C211851   4.656   0.057  14.185 -1.0579 -0.4360 -0.1437
  801MPD2    C311852   4.623   0.197  14.196  0.0294  0.1087 -0.2271
  801MPD2    C411853   4.711   0.287  14.143  0.8865 -0.1176 -0.8513
  801MPD2    C511854   0.097   0.240  14.092  0.2089  0.1139  0.9482
  801MPD2     H11855   4.577   4.720  14.189 -0.7663 -0.8019 -1.2941
  801MPD2    H111856   4.701   0.394  14.135 -0.9149 -0.1689  0.7069
  801MPD2    H211857   0.234   0.084  14.058 -0.7930  0.9121 -0.1533
  801MPD2    H311858   0.150   0.317  14.038 -0.6553  0.7064  0.9549
  801MPD2     N11859   4.499   0.244  14.242  0.0574  0.4203  0.7415
  801MPD2    H511860   4.489   0.344  14.255  1.8423  1.0758 -2.7572
  801MPD2    N111861   0.078   4.620  14.169 -0.5259 -0.2844 -0.0509
  801MPD2    H711862   0.009   4.570  14.224  0.0925  0.9800  1.8796
  802MPD2     C11863   3.994   0.684   0.784  0.0208 -0.0047  0.9044
  802MPD2    C111864   3.871   0.631   0.755 -0.1302  0.5328 -0.9639
  802MPD2    C211865   3.853   0.534   0.657  0.4020 -0.1843 -0.7678
  802MPD2    C311866   3.957   0.486   0.588  0.1823 -0.2647 -0.3001
  802MPD2    C411867   4.080   0.537   0.625  0.0484 -0.1745 -0.0226
  802MPD2    C511868   4.102   0.631   0.722 -0.2556  0.1088 -0.1586
  802MPD2     H11869   3.753   0.507   0.625 -0.3210  0.3722  1.0078
  802MPD2    H111870   4.165   0.490   0.578  0.5762  0.7723 -0.0265
  802MPD2    H211871   4.014   0.747   0.870 -0.0736  0.1610  0.8041
  802MPD2    H311872   4.202   0.670   0.738 -0.3102  0.0905  0.2456
  802MPD2     N11873   3.939   0.383   0.487 -0.8470 -0.1223 -0.2310
  802MPD2    H511874   3.841   0.364   0.469 -0.7907  0.3634 -1.0822
  802MPD2    N111875   3.755   0.683   0.806 -0.3626 -0.1737 -0.4541
  802MPD2    H711876   3.673   0.650   0.756 -0.1932 -0.0826 -0.7978
  803MPD2     C11877   0.135   3.928  11.523  0.3345  0.6238 -0.2070
  803MPD2    C111878   0.238   3.967  11.611  0.5458 -0.2589  0.6966
  803MPD2    C211879   0.230   3.928  11.746  0.0204 -0.3405  0.1015
  803MPD2    C311880   0.129   3.852  11.794  0.6031  0.2768 -0.1976
  803MPD2    C411881   0.025   3.821  11.710 -0.8928 -0.5166 -0.4906
  803MPD2    C511882   0.030   3.856  11.577  0.4650  1.2766  0.1694
  803MPD2     H11883   0.313   3.961  11.808 -1.0184  1.9115  0.2813
  803MPD2    H111884   4.678   3.764  11.743 -0.1146 -0.4533  1.5881
  803MPD2    H211885   0.131   3.945  11.416  0.1061 -0.8106 -0.4291
  803MPD2    H311886   4.689   3.832  11.507  0.0912  0.3943  0.8919
  803MPD2     N11887   0.112   3.811  11.927 -0.2653  0.6295 -0.1756
  803MPD2    H511888   0.025   3.761  11.943 -0.0648  0.3555  0.0533
  803MPD2    N111889   0.356   4.027  11.564 -0.4584  0.0698  0.0104
  803MPD2    H711890   0.429   4.047  11.632  1.5051 -3.6585 -0.9972
  804MPD2     C11891   4.486   0.284  17.009 -0.2294  0.3575  1.1210
  804MPD2    C111892   4.516   0.208  17.118  0.2564 -1.1077  0.6748
  804MPD2    C211893   4.625   0.236  17.202  0.4050  0.2669  0.4450
  804MPD2    C311894   4.718   0.337  17.170  0.4743  0.3440 -0.4833
  804MPD2    C411895   4.683   0.404  17.056 -0.0984  0.1666 -0.0516
  804MPD2    C511896   4.572   0.382  16.976 -0.1560 -0.1204  0.5163
  804MPD2     H11897   4.637   0.176  17.292  1.5860 -0.5640 -0.2634
  804MPD2    H111898   0.004   0.490  17.025  1.1171 -0.5680  0.1873
  804MPD2    H211899   4.402   0.264  16.944  0.5750 -0.9787  0.5085
  804MPD2    H311900   4.555   0.440  16.887 -1.4610 -1.0851  0.1275
  804MPD2     N11901   0.087   0.374  17.253  0.0246  0.3825 -0.5087
  804MPD2    H511902   0.098   0.336  17.347 -0.6371  0.0544 -0.5670
  804MPD2    N111903   4.444   0.092  17.153 -0.2395 -0.3590 -0.3802
  804MPD2    H711904   4.464   0.048  17.242  1.5832  1.0769 -0.0839
  805MPD2     C11905   3.346   3.376  15.520  0.7213 -0.0804 -0.2412
  805MPD2    C111906   3.449   3.348  15.441  0.2312 -0.4550 -0.2397
  805MPD2    C211907   3.573   3.346  15.493  0.2063 -0.9860  0.3182
  805MPD2    C311908   3.600   3.378  15.625 -0.1030 -0.1234  0.3046
  805MPD2    C411909   3.493   3.410  15.705  0.1473  0.2579  0.7284
  805MPD2    C511910   3.368   3.398  15.648 -0.4305 -0.0155  0.7146
  805MPD2     H11911   3.662   3.337  15.432 -1.7168 -1.5104 -2.4077
  805MPD2    H111912   3.499   3.425  15.812  0.9711  2.2684  0.3961
  805MPD2    H211913   3.246   3.338  15.507 -0.4256  1.6238  3.6206
  805MPD2    H311914   3.280   3.402  15.711 -2.8054  0.4681 -2.6306
  805MPD2     N11915   3.740   3.377  15.659  0.1667 -0.2196 -0.5252
  805MPD2    H511916   3.803   3.348  15.585  0.1692  1.6430 -1.2427
  805MPD2    N111917   3.430   3.306  15.305 -0.1071 -0.1262 -0.5591
  805MPD2    H711918   3.514   3.270  15.261 -0.6014 -1.9637  0.0365
  806MPD2     C11919   4.551   2.685   0.418  0.1396 -1.1416  0.5913
  806MPD2    C111920   4.423   2.740   0.418  0.4440  0.1779 -0.5463
  806MPD2    C211921   4.405   2.878   0.395 -0.7377 -0.1906  0.6045
  806MPD2    C311922   4.515   2.956   0.377  0.9722 -0.6955  0.1341
  806MPD2    C411923   4.639   2.895   0.355 -0.0787 -0.1817  0.4102
  806MPD2    C511924   4.658   2.758   0.373  0.1584  0.0460 -0.3235
  806MPD2     H11925   4.312   2.933   0.401 -0.4004  0.1149  3.1483
  806MPD2    H111926   4.715   2.954   0.304  0.4638 -0.6467  0.6823
  806MPD2    H211927   4.560   2.578   0.429 -2.0620 -1.4524 -0.7172
  806MPD2    H311928   0.021   2.718   0.368 -0.4132 -1.3810 -0.3515
  806MPD2     N11929   4.492   3.094   0.367  0.6155  0.1429  0.3751
  806MPD2    H511930   4.397   3.128   0.362  1.2225  1.9010  0.7409
  806MPD2    N111931   4.320   2.647   0.448  0.7330 -0.1169  0.1582
  806MPD2    H711932   4.346   2.553   0.475 -0.3479 -0.0531  1.4270
  807MPD2     C11933   3.600   2.477   0.841  0.9231 -0.2102 -0.0367
  807MPD2    C111934   3.680   2.373   0.797 -0.4269 -0.3665  1.2403
  807MPD2    C211935   3.692   2.260   0.873  0.0858 -0.0274 -0.0581
  807MPD2    C311936   3.619   2.247   0.994  0.6774 -0.3610  0.3011
  807MPD2    C411937   3.549   2.355   1.034  0.1951 -0.5680  0.7777
  807MPD2    C511938   3.532   2.463   0.954  0.5768  0.3282  0.2423
  807MPD2     H11939   3.749   2.174   0.841 -1.4928 -1.1630  0.1798
  807MPD2    H111940   3.492   2.367   1.125  0.9607  2.0951  0.9073
  807MPD2    H211941   3.590   2.570   0.787  4.5282 -0.1153 -0.5650
  807MPD2    H311942   3.467   2.543   0.987 -0.5699  0.2177 -1.7374
  807MPD2     N11943   3.626   2.124   1.070 -0.0841  0.0287  0.1583
  807MPD2    H511944   3.683   2.051   1.029  1.8915  2.3185 -1.1687
  807MPD2    N111945   3.760   2.365   0.681 -0.3012  0.0611  0.9809
  807MPD2    H711946   3.800   2.275   0.659 -1.0920 -0.7535  2.9005
  808MPD2     C11947   4.566   4.126   9.866 -0.5630 -0.3399  0.2735
  808MPD2    C111948   4.469   4.206   9.803 -0.0439  0.1907 -0.0584
  808MPD2    C211949   4.458   4.337   9.837  0.4381  0.5944  0.2558
  808MPD2    C311950   4.515   4.376   9.957  0.2643  0.2004  0.1318
  808MPD2    C411951   4.593   4.288  10.038 -0.1992 -0.2687  0.0226
  808MPD2    C511952   4.615   4.159   9.993  0.2151  0.0417 -0.0010
  808MPD2     H11953   4.384   4.394   9.782  0.2580  0.5871  0.4865
  808MPD2    H111954   4.620   4.315  10.140  2.7125 -0.1578 -0.7824
  808MPD2    H211955   4.584   4.022   9.838 -1.6617 -0.2618 -0.7209
  808MPD2    H311956   4.672   4.082  10.043 -2.6571 -0.6439  2.2473
  808MPD2     N11957   4.488   4.499  10.019 -0.4939  0.2114 -0.4181
  808MPD2    H511958   4.518   4.510  10.115 -0.8089  1.9350 -0.5246
  808MPD2    N111959   4.387   4.167   9.692 -0.1081 -0.6691  0.1478
  808MPD2    H711960   4.333   4.246   9.658 -0.9777 -0.4943  1.9782
  809MPD2     C11961   4.672   0.822  10.089 -0.3938 -0.0821 -0.2435
  809MPD2    C111962   4.713   0.729   9.997  0.5145 -0.4729  0.0008
  809MPD2    C211963   4.656   0.607   9.990  0.5054  0.5875 -0.1574
  809MPD2    C311964   4.558   0.572  10.080  0.0701 -0.1293 -0.8687
  809MPD2    C411965   4.527   0.664  10.174 -0.1115  0.6141 -0.1476
  809MPD2    C511966   4.585   0.789  10.186  0.2980  0.3111  0.3403
  809MPD2     H11967   4.682   0.536   9.913 -1.1185  0.2582 -0.4139
  809MPD2    H111968   4.452   0.631  10.245  0.5163 -1.5988 -0.5239
  809MPD2    H211969   4.710   0.923  10.084 -0.1629 -0.0915  1.2308
  809MPD2    H311970   4.568   0.861  10.265  0.8077  1.6825 -0.8107
  809MPD2     N11971   4.491   0.449  10.092 -0.2537  0.2951 -0.4219
  809MPD2    H511972   4.419   0.439  10.163 -0.1816  3.3584  0.0971
  809MPD2    N111973   0.075   0.757   9.898 -0.2533 -0.1954  0.1886
  809MPD2    H711974   0.096   0.678   9.838  4.3642  0.2839  1.2128
  810MPD2     C11975   4.077   3.195  10.123 -0.0318  0.1727  0.6321
  810MPD2    C111976   3.968   3.273  10.102 -0.2853  0.9851  0.1743
  810MPD2    C211977   3.975   3.408  10.130  0.5048  0.2936  0.4220
  810MPD2    C311978   4.088   3.468  10.186 -0.0470  0.3521 -0.3082
  810MPD2    C411979   4.194   3.388  10.210 -0.2659 -0.7685 -0.2512
  810MPD2    C511980   4.186   3.253  10.176 -0.0243 -0.0232  0.1073
  810MPD2     H11981   3.891   3.466  10.093  2.9361  2.9110 -1.0073
  810MPD2    H111982   4.281   3.428  10.260  0.7332 -2.3428 -0.7267
  810MPD2    H211983   4.076   3.089  10.101 -0.4824 -0.4920  3.8938
  810MPD2    H311984   4.269   3.188  10.201 -0.9070 -1.1300  0.1655
  810MPD2     N11985   4.097   3.601  10.230  0.0187  0.0862  0.2468
  810MPD2    H511986   4.184   3.638  10.267  1.0160  0.3187 -2.3499
  810MPD2    N111987   3.842   3.230  10.054  0.1633  0.7531  0.3519
  810MPD2    H711988   3.763   3.292  10.071 -0.5481  0.0279 -0.3404
  811MPD2     C11989   3.164   3.424   9.800  0.5128 -0.1857  0.2949
  811MPD2    C111990   3.290   3.463   9.839  0.7392  0.0887 -0.1438
  811MPD2    C211991   3.322   3.594   9.846  0.6140  0.3700  0.2969
  811MPD2    C311992   3.235   3.694   9.805  0.5266 -0.0813 -0.0451
  811MPD2    C411993   3.105   3.659   9.787 -0.2849 -0.5489  0.0977
  811MPD2    C511994   3.068   3.522   9.777  0.2824  0.6654 -0.3666
  811MPD2     H11995   3.422   3.619   9.880  1.1036 -1.3252  0.1082
  811MPD2    H111996   3.031   3.737   9.771  1.8877  1.3200 -0.8288
  811MPD2    H211997   3.130   3.321   9.801  0.7424 -0.2612  0.6129
  811MPD2    H311998   2.965   3.490   9.771  1.3098 -2.8404  0.3885
  811MPD2     N11999   3.280   3.829   9.812  0.6347  0.1063 -0.2857
  811MPD2    H512000   3.379   3.852   9.817  0.7965 -0.7041  0.2121
  811MPD2    N112001   3.372   3.368   9.895  0.4874 -0.3027  1.2568
  811MPD2    H712002   3.460   3.390   9.941  1.7216 -3.4991  0.4282
  812MPD2     C12003   2.794   3.638  11.777  0.2104 -0.9022  0.0126
  812MPD2    C112004   2.738   3.719  11.875 -1.2006  0.6808 -0.6685
  812MPD2    C212005   2.724   3.672  12.004  0.4157 -0.2269  0.6943
  812MPD2    C312006   2.779   3.550  12.042 -0.2947 -0.6753  0.4949
  812MPD2    C412007   2.844   3.474  11.947 -0.1868 -0.0135 -0.0650
  812MPD2    C512008   2.850   3.519  11.813  0.1697 -0.5231  0.1572
  812MPD2     H12009   2.675   3.736  12.077  0.9723 -0.9854  1.7505
  812MPD2    H112010   2.915   3.400  11.982  0.5629 -0.0900 -1.7442
  812MPD2    H212011   2.818   3.669  11.676  0.2871 -1.4106 -0.1239
  812MPD2    H312012   2.893   3.456  11.736  0.8833 -0.0824  0.1958
  812MPD2     N12013   2.779   3.516  12.179 -0.1588  0.1110 -0.2702
  812MPD2    H512014   2.748   3.587  12.245  0.6857 -1.2738  1.5881
  812MPD2    N112015   2.691   3.845  11.834 -0.3037 -0.1313  0.3103
  812MPD2    H712016   2.703   3.856  11.734  0.2345 -0.4780  0.3381
  813MPD2     C12017   2.334   0.425  12.900 -0.0564  0.5631  0.6376
  813MPD2    C112018   2.326   0.547  12.956 -0.3077  0.4284 -0.5116
  813MPD2    C212019   2.199   0.587  12.999 -0.4159 -0.3880 -0.0706
  813MPD2    C312020   2.091   0.503  12.996  0.3504  0.0542  0.6837
  813MPD2    C412021   2.104   0.387  12.926 -0.1758 -0.5685  0.1350
  813MPD2    C512022   2.225   0.348  12.871  0.3644  0.9767 -0.9362
  813MPD2     H12023   2.192   0.687  13.038  0.2492  0.1486 -1.3057
  813MPD2    H112024   2.015   0.329  12.905  0.1014 -1.2781  0.9418
  813MPD2    H212025   2.429   0.385  12.865 -0.5877  0.2548 -0.4730
  813MPD2    H312026   2.220   0.253  12.819 -4.6939  1.3994 -1.2165
  813MPD2     N12027   1.970   0.536  13.071  0.6224  0.3935 -0.1947
  813MPD2    H512028   1.969   0.623  13.123  1.2126 -0.6565  1.5889
  813MPD2    N112029   2.434   0.631  12.980  0.4264  0.1746  0.5556
  813MPD2    H712030   2.421   0.704  13.050 -0.3585 -0.2999  0.8920
  814MPD2     C12031   2.692   1.752  12.519  0.5852 -0.0846 -0.1296
  814MPD2    C112032   2.677   1.820  12.400  0.1157  0.3039 -0.2853
  814MPD2    C212033   2.756   1.933  12.373  0.1775 -0.0458  0.2477
  814MPD2    C312034   2.843   1.979  12.468 -0.3103 -0.2180  0.6089
  814MPD2    C412035   2.848   1.921  12.595  1.1843 -0.2043  0.2242
  814MPD2    C512036   2.774   1.810  12.619 -0.2796  0.2686  0.8108
  814MPD2     H12037   2.739   1.993  12.285 -1.1284 -2.6300 -1.2670
  814MPD2    H112038   2.913   1.965  12.670  1.7272  1.4325 -1.2017
  814MPD2    H212039   2.661   1.649  12.529 -1.0864  0.4026 -0.3379
  814MPD2    H312040   2.780   1.761  12.716  2.6778  0.0152  0.5187
  814MPD2     N12041   2.919   2.103  12.454  0.0895 -0.0501  0.1808
  814MPD2    H512042   2.973   2.140  12.531 -1.3797  0.8506  0.7722
  814MPD2    N112043   2.585   1.790  12.297 -0.2600  0.0265  0.1266
  814MPD2    H712044   2.600   1.837  12.208 -1.0021  2.9554  1.5578
  815MPD2     C12045   2.954   0.431  11.669 -0.0954 -0.0707 -0.1777
  815MPD2    C112046   2.913   0.305  11.701 -1.1637 -0.3476 -0.2630
  815MPD2    C212047   2.823   0.288  11.801  0.2002  0.3632 -0.3121
  815MPD2    C312048   2.762   0.395  11.872 -0.3116  0.1383 -0.4706
  815MPD2    C412049   2.806   0.515  11.839  0.4132 -0.7736 -0.8342
  815MPD2    C512050   2.892   0.534  11.733 -0.6281 -0.5762 -0.7933
  815MPD2     H12051   2.787   0.187  11.819 -1.3796  1.3198  2.0211
  815MPD2    H112052   2.769   0.603  11.891  2.2517 -0.5254  0.0851
  815MPD2    H212053   3.022   0.465  11.591 -1.3530  1.7981 -0.4735
  815MPD2    H312054   2.923   0.637  11.718  0.4595 -0.9030 -0.7727
  815MPD2     N12055   2.655   0.368  11.961 -0.0944  0.1243  0.6127
  815MPD2    H512056   2.621   0.273  11.974  0.6191  0.4265  4.8454
  815MPD2    N112057   2.961   0.210  11.609 -0.7671  0.5359 -0.5560
  815MPD2    H712058   3.003   0.252  11.527  1.4025  0.6095  0.5890
  816MPD2     C12059   2.918   4.051  17.283 -0.2347 -0.4264 -0.2704
  816MPD2    C112060   2.958   4.183  17.321  0.3560 -0.1472  0.1103
  816MPD2    C212061   3.086   4.231  17.284  0.0121  0.3914  0.1617
  816MPD2    C312062   3.168   4.153  17.208 -0.3186 -0.1316  0.2949
  816MPD2    C412063   3.124   4.031  17.162  0.0618  0.4385  0.0208
  816MPD2    C512064   3.005   3.985  17.202 -0.1452  0.1333 -0.5423
  816MPD2     H12065   3.118   4.331  17.311 -3.2536  2.1098 -2.2402
  816MPD2    H112066   3.180   3.959  17.103 -2.0648  0.5159 -2.1094
  816MPD2    H212067   2.823   4.005  17.308 -1.2890  1.4255 -0.8080
  816MPD2    H312068   2.969   3.886  17.174 -0.1240  0.5593 -2.1053
  816MPD2     N12069   3.288   4.219  17.166  0.7387  0.5224  0.1362
  816MPD2    H512070   3.301   4.312  17.206  3.7134 -0.0677  0.5550
  816MPD2    N112071   2.866   4.253  17.398  0.6426  0.5473 -0.7528
  816MPD2    H712072   2.777   4.207  17.412  1.2250 -0.1364  0.6755
  817MPD2     C12073   1.904   0.862   8.963 -0.6374  0.6985  0.2175
  817MPD2    C112074   1.910   0.801   9.085 -0.7390  0.1762 -0.2421
  817MPD2    C212075   1.799   0.814   9.171 -0.0373  0.4950 -0.1402
  817MPD2    C312076   1.681   0.878   9.141 -0.5102 -0.8952 -0.2405
  817MPD2    C412077   1.682   0.939   9.015 -0.5328 -0.6448 -0.1713
  817MPD2    C512078   1.788   0.933   8.929  0.0343  0.0074 -0.0544
  817MPD2     H12079   1.800   0.765   9.268  2.1875  1.2947  0.2436
  817MPD2    H112080   1.591   0.992   8.986  0.1986 -0.2476 -1.7593
  817MPD2    H212081   1.994   0.866   8.903  1.1021 -0.6319  2.7172
  817MPD2    H312082   1.782   0.984   8.833 -0.1540  0.4351  0.1903
  817MPD2     N12083   1.564   0.886   9.220  0.0443  0.2813  0.2902
  817MPD2    H512084   1.493   0.949   9.183  0.2971 -0.1757 -0.9879
  817MPD2    N112085   2.029   0.745   9.140 -0.4131 -0.1070  0.0588
  817MPD2    H712086   2.024   0.705   9.233 -1.8090  1.9059  0.8490
  818MPD2     C12087   1.332   1.400  10.279  0.4106  0.1163  0.6695
  818MPD2    C112088   1.241   1.322  10.350  0.1634  0.5568  0.7032
  818MPD2    C212089   1.268   1.192  10.381 -0.8929 -0.0905  0.1505
  818MPD2    C312090   1.385   1.131  10.336 -0.0330 -0.8211 -0.3028
  818MPD2    C412091   1.477   1.202  10.269  0.2973  0.2540  0.2591
  818MPD2    C512092   1.456   1.339  10.245 -0.2840  0.1136  0.3709
  818MPD2     H12093   1.200   1.142  10.449 -0.4111 -1.0914 -0.1063
  818MPD2    H112094   1.577   1.162  10.252 -0.1002 -1.4342  1.8682
  818MPD2    H212095   1.319   1.505  10.255  0.3115  0.0722  0.5325
  818MPD2    H312096   1.532   1.402  10.201 -0.6172 -0.7057 -1.3942
  818MPD2     N12097   1.420   0.992  10.364 -0.0125  0.4796 -0.2522
  818MPD2    H512098   1.493   0.951  10.306  1.3149 -0.8128  2.3105
  818MPD2    N112099   1.110   1.383  10.384 -0.0679  0.0453  0.0979
  818MPD2    H712100   1.041   1.313  10.409 -1.0393  1.8776  2.6309
  819MPD2     C12101   4.436   3.157  15.495  0.3516 -0.2058 -0.3727
  819MPD2    C112102   4.469   3.028  15.481 -0.4910  0.6175 -0.5597
  819MPD2    C212103   4.522   2.960  15.591  0.5333  0.4036 -0.4031
  819MPD2    C312104   4.567   3.025  15.698 -0.4651 -0.0447 -0.3978
  819MPD2    C412105   4.540   3.156  15.707  0.1932  0.5883  0.9488
  819MPD2    C512106   4.472   3.223  15.606  0.1738 -0.2272  0.7007
  819MPD2     H12107   4.543   2.854  15.587 -0.4205  0.2297 -0.6408
  819MPD2    H112108   4.561   3.214  15.797 -0.3415  1.7138  0.3567
  819MPD2    H212109   4.388   3.206  15.411 -2.0975  0.4035  1.4087
  819MPD2    H312110   4.452   3.326  15.630 -0.1144  0.3727 -2.0769
  819MPD2     N12111   4.614   2.951  15.807  0.0270 -0.0521 -0.1527
  819MPD2    H512112   4.617   2.850  15.792  0.3255  0.0549 -0.8229
  819MPD2    N112113   4.408   2.954  15.379 -0.0425 -0.6311 -0.1417
  819MPD2    H712114   4.329   2.992  15.328 -1.6244 -0.6992  2.2489
  820MPD2     C12115   3.666   2.755  14.742  0.4739 -0.4078  0.3288
  820MPD2    C112116   3.677   2.846  14.838 -0.6534  0.5937  0.6158
  820MPD2    C212117   3.792   2.824  14.921 -0.5410  0.4146 -0.0471
  820MPD2    C312118   3.881   2.718  14.901 -0.7346  0.0200  1.1494
  820MPD2    C412119   3.846   2.622  14.806  0.3618  0.0529 -0.3874
  820MPD2    C512120   3.747   2.647  14.719 -0.1203 -0.1148 -0.4948
  820MPD2     H12121   3.807   2.888  15.008  0.6837  2.2353 -1.5823
  820MPD2    H112122   3.914   2.537  14.799  0.6976  0.3706 -1.0485
  820MPD2    H212123   3.574   2.774  14.687  0.3511 -0.9326  0.3496
  820MPD2    H312124   3.731   2.573  14.641  1.5267  0.1542 -1.0834
  820MPD2     N12125   3.988   2.686  14.988 -0.1572  0.3206 -0.0233
  820MPD2    H512126   4.054   2.612  14.971 -1.2544 -0.3387 -1.3591
  820MPD2    N112127   3.579   2.945  14.840 -0.0403  0.5948  0.1269
  820MPD2    H712128   3.499   2.941  14.779  0.7187  0.1703 -0.8409
  821MPD2     C12129   4.377   4.310  13.265 -0.3201 -0.0117  0.2327
  821MPD2    C112130   4.446   4.188  13.243 -0.7542 -0.2622 -0.2872
  821MPD2    C212131   4.522   4.170  13.127 -0.3937  0.5473  0.2170
  821MPD2    C312132   4.555   4.277  13.049  0.4597  0.1139 -0.1006
  821MPD2    C412133   4.497   4.401  13.081 -0.4577  0.1037  0.5266
  821MPD2    C512134   4.413   4.419  13.186 -0.8008  0.2978  0.1645
  821MPD2     H12135   4.558   4.070  13.105 -2.2372  0.7510 -3.6946
  821MPD2    H112136   4.530   4.486  13.023 -1.6441  0.2401  0.0480
  821MPD2    H212137   4.309   4.321  13.348 -1.8568 -0.5351 -0.9676
  821MPD2    H312138   4.359   4.512  13.197 -0.4940  0.7579 -2.1847
  821MPD2     N12139   4.653   4.277  12.945 -0.8151 -0.1586 -0.1697
  821MPD2    H512140   4.670   4.365  12.898 -1.4533  0.0323 -0.0540
  821MPD2    N112141   4.430   4.076  13.324  0.5100  0.3918  0.1319
  821MPD2    H712142   4.485   3.996  13.293  1.6314  1.8337 -1.5972
  822MPD2     C12143   0.091   4.086  15.735  0.0629  0.6457  0.0456
  822MPD2    C112144   0.189   4.178  15.780  0.2087 -0.2622  0.0668
  822MPD2    C212145   0.156   4.298  15.832 -0.2418 -0.0065  0.1446
  822MPD2    C312146   0.023   4.331  15.837  0.2988 -0.2922 -0.1940
  822MPD2    C412147   4.659   4.241  15.807 -0.0287 -0.0559 -0.7642
  822MPD2    C512148   4.697   4.118  15.758 -0.2601  0.4342 -0.3425
  822MPD2     H12149   0.234   4.361  15.872 -0.1551  0.1273 -0.2368
  822MPD2    H112150   4.554   4.271  15.812  0.3697  1.0207  1.0911
  822MPD2    H212151   0.106   3.987  15.692 -1.0778  0.3881  0.2404
  822MPD2    H312152   4.626   4.041  15.728 -0.0666  0.0273  0.2483
  822MPD2     N12153   4.725   4.455  15.891  0.5171  0.0155 -0.2146
  822MPD2    H512154   4.631   4.477  15.920 -0.7314 -2.1546 -2.6089
  822MPD2    N112155   0.324   4.143  15.805  0.3756  0.3939  0.1928
  822MPD2    H712156   0.390   4.201  15.856  1.6090  0.0887 -1.0645
  823MPD2     C12157   4.673   0.085  16.683 -0.3203 -0.2534 -0.3588
  823MPD2    C112158   4.688   4.730  16.581  0.4867 -1.0230 -0.1262
  823MPD2    C212159   4.685   4.597  16.613  0.0077  0.6044 -0.2771
  823MPD2    C312160   4.638   4.547  16.733 -0.1158 -0.7533 -0.4557
  823MPD2    C412161   4.608   4.640  16.823  1.0199 -0.0897  0.1676
  823MPD2    C512162   4.642   0.040  16.807 -0.0656 -0.4121  0.5594
  823MPD2     H12163   4.720   4.531  16.535 -1.6824 -1.5403  0.8020
  823MPD2    H112164   4.559   4.616  16.918 -0.4544  0.5772 -0.4197
  823MPD2    H212165   4.677   0.191  16.664  0.2786 -0.1962  0.0866
  823MPD2    H312166   4.623   0.111  16.887 -3.4263  0.8066 -1.3154
  823MPD2     N12167   4.639   4.410  16.771  0.4795 -0.3255 -0.1369
  823MPD2    H512168   4.615   4.389  16.868  1.5522 -1.1113 -0.0475
  823MPD2    N112169   4.708   0.030  16.448  0.1168  0.3370  0.1151
  823MPD2    H712170   0.002   0.122  16.422 -0.0530  0.8723  1.7819
  824MPD2     C12171   0.600   3.407  15.846 -0.1469 -0.2339  0.1097
  824MPD2    C112172   0.696   3.507  15.861  0.0557  0.0382 -0.2682
  824MPD2    C212173   0.829   3.476  15.857  0.2194 -0.4814  0.0672
  824MPD2    C312174   0.871   3.343  15.852  0.0104  0.7641  0.9946
  824MPD2    C412175   0.770   3.247  15.829 -0.4187 -0.9343  0.5869
  824MPD2    C512176   0.637   3.282  15.825 -0.4785  0.5344 -0.3605
  824MPD2     H12177   0.906   3.551  15.871  1.5063 -1.5067 -1.5649
  824MPD2    H112178   0.785   3.141  15.816  0.4898 -0.8892  1.2771
  824MPD2    H212179   0.496   3.437  15.854 -0.4961 -1.4844  0.2504
  824MPD2    H312180   0.564   3.203  15.813  0.0208  0.4192 -2.6087
  824MPD2     N12181   1.004   3.312  15.869  0.4896  0.3753  0.1801
  824MPD2    H512182   1.072   3.387  15.872 -0.1486  0.9953 -0.6446
  824MPD2    N112183   0.644   3.631  15.903  0.4377 -0.6239  0.0416
  824MPD2    H712184   0.547   3.647  15.880  0.3720  0.9079  1.3666
  825MPD2     C12185   1.254   3.809  15.719  0.0717 -0.1538 -0.2927
  825MPD2    C112186   1.365   3.726  15.720 -0.1596  0.2465  0.5808
  825MPD2    C212187   1.474   3.770  15.650 -0.3506  0.0485 -0.3042
  825MPD2    C312188   1.478   3.897  15.597 -0.5734 -0.0413  0.0999
  825MPD2    C412189   1.373   3.975  15.612  0.2148  0.2442  0.5341
  825MPD2    C512190   1.258   3.930  15.668  0.4606  0.4305  1.0753
  825MPD2     H12191   1.551   3.699  15.622 -2.5787 -2.5559  0.1826
  825MPD2    H112192   1.369   4.072  15.563  0.5422  1.5505  3.0786
  825MPD2    H212193   1.165   3.771  15.768 -1.1253 -1.1090 -3.1988
  825MPD2    H312194   1.166   3.987  15.658 -0.3850 -0.9334  1.2281
  825MPD2     N12195   1.587   3.947  15.524 -0.3203 -0.2430  0.6951
  825MPD2    H512196   1.574   4.041  15.486 -5.2350 -1.6781 -1.1498
  825MPD2    N112197   1.349   3.596  15.778  0.8169 -0.4412  0.0352
  825MPD2    H712198   1.263   3.583  15.829  0.6333 -0.8864 -0.3775
  826MPD2     C12199   0.495   3.206  13.323  0.5775 -0.3625  0.1224
  826MPD2    C112200   0.601   3.281  13.359  0.8300 -0.5787 -0.3797
  826MPD2    C212201   0.582   3.416  13.379 -0.2404 -0.2063  0.6411
  826MPD2    C312202   0.455   3.470  13.397 -0.3549 -0.3507 -0.0779
  826MPD2    C412203   0.341   3.392  13.374 -0.1133 -0.4647 -0.4836
  826MPD2    C512204   0.368   3.265  13.342  0.2893  0.0530 -0.1541
  826MPD2     H12205   0.667   3.478  13.404  0.8722 -1.3964 -0.1862
  826MPD2    H112206   0.244   3.421  13.412 -0.7005 -1.1783 -1.4347
  826MPD2    H212207   0.502   3.099  13.307 -2.0992 -0.8574  2.0923
  826MPD2    H312208   0.288   3.192  13.337  0.3264 -0.1918  2.9045
  826MPD2     N12209   0.447   3.599  13.447  0.1056 -0.2170 -0.5116
  826MPD2    H512210   0.537   3.629  13.483  1.1869 -1.9160 -1.8225
  826MPD2    N112211   0.735   3.229  13.360 -0.9139  0.1600 -0.6140
  826MPD2    H712212   0.742   3.129  13.346  1.4823  0.4793 -1.6440
  827MPD2     C12213   1.662   0.248   9.748 -0.1609 -0.9464 -0.0795
  827MPD2    C112214   1.642   0.132   9.812  0.6561  0.6359 -0.1497
  827MPD2    C212215   1.544   0.047   9.761  0.1552  0.7018  0.3582
  827MPD2    C312216   1.476   0.080   9.644 -0.1763  0.5958  0.2086
  827MPD2    C412217   1.505   0.198   9.582 -0.4268 -0.1798 -0.0698
  827MPD2    C512218   1.600   0.285   9.630  0.3406  0.0181  0.1202
  827MPD2     H12219   1.525   4.690   9.808  0.0350 -0.3278 -1.7630
  827MPD2    H112220   1.443   0.224   9.498 -0.8540  0.3190  0.3978
  827MPD2    H212221   1.737   0.314   9.789 -1.1188  0.1794 -0.1626
  827MPD2    H312222   1.626   0.375   9.576 -0.8509  0.4118  0.2067
  827MPD2     N12223   1.372   4.726   9.601 -0.5228  0.0760  0.4203
  827MPD2    H512224   1.342   4.654   9.665  0.6131 -0.6803  0.0925
  827MPD2    N112225   1.725   0.105   9.925 -0.0290  0.5481 -0.4614
  827MPD2    H712226   1.784   0.185   9.947 -0.3504  0.3432  1.1202
  828MPD2     C12227   4.632   4.594  11.580 -0.2060 -0.1923  0.5099
  828MPD2    C112228   4.502   4.624  11.603  0.0096 -0.2832  0.6856
  828MPD2    C212229   4.420   4.642  11.493 -0.2119 -0.4262 -0.4558
  828MPD2    C312230   4.477   4.638  11.367  0.3162  0.1069  0.4139
  828MPD2    C412231   4.609   4.607  11.349 -0.5857  0.3784 -0.3890
  828MPD2    C512232   4.689   4.578  11.458 -0.0285  0.7292  0.4067
  828MPD2     H12233   4.316   4.667  11.504  0.3575  1.1220  1.4195
  828MPD2    H112234   4.643   4.610  11.247  3.6505  0.3637  1.0306
  828MPD2    H212235   4.706   4.585  11.659  0.3054  0.4855  0.1035
  828MPD2    H312236   0.059   4.572  11.458 -0.1813 -2.0833  1.1120
  828MPD2     N12237   4.401   4.655  11.246  0.0967  0.0781  0.9007
  828MPD2    H512238   4.445   4.663  11.155 -0.3195 -1.4612  0.5632
  828MPD2    N112239   4.448   4.656  11.725  0.0616 -0.6862  0.6393
  828MPD2    H712240   4.353   4.690  11.726  0.8613  1.6384 -1.2663
  829MPD2     C12241   3.858   0.441  11.704  0.1275  0.4612  0.0048
  829MPD2    C112242   3.803   0.365  11.809  0.2911  0.3830  0.4648
  829MPD2    C212243   3.896   0.288  11.885 -0.0822 -0.0171 -0.2394
  829MPD2    C312244   4.034   0.317  11.874  0.1809  0.1917  0.1440
  829MPD2    C412245   4.079   0.408  11.780  0.1990 -0.3342  0.2979
  829MPD2    C512246   3.990   0.471  11.697  0.5275  0.1516  0.5461
  829MPD2     H12247   3.851   0.229  11.964  0.2398 -0.2345 -0.2197
  829MPD2    H112248   4.182   0.438  11.765  0.6553 -0.7564  2.6146
  829MPD2    H212249   3.799   0.493  11.630  1.8105  0.4915 -1.3043
  829MPD2    H312250   4.021   0.535  11.616  2.6318  0.1476  1.3494
  829MPD2     N12251   4.136   0.247  11.943  0.1250  0.0578 -0.0263
  829MPD2    H512252   4.234   0.266  11.922  0.1720  1.1735  1.1958
  829MPD2    N112253   3.667   0.334  11.803 -0.3598 -0.1309 -0.0640
  829MPD2    H712254   3.626   0.374  11.720 -1.3603  0.5294  0.7489
  830MPD2     C12255   0.281   2.304  16.076 -0.0259  0.0740  0.2190
  830MPD2    C112256   0.211   2.396  16.001  0.3344 -0.4641  0.3796
  830MPD2    C212257   0.255   2.437  15.878 -0.1100  0.1776 -0.1486
  830MPD2    C312258   0.366   2.374  15.824  0.3874  0.0783 -0.5620
  830MPD2    C412259   0.438   2.293  15.907 -0.6727 -0.0782  0.4140
  830MPD2    C512260   0.395   2.254  16.027  0.4503 -0.4522 -0.1406
  830MPD2     H12261   0.204   2.513  15.820 -1.7850 -1.2734 -0.5788
  830MPD2    H112262   0.530   2.248  15.871  0.0232  1.5948  0.0981
  830MPD2    H212263   0.239   2.285  16.174 -0.9318 -2.3026 -0.6346
  830MPD2    H312264   0.459   2.191  16.087  1.3491  1.3927  0.8540
  830MPD2     N12265   0.414   2.409  15.695  0.1875  0.2470 -0.9789
  830MPD2    H512266   0.514   2.395  15.686  0.0203 -0.6228 -1.4778
  830MPD2    N112267   0.097   2.456  16.068  0.3096 -0.5527 -0.6508
  830MPD2    H712268   0.084   2.446  16.168 -1.6618  0.7511 -0.7809
  831MPD2     C12269   0.390   4.654  16.221  0.1840 -0.1256  0.3964
  831MPD2    C112270   0.401   4.543  16.138 -0.1822  0.7158 -0.1521
  831MPD2    C212271   0.329   4.430  16.166 -0.5863 -0.3152  1.2151
  831MPD2    C312272   0.243   4.432  16.274  0.2814  0.2881  0.5260
  831MPD2    C412273   0.241   4.539  16.361 -0.1144  0.0543  0.5187
  831MPD2    C512274   0.318   4.647  16.337 -0.8653 -0.0910 -0.8622
  831MPD2     H12275   0.334   4.349  16.094  1.2235  0.6111  0.2979
  831MPD2    H112276   0.187   4.545  16.454  1.4909  1.7380  1.3494
  831MPD2    H212277   0.422   0.018  16.201  1.8648 -0.8623 -0.6316
  831MPD2    H312278   0.311   4.737  16.396 -1.0163 -2.1508  2.2494
  831MPD2     N12279   0.141   4.340  16.295 -0.1101 -0.2444 -0.6096
  831MPD2    H512280   0.068   4.364  16.362 -1.9816  1.1676 -3.1280
  831MPD2    N112281   0.454   4.574  16.010  0.5407 -0.1673  0.1059
  831MPD2    H712282   0.501   4.664  15.999  0.4815 -0.3474 -1.5054
  832MPD2     C12283   3.393   0.494  17.695 -0.4457 -0.3488  0.3616
  832MPD2    C112284   3.418   0.609  17.624 -0.6741 -0.5446 -0.8432
  832MPD2    C212285   3.328   0.653  17.536  0.0848 -0.0013  0.1484
  832MPD2    C312286   3.208   0.590  17.519  0.0379  0.0773  0.1303
  832MPD2    C412287   3.179   0.491  17.601 -0.9281  0.1635 -0.7288
  832MPD2    C512288   3.272   0.433  17.680  0.7001  0.1300  0.2565
  832MPD2     H12289   3.351   0.735  17.469  3.1109  1.0797  2.5071
  832MPD2    H112290   3.088   0.432  17.598 -0.6763 -0.3199  1.2193
  832MPD2    H212291   3.474   0.452   0.003 -1.0375 -0.3341  1.2009
  832MPD2    H312292   3.250   0.342  17.735 -3.0857  1.9219  1.7049
  832MPD2     N12293   3.105   0.624  17.432  0.1787 -0.2489  0.3748
  832MPD2    H512294   3.013   0.585  17.451  0.6529 -0.9794  1.1642
  832MPD2    N112295   3.538   0.677  17.657 -0.6003 -0.8122  0.4256
  832MPD2    H712296   3.606   0.624  17.710 -0.5551 -0.9431  0.2387
  833MPD2     C12297   0.789   2.159  12.760  0.4572  1.1265 -0.0246
  833MPD2    C112298   0.806   2.259  12.674  0.2976 -1.0628  0.0334
  833MPD2    C212299   0.921   2.254  12.590 -0.8878  0.3600 -0.5595
  833MPD2    C312300   1.019   2.160  12.599  0.6373 -1.1322  0.1867
  833MPD2    C412301   1.006   2.066  12.695 -1.1385 -0.4980  1.0068
  833MPD2    C512302   0.884   2.056  12.763 -0.9833  0.8052  0.1067
  833MPD2     H12303   0.939   2.329  12.515 -1.7684  0.0867 -1.0440
  833MPD2    H112304   1.076   1.985  12.709  1.4008  1.5156 -0.1339
  833MPD2    H212305   0.697   2.151  12.817  1.1711 -0.2023  0.9456
  833MPD2    H312306   0.867   1.974  12.833  0.0948  1.6627  1.3734
  833MPD2     N12307   1.122   2.170  12.501  0.4813 -0.0645 -0.2841
  833MPD2    H512308   1.103   2.242  12.431  2.1480  1.1941  0.5613
  833MPD2    N112309   0.706   2.363  12.667  0.0269 -0.3412 -0.3468
  833MPD2    H712310   0.622   2.349  12.722  0.9556  0.0596  1.2053
  834MPD2     C12311   0.575   1.619  12.073 -0.4181 -0.3040  0.2230
  834MPD2    C112312   0.639   1.663  11.956 -0.3447  0.3143 -0.2760
  834MPD2    C212313   0.746   1.742  11.964  0.3219  0.3321  0.0110
  834MPD2    C312314   0.795   1.771  12.090 -0.0650  0.2117 -0.5825
  834MPD2    C412315   0.721   1.734  12.204  0.4008  0.3884 -0.6747
  834MPD2    C512316   0.616   1.657  12.194 -0.1443  0.3617 -0.1031
  834MPD2     H12317   0.802   1.767  11.875 -0.1752  0.7432 -0.1862
  834MPD2    H112318   0.746   1.757  12.307 -0.8595  0.2016 -0.3387
  834MPD2    H212319   0.486   1.559  12.066  0.2091 -1.4395  2.0860
  834MPD2    H312320   0.555   1.618  12.275  0.6278  0.5853  0.5818
  834MPD2     N12321   0.913   1.845  12.093  0.1949  0.4699  0.3051
  834MPD2    H512322   0.966   1.860  12.008  2.0185  0.9970  1.5063
  834MPD2    N112323   0.583   1.611  11.839  0.1146  0.7962 -0.0664
  834MPD2    H712324   0.495   1.563  11.854  1.1294 -0.9462  0.4376
  835MPD2     C12325   0.896   3.865  11.028 -0.0992  0.0633  0.3731
  835MPD2    C112326   0.925   3.998  10.991 -0.0859 -0.3321  0.0954
  835MPD2    C212327   1.013   4.062  11.075 -0.1626  0.1360  0.0853
  835MPD2    C312328   1.054   4.009  11.193 -0.8361  0.3573  0.5518
  835MPD2    C412329   1.018   3.881  11.230  1.0658 -0.3475 -0.6578
  835MPD2    C512330   0.946   3.807  11.142 -0.3656  0.6262  0.3968
  835MPD2     H12331   1.031   4.164  11.045 -2.3802  0.5043 -0.0294
  835MPD2    H112332   1.053   3.831  11.319  2.2660  4.7618  1.7585
  835MPD2    H212333   0.827   3.799  10.978 -0.3641 -0.2047  1.0989
  835MPD2    H312334   0.932   3.702  11.164 -1.5040  0.4028 -1.3694
  835MPD2     N12335   1.132   4.091  11.288  0.4561  0.3278  0.3415
  835MPD2    H512336   1.145   4.064  11.385 -0.8256 -2.1860 -0.1945
  835MPD2    N112337   0.855   4.080  10.894  0.9903  0.0978 -0.2002
  835MPD2    H712338   0.870   4.180  10.895 -0.6127  0.3530 -0.6329
  836MPD2     C12339   0.743   4.698  11.279  0.4219  0.0771  0.9291
  836MPD2    C112340   0.781   4.668  11.410  0.6536 -0.4521 -0.4501
  836MPD2    C212341   0.691   4.706  11.511 -0.2527  0.0058  0.3834
  836MPD2    C312342   0.563   0.015  11.482 -0.0037 -0.4952  0.1231
  836MPD2    C412343   0.529   0.040  11.352 -0.3930  1.0559 -0.2998
  836MPD2    C512344   0.617   0.011  11.251 -0.0120 -0.3274 -0.4285
  836MPD2     H12345   0.715   4.690  11.616  0.9598  0.2961  0.1477
  836MPD2    H112346   0.442   0.100  11.325 -2.4816 -1.0881  1.7377
  836MPD2    H212347   0.810   4.673  11.198  0.0532 -1.2162  1.0301
  836MPD2    H312348   0.601   0.041  11.148 -0.2998 -0.3746 -0.3982
  836MPD2     N12349   0.460   0.047  11.575  0.1139  0.5658 -0.0484
  836MPD2    H512350   0.368   0.068  11.539  0.2759 -3.7202 -2.9045
  836MPD2    N112351   0.899   4.584  11.419  0.1116  0.1251 -0.4572
  836MPD2    H712352   0.920   4.520  11.343  1.4722 -0.4017  0.3654
  837MPD2     C12353   3.727   4.388  10.045 -0.0336  0.7775 -0.3596
  837MPD2    C112354   3.650   4.449   9.946 -0.2848 -0.2779 -0.1306
  837MPD2    C212355   3.642   4.591   9.939  0.4519 -0.1301 -0.7415
  837MPD2    C312356   3.705   4.671  10.030  0.3404 -0.0735 -0.0164
  837MPD2    C412357   3.758   4.616  10.138 -0.2603  0.4992  0.1605
  837MPD2    C512358   3.769   4.479  10.140  0.2900 -0.7656  0.4829
  837MPD2     H12359   3.594   4.645   9.859  0.4031  0.2503 -0.4563
  837MPD2    H112360   3.812   4.676  10.211 -1.6509  1.7549  0.1404
  837MPD2    H212361   3.741   4.284  10.072 -0.8567  1.1352  1.4557
  837MPD2    H312362   3.833   4.442  10.219  1.3808  1.6548  0.7304
  837MPD2     N12363   3.698   0.073  10.003 -0.4639  0.0391 -0.1044
  837MPD2    H512364   3.672   0.097   9.908  0.1431  3.3341  0.5429
  837MPD2    N112365   3.587   4.371   9.841  0.1051  0.5024  0.2984
  837MPD2    H712366   3.522   4.425   9.784 -2.2773 -0.5397  2.0104
  838MPD2     C12367   2.296   2.851  12.250  0.1602  0.5535 -0.2635
  838MPD2    C112368   2.306   2.722  12.221  0.3625  0.2249 -0.6590
  838MPD2    C212369   2.223   2.639  12.289 -0.0829 -0.6049 -0.6313
  838MPD2    C312370   2.119   2.680  12.374  0.6521 -0.0506 -0.1262
  838MPD2    C412371   2.100   2.809  12.396  0.4463 -0.0746 -0.7689
  838MPD2    C512372   2.193   2.893  12.336  0.6788 -1.0659  0.0509
  838MPD2     H12373   2.235   2.539  12.249  0.5076 -0.3838 -1.0201
  838MPD2    H112374   2.011   2.846  12.446  0.9475 -0.0552  0.1202
  838MPD2    H212375   2.366   2.930  12.223 -0.0442  0.1515 -1.9597
  838MPD2    H312376   2.193   3.001  12.344 -0.9564 -1.0269 -0.6204
  838MPD2     N12377   2.030   2.581  12.430  0.4424  0.1661 -0.0926
  838MPD2    H512378   2.041   2.480  12.423  0.9721  0.3416 -1.6705
  838MPD2    N112379   2.398   2.661  12.128  0.3381 -0.0168  0.1578
  838MPD2    H712380   2.392   2.568  12.089  2.5829 -0.6503  1.2900
  839MPD2     C12381   2.032   2.030  11.784 -0.9621 -0.1868  0.1964
  839MPD2    C112382   2.027   2.151  11.842  0.7593  0.2479 -0.9627
  839MPD2    C212383   2.141   2.229  11.860  0.4057  0.9869  0.1829
  839MPD2    C312384   2.263   2.184  11.805 -0.1042  0.1701 -1.1883
  839MPD2    C412385   2.262   2.064  11.737  0.1816 -0.4918 -0.4318
  839MPD2    C512386   2.154   1.984  11.743 -0.2446  0.0785  0.3870
  839MPD2     H12387   2.137   2.313  11.929 -0.8668 -0.4980  1.8757
  839MPD2    H112388   2.358   2.032  11.698  1.5181  0.3128  2.1219
  839MPD2    H212389   1.948   1.967  11.760 -1.5561  0.6685  0.0154
  839MPD2    H312390   2.160   1.886  11.696  1.5495  0.5972 -0.4661
  839MPD2     N12391   2.389   2.250  11.827  0.6445 -0.1909 -0.0636
  839MPD2    H512392   2.471   2.200  11.795  1.6727  0.3820  1.7300
  839MPD2    N112393   1.906   2.207  11.892 -0.2919 -0.1356 -0.4079
  839MPD2    H712394   1.906   2.294  11.945  0.2959 -0.5483  0.2784
  840MPD2     C12395   2.110   0.530  10.168  0.1673  0.0491 -0.2153
  840MPD2    C112396   2.146   0.406  10.210 -0.8858 -0.4598  0.2604
  840MPD2    C212397   2.271   0.384  10.264 -0.1083 -0.6507  0.2567
  840MPD2    C312398   2.365   0.485  10.273 -0.5310 -0.6233 -0.0010
  840MPD2    C412399   2.329   0.610  10.239 -0.1752  0.5589 -0.3538
  840MPD2    C512400   2.198   0.632  10.190  0.2422  0.2483  0.3224
  840MPD2     H12401   2.301   0.285  10.294 -0.6140 -0.2137  2.1894
  840MPD2    H112402   2.405   0.687  10.247 -0.8121  1.1824 -0.3529
  840MPD2    H212403   2.005   0.548  10.146  0.7762  0.2378 -2.9111
  840MPD2    H312404   2.178   0.736  10.166  0.3415 -0.5432 -3.1076
  840MPD2     N12405   2.500   0.464  10.320  0.4182 -0.1545  0.2287
  840MPD2    H512406   2.554   0.546  10.345  0.0298  0.0322  0.4603
  840MPD2    N112407   2.051   0.295  10.204 -0.9471  0.0687 -0.3602
  840MPD2    H712408   1.961   0.315  10.162 -1.3269 -0.8458  0.0195
  841MPD2     C12409   2.423   4.283  14.488  0.2384 -0.4377 -0.5065
  841MPD2    C112410   2.357   4.332  14.597  0.5871 -0.5863 -0.2763
  841MPD2    C212411   2.426   4.395  14.702 -0.2931  0.0939  0.2352
  841MPD2    C312412   2.567   4.392  14.709 -0.5061 -0.3477 -0.3472
  841MPD2    C412413   2.634   4.334  14.609  0.4889 -0.2198 -0.4211
  841MPD2    C512414   2.556   4.285  14.496  0.2115 -0.6486 -0.0392
  841MPD2     H12415   2.365   4.436  14.781  1.1625 -0.6660  1.7516
  841MPD2    H112416   2.743   4.327  14.611  0.4466 -0.5414  0.7239
  841MPD2    H212417   2.371   4.239  14.404 -0.0789 -1.9544  0.4723
  841MPD2    H312418   2.605   4.224  14.420 -0.4313 -1.7717  0.4394
  841MPD2     N12419   2.639   4.462  14.815  0.3612 -0.4563 -0.1817
  841MPD2    H512420   2.578   4.512  14.878 -0.4026 -0.6501 -0.7665
  841MPD2    N112421   2.220   4.327  14.613  0.3577  0.3525  0.4167
  841MPD2    H712422   2.181   4.357  14.702  1.3588 -0.0723  1.0021
  842MPD2     C12423   2.767   1.069  16.852 -0.2411  0.2774 -0.0553
  842MPD2    C112424   2.693   0.961  16.898  0.1310  0.1749  0.2412
  842MPD2    C212425   2.672   0.946  17.031  0.4356  0.1208  0.0774
  842MPD2    C312426   2.743   1.027  17.122 -0.8938 -0.7559  0.3075
  842MPD2    C412427   2.832   1.125  17.075 -0.1087 -1.0952  0.2395
  842MPD2    C512428   2.837   1.149  16.939 -0.4711 -0.6551  0.0228
  842MPD2     H12429   2.611   0.866  17.070 -0.5124  0.3780 -0.8919
  842MPD2    H112430   2.896   1.169  17.151 -1.7198  1.4723  0.1048
  842MPD2    H212431   2.764   1.095  16.747  1.2584  0.5714 -0.0365
  842MPD2    H312432   2.904   1.220  16.893 -1.4278  0.9579  1.1051
  842MPD2     N12433   2.739   1.018  17.267 -0.3443 -0.3629  0.0497
  842MPD2    H512434   2.821   1.051  17.318  1.1173 -0.0878 -2.4817
  842MPD2    N112435   2.605   0.897  16.802  0.1399  0.2933 -0.0520
  842MPD2    H712436   2.618   0.919  16.704 -0.3268  0.2801 -0.1166
  843MPD2     C12437   0.305   1.469   0.423 -0.1820 -0.4705  0.1533
  843MPD2    C112438   0.268   1.557   0.327 -0.3323 -0.2270 -0.2080
  843MPD2    C212439   0.349   1.659   0.298 -0.5029  0.2247 -0.3612
  843MPD2    C312440   0.480   1.670   0.345 -0.1844  0.9090  0.5301
  843MPD2    C412441   0.519   1.569   0.431  0.1079 -0.8862  0.4614
  843MPD2    C512442   0.435   1.472   0.472 -0.3648  0.6686  0.0533
  843MPD2     H12443   0.321   1.729   0.220  1.4300  0.0862 -1.1794
  843MPD2    H112444   0.612   1.585   0.483  1.6181  0.7378 -2.7505
  843MPD2    H212445   0.236   1.393   0.456 -0.0079 -0.5797  0.2621
  843MPD2    H312446   0.458   1.408   0.556 -0.9843 -1.3669 -1.3315
  843MPD2     N12447   0.577   1.756   0.297  0.0058 -0.0836 -0.4023
  843MPD2    H512448   0.667   1.748   0.343  0.1220  0.2229 -0.5726
  843MPD2    N112449   0.140   1.548   0.278  0.0006 -0.0064  0.1790
  843MPD2    H712450   0.089   1.463   0.301 -1.5526  0.4053 -1.7659
  844MPD2     C12451   2.985   0.312  17.054 -0.3000  0.7860 -0.2569
  844MPD2    C112452   3.082   0.341  16.960 -0.3351 -0.0659 -0.5303
  844MPD2    C212453   3.207   0.380  17.007 -0.4946 -0.9754  0.1482
  844MPD2    C312454   3.240   0.393  17.138 -0.2430  0.3822  0.8851
  844MPD2    C412455   3.144   0.359  17.227  0.5631 -0.2497 -0.4511
  844MPD2    C512456   3.014   0.327  17.188 -0.4077  0.3017 -0.7019
  844MPD2     H12457   3.285   0.412  16.938  0.5468 -1.8823  0.9013
  844MPD2    H112458   3.166   0.372  17.332  1.4397  1.1809 -0.8190
  844MPD2    H212459   2.884   0.283  17.026 -0.4259  0.1003  0.9028
  844MPD2    H312460   2.936   0.315  17.263 -0.4566  1.1145 -0.6235
  844MPD2     N12461   3.358   0.451  17.197 -0.8030  0.0541  0.3107
  844MPD2    H512462   3.362   0.435  17.297  1.5706  0.6587  0.3154
  844MPD2    N112463   3.058   0.318  16.819 -0.1506  1.0024  0.1623
  844MPD2    H712464   3.141   0.327  16.762 -0.5074  0.1931 -0.4767
  845MPD2     C12465   3.808   1.312  17.359  0.5183 -0.0020 -0.1578
  845MPD2    C112466   3.697   1.250  17.413 -1.2570  0.0708 -0.0513
  845MPD2    C212467   3.686   1.109  17.401  0.2818 -0.0306  0.0321
  845MPD2    C312468   3.782   1.037  17.338  0.5252 -0.2397  0.2888
  845MPD2    C412469   3.906   1.094  17.312  0.2730 -0.0581  0.0043
  845MPD2    C512470   3.913   1.232  17.324 -0.0360  0.3874  0.2021
  845MPD2     H12471   3.595   1.054  17.424  0.7126 -0.2108  1.2819
  845MPD2    H112472   3.987   1.040  17.266 -1.5360 -1.7463 -1.1688
  845MPD2    H212473   3.827   1.419  17.355 -1.4504  0.4084  1.6465
  845MPD2    H312474   4.001   1.282  17.286  0.0510 -0.3875 -0.6380
  845MPD2     N12475   3.754   0.900  17.308  0.1435 -0.5007  0.3971
  845MPD2    H512476   3.655   0.878  17.316 -0.0105 -0.2320 -0.8608
  845MPD2    N112477   3.590   1.333  17.464 -0.2006 -0.4902  0.1782
  845MPD2    H712478   3.595   1.434  17.462 -0.2959 -0.4496  2.0904
  846MPD2     C12479   0.095   1.578  13.335 -0.8162  0.2416  0.5694
  846MPD2    C112480   0.005   1.683  13.344  0.2062  0.5748  0.1686
  846MPD2    C212481   4.715   1.732  13.469 -0.1445  0.4104 -0.1909
  846MPD2    C312482   0.044   1.699  13.583 -0.3149  0.6749  0.2399
  846MPD2    C412483   0.142   1.602  13.562  0.3964 -0.2113  0.0772
  846MPD2    C512484   0.162   1.535  13.446 -0.0582 -0.2750 -0.2061
  846MPD2     H12485   4.643   1.814  13.473 -0.3038  0.1898  1.8828
  846MPD2    H112486   0.204   1.569  13.644 -1.3546 -0.7388  1.1785
  846MPD2    H212487   0.117   1.533  13.239 -1.3742 -1.8620  1.4176
  846MPD2    H312488   0.233   1.454  13.439  2.1351  1.4616  1.7748
  846MPD2     N12489   0.023   1.767  13.704  0.2700 -0.1860  0.3870
  846MPD2    H512490   4.686   1.836  13.700  0.8867  0.5543  1.6202
  846MPD2    N112491   4.677   1.731  13.229  0.0749 -0.4672  0.2632
  846MPD2    H712492   4.623   1.815  13.242  0.9142 -0.2838  2.4921
  847MPD2     C12493   0.556   2.617  14.174  0.2241 -0.2413 -0.0310
  847MPD2    C112494   0.669   2.675  14.233  0.5944  0.2236 -0.8641
  847MPD2    C212495   0.733   2.610  14.334  0.0023  1.3553  0.3996
  847MPD2    C312496   0.698   2.482  14.366  0.2129 -0.2456 -0.4086
  847MPD2    C412497   0.598   2.419  14.294 -0.4949 -0.0666 -0.3668
  847MPD2    C512498   0.527   2.490  14.203 -0.4590  0.3030 -0.1837
  847MPD2     H12499   0.821   2.649  14.385  1.3574 -0.1740 -0.7642
  847MPD2    H112500   0.578   2.313  14.308  2.6122 -0.4989  0.8604
  847MPD2    H212501   0.499   2.665  14.096 -1.2992  0.1628  1.3142
  847MPD2    H312502   0.442   2.436  14.162  0.3032  0.2096 -1.6205
  847MPD2     N12503   0.767   2.419  14.466 -0.2706 -0.2147  0.3974
  847MPD2    H512504   0.850   2.467  14.500 -1.9238  2.0049  1.3060
  847MPD2    N112505   0.706   2.807  14.186  0.2503 -0.0148  0.1232
  847MPD2    H712506   0.634   2.851  14.130 -1.1537  0.3510  2.2181
  848MPD2     C12507   3.011   0.762  16.600 -0.1675  0.1547  0.1137
  848MPD2    C112508   3.020   0.849  16.709 -0.8434 -0.5440 -0.2850
  848MPD2    C212509   3.034   0.981  16.676  0.5146  0.0738 -0.1824
  848MPD2    C312510   3.051   1.031  16.549 -0.0558 -0.1386 -0.2354
  848MPD2    C412511   3.045   0.939  16.444  0.0983 -0.4087  0.1866
  848MPD2    C512512   3.024   0.808  16.472  0.2763  0.3082 -0.4744
  848MPD2     H12513   3.037   1.053  16.757 -1.7594 -0.7624  0.6504
  848MPD2    H112514   3.062   0.969  16.341 -2.2970  0.2093 -0.0177
  848MPD2    H212515   3.004   0.655  16.614 -0.9459  0.4900  2.2886
  848MPD2    H312516   3.024   0.738  16.389  0.9207  0.2744 -0.4458
  848MPD2     N12517   3.081   1.164  16.517 -0.5069  0.0228 -0.6662
  848MPD2    H512518   3.095   1.184  16.418  0.6052 -0.8454 -0.6800
  848MPD2    N112519   3.003   0.816  16.847 -0.3381  0.5874  0.8557
  848MPD2    H712520   3.028   0.887  16.914 -0.2296  0.5531  0.8512
  849MPD2     C12521   1.907   0.620  14.345 -0.5094  0.2659 -0.0561
  849MPD2    C112522   1.981   0.508  14.336 -0.3500 -0.5139  0.0658
  849MPD2    C212523   2.078   0.485  14.435  0.8183 -0.0474  0.1309
  849MPD2    C312524   2.103   0.577  14.534  0.2730  0.4806 -0.5966
  849MPD2    C412525   2.029   0.695  14.542  0.2015 -0.1956  0.1795
  849MPD2    C512526   1.930   0.706  14.452 -0.7236  0.3448 -0.9886
  849MPD2     H12527   2.141   0.398  14.416 -1.7819 -1.4775 -2.0373
  849MPD2    H112528   2.053   0.778  14.606  0.7631  0.1282 -0.4532
  849MPD2    H212529   1.831   0.641  14.271  2.5209  1.4452 -2.8513
  849MPD2    H312530   1.892   0.807  14.438  1.6710  1.1221 -1.9202
  849MPD2     N12531   2.201   0.556  14.633  0.6657  0.0917 -0.2222
  849MPD2    H512532   2.205   0.632  14.700  0.0361 -2.0929  2.2772
  849MPD2    N112533   1.965   0.417  14.224  0.1825 -0.6413  0.1248
  849MPD2    H712534   1.898   0.444  14.153 -1.3227  3.1964  3.0192
  850MPD2     C12535   0.584   3.338  14.649 -0.3541  0.1107 -0.4381
  850MPD2    C112536   0.544   3.442  14.725  0.5905 -0.0123 -0.0529
  850MPD2    C212537   0.640   3.525  14.779 -0.3096  0.3253 -0.2658
  850MPD2    C312538   0.779   3.501  14.769  0.7439  0.7011 -0.2024
  850MPD2    C412539   0.820   3.398  14.685  0.0494 -0.2427  0.2933
  850MPD2    C512540   0.720   3.319  14.622  0.1759 -0.2001 -0.6623
  850MPD2     H12541   0.609   3.608  14.841  0.4340  0.0781  0.4400
  850MPD2    H112542   0.925   3.377  14.672  0.3199  0.3755  1.4622
  850MPD2    H212543   0.503   3.275  14.615 -0.1047 -0.1685 -0.5188
  850MPD2    H312544   0.742   3.231  14.562  1.8409  0.4171 -0.9692
  850MPD2     N12545   0.878   3.559  14.847  0.0578 -0.1704  0.2932
  850MPD2    H512546   0.974   3.536  14.823 -0.6189 -2.3941 -0.3383
  850MPD2    N112547   0.403   3.452  14.742 -0.0940 -0.4339 -0.0158
  850MPD2    H712548   0.340   3.385  14.700  0.0798 -1.5040  1.4124
  851MPD2     C12549   0.495   3.317  15.380 -0.5819 -0.3753  0.0127
  851MPD2    C112550   0.432   3.246  15.286  0.1623  0.8036  0.0394
  851MPD2    C212551   0.459   3.111  15.267 -0.3221  0.2288  0.1833
  851MPD2    C312552   0.550   3.050  15.357  0.3731  0.2142  0.1373
  851MPD2    C412553   0.625   3.125  15.450  0.1375  0.0036 -0.0153
  851MPD2    C512554   0.598   3.257  15.456  0.2202  0.2624  0.4703
  851MPD2     H12555   0.415   3.057  15.184 -0.5497  2.3864 -1.1013
  851MPD2    H112556   0.692   3.084  15.525 -1.3377 -1.0012  0.7432
  851MPD2    H212557   0.478   3.425  15.383  0.0317 -0.2571 -1.0415
  851MPD2    H312558   0.640   3.333  15.520  0.1679  1.5808 -1.0545
  851MPD2     N12559   0.549   2.905  15.358  0.1180 -0.3709 -0.4892
  851MPD2    H512560   0.492   2.859  15.288 -1.1733 -0.0164  0.3316
  851MPD2    N112561   0.353   3.324  15.199  0.4670 -0.9781 -0.0541
  851MPD2    H712562   0.349   3.421  15.230  0.4206 -0.8092 -0.5714
  852MPD2     C12563   4.403   2.339   9.680 -0.5796  0.0465 -0.1448
  852MPD2    C112564   4.413   2.207   9.713  0.8372  0.0622 -0.2202
  852MPD2    C212565   4.527   2.155   9.757 -0.4847 -0.3221  0.2250
  852MPD2    C312566   4.632   2.237   9.785 -0.3617 -0.3126  0.5867
  852MPD2    C412567   4.625   2.367   9.750 -0.4123  0.2798  0.5203
  852MPD2    C512568   4.511   2.422   9.691  0.1754  0.1554 -0.1927
  852MPD2     H12569   4.533   2.048   9.775 -2.0703 -0.5263 -0.4384
  852MPD2    H112570   4.708   2.435   9.767  0.5152 -1.2789  2.1662
  852MPD2    H212571   4.319   2.386   9.628  0.2728  0.6730 -0.9565
  852MPD2    H312572   4.509   2.527   9.664 -1.4975  0.4168  0.9459
  852MPD2     N12573   4.724   2.182   9.868 -0.6019  0.0423 -0.4297
  852MPD2    H512574   4.710   2.090   9.909 -0.6506  0.9457  1.5354
  852MPD2    N112575   4.303   2.118   9.677  0.4609  0.1713  0.2031
  852MPD2    H712576   4.314   2.019   9.698 -2.6029 -0.4118 -0.9825
  853MPD2     C12577   1.560   1.278  12.411 -0.0822  0.1083  0.2429
  853MPD2    C112578   1.493   1.384  12.466  0.0735  0.2005  0.2420
  853MPD2    C212579   1.373   1.422  12.412  0.7778 -0.5149  0.5874
  853MPD2    C312580   1.314   1.343  12.315  0.5256  0.7379  0.1996
  853MPD2    C412581   1.386   1.232  12.262  0.1192  0.4125  0.3920
  853MPD2    C512582   1.505   1.198  12.320  0.6268 -0.2712 -0.2161
  853MPD2     H12583   1.314   1.506  12.446  0.9973 -0.1899  0.1566
  853MPD2    H112584   1.338   1.164  12.192 -1.5077  2.3680 -0.3698
  853MPD2    H212585   1.652   1.252  12.462  1.2979  0.9123 -1.8317
  853MPD2    H312586   1.566   1.118  12.281 -2.5352 -2.6121 -0.3495
  853MPD2     N12587   1.183   1.374  12.271  0.6207  0.1765 -0.9401
  853MPD2    H512588   1.131   1.303  12.219  2.0548 -1.5506 -0.0040
  853MPD2    N112589   1.555   1.458  12.572 -0.1205  0.2949  0.8895
  853MPD2    H712590   1.631   1.411  12.621 -0.7141 -1.3565  0.2093
  854MPD2     C12591   3.881   1.963  12.718 -0.4270  0.2481 -0.5436
  854MPD2    C112592   3.811   1.877  12.645  0.3687 -1.3480 -0.4767
  854MPD2    C212593   3.809   1.744  12.689  0.4979 -0.6873 -0.1980
  854MPD2    C312594   3.875   1.704  12.812  0.2157  0.5274  0.6813
  854MPD2    C412595   3.938   1.806  12.878 -0.0586 -0.6549  0.0351
  854MPD2    C512596   3.952   1.932  12.825 -0.4684 -0.2538 -0.5758
  854MPD2     H12597   3.754   1.668  12.634 -1.0681 -0.5197  1.1354
  854MPD2    H112598   3.991   1.789  12.971  1.3049  0.9541 -0.4692
  854MPD2    H212599   3.904   2.065  12.688  1.1657  0.3244  0.9335
  854MPD2    H312600   4.015   2.006  12.874 -1.8782  1.4834 -1.3645
  854MPD2     N12601   3.861   1.574  12.869 -0.2434 -0.6215  0.4774
  854MPD2    H512602   3.901   1.564  12.962 -3.6121 -2.1134  1.7561
  854MPD2    N112603   3.745   1.919  12.529  0.2963 -0.6343  0.0521
  854MPD2    H712604   3.737   2.018  12.511 -1.0618 -0.6943  0.3077
  855MPD2     C12605   4.148   1.200  13.577 -0.8004  0.9549 -0.4527
  855MPD2    C112606   4.041   1.112  13.558 -0.6378  1.0278  0.2302
  855MPD2    C212607   3.951   1.151  13.458 -0.2382 -0.0486 -0.2070
  855MPD2    C312608   3.977   1.265  13.371 -0.3025 -0.1552  0.2735
  855MPD2    C412609   4.091   1.335  13.394 -0.2425 -0.3483 -0.7263
  855MPD2    C512610   4.172   1.309  13.497  0.2975 -0.7560 -0.2071
  855MPD2     H12611   3.857   1.096  13.458 -0.8185  0.9254  1.1856
  855MPD2    H112612   4.123   1.419  13.334 -0.6587  0.1666 -0.2325
  855MPD2    H212613   4.220   1.183  13.656  2.4663  1.0401 -3.3799
  855MPD2    H312614   4.254   1.370  13.534  0.9295 -1.5375 -0.3060
  855MPD2     N12615   3.888   1.310  13.277 -0.4837 -0.4218  0.1394
  855MPD2    H512616   3.912   1.392  13.222 -1.4165  0.2703  0.7682
  855MPD2    N112617   4.008   1.002  13.643  0.8722  0.1242  0.0179
  855MPD2    H712618   3.937   0.934  13.622  0.8048 -0.1920  1.2349
  856MPD2     C12619   0.345   1.907  13.534  0.1767  0.0151 -0.3668
  856MPD2    C112620   0.439   1.979  13.607  0.4646 -0.0316  0.2812
  856MPD2    C212621   0.448   2.114  13.594  0.1028  0.0857 -0.6609
  856MPD2    C312622   0.378   2.182  13.495 -0.5975  0.6692 -0.6893
  856MPD2    C412623   0.285   2.104  13.420  0.1763  0.4444  0.0822
  856MPD2    C512624   0.263   1.974  13.451  0.0353 -0.3179 -0.1533
  856MPD2     H12625   0.518   2.174  13.651 -0.1524 -0.9506  0.7262
  856MPD2    H112626   0.228   2.155  13.343  1.0331 -0.3376 -1.0624
  856MPD2    H212627   0.325   1.801  13.544 -0.5712  0.0479 -1.4379
  856MPD2    H312628   0.186   1.918  13.400 -0.2493 -0.2882  0.2406
  856MPD2     N12629   0.397   2.315  13.463 -0.2417  0.7538  0.4117
  856MPD2    H512630   0.340   2.358  13.390  1.7207 -0.1374 -1.6425
  856MPD2    N112631   0.538   1.927  13.690  0.1516 -0.3611  0.1855
  856MPD2    H712632   0.586   2.001  13.740  1.6218 -1.2075  0.0360
  857MPD2     C12633   2.542   4.509  12.543 -0.0537  0.0705  0.5005
  857MPD2    C112634   2.669   4.461  12.558 -0.5539 -0.0276 -0.9925
  857MPD2    C212635   2.768   4.541  12.606  0.4089 -0.1628 -0.3260
  857MPD2    C312636   2.737   4.678  12.632 -0.1149  0.8606  0.2389
  857MPD2    C412637   2.614   4.718  12.619  0.4871  0.5442  1.3528
  857MPD2    C512638   2.512   4.636  12.581  0.4373  0.8767 -0.0396
  857MPD2     H12639   2.866   4.499  12.623  0.3426 -0.1361  0.1416
  857MPD2    H112640   2.585   0.080  12.651  0.1298  1.0744 -0.6151
  857MPD2    H212641   2.464   4.441  12.511  1.2969 -1.9694  1.5210
  857MPD2    H312642   2.410   4.674  12.578 -0.6827 -2.1098  0.1744
  857MPD2     N12643   2.850   0.013  12.678 -0.4064 -0.1261 -0.0187
  857MPD2    H512644   2.939   4.705  12.695 -1.5276 -2.4446 -0.4421
  857MPD2    N112645   2.708   4.329  12.535  0.2729  0.1855 -0.1221
  857MPD2    H712646   2.809   4.316  12.534  0.2140 -0.2756 -0.1885
  858MPD2     C12647   3.443   3.479  16.407 -0.2884  0.6136 -0.1087
  858MPD2    C112648   3.460   3.344  16.416  0.7884  0.3481 -0.2771
  858MPD2    C212649   3.482   3.284  16.540 -0.3582 -0.6755 -0.1178
  858MPD2    C312650   3.475   3.366  16.654 -0.5626 -0.5061  0.8050
  858MPD2    C412651   3.457   3.500  16.647 -0.3107  0.0241  0.5978
  858MPD2    C512652   3.439   3.553  16.521 -0.2358 -0.5982 -0.2140
  858MPD2     H12653   3.493   3.176  16.539 -0.5224 -0.6704 -2.1364
  858MPD2    H112654   3.452   3.560  16.738 -1.7466 -1.1538  1.2999
  858MPD2    H212655   3.426   3.523  16.309  2.3561 -0.4057 -1.0392
  858MPD2    H312656   3.423   3.659  16.507 -2.3081 -0.9385 -0.3292
  858MPD2     N12657   3.506   3.308  16.783  0.2545 -0.7650  0.4960
  858MPD2    H512658   3.489   3.363  16.867 -3.3138 -1.9930  0.5704
  858MPD2    N112659   3.471   3.268  16.296  0.1567 -0.7767  0.4994
  858MPD2    H712660   3.467   3.324  16.212 -0.2474 -2.5251 -0.6243
  859MPD2     C12661   2.020   0.765  15.751  0.1286  0.2780  0.3326
  859MPD2    C112662   2.076   0.688  15.657 -0.3080 -0.0500 -0.0629
  859MPD2    C212663   2.076   0.549  15.676  0.2892  0.1998 -0.4503
  859MPD2    C312664   2.030   0.489  15.795  0.3149  0.2060  0.2790
  859MPD2    C412665   1.981   0.570  15.892  0.0171 -0.4128  0.5293
  859MPD2    C512666   1.986   0.706  15.874  0.1612  0.6802  0.1877
  859MPD2     H12667   2.107   0.492  15.589 -2.3323 -2.0093  0.1028
  859MPD2    H112668   1.955   0.533  15.990 -0.3722 -2.5457 -0.3958
  859MPD2    H212669   2.001   0.871  15.739 -0.1106  0.2643  0.5950
  859MPD2    H312670   1.944   0.777  15.944 -0.1394  0.8511 -0.1670
  859MPD2     N12671   2.048   0.347  15.826  0.1346  0.0552  0.4096
  859MPD2    H512672   2.019   0.313  15.917  1.6549 -2.3495 -0.0092
  859MPD2    N112673   2.117   0.754  15.546 -0.5674  0.0566 -0.7744
  859MPD2    H712674   2.108   0.854  15.539  1.5459  0.4552  2.2723
  860MPD2     C12675   4.399   1.166  11.850 -0.0656 -0.5741 -0.5298
  860MPD2    C112676   4.411   1.088  11.963 -0.0705 -0.7217  0.5272
  860MPD2    C212677   4.315   0.994  11.988 -0.1903  0.0339  0.6873
  860MPD2    C312678   4.207   0.967  11.903  0.8449 -0.0551  0.7752
  860MPD2    C412679   4.207   1.033  11.785 -0.0121 -0.4149 -0.1790
  860MPD2    C512680   4.305   1.129  11.755  0.2919 -0.2436  0.0815
  860MPD2     H12681   4.323   0.937  12.080 -1.1821 -0.7735  0.2809
  860MPD2    H112682   4.117   1.023  11.725  1.4227  0.5591 -2.5350
  860MPD2    H212683   4.470   1.244  11.830 -0.9499  0.1076 -1.0151
  860MPD2    H312684   4.297   1.194  11.669 -1.5870 -1.5921 -0.7677
  860MPD2     N12685   4.102   0.877  11.939 -0.1389  0.2738 -0.4780
  860MPD2    H512686   4.111   0.827  12.027  0.8886  0.1003 -0.6884
  860MPD2    N112687   4.513   1.100  12.059  0.8506 -0.4002  0.2650
  860MPD2    H712688   4.503   1.044  12.143 -2.8824 -0.6460 -0.3658
  861MPD2     C12689   3.236   3.743  10.743  0.1281 -0.1528  0.0809
  861MPD2    C112690   3.136   3.729  10.836  0.5163  0.2940  0.6731
  861MPD2    C212691   3.009   3.769  10.809  0.6327 -0.0084 -0.1875
  861MPD2    C312692   2.985   3.825  10.682  0.4715 -0.0145  0.4636
  861MPD2    C412693   3.084   3.833  10.586  0.7062 -0.1016  0.5372
  861MPD2    C512694   3.210   3.786  10.615 -0.2491 -0.2804  0.2977
  861MPD2     H12695   2.928   3.761  10.881  1.2552  0.3672  0.5589
  861MPD2    H112696   3.063   3.869  10.486 -0.8339  0.9513  1.2283
  861MPD2    H212697   3.340   3.714  10.752 -0.2544 -1.4713  0.3087
  861MPD2    H312698   3.287   3.803  10.540  0.0958 -0.6494  0.5657
  861MPD2     N12699   2.857   3.891  10.648  0.8650 -0.0469  0.6144
  861MPD2    H512700   2.857   3.934  10.556 -1.6757  0.4638  0.8380
  861MPD2    N112701   3.167   3.690  10.971  0.3925 -0.2675 -0.3402
  861MPD2    H712702   3.087   3.690  11.033  1.4676  2.5125  1.0868
  862MPD2     C12703   2.213   4.077  10.344  0.4945  0.9432  0.5694
  862MPD2    C112704   2.344   4.047  10.368 -0.4395  0.0851 -0.1852
  862MPD2    C212705   2.387   3.924  10.423 -0.3118 -0.2577 -0.3380
  862MPD2    C312706   2.293   3.834  10.465  0.3428 -0.0083  0.3563
  862MPD2    C412707   2.161   3.876  10.458 -0.3526  0.0307  0.1930
  862MPD2    C512708   2.122   3.988  10.386  0.1768  0.3375  0.1586
  862MPD2     H12709   2.489   3.892  10.406 -0.9122 -0.6435 -3.1443
  862MPD2    H112710   2.081   3.812  10.492 -0.0087  0.0047  0.9562
  862MPD2    H212711   2.178   4.164  10.288 -1.6048 -2.0435 -2.7435
  862MPD2    H312712   2.016   4.008  10.380  0.0568  0.1138  1.4649
  862MPD2     N12713   2.322   3.703  10.513 -0.1122  0.4553 -0.1155
  862MPD2    H512714   2.241   3.650  10.545 -0.0306  0.7055  0.5077
  862MPD2    N112715   2.433   4.146  10.331 -0.4021 -0.2975 -0.3706
  862MPD2    H712716   2.401   4.216  10.265  1.4318  0.0953 -0.8401
  863MPD2     C12717   1.686   1.809  16.531  0.1253  0.8302  0.2407
  863MPD2    C112718   1.770   1.896  16.463 -0.4106 -0.3859  0.3395
  863MPD2    C212719   1.909   1.879  16.488  0.0612  0.0543 -0.7836
  863MPD2    C312720   1.954   1.807  16.595  0.3778  0.0718  0.0513
  863MPD2    C412721   1.871   1.723  16.666  0.1431 -0.4936  0.8304
  863MPD2    C512722   1.739   1.725  16.626 -0.1709 -0.4567 -0.0227
  863MPD2     H12723   1.979   1.927  16.420 -0.6096 -0.4421 -1.8194
  863MPD2    H112724   1.902   1.659  16.747  1.5437 -3.0343 -1.6857
  863MPD2    H212725   1.581   1.808  16.505  0.4828  0.8866 -1.2463
  863MPD2    H312726   1.670   1.668  16.687 -1.3969  1.1976  0.1304
  863MPD2     N12727   2.085   1.811  16.654  0.1802 -0.0158 -0.0323
  863MPD2    H512728   2.103   1.752  16.735 -3.6335 -2.5866 -1.0565
  863MPD2    N112729   1.727   2.003  16.392  0.1190  0.4645 -0.6256
  863MPD2    H712730   1.794   2.056  16.337  1.6693 -0.3500  0.4574
  864MPD2     C12731   2.478   2.797  16.875  0.2530  0.5583 -0.0184
  864MPD2    C112732   2.561   2.748  16.774 -0.0066 -0.1547 -0.6546
  864MPD2    C212733   2.681   2.809  16.747 -0.0784 -0.2080  0.4386
  864MPD2    C312734   2.710   2.929  16.813  0.6299 -0.1241 -0.1990
  864MPD2    C412735   2.623   2.980  16.909  0.2313 -0.0498  0.5886
  864MPD2    C512736   2.512   2.909  16.943 -0.4491 -0.8533 -0.3868
  864MPD2     H12737   2.739   2.775  16.662 -0.6209 -0.6403  0.2411
  864MPD2    H112738   2.644   3.077  16.953  0.9806  0.1568 -0.2426
  864MPD2    H212739   2.388   2.743  16.905  0.7933 -1.6785 -2.4188
  864MPD2    H312740   2.454   2.948  17.026 -0.0955  0.0059 -0.5444
  864MPD2     N12741   2.809   3.021  16.774 -0.3900  0.5642 -0.1155
  864MPD2    H512742   2.828   3.098  16.837 -0.2886  0.8160 -0.4540
  864MPD2    N112743   2.512   2.629  16.709 -0.4542  0.0066 -0.0289
  864MPD2    H712744   2.424   2.589  16.740 -0.1635  0.2076  1.0776
  865MPD2     C12745   2.552   3.232  16.565 -0.4736  0.0066 -0.2578
  865MPD2    C112746   2.660   3.281  16.499 -0.7703  1.1959 -0.3374
  865MPD2    C212747   2.750   3.362  16.575  0.6363 -0.3665  0.4529
  865MPD2    C312748   2.737   3.379  16.714 -0.1009 -0.2772  0.6396
  865MPD2    C412749   2.617   3.350  16.767  0.4492  0.1640 -0.0728
  865MPD2    C512750   2.529   3.272  16.694 -0.1439  0.0495 -0.4234
  865MPD2     H12751   2.826   3.423  16.528 -0.6719  1.8531  1.2082
  865MPD2    H112752   2.604   3.374  16.872  3.2526  0.7975  0.1487
  865MPD2    H212753   2.476   3.169  16.521 -0.4259  0.0678 -0.4271
  865MPD2    H312754   2.442   3.234  16.745  0.2387  0.4748  0.5448
  865MPD2     N12755   2.836   3.451  16.792  0.3496 -0.4661 -0.0976
  865MPD2    H512756   2.804   3.494  16.879 -0.8125  1.0008 -1.2502
  865MPD2    N112757   2.674   3.261  16.361  0.3499 -0.3698 -0.0166
  865MPD2    H712758   2.619   3.187  16.319  1.0144 -0.5074 -0.6491
  866MPD2     C12759   3.806   3.858  10.911 -0.2174 -0.3067 -0.3268
  866MPD2    C112760   3.712   3.831  10.815  0.1691  0.3503  0.0612
  866MPD2    C212761   3.590   3.889  10.817  0.6274  0.3916  0.0082
  866MPD2    C312762   3.541   3.939  10.940  0.0699  0.2040 -0.3639
  866MPD2    C412763   3.628   3.939  11.048  0.7676 -0.5779 -0.3678
  866MPD2    C512764   3.760   3.905  11.031 -0.0212 -0.2244  0.4100
  866MPD2     H12765   3.525   3.884  10.730  1.4602  1.4423 -0.6718
  866MPD2    H112766   3.594   3.990  11.137  3.2690  1.1964 -0.4331
  866MPD2    H212767   3.904   3.811  10.906  0.1492  0.3028  1.0365
  866MPD2    H312768   3.827   3.923  11.114  0.5057 -0.5077  0.0421
  866MPD2     N12769   3.413   4.001  10.953  0.7039 -0.2537 -1.0228
  866MPD2    H512770   3.375   3.996  11.047  1.0872 -0.1802 -0.8674
  866MPD2    N112771   3.752   3.748  10.708  0.2376 -0.1103  0.0614
  866MPD2    H712772   3.841   3.703  10.725  0.8630  1.3768  0.7391
  867MPD2     C12773   1.249   3.151  16.547  0.7265  0.1422 -0.2667
  867MPD2    C112774   1.315   3.129  16.667 -0.4273  0.1894 -1.1037
  867MPD2    C212775   1.313   3.232  16.765 -0.0335  0.6649 -0.6023
  867MPD2    C312776   1.247   3.359  16.731 -0.0845  0.7514 -0.3022
  867MPD2    C412777   1.174   3.368  16.619  0.2940  0.0895  0.0081
  867MPD2    C512778   1.179   3.270  16.527  0.2707  0.2300  0.5421
  867MPD2     H12779   1.372   3.221  16.856 -0.4175 -2.9252 -0.8026
  867MPD2    H112780   1.108   3.452  16.600  0.9067  0.8778  1.3250
  867MPD2    H212781   1.229   3.078  16.471 -2.1617  0.7539 -0.0798
  867MPD2    H312782   1.125   3.267  16.433  0.2992  0.8083  0.5085
  867MPD2     N12783   1.252   3.473  16.808  0.9646 -0.4311 -0.5322
  867MPD2    H512784   1.192   3.549  16.778 -0.8667 -2.0864 -1.0874
  867MPD2    N112785   1.394   3.016  16.677 -0.1055 -0.4106  0.3355
  867MPD2    H712786   1.411   2.950  16.602  2.5951 -1.4394  1.8300
  868MPD2     C12787   2.463   3.048  12.951  0.0185 -0.3096  0.0976
  868MPD2    C112788   2.540   2.968  13.032 -0.1233  0.6980 -0.2013
  868MPD2    C212789   2.481   2.903  13.142  0.1406 -0.1493  0.4949
  868MPD2    C312790   2.347   2.926  13.174  0.2411  0.3175  0.2697
  868MPD2    C412791   2.276   3.019  13.101  0.1667 -0.1563 -0.1301
  868MPD2    C512792   2.328   3.056  12.979 -0.7468 -0.6194 -0.1467
  868MPD2     H12793   2.530   2.830  13.207  0.8099  0.1949  0.3770
  868MPD2    H112794   2.174   3.047  13.121 -0.2285 -2.4363  1.0154
  868MPD2    H212795   2.501   3.105  12.867 -1.0746 -1.2200 -1.0161
  868MPD2    H312796   2.270   3.120  12.913  1.8913  0.9996 -0.9030
  868MPD2     N12797   2.296   2.850  13.285  0.1306 -0.3211  0.7255
  868MPD2    H512798   2.348   2.773  13.326 -1.3606 -1.4782  0.4207
  868MPD2    N112799   2.677   2.959  13.002 -0.7417  0.1035  0.0341
  868MPD2    H712800   2.714   3.011  12.923  3.9207 -4.4783 -0.7250
  869MPD2     C12801   4.583   0.078   0.857  0.0211  0.2692 -0.6410
  869MPD2    C112802   4.500   0.165   0.793  0.5281 -0.0387  0.6459
  869MPD2    C212803   4.538   0.229   0.682  0.1873  0.3839 -0.0590
  869MPD2    C312804   4.672   0.221   0.637  0.0017  0.2787 -0.1613
  869MPD2    C412805   0.011   0.120   0.690  0.4809  0.3845 -0.4984
  869MPD2    C512806   4.707   0.043   0.797  0.0897 -0.4989  0.1559
  869MPD2     H12807   4.473   0.312   0.656  0.2777  0.1525 -0.9974
  869MPD2    H112808   0.109   0.096   0.648 -0.6677 -1.4835 -2.0983
  869MPD2    H212809   4.554   0.025   0.946 -1.2589 -0.1772 -1.3213
  869MPD2    H312810   0.035   4.704   0.834  0.3251 -0.3479  0.0511
  869MPD2     N12811   4.721   0.310   0.538  0.1062  0.6146 -0.2285
  869MPD2    H512812   0.080   0.316   0.508  0.0807  0.1710 -0.3897
  869MPD2    N112813   4.371   0.191   0.854 -0.3457 -0.5822  0.2177
  869MPD2    H712814   4.342   0.134   0.933  1.3206 -1.7942 -0.0464
  870MPD2     C12815   0.304   4.003   1.354  0.4469 -0.4870 -1.2298
  870MPD2    C112816   0.182   3.983   1.302  0.4739 -0.3425 -0.0556
  870MPD2    C212817   0.088   4.085   1.302 -0.1751  0.0052  0.7095
  870MPD2    C312818   0.116   4.205   1.371  0.2407 -0.3241 -0.0701
  870MPD2    C412819   0.243   4.228   1.429 -0.3783 -0.1216 -0.2797
  870MPD2    C512820   0.338   4.124   1.414  0.0965  0.1639 -0.0831
  870MPD2     H12821   4.730   4.071   1.254  0.3664 -2.7737  0.4022
  870MPD2    H112822   0.279   4.321   1.473  0.8402 -1.0671  0.7362
  870MPD2    H212823   0.388   3.934   1.343  0.6992 -0.6834  2.1713
  870MPD2    H312824   0.443   4.134   1.440 -0.5824  0.8855  2.3408
  870MPD2     N12825   0.025   4.312   1.367  0.2467 -0.1992 -0.1851
  870MPD2    H512826   4.680   4.298   1.311  0.9151  0.1594 -1.2626
  870MPD2    N112827   0.162   3.856   1.246 -0.1763 -0.1642  0.0823
  870MPD2    H712828   0.238   3.789   1.238  0.3753  0.5661 -0.8518
  871MPD2     C12829   0.219   3.911  16.292 -0.2800 -0.7119  0.3256
  871MPD2    C112830   0.194   3.851  16.407 -0.7572 -0.2422 -0.3962
  871MPD2    C212831   0.249   3.724  16.416 -0.2766  0.5527 -0.1471
  871MPD2    C312832   0.325   3.659  16.325 -0.0626  0.0470  0.7189
  871MPD2    C412833   0.340   3.719  16.202  0.5159  0.2728 -0.1885
  871MPD2    C512834   0.277   3.841  16.180  0.3057  0.4940  0.6809
  871MPD2     H12835   0.237   3.670  16.509 -0.7929  0.7527 -0.0949
  871MPD2    H112836   0.403   3.682  16.121  1.8883  0.1646  0.9340
  871MPD2    H212837   0.199   4.017  16.280  1.8510 -0.1419  1.6740
  871MPD2    H312838   0.292   3.889  16.084  2.4776  0.8078  1.1769
  871MPD2     N12839   0.356   3.522  16.347  0.2784  0.0329  0.3404
  871MPD2    H512840   0.300   3.471  16.415 -0.8779  1.6605  0.6105
  871MPD2    N112841   0.139   3.919  16.510 -0.1895 -0.0013 -0.1062
  871MPD2    H712842   0.106   4.012  16.487  0.8363  0.6502  1.0834
  872MPD2     C12843   1.001   1.226  14.365 -0.0306  0.4801  0.1141
  872MPD2    C112844   0.980   1.277  14.238  0.3527 -0.0941  0.3745
  872MPD2    C212845   0.852   1.316  14.203  0.0805  0.2883  0.6029
  872MPD2    C312846   0.744   1.302  14.290  0.1681 -0.4332 -0.1097
  872MPD2    C412847   0.762   1.244  14.415  0.7420 -0.1166 -0.7985
  872MPD2    C512848   0.892   1.211  14.443 -0.0035 -0.2663 -0.4727
  872MPD2     H12849   0.832   1.351  14.102 -0.5812 -1.9733 -0.0539
  872MPD2    H112850   0.680   1.224  14.483  1.4019 -1.4932 -0.4208
  872MPD2    H212851   1.098   1.202  14.406 -0.0866 -0.4256 -0.2937
  872MPD2    H312852   0.910   1.175  14.544  0.4965  1.6139  0.1167
  872MPD2     N12853   0.613   1.339  14.257  0.2427  0.0547 -0.3208
  872MPD2    H512854   0.538   1.324  14.324  0.4723  1.3414  0.2335
  872MPD2    N112855   1.084   1.297  14.139  0.0378 -0.1740  0.3164
  872MPD2    H712856   1.055   1.348  14.056 -1.3871  1.2949  1.7345
  873MPD2     C12857   2.841   0.789   1.137 -0.6457  0.8706 -0.0243
  873MPD2    C112858   2.957   0.747   1.192  0.0759 -0.2085  0.3472
  873MPD2    C212859   2.993   0.614   1.181 -0.5227 -0.1737 -0.3612
  873MPD2    C312860   2.917   0.527   1.101 -0.5344  0.1875 -0.0511
  873MPD2    C412861   2.809   0.579   1.035  0.2320  0.4798  0.7567
  873MPD2    C512862   2.773   0.708   1.053 -0.5775  0.6552 -0.2441
  873MPD2     H12863   3.063   0.566   1.248  1.5941  0.1800 -2.3344
  873MPD2    H112864   2.744   0.516   0.975  1.8536 -0.4096 -0.0924
  873MPD2    H212865   2.808   0.892   1.150  0.0836  0.6892  3.2749
  873MPD2    H312866   2.685   0.750   1.006 -1.9377 -1.3751  0.4720
  873MPD2     N12867   2.936   0.383   1.098 -0.0236 -0.4330 -0.3178
  873MPD2    H512868   2.864   0.334   1.047 -1.0781  2.0697 -1.2233
  873MPD2    N112869   3.024   0.831   1.281  0.0137  0.4247 -0.8810
  873MPD2    H712870   2.977   0.919   1.300  0.1983 -0.2353  2.4935
  874MPD2     C12871   2.530   1.167  16.147  0.4014 -0.1821  0.1860
  874MPD2    C112872   2.569   1.131  16.271  0.1974  0.2357 -0.7037
  874MPD2    C212873   2.670   1.201  16.328  0.1440 -0.0146  0.0046
  874MPD2    C312874   2.717   1.321  16.273  0.0574 -0.2569  0.6352
  874MPD2    C412875   2.677   1.359  16.149 -0.1611 -0.2035  0.1938
  874MPD2    C512876   2.582   1.284  16.088 -0.4321  0.0345 -0.3317
  874MPD2     H12877   2.715   1.169  16.421 -0.0734  1.9088  0.7853
  874MPD2    H112878   2.698   1.455  16.104 -1.2824 -0.9061 -1.8566
  874MPD2    H212879   2.455   1.108  16.095  0.3533  0.4361 -0.4509
  874MPD2    H312880   2.535   1.323  15.998  0.3763 -0.3355 -0.9184
  874MPD2     N12881   2.819   1.391  16.337 -0.6471 -0.3039  0.5905
  874MPD2    H512882   2.861   1.341  16.415 -2.0905  2.6520  3.2658
  874MPD2    N112883   2.505   1.015  16.321 -0.2784 -0.1629  0.1468
  874MPD2    H712884   2.439   0.957  16.271 -1.1348  0.4437  0.5792
  875MPD2     C12885   3.901   4.596  14.570  0.2874  0.4528 -0.8519
  875MPD2    C112886   3.818   4.556  14.664  0.4829 -0.2342  1.2692
  875MPD2    C212887   3.850   4.576  14.798  0.2831  0.1431 -0.0548
  875MPD2    C312888   3.975   4.633  14.834 -0.2991 -0.3190  0.5664
  875MPD2    C412889   4.060   4.676  14.729 -0.4279  0.3362  0.0434
  875MPD2    C512890   4.021   4.652  14.601  0.2867  0.1590 -0.1495
  875MPD2     H12891   3.785   4.526  14.869 -0.1168  0.4615 -0.1985
  875MPD2    H112892   4.153   4.726  14.750  0.5368 -1.4364  0.0266
  875MPD2    H212893   3.893   4.584  14.462  0.5888  2.0969 -1.0641
  875MPD2    H312894   4.092   4.674  14.523 -0.4249 -1.8330 -1.3856
  875MPD2     N12895   4.024   4.651  14.968 -0.1433 -0.2503  0.6244
  875MPD2    H512896   4.104   4.713  14.975 -1.2628  1.4540 -1.5783
  875MPD2    N112897   3.703   4.479  14.634  0.6890  0.1870 -0.6763
  875MPD2    H712898   3.631   4.464  14.704  0.9338  0.8896 -0.2706
  876MPD2     C12899   2.207   0.742  16.079 -0.0885  0.2128 -1.1810
  876MPD2    C112900   2.335   0.728  16.031  0.7345  0.0932  0.3267
  876MPD2    C212901   2.410   0.618  16.086  0.1123  0.2676 -0.7606
  876MPD2    C312902   2.367   0.541  16.186  0.3046  0.0012 -0.3679
  876MPD2    C412903   2.242   0.562  16.226  0.3537  0.3895  0.0418
  876MPD2    C512904   2.160   0.664  16.181 -1.4011 -0.5370 -0.5543
  876MPD2     H12905   2.515   0.612  16.058  0.1628 -1.4285 -0.1954
  876MPD2    H112906   2.211   0.498  16.308  0.0611  0.3441 -0.1026
  876MPD2    H212907   2.146   0.822  16.039 -2.6751 -0.6135  1.0815
  876MPD2    H312908   2.062   0.676  16.226 -0.9852  0.2773  0.1411
  876MPD2     N12909   2.452   0.445  16.248 -0.6838  0.3028  0.6595
  876MPD2    H512910   2.546   0.434  16.209 -0.5281  1.0463  0.8293
  876MPD2    N112911   2.377   0.818  15.925  0.3075  0.7264  0.0762
  876MPD2    H712912   2.327   0.906  15.921 -1.0730  0.0425  1.8024
  877MPD2     C12913   2.292   1.259  15.294  0.1561 -1.0884 -0.2229
  877MPD2    C112914   2.428   1.251  15.321  0.1401 -0.0900 -0.0832
  877MPD2    C212915   2.514   1.291  15.215  0.4464  0.4594  0.1805
  877MPD2    C312916   2.471   1.321  15.088 -0.3619 -0.2622 -0.4553
  877MPD2    C412917   2.333   1.309  15.067  0.2590  0.1722  0.3360
  877MPD2    C512918   2.245   1.281  15.167  0.2472  0.2059  0.2774
  877MPD2     H12919   2.616   1.284  15.253  0.4317 -2.5966 -0.3483
  877MPD2    H112920   2.298   1.350  14.973  1.1974  0.3220  0.0509
  877MPD2    H212921   2.216   1.243  15.370  0.1764  0.4771  0.1227
  877MPD2    H312922   2.138   1.271  15.158  0.3205 -0.6937  0.4564
  877MPD2     N12923   2.554   1.345  14.982  0.1268  0.8848 -0.0046
  877MPD2    H512924   2.510   1.353  14.890  0.2265  3.7476  0.1979
  877MPD2    N112925   2.477   1.224  15.451  0.5423  0.3921 -0.2074
  877MPD2    H712926   2.578   1.218  15.463  0.7490  0.7078 -1.8190
  878MPD2     C12927   2.281   0.367  13.277  0.4074 -0.5014 -0.4283
  878MPD2    C112928   2.386   0.396  13.366  0.2489  0.5995  0.9324
  878MPD2    C212929   2.361   0.381  13.500 -0.8858 -0.3105 -0.7643
  878MPD2    C312930   2.238   0.350  13.556  0.0608 -0.5242 -0.3010
  878MPD2    C412931   2.132   0.343  13.464 -0.1225 -0.4983 -0.2146
  878MPD2    C512932   2.158   0.339  13.333  0.9944 -0.7644  0.5145
  878MPD2     H12933   2.442   0.380  13.573 -1.0583  1.4033 -0.5377
  878MPD2    H112934   2.035   0.305  13.492 -1.0080  1.9262 -0.0565
  878MPD2    H212935   2.301   0.367  13.171 -0.2075  0.5080 -0.5392
  878MPD2    H312936   2.077   0.310  13.267  1.5243  1.6318 -1.1752
  878MPD2     N12937   2.226   0.323  13.693  0.4206  0.3985  0.6563
  878MPD2    H512938   2.311   0.316  13.749  1.6646 -1.1771 -1.4681
  878MPD2    N112939   2.505   0.442  13.310  0.6797  0.2166 -0.7778
  878MPD2    H712940   2.512   0.442  13.209 -0.0588  0.2414 -0.8302
  879MPD2     C12941   2.784   2.121  16.690 -0.1416 -0.1769 -0.9769
  879MPD2    C112942   2.788   1.994  16.745  0.0587 -0.3670  0.7995
  879MPD2    C212943   2.724   1.889  16.687  0.5335 -0.0470 -0.2310
  879MPD2    C312944   2.649   1.910  16.575 -0.1180  0.3114 -0.1078
  879MPD2    C412945   2.654   2.036  16.519 -0.0246 -0.4961 -0.0063
  879MPD2    C512946   2.721   2.141  16.575  0.7423 -0.6749  0.0195
  879MPD2     H12947   2.747   1.793  16.732 -1.9746 -1.0189 -1.0225
  879MPD2    H112948   2.603   2.063  16.428  1.6120 -0.5045 -0.9258
  879MPD2    H212949   2.827   2.205  16.744  0.4664 -0.5749 -0.8342
  879MPD2    H312950   2.724   2.236  16.523  0.9132 -0.9073 -0.3936
  879MPD2     N12951   2.569   1.811  16.521  0.4559 -0.2057 -0.4890
  879MPD2    H512952   2.514   1.833  16.438 -0.7874  0.8992  0.6348
  879MPD2    N112953   2.843   1.997  16.873  0.4049  0.2016 -0.1547
  879MPD2    H712954   2.880   2.081  16.916 -2.3732  0.0752  2.5486
  880MPD2     C12955   3.768   3.949   0.343  0.4676 -0.0103 -0.2415
  880MPD2    C112956   3.850   4.009   0.438  0.3871 -0.2132 -0.6518
  880MPD2    C212957   3.926   3.926   0.520  0.9067  0.0033 -0.1282
  880MPD2    C312958   3.915   3.788   0.512  0.6237  0.1413  0.2567
  880MPD2    C412959   3.828   3.732   0.417 -0.1237 -0.2141 -0.0839
  880MPD2    C512960   3.755   3.812   0.335 -0.1190 -0.6860 -0.3193
  880MPD2     H12961   4.006   3.963   0.583  0.3463  2.4117 -0.8163
  880MPD2    H112962   3.807   3.626   0.406  0.7134 -0.2277 -1.5477
  880MPD2    H212963   3.711   4.010   0.274 -0.3080  1.7035  1.8968
  880MPD2    H312964   3.697   3.765   0.257 -1.6528  0.1318  0.3206
  880MPD2     N12965   3.999   3.711   0.592 -1.0887  0.3397  0.1474
  880MPD2    H512966   4.053   3.773   0.651  0.3328 -1.4800  0.7962
  880MPD2    N112967   3.864   4.149   0.441 -0.0477  0.0393  0.4524
  880MPD2    H712968   3.815   4.202   0.370 -0.3806  0.2396  0.8355
  881MPD2     C12969   4.515   4.708  17.691  0.1342  0.6065 -0.4752
  881MPD2    C112970   4.409   4.615  17.669 -0.7725 -0.0016 -0.4894
  881MPD2    C212971   4.328   4.585   0.024  0.0609  0.1452 -0.4577
  881MPD2    C312972   4.354   4.642   0.152 -0.3558  0.2177 -0.8781
  881MPD2    C412973   4.448   0.009   0.169  0.5283  0.0087 -0.4106
  881MPD2    C512974   4.538   0.027   0.068 -0.4584  0.0504  0.6095
  881MPD2     H12975   4.230   4.543   0.005 -0.6668  0.4890  2.6502
  881MPD2    H112976   4.476   0.046   0.267 -1.9994 -0.7088  0.6038
  881MPD2    H212977   4.572   0.021  17.614  1.1943 -1.4939 -1.0656
  881MPD2    H312978   4.629   0.080   0.092 -0.1577  0.2058 -0.8817
  881MPD2     N12979   4.269   4.631   0.263  0.0943  0.0302 -0.1086
  881MPD2    H512980   4.275   4.694   0.342  0.5214 -1.4718  1.0578
  881MPD2    N112981   4.362   4.610  17.532 -0.5499 -0.0200  0.1121
  881MPD2    H712982   4.418   4.651  17.458 -1.8276  0.3335 -0.6544
  882MPD2     C12983   2.698   1.168  14.228 -0.7947  0.3848  0.0835
  882MPD2    C112984   2.630   1.239  14.331 -0.1061  0.0026  0.0811
  882MPD2    C212985   2.492   1.227  14.340 -0.3253 -0.7491 -0.0974
  882MPD2    C312986   2.419   1.152  14.251 -0.1141  0.6135  0.1816
  882MPD2    C412987   2.483   1.089  14.149 -0.2758  0.5613  0.1048
  882MPD2    C512988   2.619   1.097  14.141 -0.3660 -0.1445 -0.9513
  882MPD2     H12989   2.439   1.268  14.425  0.3861  0.7580 -0.3765
  882MPD2    H112990   2.433   1.028  14.075 -0.4575 -0.2136  0.8750
  882MPD2    H212991   2.805   1.173  14.212 -0.5762 -1.9340  0.7757
  882MPD2    H312992   2.656   1.053  14.049  0.2918  0.9219 -1.2107
  882MPD2     N12993   2.278   1.131  14.262  0.8421 -0.0558 -0.2200
  882MPD2    H512994   2.240   1.077  14.185  0.3926 -0.7931  0.5224
  882MPD2    N112995   2.713   1.306  14.424 -0.8120 -0.2590 -0.3332
  882MPD2    H712996   2.813   1.304  14.405 -1.0065  1.0341 -1.5125
  883MPD2     C12997   4.428   0.767  16.173  0.1318  0.2011 -0.1320
  883MPD2    C112998   4.468   0.867  16.089 -0.0907 -0.6148  0.3152
  883MPD2    C212999   4.579   0.948  16.131 -0.4195 -0.4995  0.4960
  883MPD2    C313000   4.641   0.927  16.260 -0.3497  0.2042 -0.3705
  883MPD2    C413001   4.595   0.832  16.344 -0.1689 -0.4182  0.1964
  883MPD2    C513002   4.488   0.754  16.301  0.2761  0.2093 -0.6028
  883MPD2     H13003   4.625   1.031  16.079  1.2110 -1.3280  0.6014
  883MPD2    H113004   4.628   0.826  16.447  1.4895  0.6920 -0.2762
  883MPD2    H213005   4.352   0.694  16.148 -1.9059  3.5117 -3.4491
  883MPD2    H313006   4.442   0.679  16.364 -0.8727  1.2792 -0.1744
  883MPD2     N13007   0.017   1.005  16.293 -0.1296  0.0514  0.0143
  883MPD2    H513008   0.071   1.045  16.216 -1.4989 -1.5712 -1.7744
  883MPD2    N113009   4.406   0.892  15.969 -0.6062 -0.0396  0.2307
  883MPD2    H713010   4.447   0.966  15.913 -0.4543 -0.2926  0.0049
  884MPD2     C13011   1.898   2.256  15.023  0.2656 -0.1470 -0.4560
  884MPD2    C113012   1.805   2.246  14.920  0.7453  0.6892 -0.0450
  884MPD2    C213013   1.673   2.247  14.962 -0.0480 -0.8059 -0.3927
  884MPD2    C313014   1.634   2.269  15.088 -0.6796 -0.0454 -0.2108
  884MPD2    C413015   1.729   2.294  15.185  0.4157 -0.1287 -0.0690
  884MPD2    C513016   1.866   2.288  15.152 -0.0290  0.5998 -0.8293
  884MPD2     H13017   1.596   2.223  14.890  0.0879 -0.3202 -0.7004
  884MPD2    H113018   1.706   2.314  15.289  1.2861  1.7985 -0.2592
  884MPD2    H213019   2.004   2.249  15.001  0.8082  1.4674  1.6477
  884MPD2    H313020   1.946   2.310  15.221 -2.5599  2.5122  1.4881
  884MPD2     N13021   1.493   2.254  15.118 -0.5679 -0.5024 -0.6641
  884MPD2    H513022   1.435   2.258  15.035 -1.5811  2.7093  0.2017
  884MPD2    N113023   1.838   2.216  14.788  0.0824  1.1072 -0.3135
  884MPD2    H713024   1.778   2.232  14.708 -0.9897 -0.0707  0.2590
  885MPD2     C13025   0.271   2.423   0.407 -0.1943  0.4271 -1.0773
  885MPD2    C113026   0.270   2.324   0.309 -0.4184  0.3264  0.1041
  885MPD2    C213027   0.255   2.362   0.176  0.0256 -0.7445  0.2015
  885MPD2    C313028   0.236   2.495   0.143 -0.6583  0.4324  0.1243
  885MPD2    C413029   0.261   2.593   0.240  0.6286 -0.0968  0.1878
  885MPD2    C513030   0.285   2.551   0.369  0.1852 -0.1296  0.1912
  885MPD2     H13031   0.224   2.289   0.101 -3.9048  0.5216  0.5633
  885MPD2    H113032   0.250   2.698   0.213 -1.1052 -0.3029  0.1203
  885MPD2    H213033   0.287   2.396   0.511  0.3753 -2.0479 -1.8158
  885MPD2    H313034   0.307   2.629   0.440  0.9618  0.5582 -0.8112
  885MPD2     N13035   0.214   2.536   0.006 -0.3910 -0.6981 -0.4169
  885MPD2    H513036   0.219   2.468  17.680  0.1212 -1.1469  0.0126
  885MPD2    N113037   0.261   2.186   0.349  0.2703 -0.1413  0.1014
  885MPD2    H713038   0.211   2.121   0.289  0.8864 -0.5176  0.0002
  886MPD2     C13039   1.155   1.075  15.698  0.4819 -0.0800 -0.1531
  886MPD2    C113040   1.247   0.992  15.629  0.6901  0.1568  0.5508
  886MPD2    C213041   1.268   1.016  15.493 -0.0873  0.0517  0.1420
  886MPD2    C313042   1.211   1.122  15.421  0.4536  0.0330  0.6023
  886MPD2    C413043   1.129   1.205  15.490  0.3968  0.3844  0.0018
  886MPD2    C513044   1.106   1.184  15.624  0.5593  0.1262 -0.2445
  886MPD2     H13045   1.342   0.956  15.441  1.5607  0.5957  1.8312
  886MPD2    H113046   1.083   1.288  15.438 -1.2882 -0.6909 -0.2376
  886MPD2    H213047   1.133   1.058  15.803  1.3480  0.3625  0.0992
  886MPD2    H313048   1.046   1.262  15.671  0.3087  0.3978 -1.0164
  886MPD2     N13049   1.245   1.142  15.284  0.0036 -0.0016  0.5328
  886MPD2    H513050   1.296   1.067  15.240  1.8323  0.0742  2.5436
  886MPD2    N113051   1.304   0.877  15.686 -0.4202 -0.4119 -0.1108
  886MPD2    H713052   1.304   0.872  15.788 -0.9889  1.0393 -0.0348
  887MPD2     C13053   1.817   1.016  16.146 -0.2833 -0.2275  0.6138
  887MPD2    C113054   1.785   1.013  16.009  0.1054 -0.1370 -0.0468
  887MPD2    C213055   1.822   1.114  15.921 -0.0244  0.0684  1.3117
  887MPD2    C313056   1.909   1.212  15.965  0.4105  0.2081  0.6991
  887MPD2    C413057   1.933   1.216  16.105 -0.4668  0.3173  0.6074
  887MPD2    C513058   1.888   1.118  16.195  0.1207 -0.0884 -0.4994
  887MPD2     H13059   1.778   1.119  15.821  1.4355  0.9452  0.7213
  887MPD2    H113060   1.990   1.291  16.157 -1.8572 -0.7486  3.6371
  887MPD2    H213061   1.778   0.950  16.222  0.3395 -0.4205  0.7641
  887MPD2    H313062   1.910   1.118  16.301 -1.2866  0.6323 -0.2066
  887MPD2     N13063   1.971   1.298  15.866  0.7579 -0.0738  0.9754
  887MPD2    H513064   1.944   1.276  15.771 -0.1563  1.4168  0.8773
  887MPD2    N113065   1.701   0.916  15.954  0.5834  0.2340  0.1503
  887MPD2    H713066   1.682   0.934  15.857 -0.7561  2.5901  0.8518
  888MPD2     C13067   3.602   0.726  14.610  0.4234  0.3357 -0.9257
  888MPD2    C113068   3.611   0.750  14.746 -0.0680  0.2950 -0.5042
  888MPD2    C213069   3.654   0.874  14.793  0.3792 -1.2481  0.3969
  888MPD2    C313070   3.699   0.975  14.702 -0.2973 -0.2548  0.2445
  888MPD2    C413071   3.702   0.944  14.571 -0.3988  0.0576  0.1286
  888MPD2    C513072   3.652   0.823  14.526 -1.0637 -0.5971  0.4485
  888MPD2     H13073   3.654   0.887  14.900  1.6130 -0.7607  0.3362
  888MPD2    H113074   3.744   1.008  14.494 -0.3549  0.4267  0.4643
  888MPD2    H213075   3.555   0.644  14.556 -0.2554  0.4688 -0.5426
  888MPD2    H313076   3.656   0.806  14.419  2.3351 -1.1390  0.6578
  888MPD2     N13077   3.754   1.099  14.753 -0.1519 -0.1770 -0.3147
  888MPD2    H513078   3.755   1.099  14.854  1.2076  0.4045 -0.3293
  888MPD2    N113079   3.559   0.653  14.844  0.5156  0.1777 -0.3932
  888MPD2    H713080   3.568   0.675  14.942 -1.6448  0.3832 -0.2442
  889MPD2     C13081   3.016   0.798  13.035  0.7357  0.1733 -0.4519
  889MPD2    C113082   3.039   0.691  13.116  0.4535 -0.0243 -0.0521
  889MPD2    C213083   3.047   0.709  13.252  0.8266  0.1750  1.8425
  889MPD2    C313084   3.042   0.837  13.307 -0.8864 -0.3219  0.4830
  889MPD2    C413085   3.022   0.944  13.227 -0.3702  0.2226 -0.4306
  889MPD2    C513086   3.009   0.922  13.091  0.0842 -0.5706  0.3820
  889MPD2     H13087   3.041   0.621  13.315 -1.0841 -1.4789 -0.6447
  889MPD2    H113088   3.019   1.046  13.264 -1.1143  0.0486 -0.0173
  889MPD2    H213089   2.998   0.795  12.929 -2.9654  2.4051  0.1059
  889MPD2    H313090   3.002   1.007  13.024  0.1494 -0.6146  0.3179
  889MPD2     N13091   3.060   0.842  13.443 -0.6232 -0.1342 -0.5430
  889MPD2    H513092   3.066   0.751  13.489 -0.5530 -0.8985 -2.0653
  889MPD2    N113093   3.025   0.560  13.069 -0.2212  0.2104 -0.0945
  889MPD2    H713094   3.017   0.486  13.139  1.1608 -0.4892 -0.6686
  890MPD2     C13095   2.767   2.034  14.413 -0.3893  0.2290  0.4757
  890MPD2    C113096   2.773   2.137  14.509  0.2712  0.5044  0.0501
  890MPD2    C213097   2.819   2.100  14.633 -0.6403 -0.5303  0.2286
  890MPD2    C313098   2.832   1.964  14.670 -0.2608 -0.3465  0.2384
  890MPD2    C413099   2.802   1.868  14.576  0.0844 -0.1884 -0.7841
  890MPD2    C513100   2.782   1.907  14.448  0.7147  0.8567 -0.1782
  890MPD2     H13101   2.857   2.174  14.703  1.9697 -2.2898  0.6743
  890MPD2    H113102   2.801   1.760  14.586 -0.0589 -0.1200 -0.0631
  890MPD2    H213103   2.741   2.062  14.311  2.9080 -0.8551 -0.6544
  890MPD2    H313104   2.776   1.840  14.363 -0.5066  1.0531 -0.2479
  890MPD2     N13105   2.882   1.933  14.798 -0.3249 -0.0692 -0.0231
  890MPD2    H513106   2.914   2.008  14.860  0.4445 -0.6216  0.2514
  890MPD2    N113107   2.763   2.269  14.469 -0.5929  0.5497  0.4879
  890MPD2    H713108   2.728   2.274  14.374 -0.6503  0.2787  0.4926
  891MPD2     C13109   0.777   0.853  16.275 -0.2224 -0.7272 -0.3706
  891MPD2    C113110   0.714   0.792  16.383 -0.0415 -0.7763 -0.2850
  891MPD2    C213111   0.794   0.768  16.496 -0.5863 -0.3505  0.4386
  891MPD2    C313112   0.932   0.787  16.495 -0.3354 -0.1257  0.5448
  891MPD2    C413113   0.994   0.826  16.377 -0.2864  0.1432 -0.0395
  891MPD2    C513114   0.914   0.868  16.271 -1.1279 -0.0979  0.6218
  891MPD2     H13115   0.745   0.742  16.589 -1.4154  0.2588  0.1752
  891MPD2    H113116   1.099   0.850  16.365  0.1835 -1.6526  0.4670
  891MPD2    H213117   0.708   0.880  16.196  1.3058  0.7044 -1.2124
  891MPD2    H313118   0.963   0.898  16.179  0.1818  0.2327  1.4345
  891MPD2     N13119   1.006   0.773  16.613  0.4125 -0.3950 -0.4352
  891MPD2    H513120   0.957   0.745  16.698  0.4541 -0.3905 -0.4099
  891MPD2    N113121   0.571   0.792  16.390 -0.1072  0.3023  0.2960
  891MPD2    H713122   0.511   0.831  16.318  0.7618 -0.1227 -0.6580
  892MPD2     C13123   1.720   1.889  14.468 -0.4466 -0.3081 -0.2538
  892MPD2    C113124   1.672   1.781  14.533  0.0944 -0.0465 -0.3029
  892MPD2    C213125   1.707   1.653  14.487 -0.1332  0.6144  0.2853
  892MPD2    C313126   1.796   1.640  14.377 -0.0181  1.4332  0.0800
  892MPD2    C413127   1.855   1.754  14.328 -1.2247  0.7475  0.0636
  892MPD2    C513128   1.817   1.874  14.372  0.9937  0.4825  0.1081
  892MPD2     H13129   1.665   1.567  14.537 -0.6738 -0.8476 -2.7263
  892MPD2    H113130   1.928   1.745  14.248 -2.4132 -0.4122 -0.8980
  892MPD2    H213131   1.688   1.990  14.488  1.7650  0.0101  1.6327
  892MPD2    H313132   1.868   1.962  14.335  0.4611  0.4108 -0.8044
  892MPD2     N13133   1.830   1.512  14.332  0.2278  0.2350 -0.2241
  892MPD2    H513134   1.903   1.502  14.262  1.0705 -0.3351  0.7430
  892MPD2    N113135   1.579   1.798  14.633  0.1515  0.3270  0.3632
  892MPD2    H713136   1.560   1.894  14.658 -0.3321  0.8727 -2.1123
  893MPD2     C13137   4.623   1.093   1.771  0.3543  0.0037  0.5069
  893MPD2    C113138   4.734   1.014   1.765  0.0957 -0.1414 -0.0402
  893MPD2    C213139   0.120   1.077   1.760 -0.7179 -0.3488 -0.1555
  893MPD2    C313140   0.133   1.215   1.780 -0.2833 -0.4296 -0.4561
  893MPD2    C413141   0.016   1.289   1.781  0.2828  0.4951  0.2445
  893MPD2    C513142   4.630   1.226   1.779 -0.3723 -0.6866  0.0033
  893MPD2     H13143   0.210   1.018   1.751  0.3693  1.1060  1.1081
  893MPD2    H113144   0.023   1.397   1.793 -0.3883  0.5650 -0.0169
  893MPD2    H213145   4.523   1.053   1.773 -0.9565  3.2292 -1.0171
  893MPD2    H313146   4.536   1.278   1.788  1.3213  2.2312  0.9086
  893MPD2     N13147   0.258   1.274   1.786 -0.5120 -0.3217 -0.1052
  893MPD2    H513148   0.258   1.375   1.776 -0.0354 -0.4772 -1.6070
  893MPD2    N113149   4.722   0.874   1.751  0.2980 -0.0920  0.2167
  893MPD2    H713150   4.626   0.842   1.738 -0.1122  1.1803  0.0954
  894MPD2     C13151   1.245   1.737   1.165 -0.3358 -0.5887  0.4127
  894MPD2    C113152   1.134   1.822   1.170  0.2924 -0.0551 -0.3007
  894MPD2    C213153   1.146   1.960   1.141 -0.5080 -0.8871  0.6309
  894MPD2    C313154   1.269   2.010   1.106  0.1694  0.2231 -0.2577
  894MPD2    C413155   1.377   1.928   1.091  0.2161 -0.2227 -0.0251
  894MPD2    C513156   1.365   1.787   1.122  0.8117  0.2327  0.3482
  894MPD2     H13157   1.058   2.023   1.149  0.9162  0.9546  1.8288
  894MPD2    H113158   1.474   1.954   1.049  0.4537  1.7476  1.7163
  894MPD2    H213159   1.234   1.630   1.180  0.2233 -0.8135 -0.7598
  894MPD2    H313160   1.441   1.715   1.093  1.7894  0.4682  2.3240
  894MPD2     N13161   1.283   2.147   1.077 -0.0388  0.0834 -0.3615
  894MPD2    H513162   1.196   2.200   1.069 -0.4262 -0.3765  0.8041
  894MPD2    N113163   1.010   1.761   1.185  0.2671  0.1842 -0.1471
  894MPD2    H713164   1.011   1.663   1.212 -0.6815  0.3948  0.6751
  895MPD2     C13165   0.718   1.008  14.007 -0.0062 -0.1540 -0.2861
  895MPD2    C113166   0.681   0.941  13.894 -0.2032  0.7316  0.3979
  895MPD2    C213167   0.772   0.862  13.833 -0.3178 -0.4782 -0.4884
  895MPD2    C313168   0.901   0.850  13.874 -0.2204  0.1150 -0.4320
  895MPD2    C413169   0.949   0.921  13.986  0.2071 -0.3488 -0.5162
  895MPD2    C513170   0.849   0.994  14.048  0.3123 -0.3418  0.5906
  895MPD2     H13171   0.744   0.814  13.740 -1.3465  0.7308 -0.8164
  895MPD2    H113172   1.049   0.915  14.027  0.1252  1.6019 -0.0382
  895MPD2    H213173   0.654   1.068  14.071  1.3895  0.0796  0.8714
  895MPD2    H313174   0.881   1.045  14.139  0.8388  0.7047 -0.1879
  895MPD2     N13175   0.987   0.786  13.785 -0.2149  0.1432  0.1814
  895MPD2    H513176   0.950   0.755  13.695 -0.5267 -0.0592  0.3773
  895MPD2    N113177   0.567   0.971  13.813 -0.4013  1.0542 -0.1014
  895MPD2    H713178   0.567   0.919  13.726  0.1097  2.3282 -0.8645
  896MPD2     C13179   3.496   3.512   1.518  0.4686 -0.2639  0.0543
  896MPD2    C113180   3.442   3.507   1.394  0.2435  0.2747 -0.4366
  896MPD2    C213181   3.320   3.448   1.375  0.4692 -0.2689  0.2971
  896MPD2    C313182   3.246   3.401   1.486 -0.0786 -0.1366 -0.4792
  896MPD2    C413183   3.305   3.406   1.607 -0.2252 -0.2795 -0.0460
  896MPD2    C513184   3.421   3.471   1.628 -0.4871  1.1072  0.5565
  896MPD2     H13185   3.270   3.451   1.279 -0.2823  1.5559  0.7450
  896MPD2    H113186   3.258   3.367   1.696 -2.0963  2.1014 -0.0003
  896MPD2    H213187   3.591   3.563   1.524  0.0619  0.4173  0.6943
  896MPD2    H313188   3.456   3.479   1.730  2.5541  0.4097 -0.4089
  896MPD2     N13189   3.120   3.345   1.454 -0.5965 -0.2650 -0.0339
  896MPD2    H513190   3.098   3.323   1.358 -0.7213  0.5266 -0.1891
  896MPD2    N113191   3.514   3.561   1.281 -0.3752  0.0110  0.5873
  896MPD2    H713192   3.603   3.608   1.293 -0.5205  0.5338 -0.4234
  897MPD2     C13193   4.142   4.246  10.485 -0.1681  0.6785 -0.5512
  897MPD2    C113194   4.070   4.363  10.452 -0.5251  0.4329  0.1107
  897MPD2    C213195   3.941   4.381  10.503 -0.0251  0.4090  0.3037
  897MPD2    C313196   3.900   4.298  10.610 -0.0750  0.2376 -0.1262
  897MPD2    C413197   3.955   4.180  10.633 -0.7578 -0.1328 -0.2998
  897MPD2    C513198   4.080   4.155  10.572  0.3606  0.1298  0.0640
  897MPD2     H13199   3.882   4.465  10.468 -1.2792  0.3860  2.3784
  897MPD2    H113200   3.912   4.111  10.704 -0.3040  1.0879  1.1417
  897MPD2    H213201   4.235   4.219  10.437 -1.0376 -0.3445 -1.6749
  897MPD2    H313202   4.133   4.062  10.588  0.5306  0.1200 -0.5569
  897MPD2     N13203   3.776   4.333  10.677  0.0463 -0.3080  0.0982
  897MPD2    H513204   3.718   4.408  10.641  1.6748  0.5021 -0.8276
  897MPD2    N113205   4.124   4.451  10.356 -0.3141 -0.3289 -0.2015
  897MPD2    H713206   4.204   4.425  10.300 -0.2444 -0.6115  0.0295
  898MPD2     C13207   1.986   0.957  17.706 -0.3171  0.7146 -0.6154
  898MPD2    C113208   1.951   0.911  17.582 -1.0126  0.6104  0.4160
  898MPD2    C213209   1.888   1.003  17.498 -0.2967  0.4563  0.2028
  898MPD2    C313210   1.846   1.127  17.540 -0.4159  0.1577  0.3618
  898MPD2    C413211   1.885   1.166  17.666  0.2489 -0.3730 -0.2292
  898MPD2    C513212   1.949   1.082  17.747 -0.2482  0.5934 -0.0698
  898MPD2     H13213   1.871   0.974  17.395  2.5467 -1.4420  0.2475
  898MPD2    H113214   1.850   1.258  17.713  4.5635  0.2976  1.6759
  898MPD2    H213215   2.054   0.900   0.020 -0.2570  1.7185  0.2147
  898MPD2    H313216   1.980   1.117   0.095  1.6698 -2.5527  0.4618
  898MPD2     N13217   1.793   1.220  17.452  0.5567 -0.0559  0.0913
  898MPD2    H513218   1.781   1.175  17.361 -1.4860  1.7161 -0.5142
  898MPD2    N113219   1.973   0.772  17.549 -0.0983 -0.1675  0.2329
  898MPD2    H713220   2.007   0.717  17.628 -2.0824  1.6992  2.3678
  899MPD2     C13221   2.717   1.504  17.149 -0.1601 -0.3616 -0.5797
  899MPD2    C113222   2.584   1.525  17.120  0.2379  0.7081  0.0321
  899MPD2    C213223   2.482   1.469  17.213 -1.1557  0.8647  0.0475
  899MPD2    C313224   2.518   1.402  17.328 -0.2153 -1.0040 -0.7799
  899MPD2    C413225   2.648   1.383  17.355 -0.2087  0.0697  0.1960
  899MPD2    C513226   2.742   1.431  17.267  0.2249 -0.1784 -0.3495
  899MPD2     H13227   2.376   1.481  17.195 -1.0214  1.1244 -0.5587
  899MPD2    H113228   2.683   1.330  17.443  2.9387 -2.1101 -2.3342
  899MPD2    H213229   2.798   1.534  17.084  0.9726 -4.5807 -1.1375
  899MPD2    H313230   2.846   1.413  17.288  0.4240 -2.2322 -3.1236
  899MPD2     N13231   2.415   1.369  17.415  0.3341  0.0516 -0.0545
  899MPD2    H513232   2.325   1.410  17.394  0.7896  0.0585 -2.0389
  899MPD2    N113233   2.547   1.620  17.015  0.1219 -0.0520  0.4489
  899MPD2    H713234   2.621   1.676  16.974  0.4514 -2.4497 -2.2310
  900MPD2     C13235   2.122   3.224  12.536  0.1028 -0.5487 -0.0734
  900MPD2    C113236   2.024   3.152  12.578  0.1554 -0.1326  1.2291
  900MPD2    C213237   1.887   3.194  12.565 -0.5516  0.3930  0.1255
  900MPD2    C313238   1.857   3.315  12.512  0.4648  0.8980  0.8080
  900MPD2    C413239   1.963   3.391  12.484 -0.1725 -0.4327 -0.4253
  900MPD2    C513240   2.093   3.352  12.506 -0.3822 -0.6267 -0.0752
  900MPD2     H13241   1.809   3.124  12.596  0.5211 -0.0088  1.9082
  900MPD2    H113242   1.953   3.495  12.454  0.7746 -0.2081  0.0251
  900MPD2    H213243   2.227   3.199  12.537 -0.3282 -2.2807  1.1102
  900MPD2    H313244   2.166   3.423  12.468 -0.4021  0.7429  2.4380
  900MPD2     N13245   1.724   3.350  12.486  0.4503  0.4180 -0.1816
  900MPD2    H513246   1.651   3.282  12.503  1.4877 -1.1151 -1.8275
  900MPD2    N113247   2.068   3.026  12.637 -0.4977  1.0413 -0.2466
  900MPD2    H713248   2.167   3.007  12.639 -0.6952 -0.2986 -2.4363
  901MPD2     C13249   2.014   2.266  13.401 -0.6611 -0.5324  0.7019
  901MPD2    C113250   2.117   2.231  13.317 -1.0860  0.2641  0.1211
  901MPD2    C213251   2.149   2.331  13.227 -0.2875 -0.4309  0.3666
  901MPD2    C313252   2.091   2.456  13.220 -0.3750 -0.0712 -0.3549
  901MPD2    C413253   2.005   2.488  13.319 -0.4849 -0.0932  0.5558
  901MPD2    C513254   1.962   2.388  13.404  0.2998 -0.4194  0.0662
  901MPD2     H13255   2.224   2.302  13.154 -1.3169 -0.8021 -0.5347
  901MPD2    H113256   1.978   2.592  13.333  0.8783  0.5983 -1.9416
  901MPD2    H213257   1.972   2.189  13.465  3.5503 -2.2463  1.3881
  901MPD2    H313258   1.888   2.413  13.479  0.5087 -0.0567  0.1560
  901MPD2     N13259   2.136   2.545  13.119  0.0170  0.1878 -0.2092
  901MPD2    H513260   2.216   2.508  13.069  0.0225  0.5130 -0.4333
  901MPD2    N113261   2.154   2.094  13.304 -0.1804  0.0674  0.4213
  901MPD2    H713262   2.081   2.025  13.321  0.5713 -0.6894  0.5551
  902MPD2     C13263   0.534   1.451  13.309  0.6519 -0.3790 -0.6222
  902MPD2    C113264   0.510   1.447  13.174 -0.4669 -0.3246 -0.5715
  902MPD2    C213265   0.580   1.357  13.104 -1.5499  0.2620  0.3977
  902MPD2    C313266   0.678   1.276  13.157  0.3848  0.1617 -0.2049
  902MPD2    C413267   0.704   1.278  13.292  0.2010  0.6447  0.2423
  902MPD2    C513268   0.634   1.370  13.362  0.3387  0.7874 -0.0239
  902MPD2     H13269   0.564   1.347  12.997  0.0952  2.6546 -0.0888
  902MPD2    H113270   0.772   1.209  13.340  1.5997  1.8981  0.0690
  902MPD2    H213271   0.475   1.520  13.369  0.6877  0.5077 -1.6020
  902MPD2    H313272   0.645   1.362  13.469 -0.7257 -0.2941  0.0137
  902MPD2     N13273   0.741   1.178  13.078  0.2750  0.5424 -0.1311
  902MPD2    H513274   0.721   1.191  12.979 -1.0469 -0.7173 -0.0274
  902MPD2    N113275   0.415   1.523  13.107  0.0598 -0.2179 -0.2230
  902MPD2    H713276   0.401   1.500  13.009  1.9888  1.3678 -0.8744
  903MPD2     C13277   0.694   1.414  12.566 -0.1077 -0.1430 -0.1638
  903MPD2    C113278   0.689   1.274  12.581 -0.1017  0.2530  0.9931
  903MPD2    C213279   0.585   1.204  12.522 -0.8260  0.8448 -0.2111
  903MPD2    C313280   0.493   1.269  12.437  0.4273 -0.3033  0.1222
  903MPD2    C413281   0.494   1.410  12.436  0.3269 -0.0198  0.0023
  903MPD2    C513282   0.595   1.480  12.499 -0.3977  0.6045  0.5826
  903MPD2     H13283   0.580   1.096  12.535  1.4595  0.8425  0.6228
  903MPD2    H113284   0.419   1.461  12.376 -2.3811 -0.7083  2.7883
  903MPD2    H213285   0.772   1.478  12.605 -0.5942  1.2243 -1.4687
  903MPD2    H313286   0.595   1.588  12.500 -1.0435  0.5945  1.5658
  903MPD2     N13287   0.386   1.185  12.378 -0.5328 -0.5077  0.1359
  903MPD2    H513288   0.374   1.094  12.422  0.4071 -0.6844  0.0327
  903MPD2    N113289   0.784   1.216  12.672  0.4101 -0.4093  0.0367
  903MPD2    H713290   0.843   1.284  12.719  0.9703 -0.1226 -1.0670
  904MPD2     C13291   0.660   0.440  13.827 -0.3710  0.0156  0.6601
  904MPD2    C113292   0.638   0.328  13.907 -0.5575 -0.2779  0.5822
  904MPD2    C213293   0.739   0.297  13.992  0.0760 -0.7037 -0.2257
  904MPD2    C313294   0.851   0.371  14.000 -0.1452 -0.3502  0.5121
  904MPD2    C413295   0.876   0.480  13.920 -0.0267  1.1007 -0.0717
  904MPD2    C513296   0.771   0.515  13.839 -0.2754 -0.1614 -0.2049
  904MPD2     H13297   0.728   0.206  14.049  4.0101  0.2460  2.0354
  904MPD2    H113298   0.971   0.533  13.920  2.0833 -2.6837 -1.8984
  904MPD2    H213299   0.586   0.476  13.757  1.1137 -2.4095 -2.1260
  904MPD2    H313300   0.791   0.596  13.769  1.2524 -1.7033 -1.5436
  904MPD2     N13301   0.945   0.317  14.084  0.2279 -0.4833  0.1002
  904MPD2    H513302   0.923   0.225  14.122  0.3915  0.1248  1.6727
  904MPD2    N113303   0.523   0.244  13.913 -0.5013 -0.0315 -0.2774
  904MPD2    H713304   0.543   0.165  13.973  0.3831  0.9554  0.7382
  905MPD2     C13305   0.488   0.445  13.286 -0.1221 -0.2169 -0.6142
  905MPD2    C113306   0.512   0.530  13.391  0.0058  0.7008 -0.6130
  905MPD2    C213307   0.645   0.568  13.414 -0.6366 -0.0373 -0.3953
  905MPD2    C313308   0.746   0.524  13.333  0.4360 -0.1319 -0.3090
  905MPD2    C413309   0.715   0.454  13.220 -0.0115  0.3743 -0.1968
  905MPD2    C513310   0.588   0.410  13.198  0.1176  0.0046 -0.4846
  905MPD2     H13311   0.663   0.634  13.499  1.7123 -2.5743  1.0905
  905MPD2    H113312   0.786   0.415  13.148  0.6745  0.6692  0.3172
  905MPD2    H213313   0.395   0.392  13.270  0.3268 -0.8966 -0.9577
  905MPD2    H313314   0.567   0.336  13.122 -0.0560 -1.4531  0.9652
  905MPD2     N13315   0.883   0.563  13.353  0.0300  0.3938 -0.1784
  905MPD2    H513316   0.949   0.514  13.294  1.2559 -0.4791  1.9060
  905MPD2    N113317   0.405   0.552  13.480  0.0224 -0.2926 -0.5482
  905MPD2    H713318   0.324   0.493  13.462 -1.2146  0.7512  1.6911
  906MPD2     C13319   2.706   0.531  11.004 -0.6398 -0.2217 -0.3563
  906MPD2    C113320   2.626   0.454  10.919  0.1662 -0.1818  0.3635
  906MPD2    C213321   2.502   0.409  10.960 -0.2568 -0.6908 -0.3513
  906MPD2    C313322   2.462   0.446  11.089  0.5455  0.5672 -0.2561
  906MPD2    C413323   2.528   0.535  11.169  0.3178  0.2449 -0.0917
  906MPD2    C513324   2.647   0.573  11.121 -0.3778  0.0350  0.4793
  906MPD2     H13325   2.444   0.338  10.902 -0.4596 -0.3757 -0.5335
  906MPD2    H113326   2.489   0.571  11.264 -2.1371 -1.3833 -0.5020
  906MPD2    H213327   2.796   0.580  10.967 -0.1185  0.5401  1.9356
  906MPD2    H313328   2.702   0.646  11.180  1.5354 -1.8102  0.9947
  906MPD2     N13329   2.340   0.395  11.141  0.5036 -0.2034 -0.3904
  906MPD2    H513330   2.327   0.398  11.242 -1.2968 -0.6345 -0.6219
  906MPD2    N113331   2.662   0.429  10.786  0.2117  0.6061 -0.3867
  906MPD2    H713332   2.595   0.379  10.728 -0.0985 -0.0086  0.5061
  907MPD2     C13333   2.371   3.977  15.757 -0.6403  0.7779  0.6724
  907MPD2    C113334   2.273   3.884  15.722  0.5566  0.2470  0.1910
  907MPD2    C213335   2.272   3.763  15.784  0.0046  0.1346  0.4678
  907MPD2    C313336   2.372   3.728  15.873 -0.0157 -0.3468 -0.1611
  907MPD2    C413337   2.467   3.824  15.912  0.3852 -0.7141 -0.3736
  907MPD2    C513338   2.465   3.944  15.852 -0.4317  0.1250  0.1173
  907MPD2     H13339   2.203   3.690  15.742  0.4793 -1.2012  2.0112
  907MPD2    H113340   2.546   3.807  15.985 -0.4956  0.7290  0.9232
  907MPD2    H213341   2.367   4.080  15.723  0.4002  0.3758 -0.6717
  907MPD2    H313342   2.538   4.018  15.881 -0.3038  0.1328 -0.2279
  907MPD2     N13343   2.383   3.596  15.928  0.1777  0.3742 -0.8176
  907MPD2    H513344   2.327   3.527  15.879 -0.2351 -0.6541  1.1015
  907MPD2    N113345   2.170   3.912  15.625  0.3440 -0.4979  0.6413
  907MPD2    H713346   2.103   3.837  15.610  1.9642 -1.8946  0.4759
  908MPD2     C13347   3.879   4.082   9.582 -0.4692  0.4613  0.9764
  908MPD2    C113348   3.967   4.037   9.674  0.4901 -0.8716 -0.1731
  908MPD2    C213349   4.024   4.134   9.756 -0.0466 -0.7075 -0.1241
  908MPD2    C313350   3.993   4.268   9.755  0.2369 -0.4120 -0.2448
  908MPD2    C413351   3.901   4.312   9.657 -0.2579  0.3034 -0.0219
  908MPD2    C513352   3.855   4.218   9.572 -0.1872  0.1833 -0.7875
  908MPD2     H13353   4.096   4.102   9.831 -1.4172 -1.2193  0.9827
  908MPD2    H113354   3.877   4.417   9.643 -0.1164  0.2489 -0.6587
  908MPD2    H213355   3.827   4.014   9.516 -0.0231 -0.0278  1.1326
  908MPD2    H313356   3.789   4.250   9.492 -1.4781  0.6654  0.4779
  908MPD2     N13357   4.046   4.360   9.848 -0.1664  0.1051 -0.0083
  908MPD2    H513358   4.096   4.320   9.927  2.1124  1.9211 -0.5249
  908MPD2    N113359   3.977   3.893   9.693 -0.1654 -0.5158  0.0316
  908MPD2    H713360   3.923   3.834   9.629 -0.6861 -1.2369  1.1373
  909MPD2     C13361   4.466   2.853  11.784 -0.0917 -0.4463 -0.2236
  909MPD2    C113362   4.373   2.909  11.698 -0.4264  0.0651  0.8100
  909MPD2    C213363   4.299   3.020  11.738 -0.2041  0.1010 -0.1497
  909MPD2    C313364   4.317   3.075  11.864  0.1954 -0.2922 -0.4772
  909MPD2    C413365   4.405   3.012  11.951  0.4405 -0.7070  0.1220
  909MPD2    C513366   4.481   2.908  11.909 -0.4076 -0.8674 -0.4084
  909MPD2     H13367   4.222   3.064  11.675  0.4201 -1.6399 -2.1216
  909MPD2    H113368   4.430   3.052  12.049  2.2946 -0.1525 -0.5805
  909MPD2    H213369   4.537   2.776  11.758  0.1750 -0.1432 -0.4007
  909MPD2    H313370   4.560   2.856  11.962  3.4615  3.5637 -1.8200
  909MPD2     N13371   4.251   3.192  11.891  0.1485 -0.2866  0.0522
  909MPD2    H513372   4.210   3.247  11.816 -0.3431  0.2178  0.6954
  909MPD2    N113373   4.349   2.863  11.567 -0.2166  0.1450  0.2321
  909MPD2    H713374   4.304   2.929  11.505 -1.9339 -0.6375  0.6369
  910MPD2     C13375   1.028   0.254  16.210  0.5506  0.5937  0.0732
  910MPD2    C113376   1.045   0.137  16.139 -0.1760  0.5287 -0.6377
  910MPD2    C213377   0.997   0.123  16.011 -0.1790 -0.1454 -0.3001
  910MPD2    C313378   0.926   0.227  15.951  0.8908 -0.3417  0.2326
  910MPD2    C413379   0.899   0.339  16.025 -0.7482 -0.1535  0.0829
  910MPD2    C513380   0.960   0.353  16.147 -0.0671 -0.2837 -0.1470
  910MPD2     H13381   1.024   0.033  15.957 -0.1465 -0.6492  0.5682
  910MPD2    H113382   0.835   0.417  15.985 -0.6621  0.0930  0.4277
  910MPD2    H213383   1.065   0.269  16.311  0.2424 -0.5918  0.3583
  910MPD2    H313384   0.943   0.444  16.203  0.2993  1.2185 -2.4952
  910MPD2     N13385   0.887   0.234  15.820  0.0005  0.4714  0.1899
  910MPD2    H513386   0.828   0.312  15.795 -0.4797 -0.5373 -1.8672
  910MPD2    N113387   1.108   0.022  16.189 -0.1112  0.0432 -0.5239
  910MPD2    H713388   1.103   4.673  16.138 -2.1088  0.2367 -0.6656
  911MPD2     C13389   3.632   1.130  16.686  0.1547  0.6584  0.5809
  911MPD2    C113390   3.655   1.023  16.598  0.0933  0.1853 -0.3811
  911MPD2    C213391   3.588   1.021  16.477  0.5696 -1.0429 -0.0624
  911MPD2    C313392   3.511   1.128  16.432  0.7770 -1.0734  0.3950
  911MPD2    C413393   3.485   1.233  16.519  0.7327  0.9828 -0.1784
  911MPD2    C513394   3.538   1.225  16.647  0.0365  0.1211 -0.3913
  911MPD2     H13395   3.612   0.942  16.407  0.9575  1.3140 -2.5691
  911MPD2    H113396   3.431   1.325  16.501 -0.1485  0.1734 -1.6773
  911MPD2    H213397   3.677   1.139  16.784  1.8630  0.1432 -0.1573
  911MPD2    H313398   3.507   1.295  16.724 -0.9278 -0.0631 -0.6076
  911MPD2     N13399   3.468   1.136  16.295 -0.0375 -0.5987 -0.8214
  911MPD2    H513400   3.517   1.075  16.231 -0.4127 -0.7245 -0.9911
  911MPD2    N113401   3.749   0.922  16.641 -0.5228  0.3601  0.7917
  911MPD2    H713402   3.797   0.941  16.729 -0.2018  1.3427  0.4021
  912MPD2     C13403   2.808   0.941  16.097 -0.3652 -0.2016  0.0328
  912MPD2    C113404   2.934   0.884  16.072 -0.2447  0.7431  0.4399
  912MPD2    C213405   2.977   0.754  16.114 -0.0513 -0.4598  0.4369
  912MPD2    C313406   2.879   0.679  16.184  0.9914 -0.1104 -0.2083
  912MPD2    C413407   2.748   0.730  16.187 -0.9999  0.1133 -0.1589
  912MPD2    C513408   2.712   0.856  16.135  0.0288  0.1007 -0.2987
  912MPD2     H13409   3.076   0.717  16.090  0.2528  0.6353 -0.0120
  912MPD2    H113410   2.674   0.669  16.238  0.2113 -0.8221  0.4991
  912MPD2    H213411   2.777   1.039  16.062 -1.1835 -0.1820  0.8237
  912MPD2    H313412   2.610   0.892  16.129  0.1813  0.5144 -0.4163
  912MPD2     N13413   2.923   0.563  16.246  0.4613 -0.3160 -0.1924
  912MPD2    H513414   3.019   0.538  16.226  0.8573  0.1369  1.1277
  912MPD2    N113415   3.031   0.978  16.035  0.3172  0.6813  0.2597
  912MPD2    H713416   3.004   1.076  16.037  0.7083  0.7763  0.9087
  913MPD2     C13417   3.284   2.153  10.114  0.1997 -0.3609 -0.0216
  913MPD2    C113418   3.375   2.101  10.028 -0.0552  0.4032  0.1484
  913MPD2    C213419   3.406   2.164   9.907  0.2767  0.4803 -0.0324
  913MPD2    C313420   3.322   2.260   9.858 -0.2421 -1.0335 -0.0941
  913MPD2    C413421   3.214   2.300   9.940  0.2354 -0.2490 -1.0838
  913MPD2    C513422   3.196   2.254  10.071 -0.3454  0.5248 -0.3372
  913MPD2     H13423   3.480   2.127   9.838  1.4771  1.2328  0.8420
  913MPD2    H113424   3.134   2.363   9.904 -0.1610  1.0232  2.0432
  913MPD2    H213425   3.258   2.110  10.210 -2.1580  0.0178 -0.4782
  913MPD2    H313426   3.116   2.300  10.128  1.1285  1.1450  1.2500
  913MPD2     N13427   3.338   2.319   9.729 -0.1795 -0.1098  0.5299
  913MPD2    H513428   3.255   2.370   9.702 -0.5498 -1.3315 -0.6413
  913MPD2    N113429   3.443   1.986  10.075  0.2658 -0.0884  0.3398
  913MPD2    H713430   3.429   1.978  10.175  2.8585  0.1755  0.7316
  914MPD2     C13431   1.845   1.781  12.580 -0.2048 -0.3474 -0.2522
  914MPD2    C113432   1.893   1.897  12.634  0.4542 -0.3210  0.1427
  914MPD2    C213433   1.974   1.889  12.745 -0.6317  0.1053  0.1667
  914MPD2    C313434   2.022   1.772  12.798 -0.3473  0.1417 -0.0300
  914MPD2    C413435   1.988   1.656  12.732  0.4234 -1.0477  0.1229
  914MPD2    C513436   1.899   1.658  12.629  0.3787  0.3210  0.0076
  914MPD2     H13437   1.997   1.979  12.802  0.3871  1.7040 -2.7764
  914MPD2    H113438   2.018   1.555  12.758 -3.5961 -2.0859  0.6482
  914MPD2    H213439   1.769   1.776  12.503 -0.0025  1.4380 -0.5548
  914MPD2    H313440   1.879   1.563  12.581 -0.4756  0.5175 -0.0335
  914MPD2     N13441   2.098   1.778  12.920  0.2310  0.0122 -0.7339
  914MPD2    H513442   2.108   1.874  12.952  3.8288 -1.2144  1.8211
  914MPD2    N113443   1.832   2.019  12.592  0.2813  0.2476 -0.3391
  914MPD2    H713444   1.754   2.016  12.527 -0.3992 -1.1571  0.5432
  915MPD2     C13445   4.536   2.113  15.056  0.1539  0.6223  0.1909
  915MPD2    C113446   4.528   2.018  15.156  0.3378  0.1791  0.2988
  915MPD2    C213447   4.536   2.072  15.284 -0.1739 -0.2811 -0.4633
  915MPD2    C313448   4.552   2.206  15.326  0.0503  0.0701  0.1347
  915MPD2    C413449   4.556   2.293  15.214 -0.6804 -0.3930  0.0209
  915MPD2    C513450   4.554   2.245  15.088 -0.5194 -0.2465 -0.1344
  915MPD2     H13451   4.514   2.001  15.363  0.2992 -1.3694 -1.3092
  915MPD2    H113452   4.557   2.401  15.229  0.1971 -0.8714  3.3925
  915MPD2    H213453   4.513   2.082  14.954  0.2658  1.6355 -0.1401
  915MPD2    H313454   4.560   2.318  15.008 -3.0098  0.1782  0.0872
  915MPD2     N13455   4.538   2.250  15.465 -0.4076  0.7263  0.0940
  915MPD2    H513456   4.516   2.348  15.480 -1.6258  0.4664  0.0174
  915MPD2    N113457   4.493   1.885  15.128 -0.0175 -0.6404 -0.2602
  915MPD2    H713458   4.481   1.862  15.029 -0.2323 -1.3199 -0.0791
  916MPD2     C13459   2.948   0.276  15.918 -0.5261  0.0038 -0.6626
  916MPD2    C113460   2.928   0.162  15.988  0.0449  0.2002 -0.1991
  916MPD2    C213461   2.993   0.047  15.953  0.4000 -0.2912 -0.1783
  916MPD2    C313462   3.085   0.047  15.851 -0.5534 -0.7420 -0.3646
  916MPD2    C413463   3.108   0.168  15.790  0.0140 -0.3374  0.5629
  916MPD2    C513464   3.038   0.285  15.825  0.8331 -0.1383 -0.3936
  916MPD2     H13465   2.971   4.689  15.999  1.2227 -0.4336 -0.0739
  916MPD2    H113466   3.175   0.178  15.706 -0.9395 -3.1140 -0.5325
  916MPD2    H213467   2.900   0.373  15.929  1.0594  0.8193 -1.0343
  916MPD2    H313468   3.053   0.375  15.766  0.0603  1.3364  1.6507
  916MPD2     N13469   3.153   4.665  15.813 -0.7532  0.5955  0.1509
  916MPD2    H513470   3.132   4.587  15.875  1.7560  1.4309  2.0325
  916MPD2    N113471   2.821   0.165  16.086 -0.9218 -0.5724 -0.2656
  916MPD2    H713472   2.757   0.243  16.080  0.9613  0.8918 -1.4074
  917MPD2     C13473   3.050   2.526  11.232 -0.5569 -0.0558  0.2686
  917MPD2    C113474   3.099   2.587  11.343  0.5779  0.6577  0.0795
  917MPD2    C213475   3.198   2.677  11.328 -0.0126  0.0904 -0.4159
  917MPD2    C313476   3.241   2.712  11.203 -0.8317 -0.4435 -0.4738
  917MPD2    C413477   3.192   2.653  11.090 -0.7382 -0.5079  0.2460
  917MPD2    C513478   3.096   2.559  11.108  0.4240  1.0123 -0.6635
  917MPD2     H13479   3.246   2.719  11.416 -1.9088 -1.7590  1.5189
  917MPD2    H113480   3.235   2.678  10.994 -1.7608  0.5967  0.0701
  917MPD2    H213481   2.976   2.446  11.238  0.1571 -0.6890  0.6854
  917MPD2    H313482   3.060   2.496  11.027 -1.3660 -1.3177  1.9803
  917MPD2     N13483   3.326   2.821  11.180 -0.3735 -0.1934  0.4200
  917MPD2    H513484   3.355   2.842  11.085  2.6420 -2.9085  0.7540
  917MPD2    N113485   3.045   2.548  11.468 -0.3070  0.0954  0.3429
  917MPD2    H713486   2.971   2.479  11.459 -1.2218  1.3348 -1.6750
  918MPD2     C13487   3.017   2.992  12.376  0.5582 -0.1333  0.2891
  918MPD2    C113488   3.035   3.034  12.243  0.2505  0.1476 -0.4875
  918MPD2    C213489   3.000   2.947  12.140 -0.2067  0.4723 -0.4997
  918MPD2    C313490   2.966   2.817  12.164  0.1942  0.3110 -0.4412
  918MPD2    C413491   2.942   2.780  12.297 -0.0495  1.2929  0.4990
  918MPD2    C513492   2.969   2.867  12.401  0.4362 -0.3973  0.0924
  918MPD2     H13493   3.022   2.978  12.038  0.0685  0.9112 -0.3093
  918MPD2    H113494   2.908   2.679  12.316  1.6959  0.8110  1.0136
  918MPD2    H213495   3.050   3.055  12.458  1.2012 -0.3276  0.1771
  918MPD2    H313496   2.953   2.827  12.500 -0.0659  2.3860  1.1297
  918MPD2     N13497   2.950   2.732  12.053  0.1061  0.6418  0.0983
  918MPD2    H513498   2.962   2.777  11.963  2.8536  0.4127  0.3368
  918MPD2    N113499   3.094   3.159  12.222  0.3378  0.4199 -0.0457
  918MPD2    H713500   3.110   3.204  12.311 -0.3889 -1.7224  1.1736
  919MPD2     C13501   3.675   1.529  11.336  0.6229  0.0465  0.0809
  919MPD2    C113502   3.627   1.412  11.291  0.2085  1.1162  0.0677
  919MPD2    C213503   3.585   1.392  11.159  0.2099  0.1685  0.8039
  919MPD2    C313504   3.600   1.490  11.064 -0.2666  0.6705 -0.0096
  919MPD2    C413505   3.660   1.607  11.105 -0.5075 -0.5626  0.0566
  919MPD2    C513506   3.696   1.622  11.234  0.3864 -0.0874 -0.2065
  919MPD2     H13507   3.531   1.303  11.132 -1.5664  2.1090 -2.0113
  919MPD2    H113508   3.674   1.689  11.035  0.8749 -2.1703 -1.5565
  919MPD2    H213509   3.710   1.527  11.439 -0.0288 -1.3525  0.2714
  919MPD2    H313510   3.766   1.702  11.255 -0.9339  0.9304  0.3275
  919MPD2     N13511   3.550   1.486  10.931 -0.1284  0.2727  0.5697
  919MPD2    H513512   3.545   1.578  10.888  1.6826 -0.2410 -0.7431
  919MPD2    N113513   3.613   1.297  11.373  0.2972 -0.5754  0.1343
  919MPD2    H713514   3.566   1.220  11.327 -0.5028 -0.2558  0.4112
  920MPD2     C13515   2.759   1.806  10.446 -0.5965 -0.1192 -0.2190
  920MPD2    C113516   2.733   1.684  10.503 -0.4935 -0.0936 -0.1287
  920MPD2    C213517   2.842   1.610  10.540 -0.3653 -0.1856 -0.0323
  920MPD2    C313518   2.975   1.660  10.528  0.4572  0.1316 -0.3508
  920MPD2    C413519   2.994   1.786  10.481 -0.1798  0.2433  0.3609
  920MPD2    C513520   2.886   1.861  10.429 -0.3626  0.2266  0.5326
  920MPD2     H13521   2.834   1.505  10.564 -1.3376  0.0369  0.6454
  920MPD2    H113522   3.092   1.829  10.469 -0.3438  0.4407 -0.2479
  920MPD2    H213523   2.678   1.871  10.416  0.6071  1.7924  0.6410
  920MPD2    H313524   2.897   1.962  10.391 -0.4657 -0.7275 -2.0813
  920MPD2     N13525   3.085   1.575  10.560 -0.5872 -0.0940  0.0023
  920MPD2    H513526   3.064   1.476  10.574  0.0369 -0.1150  0.8479
  920MPD2    N113527   2.599   1.642  10.520  0.2305  0.1781 -0.0824
  920MPD2    H713528   2.585   1.549  10.559 -0.1581  0.4045  0.3296
  921MPD2     C13529   4.666   0.819  16.905  0.1843 -0.6288  0.2284
  921MPD2    C113530   4.650   0.738  16.791  0.5505  0.2154 -0.4162
  921MPD2    C213531   4.528   0.694  16.761  0.8629 -0.0162 -0.0130
  921MPD2    C313532   4.420   0.715  16.839  0.8903  0.6069  0.1856
  921MPD2    C413533   4.439   0.786  16.957  0.3654  0.7341  0.1842
  921MPD2    C513534   4.558   0.837  16.986 -0.4809 -0.4883  0.0182
  921MPD2     H13535   4.517   0.626  16.677 -1.7778  0.3820 -0.0155
  921MPD2    H113536   4.363   0.805  17.032 -1.0602  2.0681 -1.5921
  921MPD2    H213537   0.018   0.871  16.937  1.3628 -2.2265 -0.4584
  921MPD2    H313538   4.560   0.902  17.073 -2.9617 -0.0338 -0.2638
  921MPD2     N13539   4.297   0.676  16.786 -0.1437 -0.6356  0.1268
  921MPD2    H513540   4.298   0.609  16.710 -1.9211  0.1766 -0.6287
  921MPD2    N113541   0.038   0.720  16.723 -0.2888 -0.4034 -0.0344
  921MPD2    H713542   0.120   0.771  16.754 -0.7054  0.5467 -0.5293
  922MPD2     C13543   0.433   3.313  17.279 -0.0448  0.2752  0.9246
  922MPD2    C113544   0.315   3.385  17.308 -0.4604  0.7581 -0.2843
  922MPD2    C213545   0.190   3.343  17.266 -0.2707 -0.6795 -0.9544
  922MPD2    C313546   0.174   3.216  17.227  0.2584  0.5752 -0.5329
  922MPD2    C413547   0.284   3.134  17.203  0.0441 -0.3476  0.2969
  922MPD2    C513548   0.412   3.185  17.225 -0.0907  0.3411  0.0620
  922MPD2     H13549   0.107   3.412  17.281  0.9550  0.2627  1.5376
  922MPD2    H113550   0.265   3.040  17.152  0.4418  0.5879 -1.5646
  922MPD2    H213551   0.537   3.345  17.284  0.7431 -1.9325 -0.7318
  922MPD2    H313552   0.499   3.125  17.202 -2.0351 -2.6822  0.6324
  922MPD2     N13553   0.041   3.171  17.203 -0.3556 -0.9092  0.1453
  922MPD2    H513554   4.712   3.247  17.213  3.2324  2.4472 -1.2994
  922MPD2    N113555   0.334   3.510  17.367 -0.0709 -0.2254  0.1635
  922MPD2    H713556   0.246   3.543  17.406  0.6182  1.6381  0.1417
  923MPD2     C13557   1.187   0.858   8.876 -0.2358 -0.0860  0.1509
  923MPD2    C113558   1.176   0.798   8.995  0.5251  0.1583  0.0918
  923MPD2    C213559   1.282   0.726   9.052 -0.8964  0.2890  0.3771
  923MPD2    C313560   1.390   0.702   8.968 -0.6345  0.1384  0.6469
  923MPD2    C413561   1.401   0.763   8.847  0.2926  0.4993 -0.1085
  923MPD2    C513562   1.301   0.850   8.807 -0.0654  0.0688 -0.4166
  923MPD2     H13563   1.285   0.697   9.156  2.5990 -0.1829  0.1454
  923MPD2    H113564   1.490   0.748   8.786  0.4658  1.2130 -0.0383
  923MPD2    H213565   1.108   0.918   8.831  0.5692  2.0313  1.5904
  923MPD2    H313566   1.313   0.893   8.708 -0.6199  0.6527 -0.2295
  923MPD2     N13567   1.502   0.622   9.007 -0.3013 -0.4425 -0.1753
  923MPD2    H513568   1.585   0.623   8.948  0.2046  1.4481  0.5532
  923MPD2    N113569   1.063   0.837   9.075 -0.1171  0.4664 -0.2420
  923MPD2    H713570   1.004   0.911   9.036  2.7569  2.5029 -0.7446
  924MPD2     C13571   1.718   3.034  16.050 -0.4961 -0.3004 -0.3669
  924MPD2    C113572   1.755   3.107  16.166 -0.2324  0.5321  0.1272
  924MPD2    C213573   1.887   3.125  16.188  0.4438  0.0839  0.3410
  924MPD2    C313574   1.982   3.089  16.087 -0.2592 -0.4762  0.2261
  924MPD2    C413575   1.945   3.025  15.975 -0.5948  0.1879  0.0868
  924MPD2    C513576   1.812   2.991  15.955  0.0848 -0.3674  0.1850
  924MPD2     H13577   1.918   3.181  16.276 -0.1706  1.5991 -0.4049
  924MPD2    H113578   2.004   3.003  15.887  1.6832 -0.7611  1.8604
  924MPD2    H213579   1.614   3.014  16.028 -0.5136  1.5336 -1.9629
  924MPD2    H313580   1.787   2.937  15.865 -0.4294 -1.3086  0.8849
  924MPD2     N13581   2.112   3.139  16.102 -0.4489  0.0362  0.1204
  924MPD2    H513582   2.132   3.173  16.195  0.2548  0.5628 -0.2252
  924MPD2    N113583   1.654   3.156  16.248  0.2938  0.0756 -0.1676
  924MPD2    H713584   1.560   3.144  16.211  0.4319  1.4028 -0.9222
  925MPD2     C13585   0.463   1.594  14.777  0.5258  0.4776  0.0021
  925MPD2    C113586   0.342   1.577  14.718  0.0708  0.5878  0.8521
  925MPD2    C213587   0.240   1.542  14.794  0.0327  0.4955  0.4303
  925MPD2    C313588   0.255   1.497  14.922  0.2132 -0.2875  0.0670
  925MPD2    C413589   0.372   1.522  14.991  0.2065 -0.0044  0.7845
  925MPD2    C513590   0.478   1.573  14.912  0.4365  0.3735 -0.3985
  925MPD2     H13591   0.145   1.527  14.744  0.7058 -1.2228 -0.3113
  925MPD2    H113592   0.397   1.482  15.088  2.7324  0.2421  0.2299
  925MPD2    H213593   0.549   1.633  14.725  1.6572 -0.6235  1.0619
  925MPD2    H313594   0.575   1.599  14.954  0.0885  0.5991  0.2679
  925MPD2     N13595   0.160   1.409  14.972 -0.2932 -0.7596 -0.3175
  925MPD2    H513596   0.190   1.357  15.053  0.2020  0.6060  0.3696
  925MPD2    N113597   0.327   1.609  14.581  0.2883  0.1902  0.2158
  925MPD2    H713598   0.230   1.622  14.554  0.8075  2.3899 -0.5824
  926MPD2     C13599   4.206   4.543  13.625  0.4578 -0.2488 -0.5571
  926MPD2    C113600   4.116   4.622  13.562 -0.7009  0.9262  0.1885
  926MPD2    C213601   4.163   4.703  13.466 -0.4677 -0.0159 -0.6945
  926MPD2    C313602   4.303   4.716  13.437 -0.4170 -0.1286 -0.5447
  926MPD2    C413603   4.390   4.635  13.503  0.3947 -0.2931  0.2870
  926MPD2    C513604   4.343   4.557  13.611 -0.3783 -0.0947  0.3160
  926MPD2     H13605   4.091   0.028  13.416  1.8099  3.2469  0.1346
  926MPD2    H113606   4.497   4.629  13.485  0.2797  0.2710 -0.5990
  926MPD2    H213607   4.175   4.462  13.691  0.0081  0.8746  0.6056
  926MPD2    H313608   4.405   4.487  13.666 -1.0010 -0.1234  0.9870
  926MPD2     N13609   4.350   0.060  13.330  0.2818 -0.0268  0.0335
  926MPD2    H513610   4.434   0.033  13.280  0.2807  0.9845 -0.5197
  926MPD2    N113611   3.974   4.619  13.576  0.8061 -0.1358  0.2320
  926MPD2    H713612   3.916   4.675  13.514  0.1044 -0.3814  0.6655
  927MPD2     C13613   3.340   1.838  17.748  0.4360 -0.2252  0.2227
  927MPD2    C113614   3.443   1.748   0.010  0.6524 -0.4597 -0.1892
  927MPD2    C213615   3.562   1.790  17.695 -0.0462  0.3671  0.2436
  927MPD2    C313616   3.567   1.893  17.605  0.3590 -0.5446  0.9065
  927MPD2    C413617   3.454   1.968  17.595 -0.5105 -0.3198  0.0293
  927MPD2    C513618   3.346   1.949  17.672 -0.1256  0.1595  0.4273
  927MPD2     H13619   3.652   1.735  17.721 -1.0893 -0.4521  2.1240
  927MPD2    H113620   3.447   2.047  17.521 -1.0651 -1.2325 -0.9092
  927MPD2    H213621   3.244   1.827   0.047  0.6458 -1.0356  0.4511
  927MPD2    H313622   3.261   2.016  17.671 -0.5696 -0.4656 -2.1442
  927MPD2     N13623   3.684   1.922  17.529 -0.1327 -0.5096 -0.2288
  927MPD2    H513624   3.685   2.017  17.493  1.2298 -1.0352 -1.5839
  927MPD2    N113625   3.435   1.629   0.089 -0.1075  0.3018  0.9628
  927MPD2    H713626   3.356   1.624   0.152 -0.6339 -1.4718  0.1558
  928MPD2     C13627   2.125   4.224   0.650  0.7739  0.4714  0.9587
  928MPD2    C113628   2.095   4.348   0.693  0.3077 -0.2528  0.2141
  928MPD2    C213629   2.154   4.457   0.627 -0.6072  0.2369  0.9802
  928MPD2    C313630   2.231   4.431   0.511  0.3235  0.1568  0.0407
  928MPD2    C413631   2.264   4.304   0.475  0.2220  0.2101  0.2489
  928MPD2    C513632   2.209   4.203   0.547  0.0502  0.6033 -0.2776
  928MPD2     H13633   2.132   4.560   0.652 -1.1831  0.3919 -0.1956
  928MPD2    H113634   2.327   4.283   0.390  0.3873 -0.0043  0.4217
  928MPD2    H213635   2.087   4.131   0.692  2.2674 -0.4653  0.2680
  928MPD2    H313636   2.232   4.098   0.530 -2.3771  0.7850 -4.4457
  928MPD2     N13637   2.307   4.528   0.438 -0.6156  0.1364  0.0999
  928MPD2    H513638   2.345   4.498   0.348 -2.2502 -1.8940  0.0665
  928MPD2    N113639   1.990   4.363   0.789  0.8304  0.7181 -0.6270
  928MPD2    H713640   1.943   4.280   0.823  1.9554  1.4247  2.6505
  929MPD2     C13641   1.863   0.406  10.658  0.4978 -0.2970  0.0648
  929MPD2    C113642   1.758   0.364  10.581 -0.2374  0.4836  0.5169
  929MPD2    C213643   1.726   0.430  10.462  0.5214 -0.7503 -0.5730
  929MPD2    C313644   1.803   0.537  10.418  0.1653  0.1314  0.0584
  929MPD2    C413645   1.905   0.577  10.496  0.6465  0.5021  1.0334
  929MPD2    C513646   1.946   0.499  10.607  0.3923 -0.5683  0.3893
  929MPD2     H13647   1.651   0.384  10.398  1.7813 -0.4973 -2.2229
  929MPD2    H113648   1.963   0.663  10.466 -0.3791  0.5354 -0.9065
  929MPD2    H213649   1.895   0.354  10.747  2.4125 -0.3510 -0.6470
  929MPD2    H313650   2.037   0.529  10.658  1.0332 -0.1008 -1.0097
  929MPD2     N13651   1.775   0.606  10.301  0.2944  0.4924  0.6376
  929MPD2    H513652   1.845   0.662  10.252  0.6658  0.2389  0.8734
  929MPD2    N113653   1.675   0.261  10.628 -0.2041 -0.0363 -0.3196
  929MPD2    H713654   1.686   0.229  10.723 -1.2035 -1.1834 -0.5955
  930MPD2     C13655   3.284   2.914  14.026 -0.6817  0.1828  0.1967
  930MPD2    C113656   3.404   2.847  14.012 -0.3593 -0.0962 -0.5183
  930MPD2    C213657   3.413   2.727  13.949  0.1227  0.7475 -0.3586
  930MPD2    C313658   3.302   2.677  13.882  0.6208 -0.0532  0.5632
  930MPD2    C413659   3.177   2.729  13.911  0.0316 -0.3639 -0.4116
  930MPD2    C513660   3.173   2.855  13.978  0.1235  0.5039 -0.2666
  930MPD2     H13661   3.502   2.668  13.931 -0.6716 -0.5493 -0.0530
  930MPD2    H113662   3.088   2.695  13.862 -0.9348 -2.5893  2.8897
  930MPD2    H213663   3.273   3.017  14.057 -1.3189 -0.1519  1.0819
  930MPD2    H313664   3.079   2.908  13.969  1.1747  2.1563 -1.5088
  930MPD2     N13665   3.314   2.573  13.778  0.2233  0.3277  0.4656
  930MPD2    H513666   3.238   2.571  13.711 -0.9085  2.0781  1.7031
  930MPD2    N113667   3.515   2.920  14.067  0.0218  0.3379  0.8617
  930MPD2    H713668   3.497   3.009  14.111 -1.1722 -0.2110  1.5080
  931MPD2     C13669   3.785   0.858   0.243  0.0423  0.3560 -0.1905
  931MPD2    C113670   3.772   0.979   0.308  0.1820  0.0426  0.6520
  931MPD2    C213671   3.857   1.013   0.411  0.6652 -0.2651  0.3557
  931MPD2    C313672   3.961   0.928   0.445 -0.8434 -0.5221  0.0867
  931MPD2    C413673   3.973   0.807   0.378  0.1357  0.1129 -0.4418
  931MPD2    C513674   3.884   0.771   0.282 -0.1467  0.7555 -0.5496
  931MPD2     H13675   3.859   1.113   0.450  1.1441 -0.0906 -0.1132
  931MPD2    H113676   4.054   0.740   0.404 -0.3505 -0.3959 -0.2493
  931MPD2    H213677   3.712   0.831   0.168 -0.5060 -1.3652  0.9554
  931MPD2    H313678   3.901   0.679   0.227 -2.6298  0.6522 -1.1568
  931MPD2     N13679   4.051   0.956   0.546 -0.4629 -0.5321  0.1366
  931MPD2    H513680   4.134   0.899   0.558  0.4411  1.1468  1.8407
  931MPD2    N113681   3.682   1.074   0.276  0.2797 -0.2028 -0.0468
  931MPD2    H713682   3.694   1.162   0.325 -0.0615 -0.1288 -0.0929
  932MPD2     C13683   0.013   1.214  11.637  0.0468  0.0898 -0.1419
  932MPD2    C113684   0.138   1.236  11.691 -0.4174  0.0270 -0.2792
  932MPD2    C213685   0.186   1.137  11.778 -0.3876 -0.2367 -0.1885
  932MPD2    C313686   0.117   1.017  11.798 -0.0533 -0.8345 -0.0466
  932MPD2    C413687   4.727   0.995  11.735 -0.8275 -0.5527 -0.4856
  932MPD2    C513688   4.676   1.096  11.658  0.0270 -0.1337 -0.3072
  932MPD2     H13689   0.278   1.164  11.828 -0.4722  0.7817 -0.5795
  932MPD2    H113690   4.665   0.909  11.757 -0.8138 -0.0470  1.5268
  932MPD2    H213691   4.696   1.273  11.564  1.9470  0.6624 -1.1197
  932MPD2    H313692   4.574   1.081  11.624 -0.2744 -2.3135  1.5760
  932MPD2     N13693   0.164   0.909  11.875 -0.1592 -0.2926  0.2406
  932MPD2    H513694   0.115   0.820  11.871  1.0229 -0.9822  0.9058
  932MPD2    N113695   0.218   1.343  11.661 -0.0267 -0.2540 -0.7246
  932MPD2    H713696   0.300   1.356  11.720  0.0057 -0.9960 -0.6031
  933MPD2     C13697   1.378   0.022   1.393  0.1356  0.2199  0.4211
  933MPD2    C113698   1.479   0.053   1.309 -0.1421 -0.0069  0.3906
  933MPD2    C213699   1.485   0.180   1.264  0.1418  0.0450 -0.6814
  933MPD2    C313700   1.379   0.261   1.281  0.2242 -0.0619  0.6407
  933MPD2    C413701   1.282   0.237   1.374  0.0639  0.3105 -0.6552
  933MPD2    C513702   1.288   0.120   1.436  0.8730 -0.5574  0.4282
  933MPD2     H13703   1.575   0.221   1.220  1.6849 -2.6391  0.0201
  933MPD2    H113704   1.203   0.310   1.388  0.0844  0.4965 -1.4925
  933MPD2    H213705   1.381   4.660   1.436  0.7691  0.5303  1.0959
  933MPD2    H313706   1.205   0.098   1.503  1.6482  0.6484  1.7939
  933MPD2     N13707   1.390   0.387   1.214 -0.2492 -0.2183  0.3711
  933MPD2    H513708   1.475   0.409   1.163  0.2840 -2.0414  0.4929
  933MPD2    N113709   1.578   4.690   1.267  0.1017  0.2956  0.6354
  933MPD2    H713710   1.576   4.597   1.308  0.3985  0.3659  0.8065
  934MPD2     C13711   2.803   2.929   1.728 -0.0871  0.2504  0.2889
  934MPD2    C113712   2.870   2.865   1.624 -0.6627 -0.4837 -0.0923
  934MPD2    C213713   2.791   2.776   1.550  0.4247  0.2635 -0.1092
  934MPD2    C313714   2.658   2.753   1.574  0.8267  0.6390  0.5204
  934MPD2    C413715   2.593   2.836   1.669 -0.6717  0.1082 -0.0568
  934MPD2    C513716   2.669   2.914   1.753 -0.2855 -0.0387 -0.2228
  934MPD2     H13717   2.840   2.721   1.470  0.8541 -0.2220  0.4941
  934MPD2    H113718   2.492   2.811   1.699 -1.1181  0.7135 -1.0271
  934MPD2    H213719   2.855   2.988   1.802  1.4847 -1.0258  0.2114
  934MPD2    H313720   2.618   2.954   1.840 -1.6258 -1.4978 -0.3553
  934MPD2     N13721   2.584   2.650   1.508 -0.4115 -0.2222 -0.4290
  934MPD2    H513722   2.485   2.641   1.531 -0.5866 -1.1826 -1.5832
  934MPD2    N113723   2.997   2.890   1.586 -0.0028 -0.0693 -0.4035
  934MPD2    H713724   3.033   2.843   1.504  0.5509  1.2154 -0.9081
  935MPD2     C13725   2.755   1.678   1.297 -1.0309 -0.0793  0.3517
  935MPD2    C113726   2.638   1.709   1.224  0.3782  0.3458  0.4253
  935MPD2    C213727   2.586   1.840   1.225  0.0314  1.1843  0.2679
  935MPD2    C313728   2.637   1.930   1.314  0.4677 -0.5054  0.1855
  935MPD2    C413729   2.745   1.896   1.390  0.2407 -0.0649  0.5449
  935MPD2    C513730   2.806   1.769   1.384  0.3025  0.1482  0.1349
  935MPD2     H13731   2.490   1.859   1.178 -1.2598 -0.4827  2.2030
  935MPD2    H113732   2.783   1.973   1.457 -1.4521 -0.0907  1.5574
  935MPD2    H213733   2.812   1.586   1.294 -0.0166  0.5423  0.8709
  935MPD2    H313734   2.896   1.738   1.438 -0.1833 -0.6484  0.4901
  935MPD2     N13735   2.595   2.063   1.328 -0.4415  0.0087 -0.2716
  935MPD2    H513736   2.645   2.125   1.392 -1.3879  0.5580 -0.0631
  935MPD2    N113737   2.565   1.609   1.161 -0.6815  0.0838  0.2155
  935MPD2    H713738   2.473   1.639   1.131 -0.4879 -0.1970 -0.6355
  936MPD2     C13739   1.593   4.102  12.778  0.0505 -0.0536 -0.9810
  936MPD2    C113740   1.526   4.202  12.711  0.3211 -0.0110 -0.3669
  936MPD2    C213741   1.529   4.202  12.571 -0.5875  0.0087  0.6746
  936MPD2    C313742   1.595   4.114  12.504  0.8715 -0.3483 -0.1603
  936MPD2    C413743   1.658   4.010  12.568 -0.1722  0.6323  0.4896
  936MPD2    C513744   1.662   4.011  12.708  1.2042  0.0764 -0.4017
  936MPD2     H13745   1.481   4.283  12.517 -0.6037 -1.6754 -1.8529
  936MPD2    H113746   1.703   3.928  12.513 -3.2009  0.0111 -1.0516
  936MPD2    H213747   1.585   4.083  12.884 -1.8573 -0.1601 -1.1411
  936MPD2    H313748   1.716   3.931  12.757  0.9862  0.3850  0.3467
  936MPD2     N13749   1.571   4.124  12.364  0.0642 -0.0614 -0.5272
  936MPD2    H513750   1.509   4.197  12.332  0.3854 -0.1588 -1.3565
  936MPD2    N113751   1.435   4.292  12.770 -0.1203  0.0350  0.5206
  936MPD2    H713752   1.371   4.342  12.709  1.7121 -0.9203 -2.1500
  937MPD2     C13753   3.771   0.629  11.261 -0.1665 -0.5535 -0.1685
  937MPD2    C113754   3.761   0.762  11.240  0.3023 -0.4458  0.3149
  937MPD2    C213755   3.792   0.807  11.111  0.1881  1.0641 -0.2585
  937MPD2    C313756   3.865   0.733  11.026 -0.3134  0.1770  0.1031
  937MPD2    C413757   3.887   0.602  11.055  0.3022  0.3298 -0.8515
  937MPD2    C513758   3.830   0.551  11.166 -0.3378 -0.0531  0.5986
  937MPD2     H13759   3.773   0.912  11.095 -2.2591  0.6958  0.2464
  937MPD2    H113760   3.934   0.533  10.985 -0.0424 -0.3346 -0.4200
  937MPD2    H213761   3.727   0.571  11.342  1.5740 -0.8032  0.6068
  937MPD2    H313762   3.832   0.445  11.185  1.2665  0.5337  3.7710
  937MPD2     N13763   3.922   0.793  10.916  0.2101 -0.1208  0.0648
  937MPD2    H513764   3.907   0.893  10.913 -1.9371 -0.3733  2.2943
  937MPD2    N113765   3.691   0.839  11.330 -0.1940 -0.0143 -0.2208
  937MPD2    H713766   3.680   0.938  11.309  2.1445  0.6371  1.5585
  938MPD2     C13767   2.028   2.188   0.424  0.7400  0.6659  0.4513
  938MPD2    C113768   2.052   2.183   0.562 -0.5724  0.1032 -0.5078
  938MPD2    C213769   2.066   2.058   0.622  0.1033  0.2815  0.2295
  938MPD2    C313770   2.061   1.942   0.546  0.1419 -0.2693 -0.4222
  938MPD2    C413771   2.048   1.955   0.411 -0.8341 -0.5473 -0.2825
  938MPD2    C513772   2.026   2.075   0.355  0.1281  0.0746  0.8641
  938MPD2     H13773   2.073   2.068   0.730 -0.1078 -1.2902  0.3818
  938MPD2    H113774   2.047   1.865   0.349  0.3852 -0.3667 -0.5656
  938MPD2    H213775   2.016   2.288   0.383 -1.1578  0.1099 -0.3548
  938MPD2    H313776   2.005   2.074   0.249  2.4380 -0.4365  0.4103
  938MPD2     N13777   2.058   1.811   0.599 -0.7513 -0.7141  0.4463
  938MPD2    H513778   2.074   1.731   0.538 -2.3809  0.8241 -2.0162
  938MPD2    N113779   2.046   2.304   0.627  0.2187  0.5221 -0.2993
  938MPD2    H713780   2.021   2.380   0.566 -1.0231  1.0212  0.8396
  939MPD2     C13781   3.333   3.127   0.295  0.0868 -0.2518  0.3943
  939MPD2    C113782   3.252   3.068   0.394 -0.3286 -0.2325 -0.6869
  939MPD2    C213783   3.147   2.981   0.360  0.6087  0.4084  0.1663
  939MPD2    C313784   3.122   2.944   0.232  0.7593 -0.1755 -0.0026
  939MPD2    C413785   3.188   3.015   0.138  0.2271 -0.4311  0.6941
  939MPD2    C513786   3.295   3.094   0.166 -0.1196  0.7539 -0.2438
  939MPD2     H13787   3.092   2.943   0.446  0.6105  1.3274  0.5833
  939MPD2    H113788   3.171   2.993   0.033 -0.0771  0.4936  0.5529
  939MPD2    H213789   3.424   3.186   0.303 -0.2012  0.2728 -0.2946
  939MPD2    H313790   3.357   3.125   0.082 -0.2090 -0.2776 -0.6833
  939MPD2     N13791   3.020   2.845   0.208  1.2000  0.2484  0.2151
  939MPD2    H513792   2.989   2.797   0.292 -0.2487  0.0221 -0.4538
  939MPD2    N113793   3.268   3.113   0.524 -0.3824 -0.5935  0.2195
  939MPD2    H713794   3.343   3.179   0.542 -1.6672  0.8878  0.0611
  940MPD2     C13795   1.834   4.180  13.371  1.1819 -0.2865  0.0146
  940MPD2    C113796   1.716   4.231  13.319 -0.4717  0.3907 -0.5795
  940MPD2    C213797   1.732   4.286  13.197 -0.7093  0.2631 -0.1768
  940MPD2    C313798   1.852   4.295  13.130  0.0070  0.8036  0.4752
  940MPD2    C413799   1.963   4.237  13.181  0.0094 -0.0682  0.1348
  940MPD2    C513800   1.955   4.182  13.304  0.7885  0.7190  0.1321
  940MPD2     H13801   1.641   4.331  13.159 -1.7720 -1.6817  0.0413
  940MPD2    H113802   2.055   4.221  13.126 -1.3453 -2.0307 -1.5543
  940MPD2    H213803   1.837   4.142  13.472  1.0103 -1.3072 -0.3654
  940MPD2    H313804   2.040   4.137  13.352  0.3229  0.2260  0.4971
  940MPD2     N13805   1.860   4.340  12.997 -0.1296 -0.3321  0.3083
  940MPD2    H513806   1.940   4.318  12.940 -0.5362 -1.6789  0.2418
  940MPD2    N113807   1.585   4.230  13.379  0.1942 -0.3956  0.1344
  940MPD2    H713808   1.508   4.272  13.328  1.6734  2.8216  0.5275
  941MPD2     C13809   0.715   3.643  10.163 -0.9677 -0.3159  0.0307
  941MPD2    C113810   0.846   3.602  10.197  0.0826 -0.0029  0.4176
  941MPD2    C213811   0.860   3.469  10.218 -0.2169  0.0198  0.5892
  941MPD2    C313812   0.753   3.375  10.216  0.6624 -0.1267  0.4364
  941MPD2    C413813   0.634   3.424  10.170  0.0641 -0.3133 -0.9331
  941MPD2    C513814   0.614   3.554  10.155  0.5579 -0.3034  0.4901
  941MPD2     H13815   0.957   3.428  10.244 -0.4046 -0.2867  0.8005
  941MPD2    H113816   0.557   3.355  10.139 -0.1073 -1.0733  1.1767
  941MPD2    H213817   0.696   3.750  10.159  1.2275  0.1115  1.0579
  941MPD2    H313818   0.513   3.585  10.131  1.1785  2.6336  1.6799
  941MPD2     N13819   0.769   3.238  10.251 -0.6504 -0.1021  0.1113
  941MPD2    H513820   0.682   3.186  10.257 -0.1516 -0.8212  1.1253
  941MPD2    N113821   0.953   3.688  10.213 -0.6279  0.1446  0.4537
  941MPD2    H713822   1.043   3.652  10.244 -1.0196 -0.3201  1.0389
  942MPD2     C13823   0.365   0.571   9.298 -0.8937 -1.1438  0.1656
  942MPD2    C113824   0.459   0.471   9.317 -0.3820 -0.1295  0.4477
  942MPD2    C213825   0.587   0.477   9.258  0.3495 -0.4756 -0.7087
  942MPD2    C313826   0.618   0.581   9.175 -0.1137 -0.7269 -0.1734
  942MPD2    C413827   0.524   0.672   9.148 -0.5239  0.1305 -0.2703
  942MPD2    C513828   0.409   0.674   9.224  0.3896 -0.2689  0.0323
  942MPD2     H13829   0.653   0.395   9.286  2.6058  0.7327 -2.4235
  942MPD2    H113830   0.538   0.748   9.072 -0.1268  1.6385  1.3217
  942MPD2    H213831   0.271   0.582   9.351 -1.1705  2.0574 -0.9904
  942MPD2    H313832   0.336   0.753   9.211 -1.1466 -1.7227 -0.3301
  942MPD2     N13833   0.739   0.596   9.100  0.5855 -0.1706 -0.9198
  942MPD2    H513834   0.749   0.684   9.051  0.2725  0.0755 -0.5461
  942MPD2    N113835   0.430   0.361   9.400 -0.4307 -0.4095  0.0499
  942MPD2    H713836   0.506   0.294   9.405 -0.2738 -0.2756 -0.5207
  943MPD2     C13837   4.406   3.729   9.172 -0.4215 -0.7882 -0.0982
  943MPD2    C113838   4.409   3.605   9.229 -0.9375 -0.4765 -0.1954
  943MPD2    C213839   4.468   3.586   9.354  0.5164  0.3060  0.3083
  943MPD2    C313840   4.515   3.695   9.430 -0.3101  0.3329 -0.9077
  943MPD2    C413841   4.515   3.823   9.367 -0.2324  0.1624  0.1390
  943MPD2    C513842   4.465   3.834   9.240 -0.1636  0.1892 -0.2352
  943MPD2     H13843   4.460   3.494   9.411  0.1669 -0.9451 -1.7538
  943MPD2    H113844   4.560   3.907   9.418  0.2519 -0.9843  1.6282
  943MPD2    H213845   4.349   3.747   9.082 -1.6968 -0.8711  0.7035
  943MPD2    H313846   4.476   3.932   9.195  0.7119  0.8886  1.5177
  943MPD2     N13847   4.567   3.687   9.560  0.3644  0.5631 -0.8738
  943MPD2    H513848   4.577   3.767   9.620  0.5170  2.0123 -2.8281
  943MPD2    N113849   4.341   3.502   9.153 -0.1177  0.2813  0.0096
  943MPD2    H713850   4.305   3.533   9.063 -0.1285 -0.5710 -0.2794
  944MPD2     C13851   3.972   2.431  11.236  0.3164 -0.6683  0.5440
  944MPD2    C113852   4.001   2.566  11.243  0.5010 -0.5851  1.1883
  944MPD2    C213853   4.032   2.630  11.362  0.1162 -0.0190  0.1276
  944MPD2    C313854   4.048   2.553  11.477 -0.4962 -1.0574  0.0784
  944MPD2    C413855   4.020   2.414  11.474 -0.6078  0.0242 -0.1060
  944MPD2    C513856   3.979   2.357  11.361 -0.3610 -0.0685 -0.2971
  944MPD2     H13857   4.072   2.731  11.369  0.0468 -0.0515  0.9545
  944MPD2    H113858   4.033   2.362  11.568  2.1550 -1.9096 -1.5643
  944MPD2    H213859   3.930   2.388  11.146  1.3015 -0.2794 -0.0849
  944MPD2    H313860   3.933   2.258  11.366  0.3453 -0.1987  3.5126
  944MPD2     N13861   4.073   2.622  11.595 -0.0947  0.1760 -0.0470
  944MPD2    H513862   4.062   2.723  11.596  3.2818  0.5643 -1.2392
  944MPD2    N113863   3.996   2.633  11.118  0.1352 -0.1659  0.0991
  944MPD2    H713864   3.971   2.569  11.044  0.7358  1.7635 -1.7730
    1TMC1    C113865   3.274   2.921  14.448 -0.5206  0.1866 -0.8238
    1TMC1    C213866   3.162   2.868  14.389 -0.6199  0.7878 -0.0006
    1TMC1    C313867   3.181   2.745  14.325  0.2198 -0.1390  0.1916
    1TMC1    C413868   3.400   2.860  14.434 -0.9367  0.1888 -0.4316
    1TMC1    C513869   3.410   2.739  14.375 -0.2188 -0.2552 -1.0074
    1TMC1    C613870   3.301   2.682  14.308 -0.7192  0.3905  0.0248
    1TMC1     C13871   3.278   3.050  14.509 -0.2954 -0.0459 -0.1377
    1TMC1     O13872   3.355   3.061  14.602  0.0140 -0.0139  0.0770
    1TMC1     H13873   3.067   2.910  14.420 -0.8046 -0.6751  1.4328
    1TMC1    H113874   3.491   2.901  14.478 -0.7222  0.8115 -1.4617
    1TMC1    H213875   3.314   2.590  14.251  1.6802  1.6143 -1.4331
    1TMC1    C713876   3.534   2.671  14.382  0.2166  0.4127  0.5971
    1TMC1    C813877   3.077   2.688  14.244  0.0843  0.0094 -0.0694
    1TMC1    O113878   3.634   2.739  14.391  0.2041  0.5554 -0.3625
    1TMC1    O213879   3.068   2.565  14.225 -0.2177  0.0740 -0.7021
    1TMC1    O313880   3.518   2.546  14.434  0.3988  0.2758 -0.1475
    1TMC1    H313881   3.431   2.501  14.434  1.0301 -0.9326  1.9497
    1TMC1    O513882   2.975   2.774  14.229  0.6367 -0.2782 -0.0485
    1TMC1    H513883   2.994   2.868  14.244  1.5600 -0.4760  0.0084
    2MPD2     C13884   3.053   3.496  14.616 -0.1545  0.0186 -0.5078
    2MPD2    C113885   2.993   3.450  14.499 -0.7527  0.5555  1.1159
    2MPD2    C213886   3.034   3.321  14.465  0.7761 -0.0016 -0.5041
    2MPD2    C313887   3.138   3.256  14.520 -0.0737 -0.1933 -0.5199
    2MPD2    C413888   3.199   3.308  14.624  0.0052  0.3494  0.4227
    2MPD2    C513889   3.155   3.428  14.677 -0.1907  0.2470 -0.2601
    2MPD2     H13890   2.989   3.273  14.379 -0.8808 -1.3634  1.1169
    2MPD2    H113891   3.273   3.246  14.674  0.0576  0.4551  0.4771
    2MPD2    H213892   3.020   3.587  14.665  1.0952  1.0063 -1.4770
    2MPD2    H313893   3.199   3.469  14.767  1.3341  0.0255 -0.8962
    2MPD2     N13894   3.178   3.135  14.463  0.4868  0.6830 -0.2473
    2MPD2    H513895   3.106   3.101  14.399  1.1129 -0.0940 -0.5288
    2MPD2    N113896   2.900   3.537  14.439 -0.1252  0.2537 -0.1662
    2MPD2    H713897   2.875   3.620  14.492 -0.5438  0.1712 -0.2346
    3TMC2    C113898   2.752   3.621  14.275  0.0281 -0.2936 -0.1493
    3TMC2    C213899   2.669   3.594  14.178 -0.0805  0.5376  0.8210
    3TMC2    C313900   2.630   3.691  14.095 -0.6300  0.1017  0.1490
    3TMC2    C413901   2.792   3.751  14.299  0.5078 -0.2671 -0.6570
    3TMC2    C513902   2.738   3.848  14.221  0.3522  0.4024  0.4053
    3TMC2    C613903   2.669   3.821  14.105 -1.0244 -0.3204 -0.1479
    3TMC2     C13904   2.839   3.518  14.318  0.0849  0.2627 -0.8130
    3TMC2     O13905   2.853   3.420  14.248 -0.0481  0.0692 -0.1851
    3TMC2     H13906   2.640   3.490  14.172 -2.2305  1.0102  2.8528
    3TMC2    H113907   2.856   3.778  14.382  1.2269  0.2111 -1.3704
    3TMC2    H213908   2.632   3.895  14.035  0.8782  2.1239  1.4110
    3TMC2    C713909   2.785   3.983  14.242 -0.2333  0.0643  0.4789
    3TMC2    C813910   2.546   3.651  13.988  1.0296  0.0736 -0.1238
    3TMC2    O113911   2.886   3.993  14.306  0.0964  0.1775  0.1660
    3TMC2    O213912   2.471   3.728  13.929 -0.3613 -0.0570  0.3430
    3TMC2    O513913   2.576   3.532  13.934 -0.0438  0.8634 -0.3985
    3TMC2    H513914   2.656   3.483  13.963 -0.5080  0.6012  0.4296
    4TMC2    C113915   2.312   4.646  13.650 -0.7380  0.1021  0.7513
    4TMC2    C213916   2.397   0.005  13.595 -0.1011 -0.2344 -0.2446
    4TMC2    C313917   2.522   0.005  13.643  0.6112 -0.4769 -0.1586
    4TMC2    C413918   2.362   4.560  13.743 -0.0594 -0.2531 -0.1301
    4TMC2    C513919   2.494   4.564  13.782  0.2519 -0.5352  0.4336
    4TMC2    C613920   2.576   4.657  13.732 -0.1202 -0.1140 -0.0118
    4TMC2     C13921   2.172   4.649  13.628 -0.5228 -0.1389 -0.3489
    4TMC2     O13922   2.101   4.619  13.723  0.1473 -0.2695 -0.6192
    4TMC2     H13923   2.368   0.093  13.539  0.7665  0.3618  0.2442
    4TMC2    H113924   2.294   4.489  13.788 -0.8584  1.0999  0.8065
    4TMC2    H213925   2.678   4.650  13.768 -0.4102 -3.1730  0.2589
    4TMC2    C713926   2.540   4.464  13.873  0.5553  0.2845 -0.1142
    4TMC2    C813927   2.614   0.095  13.573  0.5510  0.5153  0.5993
    4TMC2    O113928   2.488   4.353  13.862 -0.4210 -0.1173  0.4401
    4TMC2    O213929   2.725   0.121  13.617 -0.8716  0.0577  0.6518
    4TMC2    O513930   2.585   0.088  13.442  0.7422  0.4921  0.1248
    4TMC2    H513931   2.500   0.045  13.418  0.8354  0.1566  0.4045
    5MPD2     C13932   1.762   4.623  13.322  0.0392  0.2156  0.9736
    5MPD2    C113933   1.871   4.660  13.248 -0.0728 -0.2193 -0.7333
    5MPD2    C213934   1.993   4.684  13.309 -0.6606  0.2984  0.1084
    5MPD2    C313935   2.003   4.659  13.446 -0.5970  0.4653  0.2898
    5MPD2    C413936   1.893   4.610  13.519 -0.4839 -0.4168  0.1971
    5MPD2    C513937   1.773   4.600  13.454 -0.4272  0.2488  0.6568
    5MPD2     H13938   2.073   4.723  13.247  0.1612 -1.2642  0.1865
    5MPD2    H113939   1.899   4.585  13.624 -1.5045 -0.9307  0.1322
    5MPD2    H213940   1.668   4.588  13.279  1.0126  0.3003 -1.2200
    5MPD2    H313941   1.693   4.554  13.510 -2.5842 -0.1467 -2.7821
    5MPD2     N13942   2.135   4.681  13.497 -0.5755 -0.1433  0.5869
    5MPD2    H513943   2.209   4.712  13.435 -1.2277  0.0761 -0.0891
    5MPD2    N113944   1.839   4.680  13.119  0.1415  0.1781 -0.3629
    5MPD2    H713945   1.749   4.652  13.084  1.5337 -0.7208 -3.1850
    6MPD1     C13946   1.012   1.615  13.048 -0.2534 -0.4135 -0.4052
    6MPD1    C113947   1.113   1.624  12.956  0.0331  0.0164  0.3143
    6MPD1    C213948   1.187   1.503  12.939  0.6650 -0.5184 -0.0708
    6MPD1    C313949   1.154   1.383  13.003 -0.4015  0.0993  0.1449
    6MPD1    C413950   1.060   1.386  13.101 -0.0710 -0.5276  0.1380
    6MPD1    C513951   0.991   1.501  13.123 -0.0807 -0.0378 -0.1644
    6MPD1     H13952   1.270   1.517  12.871 -0.4774 -2.5976 -1.9046
    6MPD1    H113953   1.051   1.297  13.163  1.0002 -3.3562 -3.7325
    6MPD1    H213954   0.962   1.706  13.079 -1.8984 -1.4773  0.0474
    6MPD1    H313955   0.922   1.500  13.207  0.1712 -3.4180  0.0352
    6MPD1     N13956   1.226   1.264  12.987  0.6394 -0.2349 -0.2045
    6MPD1    H513957   1.209   1.189  13.053 -0.1749  0.8495  0.8166
    6MPD1    N113958   1.146   1.733  12.885  0.1465 -0.2168 -0.1347
    6MPD1    H613959   1.248   1.737  12.888  0.1162  0.1966  0.2478
    6MPD1    H713960   1.112   1.817  12.930 -2.5985 -0.8136 -1.1138
    7MPD2     C13961   1.317   0.540  13.207  0.8628  0.5006  0.0543
    7MPD2    C113962   1.359   0.559  13.076 -0.0161 -0.3195  0.5124
    7MPD2    C213963   1.412   0.453  13.009 -0.1515 -0.4051  0.2061
    7MPD2    C313964   1.428   0.325  13.061 -0.1091  0.2350  0.3803
    7MPD2    C413965   1.381   0.309  13.193  0.6419 -0.4788 -0.2969
    7MPD2    C513966   1.319   0.414  13.260  0.2992  0.4389 -0.5488
    7MPD2     H13967   1.469   0.483  12.921 -0.3578  3.8473  1.5081
    7MPD2    H113968   1.373   0.211  13.240  1.1380  0.3095  1.4150
    7MPD2    H213969   1.292   0.623  13.271 -0.2670  1.0902 -1.1454
    7MPD2    H313970   1.265   0.386  13.350 -0.1019  4.2583  0.4033
    7MPD2     N13971   1.493   0.228  12.982  0.7457  0.1134 -0.3780
    7MPD2    H513972   1.512   0.137  13.025 -0.3584 -0.1816 -0.5307
    7MPD2    N113973   1.371   0.684  13.008  0.8387  0.1674  0.0753
    7MPD2    H713974   1.397   0.687  12.910 -0.3616 -0.2439 -0.2420
    8TMC3    C113975   1.649   0.130  12.831 -0.0784  0.1805  0.5777
    8TMC3    C213976   1.709   0.066  12.934 -0.5409 -0.2392  0.1233
    8TMC3    C313977   1.837   0.031  12.907 -0.0822  0.3387  0.1451
    8TMC3    C413978   1.709   0.146  12.707 -0.3294  0.4756 -0.1633
    8TMC3    C513979   1.845   0.128  12.693 -0.4832 -0.3048  0.3790
    8TMC3    C613980   1.911   0.069  12.797  0.3449 -0.4795 -0.1754
    8TMC3     C13981   1.564   0.244  12.862  0.7923 -0.0858 -0.0370
    8TMC3     O13982   1.555   0.321  12.771  0.7246 -0.2785 -0.2794
    8TMC3     H13983   1.669   0.064  13.035 -0.1640 -3.2747  0.2227
    8TMC3    H113984   1.649   0.187  12.627 -0.6221  0.4070  0.0202
    8TMC3    H213985   2.016   0.044  12.784 -0.1697 -2.6240 -0.0806
    8TMC3    C713986   1.907   0.248  12.642  0.0380 -0.4459 -0.4199
    8TMC3    C813987   1.917   0.007  13.026 -0.3615  0.4839  0.4614
    8TMC3    O113988   2.026   0.238  12.616 -0.0177 -0.2251 -0.2822
    8TMC3    O213989   2.040   0.023  13.024  0.3856 -0.1123  0.0564
    9TMC3    C113990   1.377   1.114  12.886 -0.3820  0.3149  0.0344
    9TMC3    C213991   1.476   1.087  12.794  0.2655  0.2172 -0.1474
    9TMC3    C313992   1.541   0.964  12.798 -0.0272  0.5634 -0.1936
    9TMC3    C413993   1.330   1.019  12.977  0.1648 -0.5173  0.4074
    9TMC3    C513994   1.405   0.908  12.981  0.1675  0.3237 -0.0945
    9TMC3    C613995   1.504   0.872  12.894  0.1010  0.1938  0.0668
    9TMC3     C13996   1.315   1.242  12.884  0.0136 -0.3561  0.1437
    9TMC3     O13997   1.317   1.304  12.779 -0.2325 -0.0403  0.7927
    9TMC3     H13998   1.491   1.159  12.714  0.0598  1.2410  0.7386
    9TMC3    H113999   1.239   1.031  13.036  1.6429  1.5334  2.2606
    9TMC3    H214000   1.569   0.787  12.914 -0.6918 -0.0139  1.7336
    9TMC3    C714001   1.355   0.805  13.069  0.1484 -0.0152 -0.1535
    9TMC3    C814002   1.652   0.930  12.708  0.1510  0.3356  0.2603
    9TMC3    O114003   1.305   0.833  13.178  0.4252  0.4429  0.2149
    9TMC3    O214004   1.704   1.005  12.630  0.2048  0.2680 -0.2658
   10MPD2     C14005   1.957   0.523  12.566 -0.7173  0.2375 -0.1364
   10MPD2    C114006   1.846   0.484  12.628  0.0771  0.7969  0.0384
   10MPD2    C214007   1.756   0.571  12.671  0.5543 -0.1253  0.3819
   10MPD2    C314008   1.776   0.707  12.662  0.4581  0.2171  0.0121
   10MPD2    C414009   1.890   0.748  12.608 -0.4167 -0.5774 -0.1279
   10MPD2    C514010   1.976   0.659  12.561  0.0210  0.3141 -0.1969
   10MPD2     H14011   1.664   0.531  12.712  0.2519  0.9943  0.7737
   10MPD2    H114012   1.910   0.854  12.602  0.2309 -0.6711  0.5436
   10MPD2    H214013   2.024   0.455  12.515 -1.2619 -0.5500  0.1805
   10MPD2    H314014   2.056   0.698  12.499  0.4791  0.1696  0.2982
   10MPD2     N14015   1.682   0.794  12.716  0.6887 -0.4066  0.5650
   10MPD2    H514016   1.608   0.742  12.762 -2.2539  1.3558 -2.1456
   10MPD2    N114017   1.820   0.350  12.660 -0.0346 -0.1925 -0.1299
   10MPD2    H714018   1.730   0.330  12.702  0.2019  0.1234  0.5355
   11MPD2     C14019   2.847   4.289  14.244 -0.1908  0.2600  0.3336
   11MPD2    C114020   2.756   4.224  14.162  0.7282  0.1085 -0.1162
   11MPD2    C214021   2.680   4.297  14.072  0.3971 -0.1520 -0.0926
   11MPD2    C314022   2.701   4.432  14.061 -0.5929  0.3976  0.0986
   11MPD2    C414023   2.792   4.497  14.139 -0.3158 -0.3099 -0.0467
   11MPD2    C514024   2.865   4.423  14.226 -0.3612  0.3868  0.5529
   11MPD2     H14025   2.607   4.249  14.008  0.6763  0.1382 -0.6250
   11MPD2    H114026   2.803   4.605  14.129  3.1031 -0.7582 -0.8547
   11MPD2    H214027   2.908   4.242  14.320 -0.0952  3.3630  2.1663
   11MPD2    H314028   2.938   4.475  14.287  1.4294  1.3208 -2.3831
   11MPD2     N14029   2.632   4.507  13.967  0.6185  0.0309  0.1972
   11MPD2    H514030   2.648   4.607  13.962 -2.3196  0.5004  0.1500
   11MPD2    N114031   2.739   4.080  14.160  0.9357 -0.2097  0.2971
   11MPD2    H714032   2.656   4.046  14.112  0.7019  1.5736 -0.5674
    1MPD1     C14033   0.010   0.745  17.526 -0.0429 -0.4888 -0.6954
    1MPD1    C114034   0.018   0.729  17.388  0.3530  0.3764  0.0779
    1MPD1    C214035   0.117   0.804  17.315 -0.0993 -0.0480  0.1715
    1MPD1    C314036   0.206   0.889  17.379 -0.8312  0.1420  1.0625
    1MPD1    C414037   0.208   0.886  17.519  0.0482  0.2229  0.3890
    1MPD1    C514038   0.117   0.809  17.591  0.0698 -0.6226 -0.3469
    1MPD1     H14039   0.117   0.801  17.207  2.3228 -0.1560  0.1613
    1MPD1    H114040   0.266   0.947  17.588  1.6820  0.4528 -1.1748
    1MPD1    H214041   4.670   0.699  17.586 -1.0853 -0.1007 -1.7449
    1MPD1    H314042   0.116   0.811  17.699  1.5126  2.0876 -0.3927
    1MPD1     N14043   0.304   0.965  17.322 -0.5532  0.0796 -0.1705
    1MPD1    H514044   0.359   1.022  17.385  0.2192  0.0598 -0.8337
    1MPD1    N114045   4.651   0.678  17.318 -0.0532 -0.2898  0.0191
    1MPD1    H614046   4.619   0.588  17.354 -1.7327  0.0662 -0.5978
    1MPD1    H714047   4.681   0.667  17.222  0.8114  1.0481  0.1220
    2MPD1     C14048   0.800   1.830  17.263 -0.1308  0.0414 -0.0820
    2MPD1    C114049   0.835   1.776  17.140  0.4460  0.8559  0.1446
    2MPD1    C214050   0.769   1.658  17.106 -0.6199  0.6053  0.4522
    2MPD1    C314051   0.704   1.589  17.204 -0.9371 -0.4482  0.1628
    2MPD1    C414052   0.701   1.636  17.332 -0.1221 -0.3134 -0.0270
    2MPD1    C514053   0.737   1.758  17.360 -0.2960  0.5995 -0.4496
    2MPD1     H14054   0.760   1.623  17.004  0.8391  0.2110  0.4659
    2MPD1    H114055   0.637   1.584  17.403 -0.7547 -0.0981 -0.4471
    2MPD1    H214056   0.844   1.927  17.287  1.5632 -0.7219 -0.0456
    2MPD1    H314057   0.710   1.796  17.458  2.1164 -1.0117  0.8294
    2MPD1     N14058   0.644   1.472  17.157 -0.7187 -0.4382  0.1282
    2MPD1    H514059   0.664   1.448  17.061  1.1251  1.3507  0.0611
    2MPD1    N114060   0.867   1.864  17.035  0.3609 -0.2724  0.1495
    2MPD1    H614061   0.912   1.814  16.959  0.2105 -1.0861  0.5956
    2MPD1    H714062   0.943   1.923  17.067  0.7373 -0.5806 -0.1726
    3TMC3    C114063   0.556   1.259  17.171  0.2663  0.4917  0.1947
    3TMC3    C214064   0.641   1.230  17.070 -0.3309 -0.3413  0.1591
    3TMC3    C314065   0.632   1.102  17.022  0.1233 -0.3369  0.1611
    3TMC3    C414066   0.454   1.177  17.214 -0.1777  0.3759 -0.0699
    3TMC3    C514067   0.449   1.051  17.161 -0.3534 -0.2846 -0.1353
    3TMC3    C614068   0.536   1.015  17.066  0.5974 -0.5257 -0.3039
    3TMC3     C14069   0.565   1.389  17.229  0.1861 -0.3845  0.9471
    3TMC3     O14070   0.516   1.396  17.341 -0.1708  0.1997 -0.0271
    3TMC3     H14071   0.701   1.302  17.015 -1.3557 -1.3573 -2.2780
    3TMC3    H114072   0.383   1.207  17.289 -1.0562 -2.8067  0.3666
    3TMC3    H214073   0.529   0.920  17.015 -2.2831 -0.1689 -0.5883
    3TMC3    C714074   0.346   0.958  17.190 -0.7927  0.1552 -0.6512
    3TMC3    C814075   0.694   1.065  16.898 -0.2331 -0.1945 -0.2617
    3TMC3    O114076   0.312   0.887  17.095  0.0217 -0.2534 -0.4286
    3TMC3    O214077   0.667   0.963  16.837  0.0154  0.1203 -0.6091
    4MPD1     C14078   1.025   1.166  16.525 -0.6567 -0.1449 -0.6263
    4MPD1    C114079   1.068   1.229  16.641 -0.3765 -0.4773  0.4967
    4MPD1    C214080   1.003   1.199  16.756 -0.0970 -0.1067 -1.1393
    4MPD1    C314081   0.879   1.138  16.753  0.3377 -0.0520 -0.0997
    4MPD1    C414082   0.831   1.080  16.642  0.4246 -0.1073  0.7514
    4MPD1    C514083   0.904   1.097  16.526  0.0957  0.7194 -0.1827
    4MPD1     H14084   1.022   1.249  16.850 -0.0199 -2.3830  0.0590
    4MPD1    H114085   0.737   1.029  16.626  0.5762 -0.4484  0.9263
    4MPD1    H214086   1.079   1.182  16.433  1.6495  2.1964  1.1329
    4MPD1    H314087   0.869   1.054  16.434 -0.0792 -0.9533  0.6709
    4MPD1     N14088   0.808   1.138  16.875 -1.3074 -0.6326  0.6116
    4MPD1    H514089   0.846   1.201  16.945 -0.3789  1.5826 -1.8891
    4MPD1    N114090   1.189   1.298  16.652  0.1074 -0.0975  0.1275
    4MPD1    H614091   1.235   1.340  16.572  0.3593 -0.0818  0.2798
    4MPD1    H714092   1.195   1.357  16.734 -3.9243 -1.0508  1.0943
    1TCq1    O114093   0.765   0.309  11.316  0.7740  0.4625 -0.3411
    1TCq1    C114094   0.650   0.380  11.347 -0.4652  0.0236 -0.4095
    1TCq1    O214095   0.572   0.424  11.260  0.5596 -0.0824  0.0057
    1TCq1    C214096   0.608   0.379  11.490  0.4139  0.8818  0.0772
    1TCq1    C314097   0.678   0.317  11.589 -0.6820 -0.4491  0.1922
    1TCq1    C414098   0.636   0.336  11.715  0.1361 -0.2261  1.0885
    1TCq1    C514099   0.539   0.430  11.742  0.7296 -0.2010  1.0970
    1TCq1    C614100   0.466   0.487  11.641 -0.3927 -0.7874  0.1159
    1TCq1    C714101   0.492   0.454  11.509 -0.0462  0.3476 -0.1909
    1TCq1    C814102   0.325   0.519  11.678  0.2049  0.5102  0.1062
    1TCq1    O414103   0.289   0.474  11.789 -0.7503 -0.1174 -0.0382
    1TCq1    C914104   0.730   0.301  11.827  0.7429  0.7905  0.1148
    1TCq1    O514105   0.849   0.269  11.798  0.3877  0.6391 -0.6159
    1TCq1    O614106   0.680   0.312  11.944 -0.1205 -0.1831 -0.2151
    1TCq1    H114107   0.831   0.323  11.388 -0.4062  2.6100  0.3246
    1TCq1    H214108   0.769   0.260  11.572 -0.7993 -0.4944 -0.2862
    1TCq1    H314109   0.525   0.462  11.844 -0.2882  0.4823  0.7480
    1TCq1    H414110   0.440   0.503  11.428 -3.5831  0.2972  2.0550
    2MPD1     C14111   4.595   0.702  11.565 -1.1369 -0.1797  0.2029
    2MPD1    C114112   4.685   0.761  11.479  0.1713  0.5820  0.6513
    2MPD1    C214113   0.085   0.731  11.502 -1.0944  0.4759 -0.2970
    2MPD1    C314114   0.124   0.646  11.605  0.3384  0.0283 -0.3905
    2MPD1    C414115   0.031   0.605  11.696  0.1727 -0.2986 -0.0065
    2MPD1    C514116   4.633   0.634  11.676 -0.3769  0.0189 -0.3248
    2MPD1     H14117   0.161   0.767  11.433  0.9714 -2.6046  0.3771
    2MPD1    H114118   0.065   0.544  11.779 -0.1755  1.2630  1.2735
    2MPD1    H214119   4.492   0.726  11.541 -0.9107  2.5034  1.9112
    2MPD1    H314120   4.555   0.594  11.740 -0.4573 -0.9887 -1.0644
    2MPD1     N14121   0.259   0.606  11.601 -0.1122 -0.1391 -0.3242
    2MPD1    H514122   0.311   0.645  11.522  0.0687  1.1153  0.4078
    2MPD1    N114123   4.632   0.826  11.364 -0.3548 -0.0070  0.1918
    2MPD1    H614124   4.546   0.874  11.390 -0.6933 -0.4972 -0.0203
    2MPD1    H714125   4.685   0.909  11.338  0.2437 -0.5933 -0.4389
    1TMC1    C114126   4.096   0.669   1.257  0.1741 -1.0384 -0.7575
    1TMC1    C214127   3.967   0.669   1.217  0.1997  0.3573 -0.5785
    1TMC1    C314128   3.874   0.724   1.302  0.5471 -0.3492 -1.2265
    1TMC1    C414129   4.128   0.715   1.385  0.1295 -0.5127  0.2583
    1TMC1    C514130   4.032   0.763   1.470 -0.2092 -0.6405 -0.1133
    1TMC1    C614131   3.903   0.771   1.425  0.2844 -0.4684 -0.1938
    1TMC1     C14132   4.196   0.632   1.158 -0.4127 -0.8416 -0.2699
    1TMC1     O14133   4.152   0.604   1.047  0.1530  0.8222 -0.4201
    1TMC1     H14134   3.940   0.638   1.116 -0.3051 -0.3006 -0.2404
    1TMC1    H114135   4.227   0.725   1.428 -0.2420  0.3805  0.8970
    1TMC1    H214136   3.820   0.803   1.486  0.9646  0.8206  0.0529
    1TMC1    C714137   4.068   0.832   1.592 -0.1510  0.3612  0.8386
    1TMC1    C814138   3.746   0.677   1.277 -0.1195  0.5948  0.3074
    1TMC1    O114139   4.186   0.850   1.621 -0.2761  0.2529  0.3190
    1TMC1    O214140   3.647   0.731   1.327 -0.5418  0.2567  0.7891
    1TMC1    O314141   3.983   0.780   1.687 -0.1249 -0.2042  0.2975
    1TMC1    H314142   3.903   0.731   1.657 -0.4397 -0.4857  1.6033
    1TMC1    O514143   3.757   0.555   1.212  0.3938 -0.0668 -0.3153
    1TMC1    H514144   3.845   0.511   1.220  0.6733  1.0088  2.4880
    2MPD1     C14145   4.643   0.478   1.007 -0.0678  0.4740 -0.0172
    2MPD1    C114146   4.662   0.522   1.136 -0.6085 -0.3495  0.0811
    2MPD1    C214147   4.557   0.579   1.197  0.6478  0.3984 -0.0902
    2MPD1    C314148   4.430   0.580   1.133 -0.7331  0.1138  0.1206
    2MPD1    C414149   4.421   0.542   1.001  0.0476 -0.0166 -1.2068
    2MPD1    C514150   4.527   0.491   0.942  0.5729  0.0033  1.0489
    2MPD1     H14151   4.554   0.607   1.302  1.1570  0.0566  0.0174
    2MPD1    H114152   4.334   0.560   0.938  0.4097  1.7507 -1.1897
    2MPD1    H214153   4.724   0.451   0.941 -0.7837 -2.7656  0.4054
    2MPD1    H314154   4.522   0.458   0.839  0.2543  2.1023  0.3944
    2MPD1     N14155   4.324   0.625   1.209 -0.1484  0.2812  0.9881
    2MPD1    H514156   4.345   0.664   1.300  0.4722 -0.1388  1.0251
    2MPD1    N114157   0.047   0.497   1.197 -0.4365 -0.0656  0.0241
    2MPD1    H614158   0.069   0.558   1.275 -3.4456 -1.0288  1.6514
    2MPD1    H714159   0.125   0.491   1.132 -1.4653 -3.7339 -0.8890
    1MPD1     C14160   2.289   0.750  11.829  0.1730  0.3861  0.1718
    1MPD1    C114161   2.293   0.882  11.879  0.0823 -0.3566  0.2682
    1MPD1    C214162   2.413   0.955  11.872  0.1003 -0.7482 -0.0004
    1MPD1    C314163   2.522   0.900  11.797  0.4785 -0.3663  0.4570
    1MPD1    C414164   2.515   0.769  11.746 -0.2763  0.3499  0.2550
    1MPD1    C514165   2.398   0.700  11.769  0.8147  0.2054 -0.3787
    1MPD1     H14166   2.417   1.058  11.908  2.3848 -0.9494  0.3086
    1MPD1    H114167   2.602   0.719  11.705 -1.6043  0.1023 -2.2685
    1MPD1    H214168   2.200   0.688  11.824 -0.9966  2.1492 -1.0828
    1MPD1    H314169   2.387   0.606  11.715 -2.0879 -1.2224  2.7166
    1MPD1     N14170   2.637   0.983  11.769  0.6852  0.0426  0.2210
    1MPD1    H514171   2.624   1.080  11.798 -1.3352 -0.9123  2.4830
    1MPD1    N114172   2.176   0.942  11.923 -0.5992  0.5764 -0.3156
    1MPD1    H614173   2.184   1.017  11.991  0.6098 -1.4744  1.7985
    1MPD1    H714174   2.093   0.884  11.928 -1.1246  1.3892  0.3218
    2MPD1     C14175   2.567   0.791   9.179  0.2810 -0.0008  0.4978
    2MPD1    C114176   2.519   0.847   9.298 -0.0286 -0.1268 -0.2352
    2MPD1    C214177   2.554   0.777   9.417 -0.4585 -0.0739  0.0326
    2MPD1    C314178   2.626   0.665   9.418  0.2881 -0.6752  0.2924
    2MPD1    C414179   2.666   0.610   9.294 -0.0946  0.3394  0.1244
    2MPD1    C514180   2.638   0.668   9.175  0.5482 -0.3371  0.7140
    2MPD1     H14181   2.510   0.811   9.511  1.1542  0.2265  0.6911
    2MPD1    H114182   2.718   0.515   9.287  1.7369  1.2794  1.0307
    2MPD1    H214183   2.564   0.847   9.087 -0.7662 -0.6860  0.1220
    2MPD1    H314184   2.680   0.625   9.085  1.0554  0.4438  0.5741
    2MPD1     N14185   2.654   0.592   9.531 -0.3507  0.7872 -0.1935
    2MPD1    H514186   2.679   0.498   9.503  0.2068  0.5400  1.1151
    2MPD1    N114187   2.456   0.967   9.301 -0.5155 -0.0800 -0.1429
    2MPD1    H614188   2.392   0.988   9.226  1.1932  3.5190 -0.6152
    2MPD1    H714189   2.394   0.984   9.380 -2.2229 -1.2522 -1.2400
    3MPD1     C14190   2.664   4.462   9.522  0.4552 -0.5698 -0.2231
    3MPD1    C114191   2.604   4.564   9.450  0.0123  0.4733 -0.4814
    3MPD1    C214192   2.625   4.690   9.493  0.2612 -0.1580 -0.0443
    3MPD1    C314193   2.699   4.731   9.601  0.0902  0.0581 -0.3524
    3MPD1    C414194   2.775   4.627   9.664  0.0610 -0.3118 -0.0636
    3MPD1    C514195   2.743   4.502   9.632 -0.7956 -0.1388  0.1996
    3MPD1     H14196   2.570   0.027   9.437 -3.5982 -1.3021  2.2149
    3MPD1    H114197   2.842   4.630   9.749 -2.3147  1.7329  1.7338
    3MPD1    H214198   2.649   4.356   9.500 -1.7484 -0.4334  0.5932
    3MPD1    H314199   2.797   4.425   9.687  0.9098  0.5368 -0.5179
    3MPD1     N14200   2.699   0.125   9.651 -0.3340 -0.2456  0.2692
    3MPD1    H514201   2.652   0.200   9.600  0.7055 -0.8245 -1.5252
    3MPD1    N114202   2.550   4.539   9.321 -0.0344  1.0218  0.0588
    3MPD1    H614203   2.519   4.443   9.307 -2.2813  1.7434  0.0589
    3MPD1    H714204   2.477   4.600   9.287  1.3626  2.8529  0.3299
    4MPD2     C14205   2.798   1.297  11.098  0.1207 -0.4653  0.1583
    4MPD2    C114206   2.900   1.232  11.166 -0.0099  0.2475  0.3967
    4MPD2    C214207   3.007   1.174  11.093  0.8356  0.6048 -0.2391
    4MPD2    C314208   3.003   1.177  10.953  0.1468 -0.6101  0.3440
    4MPD2    C414209   2.898   1.245  10.892  1.2259 -0.4227  0.5285
    4MPD2    C514210   2.796   1.302  10.964 -0.0260  0.5205 -0.3282
    4MPD2     H14211   3.086   1.117  11.141 -0.5124 -1.2577 -0.2252
    4MPD2    H114212   2.885   1.252  10.785 -0.8739  2.1961  0.9650
    4MPD2    H214213   2.718   1.346  11.153  1.7360  1.7827  0.5008
    4MPD2    H314214   2.709   1.353  10.924 -0.5631 -0.6600 -0.6887
    4MPD2     N14215   3.104   1.105  10.879  0.2096 -0.0766 -0.4377
    4MPD2    H514216   3.172   1.059  10.939 -0.5795  0.1336  0.6310
    4MPD2    N114217   2.918   1.237  11.305  0.1907  0.1647  0.0554
    4MPD2    H714218   3.010   1.207  11.335 -0.1099  1.0073  1.8432
    5TMC3    C114219   2.863   1.226  11.522 -0.2001  0.3457  0.5792
    5TMC3    C214220   2.773   1.146  11.593 -0.3142 -0.4870 -0.3841
    5TMC3    C314221   2.834   1.040  11.649  0.0638  0.3656 -0.6789
    5TMC3    C414222   3.000   1.206  11.515  0.3648  0.1913  0.0795
    5TMC3    C514223   3.041   1.092  11.572  0.2063  0.4417  0.0215
    5TMC3    C614224   2.966   1.001  11.636  0.1479 -0.4344 -0.3197
    5TMC3     C14225   2.816   1.256  11.392 -0.1321 -0.2530 -0.4755
    5TMC3     O14226   2.696   1.276  11.382  0.0758 -0.1259 -0.0860
    5TMC3     H14227   2.666   1.151  11.577 -0.4878 -2.0790  0.2857
    5TMC3    H114228   3.070   1.279  11.476  1.5633 -0.4632  1.0218
    5TMC3    H214229   3.006   0.919  11.694  0.0363 -1.0526 -1.1149
    5TMC3    C714230   3.134   1.034  11.478 -1.0428  0.9821  0.5143
    5TMC3    C814231   2.745   0.939  11.699 -0.6240 -1.0607  0.2868
    5TMC3    O114232   3.177   1.107  11.391 -0.6948 -1.0175 -0.2899
    5TMC3    O214233   2.785   0.827  11.677  0.5380 -0.3606  0.2775
    6TMC3    C114234   2.701   0.530   9.754  0.1905  0.3580  0.3333
    6TMC3    C214235   2.709   0.400   9.717  0.4841 -0.4778  0.0194
    6TMC3    C314236   2.759   0.310   9.807  0.5394  0.1286 -0.2022
    6TMC3    C414237   2.735   0.569   9.886  0.0760  0.0185 -0.2840
    6TMC3    C514238   2.778   0.476   9.971  0.1473  0.1839 -0.1494
    6TMC3    C614239   2.775   0.343   9.936 -0.1429 -0.1282  0.1983
    6TMC3     C14240   2.665   0.635   9.663 -0.2456  0.3456  0.1284
    6TMC3     O14241   2.638   0.745   9.704  0.2615 -0.0236 -0.1912
    6TMC3     H14242   2.688   0.369   9.616 -0.5010  1.5800 -0.4115
    6TMC3    H114243   2.748   0.674   9.907  1.5799 -0.4746  1.2382
    6TMC3    H214244   2.796   0.266  10.009 -0.0402  0.5315  0.8622
    6TMC3    C714245   2.852   0.515  10.089 -0.1238  0.5455 -0.1618
    6TMC3    C814246   2.767   0.164   9.767  0.2206 -0.2420 -0.5972
    6TMC3    O114247   2.817   0.623  10.142 -0.6491  0.5007 -0.9737
    6TMC3    O214248   2.817   0.094   9.856 -0.0590  0.0914 -0.4822
    7MPD2     C14249   3.339   0.617  11.275  0.5198 -0.1699 -0.5280
    7MPD2    C114250   3.319   0.734  11.219 -0.4988 -0.4608 -1.1031
    7MPD2    C214251   3.274   0.837  11.302 -0.6412  1.1012 -0.3671
    7MPD2    C314252   3.236   0.813  11.433  0.2318 -0.3393  0.3566
    7MPD2    C414253   3.247   0.687  11.487 -0.0099 -0.3332 -0.0711
    7MPD2    C514254   3.312   0.592  11.407 -0.4210 -0.0911 -0.6074
    7MPD2     H14255   3.261   0.937  11.261 -0.5861  2.0015  1.8318
    7MPD2    H114256   3.229   0.651  11.588 -0.1438 -0.1880 -0.0426
    7MPD2    H214257   3.388   0.534  11.226  3.0587  0.0551  1.6066
    7MPD2    H314258   3.312   0.490  11.443  0.2976  1.2158  3.0628
    7MPD2     N14259   3.158   0.904  11.505  0.7820 -0.4468 -0.0096
    7MPD2    H514260   3.125   0.867  11.594 -3.2356  0.6559 -1.0061
    7MPD2    N114261   3.347   0.752  11.078 -0.5493  0.6174  1.0210
    7MPD2    H714262   3.371   0.668  11.026 -1.0941 -0.0460  1.8364
    8TMC3    C114263   3.362   0.863  10.863  0.5155 -0.3354 -0.3623
    8TMC3    C214264   3.322   0.742  10.809  0.6824 -0.0465 -0.1349
    8TMC3    C314265   3.244   0.751  10.697 -0.1641  0.1677 -0.4236
    8TMC3    C414266   3.317   0.983  10.815  0.1004  0.4529 -0.1599
    8TMC3    C514267   3.221   0.986  10.720  0.2002  0.6270 -0.6777
    8TMC3    C614268   3.186   0.874  10.654 -0.0570 -0.4266  0.2772
    8TMC3     C14269   3.345   0.876  11.009  0.8934 -0.0949  0.1822
    8TMC3     O14270   3.330   0.989  11.052  0.2197 -0.2291 -0.4549
    8TMC3     H14271   3.367   0.651  10.846  0.1897 -0.3987 -0.4101
    8TMC3    H114272   3.350   1.079  10.854 -1.1440  0.4956  0.7904
    8TMC3    H214273   3.122   0.880  10.566 -0.5106 -1.9295  0.5029
    8TMC3    C714274   3.112   1.082  10.743  0.2330  0.1439 -0.2028
    8TMC3    C814275   3.244   0.631  10.615  0.3123  0.4339 -0.1489
    8TMC3    O114276   3.023   1.099  10.665 -0.3028  0.3883  0.4086
    8TMC3    O214277   3.301   0.533  10.666 -0.4828  0.9481  0.2351
    9MPD2     C14278   3.244   0.428  10.411 -1.6650  0.4019  0.4260
    9MPD2    C114279   3.155   0.530  10.405  0.3300 -0.4772 -0.0562
    9MPD2    C214280   3.053   0.528  10.312 -0.3858 -0.0296 -0.2629
    9MPD2    C314281   3.047   0.428  10.215  0.2226 -0.4384  0.6267
    9MPD2    C414282   3.138   0.326  10.224 -0.0501 -0.9645 -0.1441
    9MPD2    C514283   3.234   0.322  10.323  0.3255  0.5649 -0.0797
    9MPD2     H14284   2.986   0.613  10.305  0.1216  0.4251  0.4861
    9MPD2    H114285   3.135   0.241  10.157  1.3246 -1.0694 -0.0701
    9MPD2    H214286   3.327   0.431  10.480 -0.0439 -0.1860 -1.5195
    9MPD2    H314287   3.317   0.253  10.327  0.8904  1.2014 -0.6656
    9MPD2     N14288   2.952   0.419  10.114  0.6311 -0.0083  0.0793
    9MPD2    H514289   2.955   0.336  10.056 -1.8635  0.1576 -0.2947
    9MPD2    N114290   3.167   0.638  10.495 -0.4968  0.5343 -0.5392
    9MPD2    H714291   3.106   0.718  10.484 -0.0546  1.2455  2.1725
    1MPD1     C14292   2.896   3.955  15.747 -0.0946  0.3232  0.0376
    1MPD1    C114293   2.932   4.015  15.629  0.2600 -0.5764  0.5620
    1MPD1    C214294   2.947   4.150  15.617 -0.0565  0.3424  0.3915
    1MPD1    C314295   2.903   4.225  15.717  0.1626  0.3286  0.9223
    1MPD1    C414296   2.860   4.173  15.837 -0.0762 -0.2926 -0.1424
    1MPD1    C514297   2.856   4.037  15.855  0.1283  0.8053 -0.0329
    1MPD1     H14298   2.976   4.189  15.520  0.0303 -2.9065 -0.8992
    1MPD1    H114299   2.826   4.233  15.920 -1.9867  3.5005 -3.6680
    1MPD1    H214300   2.879   3.849  15.759  1.6906 -0.0547 -0.7055
    1MPD1    H314301   2.828   3.997  15.952 -1.4803  0.5703 -0.5949
    1MPD1     N14302   2.883   4.362  15.711 -0.1638  0.1995 -0.7287
    1MPD1    H514303   2.833   4.407  15.788 -1.7786  0.3296 -1.8582
    1MPD1    N114304   2.941   3.943  15.512  0.4350 -0.2060 -0.4383
    1MPD1    H614305   2.958   3.844  15.527  0.2221 -0.0740  0.7085
    1MPD1    H714306   2.998   3.974  15.434  0.3783  0.5720 -0.1767
    2TMC2    C114307   2.764   0.022  15.686 -0.1642  0.1000  0.9671
    2TMC2    C214308   2.816   0.103  15.593 -0.6275 -0.0080  0.2489
    2TMC2    C314309   2.909   0.052  15.508  1.1297 -0.3945 -0.3224
    2TMC2    C414310   2.788   4.626  15.683  0.2173  0.5066 -0.2275
    2TMC2    C514311   2.893   4.581  15.610 -0.3036 -0.5693 -0.5426
    2TMC2    C614312   2.959   4.670  15.523 -0.1919 -0.1047 -0.2638
    2TMC2     C14313   2.631   0.064  15.736 -0.2594 -0.3895 -0.3726
    2TMC2     O14314   2.564   0.134  15.663 -0.3473 -0.1875 -0.0633
    2TMC2     H14315   2.777   0.204  15.601 -1.0848 -0.1777  0.2122
    2TMC2    H114316   2.724   4.561  15.742  2.0894 -0.5712  0.6032
    2TMC2    H214317   3.042   4.629  15.467  0.4224 -0.7976  1.1735
    2TMC2    C714318   2.941   4.441  15.613  0.2093 -0.1260  0.4193
    2TMC2    C814319   2.962   0.131  15.408  0.0031  0.8723 -0.2875
    2TMC2    O114320   3.014   4.417  15.518  0.4266  0.2691 -0.3921
    2TMC2    O214321   3.030   0.091  15.315 -0.0359 -0.3716  0.0242
    2TMC2    O514322   2.912   0.257  15.419 -0.2967 -0.8601  0.4465
    2TMC2    H514323   2.875   0.296  15.502 -2.1811  0.1895 -0.8767
    3MPD1     C14324   2.308   0.193  16.113  0.1522 -0.8759 -0.6738
    3MPD1    C114325   2.347   0.066  16.142  0.9178  0.1928  0.3343
    3MPD1    C214326   2.449   0.018  16.059  0.2697 -0.5665 -0.0606
    3MPD1    C314327   2.496   0.080  15.946  0.3437  0.0978  0.0659
    3MPD1    C414328   2.441   0.204  15.914 -0.4170 -0.4348  0.1570
    3MPD1    C514329   2.348   0.261  15.998 -0.4682  0.4655  0.3019
    3MPD1     H14330   2.490   4.664  16.098 -0.7391 -0.6669  0.7689
    3MPD1    H114331   2.479   0.263  15.831  0.9594  0.1555  1.2119
    3MPD1    H214332   2.238   0.247  16.177  1.4939  1.4485 -1.1529
    3MPD1    H314333   2.300   0.357  15.983 -0.7460 -0.0886 -2.2717
    3MPD1     N14334   2.594   0.020  15.857 -0.2033 -0.1777  0.2562
    3MPD1    H514335   2.642   4.677  15.895  2.0295  0.9548 -0.1404
    3MPD1    N114336   2.310   0.007  16.267  0.5681 -0.2798 -0.0869
    3MPD1    H614337   2.209   0.010  16.277  0.4575 -2.7747 -0.5490
    3MPD1    H714338   2.328   4.645  16.260 -1.5960 -0.5640 -1.4175
    1TMC1    C114339   0.732   3.644  12.531 -0.1292 -0.1704 -0.2619
    1TMC1    C214340   0.668   3.545  12.611  0.2560 -0.0913 -0.1116
    1TMC1    C314341   0.546   3.500  12.563  0.8433  0.0722  0.7960
    1TMC1    C414342   0.680   3.681  12.405 -0.3104  0.0509  0.1697
    1TMC1    C514343   0.562   3.622  12.371  0.6628 -0.1973  0.2012
    1TMC1    C614344   0.492   3.541  12.445 -0.1923  0.3481 -0.1982
    1TMC1     C14345   0.836   3.733  12.586 -0.6552 -0.5610 -0.0011
    1TMC1     O14346   0.875   3.821  12.507 -0.4092  0.3003  0.3701
    1TMC1     H14347   0.708   3.518  12.709  2.1111 -0.6327 -1.0068
    1TMC1    H114348   0.746   3.728  12.333  2.6012 -0.3073  2.6014
    1TMC1    H214349   0.391   3.514  12.419  0.1379  0.4576 -1.5682
    1TMC1    C714350   0.495   3.651  12.255  0.2928 -0.3590  0.6782
    1TMC1    C814351   0.463   3.411  12.648  0.4930 -0.6241 -0.2842
    1TMC1    O114352   0.415   3.580  12.195  0.6238 -0.0909  0.1265
    1TMC1    O214353   0.519   3.318  12.708  0.5174  0.0097  0.0278
    1TMC1    O314354   0.538   3.772  12.217 -0.2849 -0.3817  0.2090
    1TMC1    H314355   0.609   3.809  12.275  0.6860  0.6703 -1.6718
    1TMC1    O514356   0.340   3.463  12.667 -0.1172 -0.4511  0.0467
    1TMC1    H514357   0.313   3.544  12.618 -0.0137 -1.2545 -1.3652
    2MPD2     C14358   1.044   3.889  12.735  0.8518 -0.1293  0.2547
    2MPD2    C114359   0.958   3.804  12.797 -0.2324  0.2632  0.0108
    2MPD2    C214360   0.959   3.793  12.936 -0.3171 -0.4451 -0.2038
    2MPD2    C314361   1.050   3.857  13.016  0.2016 -0.3755  0.1962
    2MPD2    C414362   1.134   3.944  12.952 -0.5828  1.0593  0.2112
    2MPD2    C514363   1.129   3.957  12.814 -0.5912  0.3267  0.1303
    2MPD2     H14364   0.875   3.736  12.977  0.4042 -1.9283 -0.7728
    2MPD2    H114365   1.203   4.003  13.010 -2.6819  1.6087  2.1779
    2MPD2    H214366   1.049   3.887  12.627 -1.9504 -1.6799  0.1522
    2MPD2    H314367   1.199   4.025  12.765  0.1668 -0.4437  0.1423
    2MPD2     N14368   1.043   3.838  13.158  0.3071  0.4461  0.3419
    2MPD2    H514369   0.972   3.768  13.178 -0.7168  1.1987 -0.6756
    2MPD2    N114370   0.862   3.718  12.721  0.0064 -0.1812  0.2550
    2MPD2    H714371   0.808   3.647  12.770 -0.2456 -1.4793 -1.9224
    3TCq1    O114372   0.776   3.757  13.712 -0.4273  0.2782 -0.4954
    3TCq1    C114373   0.796   3.746  13.580 -0.1377 -0.5074 -0.5818
    3TCq1    O214374   0.704   3.755  13.498 -0.2112  0.3215 -0.6212
    3TCq1    C214375   0.931   3.786  13.544  0.5403  0.8617  0.2755
    3TCq1    C314376   1.029   3.771  13.637 -0.3159 -0.0710  0.6019
    3TCq1    C414377   1.159   3.817  13.614 -0.2666 -0.5856  0.5451
    3TCq1    C514378   1.190   3.866  13.489 -0.0007  0.6043  0.1691
    3TCq1    C614379   1.090   3.861  13.397 -0.2634  0.4251 -0.1874
    3TCq1    C714380   0.957   3.824  13.417  0.5048  0.4393 -0.0901
    3TCq1    C814381   1.127   3.891  13.261 -0.7011  0.7693 -0.4197
    3TCq1    O414382   1.235   3.949  13.253  0.1668 -0.9483 -0.7857
    3TCq1    C914383   1.260   3.794  13.710 -0.1536 -0.4911  0.8173
    3TCq1    O514384   1.378   3.820  13.671 -0.0292  0.2006 -0.4206
    3TCq1    O614385   1.237   3.763  13.833 -0.2026 -0.2887  0.1677
    3TCq1    H114386   0.850   3.800  13.759 -1.5991  0.8559  0.8263
    3TCq1    H214387   1.011   3.726  13.734 -2.0847 -0.9572 -0.1338
    3TCq1    H314388   1.289   3.905  13.469 -0.4462  1.4791 -0.3155
    3TCq1    H414389   0.884   3.825  13.337 -1.1860  1.2693  1.4834
    1MPD2     C14390   0.157   4.481  15.377  0.1958 -0.2957  0.8549
    1MPD2    C114391   0.180   4.457  15.243 -0.1448  0.6572 -0.0816
    1MPD2    C214392   0.275   4.364  15.216  0.0416  0.4995 -0.0448
    1MPD2    C314393   0.351   4.312  15.318  0.7313  0.2547  0.4620
    1MPD2    C414394   0.333   4.349  15.450  0.6239 -0.6829  0.0314
    1MPD2    C514395   0.231   4.432  15.484 -0.1576  0.0312 -0.4335
    1MPD2     H14396   0.300   4.334  15.115 -2.0378  0.3731 -0.5182
    1MPD2    H114397   0.405   4.316  15.524  0.2996  0.8046  1.0195
    1MPD2    H214398   0.087   4.562  15.393  0.0287 -0.7570  2.4116
    1MPD2    H314399   0.212   4.471  15.584  0.0334 -2.7609  0.7059
    1MPD2     N14400   0.455   4.231  15.268 -0.2999  0.5095 -0.2238
    1MPD2    H514401   0.462   4.218  15.168  0.9286 -4.6713  0.5357
    1MPD2    N114402   0.101   4.527  15.146  0.7035 -0.5755  0.3602
    1MPD2    H714403   0.015   4.569  15.180  0.0348 -0.2946 -1.6727
    2TMC3    C114404   0.002   4.538  14.941 -0.5163  0.0911 -0.0100
    2TMC3    C214405   4.676   4.423  14.894  0.5611  0.4445 -0.4176
    2TMC3    C314406   4.648   4.421  14.761  0.1988  0.0462  0.2925
    2TMC3    C414407   0.029   4.641  14.857  0.6275 -0.5856  0.1286
    2TMC3    C514408   0.004   4.634  14.723 -0.1120 -0.0121 -0.0917
    2TMC3    C614409   4.686   4.520  14.671  0.1124 -0.1479 -0.4417
    2TMC3     C14410   0.116   4.504  15.010  0.8291  1.5486  0.0679
    2TMC3     O14411   0.203   4.442  14.950 -0.0450  0.2924  0.3260
    2TMC3     H14412   4.636   4.351  14.965 -0.6188  0.8522 -0.6682
    2TMC3    H114413   0.081   4.729  14.893 -0.7926 -0.0337  0.8485
    2TMC3    H214414   4.658   4.505  14.568 -2.5083 -0.7546  0.3637
    2TMC3    C714415   0.062   4.728  14.631  0.3290  0.2783  0.4096
    2TMC3    C814416   4.670   4.290  14.698  0.3217  0.5197  0.4676
    2TMC3    O114417   0.041   4.706  14.511 -0.1851 -0.5073  0.2753
    2TMC3    O214418   4.634   4.269  14.581  0.2074  0.0909 -0.1184
    3TCq1    O114419   0.709   1.035  14.742  0.3099  0.0221 -0.1930
    3TCq1    C114420   0.785   0.928  14.716 -0.0405  0.7408 -0.1238
    3TCq1    O214421   0.908   0.924  14.703  0.1964 -0.0686  0.6139
    3TCq1    C214422   0.724   0.811  14.770 -0.3104  0.0123 -0.0720
    3TCq1    C314423   0.794   0.730  14.847  0.2172  0.4717 -0.1627
    3TCq1    C414424   0.734   0.612  14.888 -0.3113 -0.1828 -0.2504
    3TCq1    C514425   0.618   0.571  14.835 -0.0551 -0.6917 -0.1031
    3TCq1    C614426   0.566   0.645  14.734  0.0596 -0.4829 -0.4874
    3TCq1    C714427   0.612   0.772  14.701  1.0399  0.0484  0.0293
    3TCq1    C814428   0.460   0.596  14.648  0.0651  0.7653 -0.1148
    3TCq1    O414429   0.446   0.653  14.539 -0.2566  0.4751  0.2187
    3TCq1    C914430   0.805   0.520  14.972  0.2147  0.3094  0.3792
    3TCq1    O514431   0.931   0.540  14.990 -0.0466 -0.4601 -0.2420
    3TCq1    O614432   0.745   0.413  15.006 -0.2526  0.7569  0.5038
    3TCq1    H114433   0.630   1.014  14.797  0.8315 -1.7317 -0.1289
    3TCq1    H214434   0.895   0.750  14.879  0.5446  1.3191 -1.7407
    3TCq1    H314435   0.581   0.471  14.855 -2.3407  0.5857  2.0281
    3TCq1    H414436   0.554   0.835  14.636 -0.3459 -2.7840 -1.5015
    4MPD2     C14437   0.280   0.427  14.481  0.3816 -0.3249 -0.3510
    4MPD2    C114438   0.316   0.399  14.608  0.0340  0.5265  0.5280
    4MPD2    C214439   0.272   0.285  14.672  0.4062  0.6612 -0.6269
    4MPD2    C314440   0.184   0.203  14.608  0.2754 -0.0030 -0.1819
    4MPD2    C414441   0.151   0.228  14.476 -0.2289  0.1669 -0.3445
    4MPD2    C514442   0.203   0.342  14.414  0.0965 -0.4456  0.0778
    4MPD2     H14443   0.305   0.256  14.771  0.3837  0.5541 -0.6510
    4MPD2    H114444   0.088   0.163  14.417 -0.8905 -0.7777  1.4129
    4MPD2    H214445   0.321   0.510  14.425 -1.0572  0.0633 -0.8207
    4MPD2    H314446   0.193   0.352  14.306  2.2672  1.4623  0.0719
    4MPD2     N14447   0.145   0.087  14.679  0.1242 -0.6268 -0.0465
    4MPD2    H514448   0.179   0.071  14.774  1.5066 -0.1135 -0.4572
    4MPD2    N114449   0.403   0.480  14.685  0.4040 -0.2680 -0.1640
    4MPD2    H714450   0.412   0.462  14.785 -3.1240 -0.3828  0.1420
    5TMC2    C114451   0.542   3.969  15.051 -0.7887 -0.2776  0.6573
    5TMC2    C214452   0.531   3.844  15.093 -0.3835  0.0254  0.0617
    5TMC2    C314453   0.550   3.822  15.225 -0.3011  0.3010 -0.3553
    5TMC2    C414454   0.589   4.073  15.133  0.0136  0.2540  0.3820
    5TMC2    C514455   0.599   4.043  15.269  0.8763  1.1917  0.3382
    5TMC2    C614456   0.567   3.919  15.312 -0.0865 -0.0025 -0.6307
    5TMC2     C14457   0.431   4.024  14.985 -0.0100 -0.3042 -0.2696
    5TMC2     O14458   0.413   4.147  15.001  0.1909  0.4801 -0.1081
    5TMC2     H14459   0.512   3.759  15.029 -2.6240 -0.2960  1.1538
    5TMC2    H114460   0.634   4.165  15.098  1.3842 -0.3619  0.5187
    5TMC2    H214461   0.580   3.900  15.418  0.7608 -1.3517 -0.9772
    5TMC2    C714462   0.534   4.145  15.350 -0.7963 -0.4301 -0.1385
    5TMC2    C814463   0.536   3.687  15.283 -0.6649  0.3107  1.0425
    5TMC2    O114464   0.530   4.132  15.469  0.9815  0.1047 -0.0266
    5TMC2    O214465   0.497   3.667  15.397 -0.1616  0.3946 -0.3051
    5TMC2    O514466   0.578   3.594  15.193  0.2256  0.2861  0.0526
    5TMC2    H514467   0.643   3.631  15.130  1.0280 -1.1885  0.0208
    6MPD2     C14468   0.060   4.035  14.639 -0.5829 -0.1472  0.2304
    6MPD2    C114469   0.084   4.103  14.751  0.5519  0.1819 -0.2963
    6MPD2    C214470   0.191   4.080  14.833  0.7846 -0.1674  0.5408
    6MPD2    C314471   0.267   3.973  14.806 -0.4258  0.0145  0.1068
    6MPD2    C414472   0.244   3.899  14.691  0.6997  0.0366 -0.3561
    6MPD2    C514473   0.147   3.935  14.598 -1.1289 -0.3282  0.5095
    6MPD2     H14474   0.211   4.149  14.914  0.2971  0.0289  0.4934
    6MPD2    H114475   0.298   3.806  14.680  1.4154  0.3443  0.5491
    6MPD2    H214476   4.716   4.058  14.572  0.5642 -0.5799 -1.3208
    6MPD2    H314477   0.121   3.883  14.507  1.4245  2.0960 -1.6021
    6MPD2     N14478   0.377   3.941  14.891  0.4277  0.1793  0.6367
    6MPD2    H514479   0.435   3.861  14.869 -2.8519 -2.4768  1.6478
    6MPD2    N114480   0.008   4.216  14.786 -0.5454 -0.5486  0.3373
    6MPD2    H714481   0.037   4.257  14.874 -2.0574 -0.8716  0.9792
  945NH4     N114482   3.091   0.644   7.425  0.4643 -0.3459  0.5297
  945NH4     H214483   3.139   0.587   7.352 -0.0621  0.0564 -0.1299
  945NH4     H314484   3.080   0.739   7.384 -0.6790 -0.9339 -0.4956
  945NH4     H414485   3.148   0.652   7.512 -0.8248 -1.8991  1.5084
  945NH4     H514486   3.000   0.603   7.453 -0.3469 -0.2385 -2.0034
  946SOD     NA14487   4.576   2.475  11.695  0.4502  0.0424 -0.6319
  947SOD     NA14488   0.837   0.226  14.950  0.4203 -0.2051 -0.3113
  948SOD     NA14489   1.531   3.702  13.583  0.3335  0.3487  0.3849
  949SOD     NA14490   0.842   1.939  16.245  0.0617  0.2948  0.4222
  950SOD     NA14491   0.959   0.114  11.729  0.0215  0.2920 -0.0031
  951SOD     NA14492   4.263   4.435   5.593 -0.3284 -0.2044 -0.2025
  952SOD     NA14493   0.982   0.445  11.761 -0.1878 -0.1722 -0.0296
  953SOL     OW14494   4.100   1.833   6.802  0.6519  0.2120 -0.2052
  953SOL    HW114495   4.015   1.836   6.758  0.6923  1.5092 -0.1913
  953SOL    HW214496   4.155   1.905   6.772  0.0465  1.5598  1.9473
  954SOL     OW14497   4.348   0.100   8.542  0.0077  0.3436 -0.1255
  954SOL    HW114498   4.354   0.068   8.632 -3.3091  0.4722  0.1363
  954SOL    HW214499   4.310   0.021   8.505 -0.8053  0.0671  1.2739
  955SOL     OW14500   1.002   0.187  12.031 -0.3421 -0.4316  0.2850
  955SOL    HW114501   0.938   0.173  11.962 -0.7749  0.0423  0.5899
  955SOL    HW214502   1.053   0.106  12.040  1.4281  0.6808  0.1876
  956SOL     OW14503   2.074   3.874  11.937  0.0744  0.1586 -0.2095
  956SOL    HW114504   2.144   3.881  11.871 -0.3330  0.0732 -0.6478
  956SOL    HW214505   2.127   3.877  12.016  0.9351  0.6368 -0.7989
  957SOL     OW14506   0.213   0.912   5.671 -0.4840  0.1541 -0.0025
  957SOL    HW114507   0.159   0.939   5.745  1.3761  3.1386  0.2186
  957SOL    HW214508   0.302   0.901   5.703 -1.1200 -1.5784  1.2208
  958SOL     OW14509   4.406   2.397   3.958 -0.5124 -0.3749  0.3764
  958SOL    HW114510   4.338   2.389   3.891  2.5929 -1.4736 -2.6625
  958SOL    HW214511   4.349   2.384   4.033 -1.1891  2.5943  0.3973
  959SOL     OW14512   3.361   2.408   3.464  0.2123  0.0750  0.4197
  959SOL    HW114513   3.353   2.374   3.374 -0.2888  0.0683  0.4652
  959SOL    HW214514   3.429   2.354   3.504  2.0323  0.7487 -1.7367
  960SOL     OW14515   0.597   3.259   4.751  0.0886  0.0607  0.4717
  960SOL    HW114516   0.505   3.259   4.724 -1.0151 -0.3508  4.2455
  960SOL    HW214517   0.642   3.278   4.669 -0.2295 -0.2159  0.2345
  961SOL     OW14518   2.869   3.914   7.896 -0.2227  0.1526 -0.3114
  961SOL    HW114519   2.882   3.927   7.990  1.5466 -1.8709 -0.2760
  961SOL    HW214520   2.898   3.997   7.860 -2.0617  0.9148 -0.0434
  962SOL     OW14521   2.195   4.099   2.494  0.3427 -0.7125  0.1783
  962SOL    HW114522   2.217   4.006   2.503 -1.5553 -1.4272 -2.6433
  962SOL    HW214523   2.230   4.125   2.579 -0.1748 -0.5471  0.3402
  963SOL     OW14524   2.761   0.859  13.593 -0.2134 -0.3107  0.1331
  963SOL    HW114525   2.698   0.834  13.661 -0.8437  0.1584 -0.2881
  963SOL    HW214526   2.842   0.848  13.644  0.4177  0.0143 -0.8149
  964SOL     OW14527   0.588   2.305   6.967 -0.6260  0.8999  0.5015
  964SOL    HW114528   0.598   2.379   6.907 -1.7163  2.4729  2.2374
  964SOL    HW214529   0.495   2.288   6.960 -0.7471  0.7142  2.4300
  965SOL     OW14530   0.939   0.185   0.699  0.4167 -0.4432  0.1732
  965SOL    HW114531   0.963   0.271   0.733 -2.0981  0.3483 -0.0961
  965SOL    HW214532   1.015   0.133   0.672  1.0516  0.5169  0.1047
  966SOL     OW14533   4.337   1.528   6.348  0.2096 -0.2547  0.5207
  966SOL    HW114534   4.422   1.527   6.392  0.1459  1.1610  0.6866
  966SOL    HW214535   4.290   1.496   6.425 -0.7340  1.1534  0.5399
  967SOL     OW14536   4.599   1.927  15.914  0.1408 -0.1584 -0.4312
  967SOL    HW114537   4.623   2.019  15.903 -0.8682  0.3258  1.4175
  967SOL    HW214538   4.544   1.905  15.838 -2.3591 -0.8550  1.5709
  968SOL     OW14539   0.340   3.065  11.252 -0.5276 -0.4425  0.3292
  968SOL    HW114540   0.400   3.041  11.181 -0.6237  2.6213 -0.8109
  968SOL    HW214541   0.399   3.055  11.326 -0.9811  0.8885  0.8638
  969SOL     OW14542   4.578   4.673   2.309 -0.8044 -0.3682 -0.1371
  969SOL    HW114543   4.516   4.720   2.365  1.0671 -0.9863  2.4398
  969SOL    HW214544   4.645   0.003   2.317 -0.0603 -1.0797 -0.2354
  970SOL     OW14545   1.058   0.622  17.426  0.0675  0.4422 -0.0606
  970SOL    HW114546   1.024   0.638  17.338 -1.5179  2.0597  0.8412
  970SOL    HW214547   1.148   0.589  17.427 -0.2189 -0.3425 -0.0516
  971SOL     OW14548   0.452   3.009   5.133 -0.1708 -0.1709  0.0077
  971SOL    HW114549   0.466   3.096   5.171  2.4726 -0.8498  0.5969
  971SOL    HW214550   0.511   2.959   5.189 -0.2459 -0.6890 -0.3809
  972SOL     OW14551   3.076   1.028  12.628 -0.0510 -0.3673  0.8631
  972SOL    HW114552   3.148   1.063  12.574 -0.3994 -2.4166 -0.9217
  972SOL    HW214553   3.010   1.015  12.560  0.8604 -1.6115  0.2246
  973SOL     OW14554   3.437   4.659   4.882 -0.1457 -0.1335 -0.6706
  973SOL    HW114555   3.419   4.722   4.952  2.8941 -0.8751  0.7451
  973SOL    HW214556   3.352   4.616   4.870  0.2145 -0.7593 -0.9948
  974SOL     OW14557   3.915   3.514   0.017 -0.3595  0.4072  0.2288
  974SOL    HW114558   3.927   3.425  17.732  1.5642 -0.0160  2.0128
  974SOL    HW214559   3.887   3.481   0.102 -2.2252 -1.5824 -1.1434
  975SOL     OW14560   2.716   0.514   7.358 -0.3041 -0.1632  0.4754
  975SOL    HW114561   2.621   0.519   7.353 -0.4867 -2.3316  1.9763
  975SOL    HW214562   2.757   0.581   7.304  0.9846  0.6870  2.4983
  976SOL     OW14563   0.314   1.646  16.702 -0.4161  0.1883  0.0092
  976SOL    HW114564   0.373   1.657  16.777  1.0003 -0.4226 -1.0158
  976SOL    HW214565   0.264   1.579  16.749  2.8802  1.2918  5.1236
  977SOL     OW14566   2.313   0.074   5.580  0.6979 -0.0947 -0.5952
  977SOL    HW114567   2.297   0.072   5.486 -2.0938  1.3695 -0.1548
  977SOL    HW214568   2.226   0.099   5.611  0.0578 -2.1885 -0.6824
  978SOL     OW14569   0.943   3.522  16.976  0.6047 -0.4309  0.0659
  978SOL    HW114570   0.867   3.568  17.011  0.2761 -0.8219 -0.1422
  978SOL    HW214571   0.904   3.479  16.900  0.0217 -3.0122  1.8185
  979SOL     OW14572   3.052   4.358  13.951 -0.2815  0.4994  0.1604
  979SOL    HW114573   3.035   4.430  13.890 -2.0173 -1.1622 -1.3335
  979SOL    HW214574   2.968   4.359  13.997 -0.1454 -2.7796  0.5139
  980SOL     OW14575   4.729   3.429  11.379 -0.4015 -0.7219  0.4258
  980SOL    HW114576   0.072   3.377  11.378 -0.0782 -0.1849 -0.9023
  980SOL    HW214577   4.668   3.358  11.358 -1.7186 -0.0775  2.1217
  981SOL     OW14578   4.586   2.766   9.207 -0.1153  0.0463  0.3006
  981SOL    HW114579   4.617   2.681   9.175  2.8530  0.7991  1.1279
  981SOL    HW214580   4.660   2.814   9.169 -0.5889  0.0278 -0.6559
  982SOL     OW14581   1.885   4.287   5.589 -0.3670 -0.0343  0.1616
  982SOL    HW114582   1.873   4.314   5.680 -1.1856  0.3727 -0.0751
  982SOL    HW214583   1.979   4.266   5.587  0.4197  3.2405  1.5945
  983SOL     OW14584   3.026   1.659  13.551 -0.1460  0.3757 -0.0748
  983SOL    HW114585   2.989   1.721  13.487  0.8430 -0.4213 -1.4239
  983SOL    HW214586   3.105   1.627  13.508 -1.6443  0.3929 -2.8609
  984SOL     OW14587   4.139   4.130  14.516  0.0186  0.2857  0.1297
  984SOL    HW114588   4.233   4.132  14.534  0.0925 -1.9573 -0.0003
  984SOL    HW214589   4.126   4.211  14.466  2.7328  0.9245  0.4512
  985SOL     OW14590   3.044   2.384   4.168  0.1825 -0.4434  0.3387
  985SOL    HW114591   2.986   2.382   4.092  0.6190  1.3843 -0.0435
  985SOL    HW214592   3.002   2.443   4.230  0.6178  0.3716 -0.1308
  986SOL     OW14593   3.281   1.281   8.191  0.6272  0.1354  0.2935
  986SOL    HW114594   3.303   1.195   8.227 -0.1090  0.7162  2.1850
  986SOL    HW214595   3.358   1.336   8.204 -1.2931  2.7804  0.4182
  987SOL     OW14596   0.037   0.274  17.526  0.5578 -0.1274  0.0392
  987SOL    HW114597   0.057   0.183  17.545 -0.4398 -0.6763 -1.4703
  987SOL    HW214598   0.028   0.310  17.614  0.4880  1.5483 -0.6448
  988SOL     OW14599   3.904   3.464  15.350 -0.8824  0.5449 -0.0956
  988SOL    HW114600   3.847   3.541  15.347 -1.4110  0.0792 -2.1620
  988SOL    HW214601   3.957   3.477  15.271  1.0676 -1.9959  0.7718
  989SOL     OW14602   1.081   0.455  11.948  0.3682 -0.0817 -0.0570
  989SOL    HW114603   1.053   0.509  12.021 -0.7925 -0.2090 -0.4022
  989SOL    HW214604   1.079   0.369  11.991 -0.4995  0.3617  0.7779
  990SOL     OW14605   2.292   3.955  10.736 -0.2479 -0.1720  0.3195
  990SOL    HW114606   2.236   4.033  10.734  1.3940  0.9677 -0.9626
  990SOL    HW214607   2.283   3.929  10.644 -1.8187  0.2761  0.3390
  991SOL     OW14608   2.635   2.176   7.486  0.4817 -0.0395  0.2899
  991SOL    HW114609   2.562   2.220   7.530 -1.5285 -1.5238 -1.5524
  991SOL    HW214610   2.701   2.180   7.556 -0.4123 -1.2597  1.2031
  992SOL     OW14611   3.339   4.087  12.293 -0.3447  0.2090 -0.1970
  992SOL    HW114612   3.320   4.172  12.252 -2.0863 -0.8005 -1.5096
  992SOL    HW214613   3.355   4.031  12.216  0.9589  1.3184 -0.7181
  993SOL     OW14614   1.474   0.169  14.437 -0.2613  0.3517  0.1006
  993SOL    HW114615   1.505   0.223  14.510  0.1044  0.0965  0.1313
  993SOL    HW214616   1.534   0.201  14.369 -0.7592 -2.1188 -1.5158
  994SOL     OW14617   0.456   3.822   1.091  0.6247  0.1835  0.1683
  994SOL    HW114618   0.525   3.844   1.153 -0.1947  2.5861  0.2465
  994SOL    HW214619   0.449   3.908   1.049  3.0830  0.4527  0.3321
  995SOL     OW14620   3.201   3.527   1.956  0.0139 -0.7796 -0.1202
  995SOL    HW114621   3.107   3.526   1.970 -0.3953  0.9616 -2.7061
  995SOL    HW214622   3.202   3.598   1.892 -1.1171 -1.5740 -1.0221
  996SOL     OW14623   1.388   2.428  11.658  0.3102 -0.6764  0.1428
  996SOL    HW114624   1.472   2.394  11.688  0.5827  0.2479  0.4268
  996SOL    HW214625   1.381   2.380  11.576  2.4320  1.3993 -1.2482
  997SOL     OW14626   1.369   2.605   4.228  0.5007  0.8350 -0.0116
  997SOL    HW114627   1.387   2.631   4.138  1.5428 -0.1348 -0.0821
  997SOL    HW214628   1.275   2.587   4.225  1.2748 -2.8822 -1.5152
  998SOL     OW14629   4.515   0.709   9.431  0.0852 -0.0100 -0.1355
  998SOL    HW114630   4.489   0.800   9.420 -0.2687 -0.2146 -0.9754
  998SOL    HW214631   4.432   0.661   9.429  0.6940 -1.0777 -0.0101
  999SOL     OW14632   0.032   4.306   9.693 -0.3205 -0.3519  0.0235
  999SOL    HW114633   0.029   4.253   9.773 -1.6993 -1.3301 -0.6753
  999SOL    HW214634   0.093   4.373   9.724  0.1277 -0.9542  0.4340
 1000SOL     OW14635   2.298   3.159   6.306 -0.3984 -0.5154 -0.2908
 1000SOL    HW114636   2.359   3.231   6.292 -1.3382  0.1792 -0.7670
 1000SOL    HW214637   2.238   3.167   6.232 -1.0380  1.2169  0.4256
 1001SOL     OW14638   0.351   2.522   9.829 -0.6614  0.3272  0.3944
 1001SOL    HW114639   0.300   2.600   9.852 -1.3512  0.6029 -2.0629
 1001SOL    HW214640   0.293   2.447   9.826 -0.4502  0.0770  2.3973
 1002SOL     OW14641   3.623   1.778   2.554 -0.4388  0.0884  0.7673
 1002SOL    HW114642   3.627   1.741   2.466 -1.0259 -0.3373  0.9234
 1002SOL    HW214643   3.702   1.734   2.587 -1.0888 -1.5895  0.0855
 1003SOL     OW14644   0.837   2.520   7.208  0.5082 -0.0496 -0.2643
 1003SOL    HW114645   0.757   2.490   7.252  0.6750 -0.2949 -0.1266
 1003SOL    HW214646   0.872   2.438   7.171 -0.9641  0.2447 -2.2912
 1004SOL     OW14647   0.240   3.291  11.353  0.2559  0.3158 -0.2652
 1004SOL    HW114648   0.271   3.210  11.314 -1.1301 -0.1217 -0.4408
 1004SOL    HW214649   0.292   3.302  11.433  1.5190  0.8517 -1.1607
 1005SOL     OW14650   1.026   0.285  17.133  0.5983 -0.6060  0.2919
 1005SOL    HW114651   1.029   0.242  17.047 -1.8684  0.2692 -0.2260
 1005SOL    HW214652   0.949   0.336  17.107 -0.9468 -3.1740 -0.2103
 1006SOL     OW14653   1.684   4.200   6.154 -0.3146 -0.3564  0.8494
 1006SOL    HW114654   1.702   4.237   6.067 -1.7075  0.6412  0.9904
 1006SOL    HW214655   1.687   4.275   6.212 -1.3389 -0.6961  1.3366
 1007SOL     OW14656   3.249   1.615  10.233 -0.3176  0.4761  0.0368
 1007SOL    HW114657   3.176   1.566  10.271  0.3996 -0.7823 -0.2279
 1007SOL    HW214658   3.241   1.708  10.256 -2.3182  0.6979 -1.5665
 1008SOL     OW14659   1.728   4.363  11.436 -0.5678  0.3875  0.1510
 1008SOL    HW114660   1.645   4.360  11.388 -1.6184  0.9919  1.9275
 1008SOL    HW214661   1.734   4.458  11.435  0.7786  0.3051  1.1812
 1009SOL     OW14662   2.750   1.110  10.636  0.6603  0.6787  0.2680
 1009SOL    HW114663   2.841   1.122  10.665  1.3468  0.4140 -1.8003
 1009SOL    HW214664   2.721   1.047  10.702  1.8259 -0.2091 -0.0627
 1010SOL     OW14665   1.448   3.442   1.590 -0.6044  0.1059 -0.0747
 1010SOL    HW114666   1.378   3.503   1.615  0.5701  1.4305 -0.0441
 1010SOL    HW214667   1.436   3.364   1.643 -2.8245  0.4705 -0.0447
 1011SOL     OW14668   1.532   4.431   5.126 -0.1039  0.1718 -0.1071
 1011SOL    HW114669   1.529   4.506   5.186 -2.1176 -0.1037  0.1312
 1011SOL    HW214670   1.615   4.453   5.084  0.3683 -1.7335 -0.1877
 1012SOL     OW14671   3.133   4.670   7.901  0.3122  0.0082 -0.0831
 1012SOL    HW114672   3.214   4.620   7.893  1.4718  1.6482  1.3429
 1012SOL    HW214673   3.074   4.603   7.867 -0.5069  0.9797 -0.5832
 1013SOL     OW14674   0.469   0.367   6.501 -0.1171 -0.4309 -0.3591
 1013SOL    HW114675   0.556   0.329   6.493  1.0208  2.9579 -4.0014
 1013SOL    HW214676   0.459   0.402   6.589  1.2342  0.4819 -0.5741
 1014SOL     OW14677   0.265   0.992  11.483  0.0436 -0.2216  0.2165
 1014SOL    HW114678   0.219   0.999  11.566  1.9153 -1.0404  1.3283
 1014SOL    HW214679   0.352   0.957  11.504 -0.4771 -0.2025  2.4270
 1015SOL     OW14680   0.340   3.469   3.341  0.3687 -0.0023 -0.0108
 1015SOL    HW114681   0.309   3.390   3.385 -0.9149 -0.3772 -1.5920
 1015SOL    HW214682   0.395   3.426   3.276  1.2031  0.8905  0.1048
 1016SOL     OW14683   2.485   0.003   9.078  0.4766  0.0895 -0.3048
 1016SOL    HW114684   2.420   0.015   9.147 -1.0938 -0.6770 -1.6428
 1016SOL    HW214685   2.551   0.064   9.113  1.5574 -1.0210 -0.4041
 1017SOL     OW14686   3.069   0.252   2.057 -0.1153  0.2690 -0.0535
 1017SOL    HW114687   3.150   0.276   2.012  0.4179  0.1123  0.8151
 1017SOL    HW214688   3.106   0.233   2.143  0.1597 -3.2448 -0.9587
 1018SOL     OW14689   1.216   3.003  13.642 -0.9907 -0.4129 -0.2898
 1018SOL    HW114690   1.279   2.970  13.578  1.2672 -0.5479  2.0042
 1018SOL    HW214691   1.225   3.097  13.628 -0.8464 -0.4821 -0.6568
 1019SOL     OW14692   2.793   4.330  16.771 -0.1821 -0.3519 -0.1383
 1019SOL    HW114693   2.811   4.396  16.704 -0.3331 -1.0429 -0.8757
 1019SOL    HW214694   2.788   4.253  16.714  2.1675 -0.9785  0.4902
 1020SOL     OW14695   3.601   0.362  10.973 -0.2187 -0.5329  0.3027
 1020SOL    HW114696   3.559   0.298  10.915  1.1162 -2.2997  1.2984
 1020SOL    HW214697   3.522   0.409  11.000  0.1884  1.1439 -1.4725
 1021SOL     OW14698   2.600   2.448   6.553  0.0819 -0.4382 -0.4298
 1021SOL    HW114699   2.515   2.476   6.518 -0.1736  1.2534  1.5063
 1021SOL    HW214700   2.661   2.519   6.533  0.6294 -1.5329 -2.6050
 1022SOL     OW14701   1.872   1.431   2.833 -0.0278  0.0078  0.1656
 1022SOL    HW114702   1.783   1.426   2.868 -0.1900  0.3793 -0.2002
 1022SOL    HW214703   1.884   1.337   2.850  1.0660  0.1543  0.1971
 1023SOL     OW14704   0.017   4.147   8.463  0.4479  0.2278 -0.2534
 1023SOL    HW114705   4.710   4.095   8.397  0.2098  2.2322 -1.6537
 1023SOL    HW214706   0.109   4.144   8.436 -0.1138 -0.3067 -2.0644
 1024SOL     OW14707   0.657   2.353   5.617  0.0309  0.7464  0.3725
 1024SOL    HW114708   0.610   2.413   5.675  0.5902 -0.3765  1.9669
 1024SOL    HW214709   0.607   2.371   5.537  0.6027  0.6138 -0.0102
 1025SOL     OW14710   0.082   3.807   7.883 -0.6933 -0.0440 -0.2507
 1025SOL    HW114711   0.151   3.873   7.886 -2.3280  1.6425  0.0346
 1025SOL    HW214712   0.083   3.797   7.788  0.1653  0.5852 -0.3059
 1026SOL     OW14713   1.697   0.600  17.643 -0.9742  0.0078  0.2967
 1026SOL    HW114714   1.694   0.558  17.730  2.1817 -0.2362  0.3138
 1026SOL    HW214715   1.656   0.684  17.661 -1.8419  0.0064 -1.7910
 1027SOL     OW14716   3.749   0.807   4.756  0.3437  0.1124 -0.0151
 1027SOL    HW114717   3.677   0.752   4.726  0.8125 -0.7823  0.5253
 1027SOL    HW214718   3.707   0.846   4.832  1.4830  1.5616 -0.1137
 1028SOL     OW14719   3.287   1.098  12.271  0.1215 -1.0064  0.0761
 1028SOL    HW114720   3.313   1.012  12.237  0.2676 -1.0514  0.3022
 1028SOL    HW214721   3.224   1.133  12.208 -1.4791 -1.5731  1.3447
 1029SOL     OW14722   1.875   1.182   8.479 -0.1587 -0.0169  0.1510
 1029SOL    HW114723   1.819   1.104   8.481  0.1147 -0.2171 -0.1778
 1029SOL    HW214724   1.954   1.137   8.450  0.4872  0.4216  1.2353
 1030SOL     OW14725   0.148   1.327   4.536  0.5481  0.1964  0.2589
 1030SOL    HW114726   0.189   1.395   4.590 -0.3471 -0.0201  1.2128
 1030SOL    HW214727   0.132   1.262   4.604 -0.8276  1.8061  1.4972
 1031SOL     OW14728   1.405   1.038   1.587  0.3009  0.0557 -0.2115
 1031SOL    HW114729   1.461   0.965   1.558 -0.5606 -0.4591 -0.6062
 1031SOL    HW214730   1.368   1.077   1.508 -0.4797  0.1837  0.2180
 1032SOL     OW14731   3.904   4.288   6.202  0.5706  0.5474  0.4751
 1032SOL    HW114732   3.915   4.342   6.123  1.7739 -2.3722 -1.3690
 1032SOL    HW214733   3.938   4.201   6.180 -1.3146  0.5503 -2.5109
 1033SOL     OW14734   1.513   4.289  15.419 -0.5640 -0.2588  0.8094
 1033SOL    HW114735   1.475   4.306  15.505  1.3235 -2.0502  1.9722
 1033SOL    HW214736   1.506   4.382  15.398  1.3178 -0.4053 -0.4660
 1034SOL     OW14737   1.620   3.295   5.799  0.4249  0.2381 -0.5536
 1034SOL    HW114738   1.705   3.314   5.759  1.0434  0.7118  0.9938
 1034SOL    HW214739   1.627   3.361   5.867 -0.9198  0.4304 -0.6051
 1035SOL     OW14740   1.804   0.205   8.106  0.0760  0.0700 -0.1682
 1035SOL    HW114741   1.780   0.279   8.050  0.1462 -0.0603 -0.3692
 1035SOL    HW214742   1.713   0.178   8.116  0.9884 -3.7731 -2.2812
 1036SOL     OW14743   4.044   2.939  17.721 -0.2236  0.4436 -0.5429
 1036SOL    HW114744   4.001   2.883  17.656  0.7731 -0.2412 -0.5989
 1036SOL    HW214745   4.136   2.919  17.709 -0.1146  1.8804 -2.0754
 1037SOL     OW14746   1.584   1.136   9.438 -0.2068 -0.1538  0.3572
 1037SOL    HW114747   1.651   1.078   9.474  2.0569  3.7668  2.4473
 1037SOL    HW214748   1.624   1.183   9.365 -0.8805  1.5043  1.0358
 1038SOL     OW14749   2.767   3.254   4.458 -0.4332  0.3929  0.1121
 1038SOL    HW114750   2.845   3.204   4.436 -1.0517 -1.2771  1.7762
 1038SOL    HW214751   2.727   3.247   4.371 -1.4452  1.8666  0.4595
 1039SOL     OW14752   1.840   1.502   2.148 -0.0989 -0.7007  0.1869
 1039SOL    HW114753   1.936   1.500   2.149  0.0057  2.3384 -2.5235
 1039SOL    HW214754   1.826   1.431   2.085  0.0882 -0.8899  0.3571
 1040SOL     OW14755   0.635   2.798  11.577  0.2310  0.3708  0.6267
 1040SOL    HW114756   0.685   2.739  11.521 -1.8853 -1.6691  0.8964
 1040SOL    HW214757   0.570   2.736  11.608 -0.5513  1.4277  1.1038
 1041SOL     OW14758   3.727   4.145   5.985  0.0830 -0.5893 -0.5163
 1041SOL    HW114759   3.668   4.219   5.975  3.4279  1.9327 -1.4722
 1041SOL    HW214760   3.679   4.068   5.953 -1.7638  0.6732 -0.8187
 1042SOL     OW14761   4.487   2.725   9.819 -0.7709  0.2134 -0.3896
 1042SOL    HW114762   4.480   2.784   9.744 -0.7643 -0.1613 -0.6865
 1042SOL    HW214763   4.400   2.746   9.853 -0.7494 -1.4820  0.7075
 1043SOL     OW14764   1.361   1.461   7.044  0.5822  0.2628  0.4159
 1043SOL    HW114765   1.275   1.475   7.003  1.6776  1.6008 -1.4541
 1043SOL    HW214766   1.396   1.550   7.033 -0.0163  0.3363 -0.9692
 1044SOL     OW14767   2.789   0.067   5.546 -0.7018 -0.3723 -0.6337
 1044SOL    HW114768   2.766   0.012   5.620  1.2848  0.0797  0.3406
 1044SOL    HW214769   2.704   0.081   5.505  0.2040  0.8579 -2.1309
 1045SOL     OW14770   3.616   4.533   5.589 -0.2544  0.6219 -0.2371
 1045SOL    HW114771   3.534   4.485   5.602  0.4258 -0.7420 -0.9801
 1045SOL    HW214772   3.625   4.599   5.658 -1.3681 -1.4804  1.9321
 1046SOL     OW14773   1.997   4.008  15.960  0.3972  0.4096 -0.6366
 1046SOL    HW114774   2.055   3.935  15.981  0.5865  0.1996 -1.8907
 1046SOL    HW214775   2.055   4.056  15.902  3.1267 -0.5267  1.3369
 1047SOL     OW14776   3.148   1.055   4.839  0.2065 -0.0553  0.0632
 1047SOL    HW114777   3.082   1.124   4.850  1.4634  0.7864  2.1836
 1047SOL    HW214778   3.213   1.097   4.783  0.0222  0.6111  0.3522
 1048SOL     OW14779   4.353   3.360   3.803  0.1344 -0.0787 -0.1542
 1048SOL    HW114780   4.354   3.441   3.753 -3.6850  1.4300  2.2051
 1048SOL    HW214781   4.260   3.357   3.827  0.4543 -3.4073  0.7459
 1049SOL     OW14782   1.025   1.583   4.864  0.1330  0.2370  0.5481
 1049SOL    HW114783   1.071   1.612   4.785  0.0754 -1.8825 -0.2523
 1049SOL    HW214784   1.048   1.651   4.928 -0.9188  1.7968 -0.7116
 1050SOL     OW14785   1.832   0.426   8.583  0.0945 -0.2251  0.3637
 1050SOL    HW114786   1.853   0.456   8.671  2.2975 -1.9733  0.4317
 1050SOL    HW214787   1.813   0.506   8.534 -1.2145 -0.3616  0.6421
 1051SOL     OW14788   3.165   0.196  13.370  0.1428  0.0893 -0.1480
 1051SOL    HW114789   3.094   0.138  13.394  1.3199 -0.5514  1.7463
 1051SOL    HW214790   3.239   0.152  13.411  0.3599 -1.2999 -2.0147
 1052SOL     OW14791   2.889   1.759   9.209  0.3281  0.0166 -0.5116
 1052SOL    HW114792   2.817   1.695   9.207  2.0119 -1.8668 -1.3484
 1052SOL    HW214793   2.897   1.787   9.300  0.4136  1.3591 -0.9436
 1053SOL     OW14794   2.425   0.512   7.750  0.1420 -0.7685 -0.7641
 1053SOL    HW114795   2.433   0.417   7.759  1.3854 -0.6276 -0.4251
 1053SOL    HW214796   2.518   0.533   7.744 -0.2360  0.7028 -1.2669
 1054SOL     OW14797   3.439   2.919   8.860  0.2085 -0.5614  0.1224
 1054SOL    HW114798   3.389   2.998   8.880  1.3028 -0.2890  1.8561
 1054SOL    HW214799   3.493   2.908   8.939  3.3430 -0.4859 -1.9996
 1055SOL     OW14800   2.391   4.173   8.872  0.0781  0.4027 -0.4059
 1055SOL    HW114801   2.381   4.246   8.811  3.4972  0.9173 -0.3484
 1055SOL    HW214802   2.397   4.099   8.811  1.0752  1.2743 -1.3782
 1056SOL     OW14803   3.153   1.137   4.427  0.4308 -0.5140  0.1641
 1056SOL    HW114804   3.221   1.201   4.406 -2.1169  1.0522 -3.2440
 1056SOL    HW214805   3.137   1.160   4.519 -2.4669  1.1111 -0.7483
 1057SOL     OW14806   3.087   2.472   8.809  0.2333  0.0316  0.0796
 1057SOL    HW114807   3.157   2.478   8.874  1.1305 -0.3076 -0.8634
 1057SOL    HW214808   3.119   2.538   8.748  1.9934 -2.5333 -1.7986
 1058SOL     OW14809   0.773   4.478   2.423  0.0984 -0.2226 -0.4076
 1058SOL    HW114810   0.757   4.455   2.331  2.6916 -0.3040 -0.8328
 1058SOL    HW214811   0.854   4.527   2.413  1.7123 -3.0017 -1.1358
 1059SOL     OW14812   2.059   2.161   6.755  0.8453  0.0484 -0.5930
 1059SOL    HW114813   2.117   2.218   6.705 -1.8100  0.3357 -3.3310
 1059SOL    HW214814   2.120   2.099   6.795 -0.6169 -2.1211 -1.7349
 1060SOL     OW14815   3.093   0.732   0.131  0.6170  0.4252 -0.3342
 1060SOL    HW114816   3.186   0.719   0.151  1.0491  2.7152 -0.8204
 1060SOL    HW214817   3.081   0.787   0.054  1.0822  1.3268  0.2362
 1061SOL     OW14818   0.597   3.768   3.248 -0.8597 -0.7273 -0.6776
 1061SOL    HW114819   0.514   3.816   3.246 -1.6462 -2.0024  1.1581
 1061SOL    HW214820   0.656   3.836   3.215 -0.0386 -0.8579  0.5283
 1062SOL     OW14821   0.305   4.421   3.676 -0.1421 -0.2402  0.5605
 1062SOL    HW114822   0.389   4.414   3.632 -1.0232  0.9879 -1.3077
 1062SOL    HW214823   0.304   4.348   3.738  0.2321 -0.8814 -0.2036
 1063SOL     OW14824   3.318   3.021  17.478 -0.7053 -0.0236 -0.2060
 1063SOL    HW114825   3.227   2.994  17.490 -1.5529  3.2985  0.8781
 1063SOL    HW214826   3.324   3.098  17.535  0.0248 -0.7881  0.7445
 1064SOL     OW14827   2.272   0.916   9.578 -0.1695  0.3363  0.3300
 1064SOL    HW114828   2.277   0.821   9.581  1.6241  0.3999 -0.4891
 1064SOL    HW214829   2.190   0.927   9.531  0.8220  3.5219 -0.6376
 1065SOL     OW14830   1.971   2.534   2.739  0.7794  0.4587 -0.0552
 1065SOL    HW114831   2.027   2.468   2.699  0.7479  1.0990 -1.1473
 1065SOL    HW214832   2.038   2.591   2.778  0.3793  0.5622  0.4873
 1066SOL     OW14833   0.104   1.815  16.609  0.1594  0.3136  0.4662
 1066SOL    HW114834   0.065   1.751  16.550  1.8262 -0.2773  0.0120
 1066SOL    HW214835   0.164   1.760  16.659  0.6662  1.1909  0.8152
 1067SOL     OW14836   1.087   3.540   6.465  0.2226 -0.0444 -0.4969
 1067SOL    HW114837   1.015   3.489   6.427  0.5541 -1.4442  0.7830
 1067SOL    HW214838   1.123   3.477   6.527 -1.2475  0.5339  0.9279
 1068SOL     OW14839   3.377   1.433  16.865  0.6483 -0.1537  0.3549
 1068SOL    HW114840   3.407   1.420  16.954  0.5742 -1.0384  0.2463
 1068SOL    HW214841   3.340   1.346  16.851 -2.8171  1.0129  2.3500
 1069SOL     OW14842   2.855   3.564   8.473 -0.1927  0.0482 -0.4903
 1069SOL    HW114843   2.934   3.609   8.502 -0.7093  0.5686  0.1111
 1069SOL    HW214844   2.881   3.472   8.480  0.1112  0.0077 -2.1552
 1070SOL     OW14845   2.518   1.283  16.878  0.8867 -0.2545  0.2498
 1070SOL    HW114846   2.514   1.366  16.925  0.4210  1.2124 -2.3339
 1070SOL    HW214847   2.501   1.210  16.938 -0.3455 -0.3362 -0.1957
 1071SOL     OW14848   4.062   1.943   7.927 -0.2999  0.5061  0.0522
 1071SOL    HW114849   4.121   1.868   7.926 -0.3121  0.4832  0.7399
 1071SOL    HW214850   4.006   1.929   7.851  2.1248 -1.3747 -1.3447
 1072SOL     OW14851   4.435   2.716   6.398 -0.3095 -1.0719  0.1548
 1072SOL    HW114852   4.489   2.749   6.469 -2.0580  1.2003  0.4027
 1072SOL    HW214853   4.479   2.631   6.384  3.1898  0.6879  0.4990
 1073SOL     OW14854   1.719   0.784   7.496 -0.0941 -0.3060  0.3427
 1073SOL    HW114855   1.649   0.719   7.490 -1.3115  0.7020  3.2321
 1073SOL    HW214856   1.685   0.835   7.571  2.8241  2.1954 -0.0355
 1074SOL     OW14857   3.797   3.295   5.956 -0.1719  0.2796 -0.4287
 1074SOL    HW114858   3.777   3.383   5.925 -0.2550  0.1453 -0.7677
 1074SOL    HW214859   3.720   3.280   6.010 -0.0396 -0.3397 -0.4064
 1075SOL     OW14860   4.729   4.085   9.094 -0.2589  0.0503 -0.7432
 1075SOL    HW114861   0.055   4.150   9.124 -1.1308  0.1874  0.8220
 1075SOL    HW214862   0.030   3.999   9.114 -0.8666 -0.4803 -1.8527
 1076SOL     OW14863   3.445   3.654  16.063 -0.2731  0.7048 -0.2318
 1076SOL    HW114864   3.376   3.640  15.997 -1.6415 -0.9897  1.5443
 1076SOL    HW214865   3.398   3.714  16.120 -0.4361  0.1986  0.1681
 1077SOL     OW14866   0.595   3.146   2.392  0.2458  0.9153 -0.1385
 1077SOL    HW114867   0.598   3.107   2.305  0.9724  0.9424 -0.1212
 1077SOL    HW214868   0.509   3.188   2.388 -0.6157 -0.6202  1.8399
 1078SOL     OW14869   2.918   4.099   8.823 -0.4385 -0.3224 -0.3962
 1078SOL    HW114870   2.929   4.189   8.853  2.7537 -0.8247 -0.0703
 1078SOL    HW214871   2.993   4.092   8.763  0.2948  3.8865  0.0612
 1079SOL     OW14872   4.496   1.398   1.075  0.1812 -0.6627  0.0051
 1079SOL    HW114873   4.459   1.360   1.155  0.0674  0.5334  0.5316
 1079SOL    HW214874   4.419   1.411   1.020  1.0712  0.1385 -1.0381
 1080SOL     OW14875   3.407   1.185  12.508  0.5988 -0.2244 -0.6248
 1080SOL    HW114876   3.489   1.231  12.492 -0.6453  2.4995  0.8304
 1080SOL    HW214877   3.382   1.149  12.423  1.8250 -0.6433 -0.7986
 1081SOL     OW14878   1.017   0.780   2.831  0.0880  0.4831  0.6407
 1081SOL    HW114879   0.967   0.736   2.762  1.7086 -0.0522 -0.1924
 1081SOL    HW214880   0.955   0.777   2.903  0.0712 -1.5366  0.5428
 1082SOL     OW14881   1.191   2.882   2.748 -0.0476  0.3240  0.1051
 1082SOL    HW114882   1.227   2.803   2.708 -0.5484 -1.1858  2.6425
 1082SOL    HW214883   1.270   2.926   2.779 -1.0028  1.9073  0.2919
 1083SOL     OW14884   3.555   4.735   0.002  0.0071  0.4231  0.1158
 1083SOL    HW114885   3.501   4.692   0.068 -1.9298 -0.0453 -1.7797
 1083SOL    HW214886   3.594   4.655  17.718  0.5794 -0.4094  2.7934
 1084SOL     OW14887   1.400   3.460  15.334  0.5542  0.1696 -0.0327
 1084SOL    HW114888   1.444   3.376  15.346  0.0306 -0.2319 -0.8987
 1084SOL    HW214889   1.484   3.505  15.328 -0.0177  1.2370 -0.0751
 1085SOL     OW14890   0.307   0.554   7.044 -0.4158  0.3486 -0.4125
 1085SOL    HW114891   0.255   0.544   6.963 -0.5882 -0.8654 -0.1599
 1085SOL    HW214892   0.262   0.633   7.073 -1.3183 -0.7257  1.1389
 1086SOL     OW14893   3.473   3.471   4.953 -0.2257  0.2568 -0.1843
 1086SOL    HW114894   3.424   3.541   4.911 -1.0715  0.6171  1.4013
 1086SOL    HW214895   3.413   3.436   5.019 -0.4435 -2.7631 -1.9565
 1087SOL     OW14896   2.934   1.090   7.527 -0.0074 -0.0036 -0.1468
 1087SOL    HW114897   2.953   1.177   7.494 -1.3816  1.0894  1.9336
 1087SOL    HW214898   3.024   1.058   7.524  0.1139  0.3759 -0.5022
 1088SOL     OW14899   2.234   1.497   4.937 -0.2699 -0.1410 -0.0148
 1088SOL    HW114900   2.195   1.584   4.950 -0.1978 -0.2141  0.7134
 1088SOL    HW214901   2.304   1.505   5.002 -2.2928 -0.6372  2.2530
 1089SOL     OW14902   0.034   0.890   9.495  0.1447 -0.1235  0.0775
 1089SOL    HW114903   4.715   0.813   9.494  1.2265 -0.9235  0.4690
 1089SOL    HW214904   4.715   0.954   9.452  0.1397 -1.1314 -1.3829
 1090SOL     OW14905   4.052   1.810  17.141 -0.2417  0.3016  0.7647
 1090SOL    HW114906   4.039   1.716  17.144 -1.1107  0.3474 -1.5070
 1090SOL    HW214907   3.964   1.847  17.151 -0.6606 -0.5776  0.3248
 1091SOL     OW14908   3.739   1.290   3.343  0.4835  0.0809  0.0794
 1091SOL    HW114909   3.805   1.225   3.321  0.3498 -0.3593  0.9937
 1091SOL    HW214910   3.685   1.288   3.263 -1.5780  1.0916  1.4456
 1092SOL     OW14911   2.823   0.749   6.431  0.1542 -0.2804 -0.0005
 1092SOL    HW114912   2.816   0.838   6.396  1.8330  0.9201  2.6999
 1092SOL    HW214913   2.892   0.754   6.497  0.0396 -0.6835  0.1491
 1093SOL     OW14914   3.943   1.635   7.763 -0.0107 -0.0108  0.3660
 1093SOL    HW114915   3.892   1.625   7.844 -2.7302  0.4681 -1.2749
 1093SOL    HW214916   3.974   1.544   7.767  0.5310  0.1822  0.4842
 1094SOL     OW14917   0.010   2.814   6.870 -0.3057 -0.0411 -0.6085
 1094SOL    HW114918   0.067   2.791   6.944  1.9812 -1.5830 -2.8809
 1094SOL    HW214919   0.015   2.910   6.874 -1.6001  0.0508 -1.3001
 1095SOL     OW14920   1.319   3.158  12.726  0.5066  0.5835  0.4978
 1095SOL    HW114921   1.378   3.170  12.652  0.6507  0.6173  0.6202
 1095SOL    HW214922   1.369   3.134  12.803 -0.9646 -1.9883  0.6363
 1096SOL     OW14923   4.720   4.347   5.814  0.2272 -0.3837  0.2074
 1096SOL    HW114924   0.026   4.322   5.895  3.1519  2.6242 -0.4424
 1096SOL    HW214925   4.639   4.376   5.856  0.1061  1.0062 -0.9804
 1097SOL     OW14926   3.363   1.834   5.444  0.1248  0.1121 -0.0136
 1097SOL    HW114927   3.376   1.745   5.477  2.4692 -0.8488 -3.5298
 1097SOL    HW214928   3.348   1.815   5.352 -0.3777 -1.3515  0.3730
 1098SOL     OW14929   0.598   2.921   7.178 -0.1858 -0.6034 -0.2191
 1098SOL    HW114930   0.549   2.843   7.202 -0.3363 -0.5087 -0.2217
 1098SOL    HW214931   0.676   2.878   7.142 -0.2543  0.7820 -2.0280
 1099SOL     OW14932   1.911   3.877   7.503  0.7033 -0.0648  0.4660
 1099SOL    HW114933   1.823   3.906   7.480  1.1363  0.7871 -0.1198
 1099SOL    HW214934   1.960   3.952   7.467  0.8721  0.0136  0.8644
 1100SOL     OW14935   2.878   2.997   5.462  0.0906  0.2944 -0.5858
 1100SOL    HW114936   2.869   3.071   5.522  1.1734 -1.1654  1.3775
 1100SOL    HW214937   2.969   3.017   5.439 -0.2307  2.3489 -0.0111
 1101SOL     OW14938   1.233   4.079  12.481  0.3598  0.2501 -0.3759
 1101SOL    HW114939   1.193   4.097  12.396 -2.0202 -0.9215  0.4876
 1101SOL    HW214940   1.315   4.045  12.444 -0.0724  1.2272 -2.2102
 1102SOL     OW14941   2.604   2.539   7.237  0.1148 -0.0608 -0.1504
 1102SOL    HW114942   2.618   2.588   7.318  3.0752  0.8998 -1.2640
 1102SOL    HW214943   2.691   2.524   7.201  1.1734 -0.3004  2.5381
 1103SOL     OW14944   3.941   3.221  17.748  0.6473 -0.1969 -0.0438
 1103SOL    HW114945   3.904   3.149  17.698 -0.7755 -0.6816  1.7254
 1103SOL    HW214946   3.916   3.191   0.085 -0.0865  1.2745  0.2601
 1104SOL     OW14947   3.999   0.523   1.957  0.2160 -0.1875 -0.0961
 1104SOL    HW114948   4.045   0.607   1.960  0.5538 -0.3933  0.3218
 1104SOL    HW214949   3.917   0.547   1.913  0.2840  0.3882  0.0887
 1105SOL     OW14950   3.776   1.550   3.714 -0.2543 -0.5925 -0.0873
 1105SOL    HW114951   3.852   1.494   3.731  1.5688  2.2742  1.3225
 1105SOL    HW214952   3.717   1.496   3.662 -1.1371  0.2655  0.0158
 1106SOL     OW14953   4.059   0.594   4.028  0.0221  0.0975  0.0590
 1106SOL    HW114954   4.041   0.515   4.078 -2.4694 -0.5532 -1.8902
 1106SOL    HW214955   3.999   0.657   4.067  0.6041 -0.0215  1.1299
 1107SOL     OW14956   3.726   3.461   7.828 -0.3857 -0.5620 -0.1514
 1107SOL    HW114957   3.749   3.375   7.794 -1.3486 -0.3915 -1.2435
 1107SOL    HW214958   3.763   3.454   7.916  3.5940 -0.6686 -1.8432
 1108SOL     OW14959   2.916   3.187  11.162 -0.1743 -0.3218  0.1258
 1108SOL    HW114960   2.874   3.265  11.127  0.7591 -0.2508 -0.8498
 1108SOL    HW214961   2.998   3.197  11.114 -0.1066 -1.3575  0.0192
 1109SOL     OW14962   1.920   3.402   8.761 -0.0895  1.2760 -0.0376
 1109SOL    HW114963   1.838   3.355   8.772  1.7161 -2.0781 -1.1642
 1109SOL    HW214964   1.910   3.473   8.825 -3.1437 -0.4257  1.3661
 1110SOL     OW14965   2.143   2.098  10.279  0.6473  0.4342  0.3219
 1110SOL    HW114966   2.210   2.045  10.235 -0.2925 -1.8444  1.6237
 1110SOL    HW214967   2.111   2.031  10.339  0.0335  1.4070  1.0807
 1111SOL     OW14968   0.618   4.317   1.845 -0.1039 -0.0850  0.5100
 1111SOL    HW114969   0.642   4.235   1.802  1.4420  0.8933 -0.5220
 1111SOL    HW214970   0.523   4.312   1.852  0.0371  0.2794  2.6997
 1112SOL     OW14971   2.704   1.569   9.127  0.1455  0.2921  0.4505
 1112SOL    HW114972   2.733   1.522   9.049  0.4242  0.3271  0.5335
 1112SOL    HW214973   2.685   1.492   9.180 -0.6770 -1.3926 -2.3397
 1113SOL     OW14974   3.142   1.363  17.142  0.4110 -0.0352 -0.0833
 1113SOL    HW114975   3.103   1.377  17.055  0.8114  0.8077 -0.1179
 1113SOL    HW214976   3.108   1.431  17.200 -0.8322 -0.9003  0.2026
 1114SOL     OW14977   3.726   2.551  16.529 -0.3821  0.0147 -0.2811
 1114SOL    HW114978   3.684   2.619  16.581 -2.0839 -2.2288  1.2734
 1114SOL    HW214979   3.760   2.600  16.454 -0.9010  1.6532  0.5682
 1115SOL     OW14980   1.522   1.448  15.377  0.1986 -0.9539  0.0549
 1115SOL    HW114981   1.581   1.497  15.319 -2.0863  0.6290 -0.9129
 1115SOL    HW214982   1.437   1.478  15.344  0.6086 -1.2479 -1.2522
 1116SOL     OW14983   3.755   3.777   1.357  0.3892  0.1351  0.1019
 1116SOL    HW114984   3.730   3.737   1.440  0.8988  1.5323  0.9355
 1116SOL    HW214985   3.839   3.817   1.381  0.2008  0.2833  0.5209
 1117SOL     OW14986   3.573   2.687   2.042 -0.0102 -0.0154 -0.2060
 1117SOL    HW114987   3.499   2.693   1.981  0.5991 -0.1275 -0.9571
 1117SOL    HW214988   3.542   2.739   2.116  0.5634 -0.2738  0.2082
 1118SOL     OW14989   4.467   2.582   4.610 -0.3067  0.0413 -0.0761
 1118SOL    HW114990   4.561   2.569   4.596 -0.0834  0.7613  0.7847
 1118SOL    HW214991   4.444   2.617   4.524  1.4357 -0.7673 -0.8779
 1119SOL     OW14992   2.672   2.528   8.733 -0.3212 -0.5509 -0.0761
 1119SOL    HW114993   2.590   2.558   8.693 -0.2160  0.4696  0.4753
 1119SOL    HW214994   2.636   2.521   8.821  1.9094 -3.1542  0.6296
 1120SOL     OW14995   1.222   1.416   4.689 -0.3790 -0.3844  0.1658
 1120SOL    HW114996   1.317   1.422   4.684 -0.4371 -0.5526 -1.3034
 1120SOL    HW214997   1.194   1.504   4.662 -0.2181 -0.6494 -0.8573
 1121SOL     OW14998   0.199   4.332   3.330  0.3266 -0.2354 -0.2942
 1121SOL    HW114999   0.133   4.280   3.376 -0.8845  0.5160 -1.2075
 1121SOL    HW215000   0.265   4.326   3.400 -0.4234 -1.3918  0.3117
 1122SOL     OW15001   3.822   4.331  15.244  0.0556 -0.2838 -0.2729
 1122SOL    HW115002   3.730   4.317  15.268  0.5157 -2.4869  0.1979
 1122SOL    HW215003   3.816   4.408  15.188  1.8049 -0.4499 -0.6796
 1123SOL     OW15004   2.628   0.291  11.348 -0.9388  0.3656 -0.2239
 1123SOL    HW115005   2.614   0.365  11.290 -0.9806  1.7267  1.5096
 1123SOL    HW215006   2.676   0.236  11.286 -1.7929  0.4180 -0.9341
 1124SOL     OW15007   4.518   0.416  10.909  0.2398 -0.3447  0.5014
 1124SOL    HW115008   4.476   0.356  10.847 -1.6798  0.8744  0.6071
 1124SOL    HW215009   4.482   0.499  10.879 -1.4844 -0.2707  2.7332
 1125SOL     OW15010   4.221   3.972   5.467 -0.3004  0.3434 -0.0864
 1125SOL    HW115011   4.210   3.878   5.454 -0.2538  0.5191 -1.3522
 1125SOL    HW215012   4.187   4.009   5.386  2.6399  1.7719 -0.6898
 1126SOL     OW15013   2.288   2.803   8.489  0.3693 -0.0768 -0.1008
 1126SOL    HW115014   2.225   2.841   8.550  1.0341  0.9680 -0.0589
 1126SOL    HW215015   2.271   2.856   8.412  0.9166  0.7713  0.3657
 1127SOL     OW15016   3.638   2.543   5.131  0.2608 -0.1945  0.2195
 1127SOL    HW115017   3.647   2.523   5.224 -1.6977 -1.3142  0.1745
 1127SOL    HW215018   3.610   2.460   5.093 -0.1136 -0.6389  1.4889
 1128SOL     OW15019   2.994   3.289   9.095 -0.0236 -0.6933 -0.4787
 1128SOL    HW115020   3.001   3.253   9.006 -0.1133 -2.7528  0.3550
 1128SOL    HW215021   3.083   3.310   9.124 -1.2490  0.3168  2.5225
 1129SOL     OW15022   3.107   3.964   0.740 -0.2636 -0.3041  0.3934
 1129SOL    HW115023   3.083   3.888   0.688  0.3413 -1.6605  2.0723
 1129SOL    HW215024   3.147   3.939   0.823 -1.7171  0.0165  1.1932
 1130SOL     OW15025   2.302   3.459   0.950 -0.1190  0.2288 -0.1204
 1130SOL    HW115026   2.341   3.500   0.872  2.4517 -0.7870  0.6272
 1130SOL    HW215027   2.316   3.366   0.930  1.1330  0.0766  1.5203
 1131SOL     OW15028   3.606   1.358   7.101 -0.8400 -0.4972 -0.2118
 1131SOL    HW115029   3.635   1.315   7.021 -1.0931  0.0948 -0.6241
 1131SOL    HW215030   3.690   1.386   7.137 -0.0596 -1.8332 -0.9986
 1132SOL     OW15031   2.585   1.306   1.700  0.1604 -0.0879 -0.3982
 1132SOL    HW115032   2.536   1.388   1.706  0.9166  0.3839 -0.7668
 1132SOL    HW215033   2.633   1.314   1.617  1.1995  4.6308  0.7046
 1133SOL     OW15034   0.100   1.687   5.885  0.7181  0.0989 -0.0985
 1133SOL    HW115035   0.132   1.744   5.955  0.6507  0.7466 -0.5928
 1133SOL    HW215036   0.173   1.681   5.823  0.1721  0.5910 -0.7920
 1134SOL     OW15037   2.483   1.382   8.726  0.4114  0.0216 -0.1558
 1134SOL    HW115038   2.506   1.291   8.743 -2.1176 -0.5178  0.4348
 1134SOL    HW215039   2.465   1.412   8.815 -1.6936  0.2964 -0.6744
 1135SOL     OW15040   4.291   0.387   2.008 -0.5108 -0.0400 -0.4521
 1135SOL    HW115041   4.218   0.409   2.066  0.5060 -1.9513  1.5709
 1135SOL    HW215042   4.334   0.310   2.044  1.9764  1.0888 -0.9860
 1136SOL     OW15043   1.213   0.700   6.445  0.4086 -0.2982  0.7097
 1136SOL    HW115044   1.174   0.784   6.420  0.9823 -0.2954 -0.1933
 1136SOL    HW215045   1.142   0.641   6.419  1.5994 -0.7080 -1.6393
 1137SOL     OW15046   2.715   0.954  11.123 -0.3775 -0.5168  0.2601
 1137SOL    HW115047   2.766   0.974  11.045 -0.4940  2.8069  1.0253
 1137SOL    HW215048   2.725   1.032  11.178  2.0223 -0.8292  0.2611
 1138SOL     OW15049   2.273   2.526  15.191  0.0470 -0.5693  0.7190
 1138SOL    HW115050   2.202   2.575  15.149 -0.9594 -1.7105  1.0826
 1138SOL    HW215051   2.347   2.586  15.183 -0.4729 -0.2833 -2.1076
 1139SOL     OW15052   4.362   1.599  16.517  0.2333 -0.7258  0.1690
 1139SOL    HW115053   4.358   1.548  16.436  1.3373  0.1338 -0.4424
 1139SOL    HW215054   4.306   1.671  16.488 -0.0117 -0.5435  1.1067
 1140SOL     OW15055   2.086   2.031   7.356 -0.4582  0.4021  0.6854
 1140SOL    HW115056   2.170   2.077   7.362  1.5785 -3.1044 -0.4392
 1140SOL    HW215057   2.115   1.950   7.397 -1.2389 -0.1135  0.2273
 1141SOL     OW15058   0.030   3.527  16.775  0.2270 -0.6638  0.2455
 1141SOL    HW115059   0.086   3.598  16.745 -1.4939 -0.0741 -1.5742
 1141SOL    HW215060   4.686   3.535  16.727  0.0354 -2.2890  0.2851
 1142SOL     OW15061   0.030   1.763   7.371  0.3610 -0.3274 -0.2608
 1142SOL    HW115062   0.048   1.744   7.463 -0.5504 -0.6330 -0.1481
 1142SOL    HW215063   4.676   1.737   7.370 -0.4844  2.5328  1.7635
 1143SOL     OW15064   1.712   3.688  14.724  0.3502  0.2626  0.2990
 1143SOL    HW115065   1.680   3.663  14.637  0.1535  1.5146  0.0203
 1143SOL    HW215066   1.786   3.628  14.729 -0.5401 -0.8632 -0.0485
 1144SOL     OW15067   4.228   4.381   4.195  0.0980  0.3043 -0.0213
 1144SOL    HW115068   4.262   4.456   4.245  2.1992 -0.1750 -0.7010
 1144SOL    HW215069   4.300   4.318   4.200 -0.2660 -0.0511  0.6346
 1145SOL     OW15070   3.025   1.636   8.023  0.4796 -0.2101 -0.1247
 1145SOL    HW115071   3.063   1.550   8.007  0.1790 -0.3089 -0.3281
 1145SOL    HW215072   2.933   1.611   8.007  0.5572 -2.0953  2.4209
 1146SOL     OW15073   1.761   3.192   3.700  0.2033 -0.2498  0.5202
 1146SOL    HW115074   1.687   3.244   3.668  0.1985 -0.7483 -0.2630
 1146SOL    HW215075   1.841   3.241   3.685 -1.0918  1.7014  0.0127
 1147SOL     OW15076   4.502   3.346  14.229  0.1322 -0.1558  0.3185
 1147SOL    HW115077   4.473   3.437  14.225  0.2536 -0.1979 -1.5806
 1147SOL    HW215078   4.442   3.316  14.161  0.3685  2.2258 -0.9192
 1148SOL     OW15079   3.507   3.782   6.661 -0.1117 -0.4944  0.0339
 1148SOL    HW115080   3.488   3.768   6.754  1.2057  1.6731  0.6311
 1148SOL    HW215081   3.512   3.877   6.649  1.6773 -0.8054 -1.5911
 1149SOL     OW15082   2.106   2.799   6.512  0.9740  0.1518  0.1665
 1149SOL    HW115083   2.120   2.870   6.574 -1.0553  0.0295  0.7434
 1149SOL    HW215084   2.041   2.846   6.461  0.4948  1.5574  2.0669
 1150SOL     OW15085   3.341   2.379  11.273 -0.6739  0.0827  0.1948
 1150SOL    HW115086   3.327   2.285  11.285 -2.8395  0.1997 -1.2843
 1150SOL    HW215087   3.250   2.400  11.251 -0.5216 -0.2492 -0.7861
 1151SOL     OW15088   2.735   0.572   5.307 -0.3216  0.1565  0.2008
 1151SOL    HW115089   2.730   0.661   5.342 -1.2331 -0.3625  1.4014
 1151SOL    HW215090   2.645   0.561   5.279 -0.5379  0.1342  0.9025
 1152SOL     OW15091   3.017   4.084   5.288 -0.3971 -0.4054  0.4327
 1152SOL    HW115092   3.037   4.172   5.255  0.8834  0.3565  3.1817
 1152SOL    HW215093   2.923   4.065   5.278 -0.1214 -1.1233 -0.8375
 1153SOL     OW15094   0.090   2.248   3.069 -0.1488 -0.2040 -0.4906
 1153SOL    HW115095   0.181   2.234   3.095  0.3780  0.3509 -2.0536
 1153SOL    HW215096   0.097   2.333   3.025 -2.2732  0.4393  0.4484
 1154SOL     OW15097   0.511   2.872  12.813 -0.3579 -0.0571 -0.2183
 1154SOL    HW115098   0.493   2.805  12.879  0.5168 -1.3822 -1.3443
 1154SOL    HW215099   0.604   2.887  12.824 -0.7303  1.3245  1.0034
 1155SOL     OW15100   1.958   1.420  10.034  0.3435 -0.1103  0.5818
 1155SOL    HW115101   1.892   1.488  10.025 -0.5225 -1.2617 -1.6842
 1155SOL    HW215102   2.037   1.475  10.034 -0.4177  0.9748 -0.6120
 1156SOL     OW15103   2.789   0.216   2.577  0.3532 -0.4002 -0.5721
 1156SOL    HW115104   2.847   0.159   2.627 -1.8085 -0.3508  1.9765
 1156SOL    HW215105   2.857   0.262   2.527 -1.0674  0.5153 -1.6550
 1157SOL     OW15106   3.475   1.993   9.370  0.1575  0.0767  0.4624
 1157SOL    HW115107   3.484   1.970   9.462  1.6983 -0.6378  0.1373
 1157SOL    HW215108   3.565   1.969   9.346 -0.2588 -1.8547  0.8249
 1158SOL     OW15109   0.729   2.462   2.647  0.2023 -0.3172  0.8131
 1158SOL    HW115110   0.811   2.416   2.665  0.5003 -0.2683 -0.4701
 1158SOL    HW215111   0.687   2.401   2.588 -0.8947  1.9052 -0.7179
 1159SOL     OW15112   1.570   2.038   4.321  0.1022  0.6940  0.5214
 1159SOL    HW115113   1.484   2.026   4.361 -0.2911  0.1885 -0.4755
 1159SOL    HW215114   1.553   2.111   4.261 -1.4655 -1.2719 -1.4466
 1160SOL     OW15115   2.759   1.580   8.044  0.1648  0.1116  0.3611
 1160SOL    HW115116   2.682   1.623   8.006  0.3981 -1.2160 -1.5766
 1160SOL    HW215117   2.734   1.488   8.035  0.7242 -0.0742  0.7422
 1161SOL     OW15118   2.430   0.769   1.970 -0.8355 -0.0977  0.3129
 1161SOL    HW115119   2.341   0.758   2.003 -0.6883 -1.7919  0.1723
 1161SOL    HW215120   2.416   0.798   1.880  2.6313 -0.1334 -0.2339
 1162SOL     OW15121   1.797   0.918   5.051 -0.3769  0.0685  0.1160
 1162SOL    HW115122   1.757   0.860   4.986 -0.6437  0.5919 -0.1866
 1162SOL    HW215123   1.737   0.992   5.047  0.2174  0.6436  1.7178
 1163SOL     OW15124   2.388   0.907  13.811  0.1424  0.2871  0.6839
 1163SOL    HW115125   2.369   0.957  13.731  0.4821 -0.1447  0.3341
 1163SOL    HW215126   2.475   0.870  13.800 -1.0128 -2.0503 -0.8150
 1164SOL     OW15127   3.038   2.437  10.431 -0.0525  0.4242 -0.2790
 1164SOL    HW115128   2.969   2.372  10.420 -1.6342  1.9974  0.3461
 1164SOL    HW215129   3.053   2.462  10.340 -0.7177  0.9063 -0.2518
 1165SOL     OW15130   0.980   4.617  17.312  0.6777 -0.5532  0.1311
 1165SOL    HW115131   1.061   4.648  17.352  1.3986  0.5051 -2.1458
 1165SOL    HW215132   0.999   4.524  17.301  2.2414 -0.3295  1.0240
 1166SOL     OW15133   0.723   3.427   1.402  0.2294  0.4136  0.4073
 1166SOL    HW115134   0.712   3.510   1.357  1.6384 -0.4756 -1.6012
 1166SOL    HW215135   0.654   3.377   1.357 -0.7522  1.0155  1.2501
 1167SOL     OW15136   0.340   0.705   3.253  0.2362  0.4890  0.1117
 1167SOL    HW115137   0.393   0.635   3.291 -1.3651 -0.9291 -0.2314
 1167SOL    HW215138   0.341   0.772   3.321 -1.0784  0.6303  0.0080
 1168SOL     OW15139   1.216   4.104   0.652 -0.3279 -0.3836 -0.3852
 1168SOL    HW115140   1.230   4.097   0.558 -2.1840 -0.3835 -0.6726
 1168SOL    HW215141   1.278   4.046   0.695 -1.9449 -0.0055  2.5114
 1169SOL     OW15142   1.797   4.551   5.507 -0.2551  0.1509  0.2318
 1169SOL    HW115143   1.824   4.474   5.558 -0.2679  0.3288  0.5053
 1169SOL    HW215144   1.814   4.518   5.418  0.4155 -2.9640  1.5224
 1170SOL     OW15145   4.033   3.935  12.651 -0.2855  0.3570 -0.2112
 1170SOL    HW115146   3.978   3.979  12.586  1.8907 -1.1172 -3.0567
 1170SOL    HW215147   4.114   3.920  12.602  0.8756  0.5373  1.6359
 1171SOL     OW15148   0.388   1.082   2.269  0.4576  0.2360 -0.2655
 1171SOL    HW115149   0.317   1.057   2.210 -0.1448  0.0935  0.5198
 1171SOL    HW215150   0.387   1.176   2.252  0.6272  0.4596  0.9675
 1172SOL     OW15151   0.009   0.744   5.612  0.1681 -0.4909  0.1554
 1172SOL    HW115152   0.101   0.763   5.629 -0.0116 -0.3887  1.0105
 1172SOL    HW215153   0.001   0.761   5.518  2.1923 -0.3736  0.0082
 1173SOL     OW15154   4.691   0.334   7.468 -0.3057  0.1122 -0.3447
 1173SOL    HW115155   4.692   0.253   7.416 -2.8465  1.0418 -1.8042
 1173SOL    HW215156   0.022   0.319   7.534  0.1850 -0.1325 -0.9120
 1174SOL     OW15157   0.951   3.638   5.949  0.0511 -0.2476  0.2168
 1174SOL    HW115158   1.000   3.640   5.867 -2.7033 -1.3426 -1.4485
 1174SOL    HW215159   1.015   3.613   6.016  2.2511 -1.7995 -2.4462
 1175SOL     OW15160   4.736   2.238   0.622 -0.2861 -0.0231 -0.5755
 1175SOL    HW115161   4.658   2.232   0.677 -1.3201 -1.7930 -2.2363
 1175SOL    HW215162   4.700   2.267   0.538  1.0840  2.1725 -0.4109
 1176SOL     OW15163   4.341   2.602  17.492  0.4707  0.1603  0.1891
 1176SOL    HW115164   4.285   2.525  17.486 -0.2615  0.9207 -2.8643
 1176SOL    HW215165   4.322   2.656  17.415 -1.8912 -0.7044  0.1683
 1177SOL     OW15166   3.959   2.088   7.398 -0.3285 -0.5064  0.1982
 1177SOL    HW115167   4.055   2.087   7.405 -0.1139  0.0641 -2.7061
 1177SOL    HW215168   3.949   1.994   7.384  1.6292 -0.9467  1.8306
 1178SOL     OW15169   2.560   4.347   1.353  0.7849 -0.0953 -0.1064
 1178SOL    HW115170   2.627   4.312   1.411  1.2900  1.7830  0.4422
 1178SOL    HW215171   2.514   4.267   1.330  0.6090 -0.7946  2.7047
 1179SOL     OW15172   0.067   0.835   8.398  0.5887 -0.7026  0.0369
 1179SOL    HW115173   0.082   0.827   8.492  0.0128 -4.3425 -0.1716
 1179SOL    HW215174   0.096   0.925   8.383  0.5695 -0.7097 -0.0432
 1180SOL     OW15175   1.555   1.347   3.363  0.1010  0.2247  0.4413
 1180SOL    HW115176   1.481   1.316   3.311  1.4132  0.9902 -1.8822
 1180SOL    HW215177   1.522   1.327   3.451  0.3634 -0.2485  0.4307
 1181SOL     OW15178   1.004   4.483   0.938  0.0961 -0.7542 -0.5237
 1181SOL    HW115179   0.982   4.557   0.882 -0.3932 -0.6755 -0.2311
 1181SOL    HW215180   1.026   4.416   0.873  1.3886  0.4334 -1.2923
 1182SOL     OW15181   2.308   2.211   5.124  0.1863 -0.0465 -0.3217
 1182SOL    HW115182   2.361   2.175   5.195  1.0537 -2.9711 -2.4577
 1182SOL    HW215183   2.376   2.271   5.094 -0.4429  0.9195  0.1896
 1183SOL     OW15184   1.736   2.887   6.478  0.0070 -0.4771 -0.2235
 1183SOL    HW115185   1.661   2.843   6.519  0.6319 -2.9047 -1.6797
 1183SOL    HW215186   1.741   2.971   6.523 -0.1953 -0.9901  0.7642
 1184SOL     OW15187   4.365   2.844   3.421 -0.3583 -0.0881  0.3340
 1184SOL    HW115188   4.457   2.843   3.449  0.8214  2.7908 -3.3856
 1184SOL    HW215189   4.360   2.868   3.328 -0.3497  0.4748  0.4806
 1185SOL     OW15190   3.162   0.623   6.873 -0.3938 -0.4179 -0.1012
 1185SOL    HW115191   3.081   0.572   6.868 -1.1386  0.6906  0.5104
 1185SOL    HW215192   3.222   0.556   6.840 -0.2407 -0.6002  0.5391
 1186SOL     OW15193   1.742   3.898  15.087  0.6037  0.5154 -0.2181
 1186SOL    HW115194   1.787   3.818  15.114 -1.0133 -0.5729 -0.6904
 1186SOL    HW215195   1.801   3.945  15.029  1.8778 -2.7208 -1.5428
 1187SOL     OW15196   0.723   3.849   7.918 -0.2720  0.1133  0.0364
 1187SOL    HW115197   0.782   3.892   7.979  1.4765 -2.5977  0.2753
 1187SOL    HW215198   0.761   3.870   7.832  2.8864  0.0158  1.3939
 1188SOL     OW15199   1.392   0.622   8.136 -0.0504  0.3353  0.0441
 1188SOL    HW115200   1.352   0.537   8.153  0.1041  0.3429  0.4327
 1188SOL    HW215201   1.434   0.642   8.219  0.3382 -0.3364  0.0049
 1189SOL     OW15202   1.568   3.304   7.975 -0.1402 -0.5626  0.3753
 1189SOL    HW115203   1.477   3.332   7.966 -0.7713 -2.2466  1.3724
 1189SOL    HW215204   1.603   3.365   8.040 -0.3389 -0.2979  0.2282
 1190SOL     OW15205   3.519   3.731   8.524 -0.4948  0.0354 -0.0859
 1190SOL    HW115206   3.563   3.712   8.607 -3.1511  0.7869  1.4769
 1190SOL    HW215207   3.559   3.671   8.461 -0.7115 -1.0466  0.8027
 1191SOL     OW15208   2.880   2.348   7.291 -0.0757 -0.6249  0.0677
 1191SOL    HW115209   2.812   2.383   7.348  0.6992 -2.7155  2.3086
 1191SOL    HW215210   2.948   2.342   7.358 -0.4141  0.9237  0.5522
 1192SOL     OW15211   3.955   0.773   4.561  0.5440  1.1214  0.3918
 1192SOL    HW115212   3.881   0.793   4.618  0.5527  2.5051 -0.0879
 1192SOL    HW215213   4.001   0.855   4.547 -0.8772  2.2984  2.5804
 1193SOL     OW15214   2.739   3.309   5.364  0.2624  0.0043  0.4280
 1193SOL    HW115215   2.774   3.298   5.453 -1.7275 -1.1250  1.0812
 1193SOL    HW215216   2.694   3.393   5.374  0.1006 -0.1532  1.0195
 1194SOL     OW15217   4.294   2.933   0.106 -0.2332  0.1714 -0.2703
 1194SOL    HW115218   4.296   2.898   0.195  2.7832  1.4786  0.1860
 1194SOL    HW215219   4.372   2.894   0.067 -0.8694 -0.4256 -0.9539
 1195SOL     OW15220   4.540   3.276   4.014 -0.2606  0.6448  0.4023
 1195SOL    HW115221   4.490   3.249   4.092 -1.4467 -0.5098 -0.7685
 1195SOL    HW215222   4.470   3.302   3.955 -1.2161  2.0644  2.1354
 1196SOL     OW15223   4.213   2.108   5.345  0.4509  0.2812  0.7313
 1196SOL    HW115224   4.307   2.125   5.353  0.7530 -0.2951 -1.6143
 1196SOL    HW215225   4.187   2.156   5.423  2.4893  1.2599  0.8223
 1197SOL     OW15226   4.582   1.144   6.563  0.2010  0.3627  0.4467
 1197SOL    HW115227   4.534   1.198   6.625 -2.4812 -1.7921  0.2178
 1197SOL    HW215228   4.513   1.089   6.527  0.3906 -0.1958  0.9235
 1198SOL     OW15229   1.515   4.027   7.847  0.3153 -0.0508  0.5785
 1198SOL    HW115230   1.448   4.085   7.885 -0.1298 -0.2818  0.1413
 1198SOL    HW215231   1.461   3.950   7.830 -1.6058  1.6321 -1.0621
 1199SOL     OW15232   0.947   3.865   5.330  0.0930  0.0605  0.8456
 1199SOL    HW115233   0.873   3.809   5.356  0.4291 -0.3498  0.9225
 1199SOL    HW215234   0.900   3.926   5.273  2.4490  0.3411 -0.8084
 1200SOL     OW15235   4.686   0.567  11.266 -0.1847  0.1009  0.3501
 1200SOL    HW115236   4.678   0.651  11.311  0.3829 -0.7810  2.0919
 1200SOL    HW215237   0.028   0.589  11.218 -0.5887  1.9238  0.5088
 1201SOL     OW15238   0.108   2.786  10.829  0.5988  0.0315 -0.1402
 1201SOL    HW115239   0.026   2.799  10.780 -0.8310  0.1484  2.2824
 1201SOL    HW215240   0.088   2.711  10.885  2.8671 -0.7986 -0.4426
 1202SOL     OW15241   2.719   3.559   8.939  0.2537  0.3449  0.3099
 1202SOL    HW115242   2.657   3.487   8.945  0.0458  0.5282  0.3408
 1202SOL    HW215243   2.662   3.616   8.887 -0.8027  1.1573  2.3754
 1203SOL     OW15244   3.910   2.851   1.543  0.0237 -0.1754 -0.7123
 1203SOL    HW115245   3.831   2.813   1.504 -0.1638 -1.0166  0.4722
 1203SOL    HW215246   3.936   2.925   1.488 -0.8572  1.5376  1.1904
 1204SOL     OW15247   2.532   2.675   7.705 -0.4108  0.0590  0.1408
 1204SOL    HW115248   2.548   2.607   7.770 -0.3117 -1.6748 -1.6881
 1204SOL    HW215249   2.439   2.694   7.720 -0.1698  1.0496  0.3859
 1205SOL     OW15250   2.062   3.286  17.488  0.6377  0.1743 -0.2416
 1205SOL    HW115251   2.076   3.377  17.515 -0.5283  0.4752 -0.6609
 1205SOL    HW215252   2.003   3.257  17.557 -0.9358  1.2191 -1.1431
 1206SOL     OW15253   0.642   2.439   4.026 -0.0590 -0.2433  0.2914
 1206SOL    HW115254   0.706   2.381   3.985  0.7419  0.8079  0.0544
 1206SOL    HW215255   0.575   2.435   3.957 -0.2657 -0.8195  0.5256
 1207SOL     OW15256   1.396   3.229   1.745 -0.4485  0.1031 -0.0613
 1207SOL    HW115257   1.463   3.170   1.778 -0.2624 -0.0199 -0.6487
 1207SOL    HW215258   1.321   3.222   1.803 -0.4585 -1.2584 -0.2483
 1208SOL     OW15259   4.123   0.079   9.450 -0.0491  0.7172  0.6665
 1208SOL    HW115260   4.197   0.049   9.502 -0.1933 -0.3290  0.2533
 1208SOL    HW215261   4.154   0.054   9.363 -0.6101 -1.6907  1.1728
 1209SOL     OW15262   3.589   3.992   8.054 -0.3120 -0.4150 -0.6829
 1209SOL    HW115263   3.614   3.900   8.054  2.4264  0.3462  0.3750
 1209SOL    HW215264   3.608   4.020   7.965  0.9716 -1.4904 -0.7241
 1210SOL     OW15265   1.256   1.250   5.736 -0.2430  1.0829 -0.2264
 1210SOL    HW115266   1.233   1.300   5.815  0.0310  1.0018 -0.0935
 1210SOL    HW215267   1.175   1.257   5.685 -0.4328 -1.1486 -0.2375
 1211SOL     OW15268   0.117   3.804   8.618  0.1945  0.0011  0.5295
 1211SOL    HW115269   0.067   3.816   8.537 -0.2798  0.7083  0.9291
 1211SOL    HW215270   0.205   3.808   8.579 -0.6264  0.1217 -1.3242
 1212SOL     OW15271   1.180   4.327   5.876 -0.0491  0.3745 -0.1997
 1212SOL    HW115272   1.158   4.365   5.961 -2.1571  0.1630 -0.6612
 1212SOL    HW215273   1.106   4.268   5.868  1.3985 -1.6222  1.2586
 1213SOL     OW15274   3.996   3.605   1.688  0.2524  0.2289  0.3511
 1213SOL    HW115275   3.991   3.555   1.607 -0.6497  2.9280 -1.2614
 1213SOL    HW215276   3.976   3.534   1.749 -1.4496  0.0959 -0.3681
 1214SOL     OW15277   4.513   3.429  11.970  0.0631 -0.1807  0.2373
 1214SOL    HW115278   4.571   3.454  11.899 -0.3094  0.1747  0.0575
 1214SOL    HW215279   4.551   3.348  12.002 -1.4575 -1.0579 -0.1952
 1215SOL     OW15280   2.578   3.233  17.152 -0.1106  0.3252 -0.1555
 1215SOL    HW115281   2.626   3.300  17.201 -0.7480  0.0553  0.8393
 1215SOL    HW215282   2.515   3.283  17.100  0.3544 -0.2153 -1.2296
 1216SOL     OW15283   2.217   2.565   4.983 -0.0030 -0.0254  0.5811
 1216SOL    HW115284   2.250   2.619   5.054  1.8906 -1.1435  0.5449
 1216SOL    HW215285   2.184   2.637   4.931  1.5825  0.0507 -0.3038
 1217SOL     OW15286   1.674   0.788   4.843  0.0070  0.1467  0.1354
 1217SOL    HW115287   1.669   0.699   4.877 -2.2117 -0.1765 -1.0382
 1217SOL    HW215288   1.606   0.827   4.899 -0.6091 -1.4036  0.4600
 1218SOL     OW15289   3.939   4.139   5.783 -0.4351 -0.4856  0.5405
 1218SOL    HW115290   3.920   4.140   5.877 -3.3395 -1.1838 -0.0709
 1218SOL    HW215291   3.903   4.055   5.755  0.3930 -1.0363  1.1147
 1219SOL     OW15292   2.449   1.485   4.097  0.6051 -0.3753  0.3551
 1219SOL    HW115293   2.390   1.416   4.066 -0.8385  0.4273  1.3076
 1219SOL    HW215294   2.501   1.426   4.152  5.4736  1.7650 -1.9788
 1220SOL     OW15295   0.796   4.548   4.858 -0.0824  0.1011 -0.1227
 1220SOL    HW115296   0.800   4.565   4.764  0.4505  1.1938  0.0965
 1220SOL    HW215297   0.715   4.595   4.875 -0.0582 -1.1886  3.3832
 1221SOL     OW15298   4.536   1.349   7.886 -0.0109 -0.0200 -0.6412
 1221SOL    HW115299   4.598   1.416   7.856 -1.7114  1.5597 -0.5893
 1221SOL    HW215300   4.552   1.360   7.980 -1.7605  0.4785 -0.4171
 1222SOL     OW15301   4.158   3.846   0.888  0.5705  0.3516  0.0825
 1222SOL    HW115302   4.116   3.761   0.878  0.7882  0.3224 -0.5474
 1222SOL    HW215303   4.080   3.896   0.912  1.9493  2.1624  0.8817
 1223SOL     OW15304   0.780   3.066   1.508 -0.1022 -0.1441  0.0086
 1223SOL    HW115305   0.801   3.147   1.461 -1.9518  0.0989 -0.4282
 1223SOL    HW215306   0.839   3.078   1.582  2.1042 -4.3756 -1.0769
 1224SOL     OW15307   2.104   4.624  17.156 -0.4256  0.8481  0.0423
 1224SOL    HW115308   2.074   4.713  17.139 -1.7543  0.4293  0.1648
 1224SOL    HW215309   2.040   4.567  17.113  1.0712 -0.9446  0.2134
 1225SOL     OW15310   1.505   4.668   6.791 -0.3474 -0.3353 -0.0923
 1225SOL    HW115311   1.478   4.613   6.717  1.3231  0.6410 -1.4348
 1225SOL    HW215312   1.469   0.017   6.773 -1.1661 -0.5006  0.7801
 1226SOL     OW15313   3.637   4.046   7.499 -0.0034 -0.5505 -0.0240
 1226SOL    HW115314   3.727   4.059   7.471  0.3707 -1.9211  0.5303
 1226SOL    HW215315   3.603   4.089   7.421 -0.1871 -1.6777 -0.5579
 1227SOL     OW15316   0.237   0.732  10.822 -0.0471 -0.8019  0.0831
 1227SOL    HW115317   0.223   0.707  10.731  1.1040 -0.3712 -0.2067
 1227SOL    HW215318   0.251   0.827  10.819 -1.4261 -0.6174 -0.7360
 1228SOL     OW15319   0.344   0.200   5.222  0.2462 -0.3044 -0.2209
 1228SOL    HW115320   0.252   0.184   5.204 -0.0237  1.4884 -0.4826
 1228SOL    HW215321   0.342   0.240   5.309 -2.6269  0.4606 -0.6499
 1229SOL     OW15322   2.401   4.581   1.301 -0.2077  0.0661 -0.1232
 1229SOL    HW115323   2.424   4.497   1.261 -1.2882  0.0270 -0.6467
 1229SOL    HW215324   2.306   4.587   1.291 -0.2249 -1.2702 -0.7419
 1230SOL     OW15325   2.095   3.107  14.850  0.3349  1.1889 -0.6470
 1230SOL    HW115326   2.009   3.125  14.813  0.9233 -2.6262 -3.8962
 1230SOL    HW215327   2.104   3.175  14.917  0.3752 -2.3031  2.8360
 1231SOL     OW15328   4.312   2.670   6.976 -0.3369  0.4732 -0.5605
 1231SOL    HW115329   4.294   2.763   6.992 -1.2810  0.1114  0.4982
 1231SOL    HW215330   4.342   2.665   6.885  1.9131 -0.8392  0.2553
 1232SOL     OW15331   3.588   2.423   1.358 -0.3347  0.1707  0.0694
 1232SOL    HW115332   3.576   2.333   1.328  0.6834 -0.2290  0.8268
 1232SOL    HW215333   3.535   2.428   1.437  0.9040 -0.9013  0.9819
 1233SOL     OW15334   2.343   3.921  16.553  0.5169 -1.0487 -0.3223
 1233SOL    HW115335   2.426   3.958  16.522  0.3072 -0.2790  0.0373
 1233SOL    HW215336   2.318   3.877  16.472  0.7140  0.5645 -1.2631
 1234SOL     OW15337   1.323   1.943   6.586 -0.3597 -0.0815 -0.5348
 1234SOL    HW115338   1.286   2.006   6.647  0.0392  1.4834 -1.8943
 1234SOL    HW215339   1.387   1.888   6.631  0.7409  2.9724  1.6190
 1235SOL     OW15340   3.983   4.241   8.621 -0.1697  0.2762  0.3766
 1235SOL    HW115341   3.910   4.277   8.671 -0.6087  1.0195 -0.7746
 1235SOL    HW215342   3.973   4.147   8.629 -0.0508  0.4191  2.1427
 1236SOL     OW15343   3.055   3.735  12.353 -0.2156  0.0465 -0.2219
 1236SOL    HW115344   3.115   3.732  12.278  0.3356  2.6630  0.1022
 1236SOL    HW215345   3.089   3.806  12.407 -2.0711  0.8903 -0.1805
 1237SOL     OW15346   1.879   1.530   6.235 -0.1432 -0.3477 -0.5184
 1237SOL    HW115347   1.919   1.477   6.303 -0.1056  0.9897  0.5170
 1237SOL    HW215348   1.956   1.561   6.187 -0.8995  4.2158  1.1402
 1238SOL     OW15349   0.639   4.674   3.804  0.1131 -0.2576 -0.4145
 1238SOL    HW115350   0.582   4.730   3.856  0.4778  0.0355 -0.3351
 1238SOL    HW215351   0.575   4.637   3.743  0.5083 -2.8161  0.7505
 1239SOL     OW15352   3.183   4.464  12.970  0.1470  0.5314  0.4463
 1239SOL    HW115353   3.172   4.546  13.018 -2.3856  0.3249  0.2156
 1239SOL    HW215354   3.199   4.495  12.881  2.2799 -2.9761 -0.3930
 1240SOL     OW15355   0.843   0.937   5.225 -0.6524  0.1619 -0.5805
 1240SOL    HW115356   0.840   1.032   5.218  0.1627  0.3038  1.0557
 1240SOL    HW215357   0.757   0.911   5.192 -1.0130 -0.4113  0.8410
 1241SOL     OW15358   1.724   0.798  13.620 -0.2767  0.1910 -0.0349
 1241SOL    HW115359   1.811   0.816  13.585  0.0890  0.0763  0.8122
 1241SOL    HW215360   1.744   0.724  13.677  1.1771  1.7258  1.4554
 1242SOL     OW15361   2.833   0.391  13.617 -0.1679  0.4899  0.1235
 1242SOL    HW115362   2.766   0.419  13.554  0.2684  0.4338 -0.3594
 1242SOL    HW215363   2.819   0.296  13.614 -0.7971  0.6345 -1.3995
 1243SOL     OW15364   1.205   1.539   2.522 -0.3482  0.6916 -0.8131
 1243SOL    HW115365   1.165   1.453   2.520  0.9643  0.0318  1.0091
 1243SOL    HW215366   1.125   1.591   2.513 -1.3127 -0.6190  0.2774
 1244SOL     OW15367   3.520   1.262   7.336  0.0648 -0.0617 -0.0144
 1244SOL    HW115368   3.469   1.331   7.377  0.1963 -0.3260  0.5968
 1244SOL    HW215369   3.527   1.294   7.247  1.0355  0.3237  0.2006
 1245SOL     OW15370   2.401   0.787   7.683 -0.6469 -0.4653  0.4451
 1245SOL    HW115371   2.326   0.818   7.734 -0.4730  0.6403  0.0287
 1245SOL    HW215372   2.375   0.695   7.681 -0.2606 -0.5882  0.9691
 1246SOL     OW15373   1.999   0.517   4.453 -0.4331 -0.3962  0.3803
 1246SOL    HW115374   1.906   0.536   4.440  0.0880  1.1909 -0.9262
 1246SOL    HW215375   2.036   0.554   4.373 -1.7174 -0.9356 -0.4553
 1247SOL     OW15376   4.678   2.038   7.206 -0.1742  0.4202  0.2845
 1247SOL    HW115377   4.732   1.962   7.227 -0.1229  0.3950  0.0591
 1247SOL    HW215378   4.701   2.096   7.279 -1.1882 -1.1819  1.8612
 1248SOL     OW15379   3.827   2.930  16.848  0.7678  0.1315  0.2266
 1248SOL    HW115380   3.843   3.023  16.863 -3.1163  0.6320  1.2570
 1248SOL    HW215381   3.783   2.932  16.763  2.3217  0.2805 -0.5909
 1249SOL     OW15382   0.145   4.199   3.848 -0.1867  0.0354 -0.2440
 1249SOL    HW115383   0.144   4.136   3.920  0.8820  0.0131 -0.2483
 1249SOL    HW215384   0.056   4.233   3.853 -0.1054  0.4503 -1.5713
 1250SOL     OW15385   2.683   4.495  15.957 -0.0033  0.1534  0.2009
 1250SOL    HW115386   2.693   4.533  16.044  0.1194  1.0794 -0.2168
 1250SOL    HW215387   2.623   4.422  15.975 -0.0391 -0.2454 -1.5547
 1251SOL     OW15388   3.730   2.529   4.017  0.4111  0.2760  0.1955
 1251SOL    HW115389   3.740   2.618   3.982  1.1725 -0.1072 -0.5445
 1251SOL    HW215390   3.645   2.490   4.000  0.9032 -0.0275 -1.5324
 1252SOL     OW15391   4.474   2.626  10.796  0.0314  0.0287  0.3028
 1252SOL    HW115392   4.436   2.671  10.721  0.0937 -1.6071 -0.7079
 1252SOL    HW215393   4.409   2.556  10.800  1.4470 -1.3258 -0.4905
 1253SOL     OW15394   4.698   1.591   1.612  0.2440 -0.7801 -0.9075
 1253SOL    HW115395   4.665   1.660   1.554  0.6746  0.5235  0.3803
 1253SOL    HW215396   4.622   1.540   1.641 -0.1294  0.3277  0.0481
 1254SOL     OW15397   4.049   3.944   7.037  0.1919  0.0355  0.4740
 1254SOL    HW115398   4.069   3.972   6.948 -0.0141  0.3945  0.5429
 1254SOL    HW215399   4.132   3.958   7.083 -0.2451  0.1747  1.2175
 1255SOL     OW15400   0.583   3.998   6.755  0.4953 -0.1151 -0.6102
 1255SOL    HW115401   0.555   3.920   6.707 -2.7499  0.2356  0.7000
 1255SOL    HW215402   0.672   4.000   6.722  0.4032  0.7381 -0.7971
 1256SOL     OW15403   2.072   0.620   3.441  0.3749 -0.1269 -0.4705
 1256SOL    HW115404   1.996   0.563   3.453  0.3713  0.6695  3.1888
 1256SOL    HW215405   2.143   0.563   3.412  2.4663  2.3457 -0.1690
 1257SOL     OW15406   1.509   1.426   4.655 -0.0040  0.1664 -0.2616
 1257SOL    HW115407   1.571   1.362   4.620 -1.2903 -0.4279 -1.4869
 1257SOL    HW215408   1.554   1.450   4.735  0.4583  0.5501 -0.6371
 1258SOL     OW15409   2.455   4.289   9.254  0.0876  0.5715 -0.2155
 1258SOL    HW115410   2.391   4.283   9.183 -2.1642 -0.4223  1.8835
 1258SOL    HW215411   2.475   4.196   9.259  0.0064  0.5688  0.0557
 1259SOL     OW15412   1.971   3.967  16.879  0.2815 -0.0205  0.3578
 1259SOL    HW115413   1.892   3.987  16.930 -1.1297 -0.2727 -1.7426
 1259SOL    HW215414   1.969   4.036  16.812  2.1646 -1.0228 -0.7117
 1260SOL     OW15415   0.661   3.648   5.926  0.3147 -0.3299 -0.7422
 1260SOL    HW115416   0.634   3.562   5.960  0.5023  0.4846  1.4258
 1260SOL    HW215417   0.752   3.652   5.955 -0.0267  0.3611  0.2196
 1261SOL     OW15418   4.673   1.297   0.661  0.3110 -0.0015 -0.0962
 1261SOL    HW115419   4.632   1.215   0.635  0.3186  0.1970 -0.7445
 1261SOL    HW215420   4.724   1.274   0.739  2.5477  1.7120 -1.0098
 1262SOL     OW15421   4.395   1.000  12.310  0.2670  0.1635 -0.1617
 1262SOL    HW115422   4.305   1.006  12.341  0.6738 -1.1501  1.2590
 1262SOL    HW215423   4.440   1.029  12.390 -0.1735 -0.4854  0.3122
 1263SOL     OW15424   0.574   3.505   5.664 -0.4750 -0.3399 -0.4573
 1263SOL    HW115425   0.501   3.524   5.605  0.6185 -0.7148 -1.9377
 1263SOL    HW215426   0.557   3.552   5.745  0.3910 -2.3492  0.8927
 1264SOL     OW15427   3.865   3.002   7.424 -0.1183  0.3082 -0.1479
 1264SOL    HW115428   3.785   3.040   7.461 -1.4713 -1.7013 -1.0720
 1264SOL    HW215429   3.928   3.023   7.493 -0.2656  0.5486 -0.0850
 1265SOL     OW15430   0.588   0.863   7.205  0.2533  0.2368 -0.1313
 1265SOL    HW115431   0.494   0.873   7.225  0.1591 -1.1763  0.1020
 1265SOL    HW215432   0.602   0.954   7.180 -1.5023  0.6281  0.2920
 1266SOL     OW15433   1.334   1.164   1.354 -0.1023  0.0249  0.4403
 1266SOL    HW115434   1.241   1.141   1.353 -0.8733  3.1300  1.6193
 1266SOL    HW215435   1.370   1.096   1.297 -0.7609  0.4334 -0.4471
 1267SOL     OW15436   0.131   2.550   1.202  0.1934 -0.1996  0.5033
 1267SOL    HW115437   0.208   2.507   1.165 -1.3037 -0.0022 -2.8226
 1267SOL    HW215438   0.087   2.476   1.244  0.1300 -0.2013  0.4349
 1268SOL     OW15439   0.000   3.295  12.550 -0.4066 -0.5444  0.0717
 1268SOL    HW115440   4.729   3.304  12.455 -1.7924  0.0722  0.2629
 1268SOL    HW215441   4.712   3.205  12.568 -1.7903 -0.1718 -0.0795
 1269SOL     OW15442   3.812   0.347  14.910  0.2224 -0.4314 -0.4988
 1269SOL    HW115443   3.778   0.258  14.922  0.9762 -0.5981  0.4606
 1269SOL    HW215444   3.750   0.392  14.853 -0.2072 -0.4011 -0.0042
 1270SOL     OW15445   2.589   3.197   2.788  0.1731  0.3987  0.3082
 1270SOL    HW115446   2.617   3.124   2.732  0.4087 -0.5784  1.6865
 1270SOL    HW215447   2.632   3.160   2.865 -0.2375 -1.7988 -0.5082
 1271SOL     OW15448   4.646   4.421   5.530  0.1327 -0.1649 -0.4856
 1271SOL    HW115449   4.598   4.494   5.570  0.2155  0.3413 -1.2999
 1271SOL    HW215450   4.673   4.365   5.603  0.6113  1.3675  0.5096
 1272SOL     OW15451   2.379   2.617  13.959  0.2219  0.4995  0.5922
 1272SOL    HW115452   2.437   2.540  13.961  0.0656  0.3410 -1.3744
 1272SOL    HW215453   2.354   2.621  14.052 -0.3160 -0.2529  0.4776
 1273SOL     OW15454   3.479   1.046   9.956  0.2412 -0.2489 -0.6836
 1273SOL    HW115455   3.503   0.953   9.952 -0.3577 -0.4754  0.9747
 1273SOL    HW215456   3.561   1.085   9.926 -0.9485  0.7744 -2.5820
 1274SOL     OW15457   1.260   1.388   3.919  0.2939  0.3832  0.3944
 1274SOL    HW115458   1.299   1.469   3.884 -0.7955  0.4982 -0.5540
 1274SOL    HW215459   1.339   1.334   3.925  0.1217  0.2745  1.7391
 1275SOL     OW15460   0.857   2.018  17.530  0.7185  0.3208 -0.1498
 1275SOL    HW115461   0.767   2.024  17.562  1.3407  0.7088  1.5687
 1275SOL    HW215462   0.867   2.102  17.487 -1.5374  0.3975 -0.5284
 1276SOL     OW15463   4.667   1.106  14.045  0.3410  0.0304  0.3049
 1276SOL    HW115464   4.653   1.014  14.023 -0.0079 -0.1992  1.4813
 1276SOL    HW215465   4.698   1.138  13.960 -2.8750 -1.7523 -1.5427
 1277SOL     OW15466   0.082   4.434   2.177  0.2544  0.4165  0.2779
 1277SOL    HW115467   4.735   4.402   2.148  1.2021  1.3980 -3.5971
 1277SOL    HW215468   0.123   4.353   2.206  3.1082  1.8453  0.2927
 1278SOL     OW15469   4.090   1.681   6.132  0.0595  0.5536  0.8364
 1278SOL    HW115470   4.106   1.606   6.074 -0.0198  1.0631  0.1534
 1278SOL    HW215471   4.020   1.728   6.087  0.6007  1.7663  1.2637
 1279SOL     OW15472   2.152   4.473  14.067 -0.1271 -0.2113  0.5416
 1279SOL    HW115473   2.139   4.438  13.979  2.4354 -0.1895  0.1617
 1279SOL    HW215474   2.066   4.484  14.108 -1.3273  1.8958 -2.5202
 1280SOL     OW15475   3.880   1.728   5.955  0.5504  0.4738 -0.2621
 1280SOL    HW115476   3.819   1.660   5.983  1.2822 -0.4271 -0.8294
 1280SOL    HW215477   3.897   1.689   5.870 -1.9059 -0.5850 -0.2665
 1281SOL     OW15478   2.181   2.059   1.793  0.5798  0.7759  0.6528
 1281SOL    HW115479   2.128   1.986   1.760 -0.8475  1.4971  1.3583
 1281SOL    HW215480   2.122   2.093   1.860 -0.9689 -1.9106  0.6744
 1282SOL     OW15481   0.080   2.985   3.670  0.2728  0.0612  0.5732
 1282SOL    HW115482   0.003   2.967   3.724  1.7231 -0.6637  2.3621
 1282SOL    HW215483   0.126   3.058   3.711 -1.4999  0.3674  2.0045
 1283SOL     OW15484   2.767   2.003   5.197  0.2792  0.1234 -0.0966
 1283SOL    HW115485   2.761   1.911   5.223 -0.5048  0.7732  2.0234
 1283SOL    HW215486   2.814   2.060   5.257  0.3529  1.2530 -1.2289
 1284SOL     OW15487   2.260   4.119   0.132 -0.0049 -0.0091  0.4192
 1284SOL    HW115488   2.298   4.080   0.211 -0.4468  0.8597  1.0611
 1284SOL    HW215489   2.299   4.068   0.061 -1.7753 -2.3289  1.0825
 1285SOL     OW15490   4.128   2.567   3.993  0.2108  0.1370 -0.0955
 1285SOL    HW115491   4.126   2.504   3.921  2.2601  1.7573 -1.5635
 1285SOL    HW215492   4.079   2.519   4.059  0.8656  1.1439  1.1134
 1286SOL     OW15493   4.034   3.589   6.370  0.3730  0.3627 -0.0628
 1286SOL    HW115494   4.117   3.605   6.416 -0.3112 -0.5719  1.5136
 1286SOL    HW215495   4.063   3.555   6.286 -1.0212  0.9883 -0.7938
 1287SOL     OW15496   2.241   3.949   8.255 -0.5737 -0.2950  1.1570
 1287SOL    HW115497   2.278   4.038   8.256 -1.5669  0.1324  0.4110
 1287SOL    HW215498   2.268   3.900   8.178  0.0558  1.9937 -0.0928
 1288SOL     OW15499   3.754   1.151   8.111 -0.2934  0.1960 -0.7611
 1288SOL    HW115500   3.843   1.128   8.083  0.5050  0.6565  1.4291
 1288SOL    HW215501   3.766   1.231   8.163 -0.0462 -1.8833  2.3628
 1289SOL     OW15502   4.334   1.731   3.896  0.2055  0.0744  0.0114
 1289SOL    HW115503   4.367   1.669   3.961 -0.0771 -0.9319 -0.8104
 1289SOL    HW215504   4.360   1.815   3.934  0.6067  0.3964 -0.9730
 1290SOL     OW15505   4.268   0.446  12.130  0.0193 -0.3344 -0.4715
 1290SOL    HW115506   4.279   0.507  12.056 -3.3417  0.5004 -0.2834
 1290SOL    HW215507   4.209   0.494  12.189 -1.1132 -2.2053 -0.0816
 1291SOL     OW15508   1.341   3.736   9.561 -0.6812 -0.7274  0.3178
 1291SOL    HW115509   1.261   3.754   9.610 -0.5747  0.6976 -0.0263
 1291SOL    HW215510   1.315   3.652   9.524  1.2156 -0.6276 -1.2336
 1292SOL     OW15511   1.964   2.816  16.590 -0.3384 -0.0700 -0.1579
 1292SOL    HW115512   2.012   2.783  16.666 -0.6324 -1.5705 -0.6367
 1292SOL    HW215513   2.019   2.890  16.564  0.6447 -0.3394  1.1486
 1293SOL     OW15514   2.119   4.640   3.730  0.2919 -0.4731 -0.1275
 1293SOL    HW115515   2.176   4.667   3.658  0.6708 -2.1064 -0.4354
 1293SOL    HW215516   2.151   4.550   3.737  2.3639  0.0119 -3.3962
 1294SOL     OW15517   4.455   1.796  15.693 -0.0097  0.4748 -0.3006
 1294SOL    HW115518   4.481   1.725  15.635 -0.7979  1.0066 -1.3022
 1294SOL    HW215519   4.456   1.870  15.632  0.1781  0.4751 -0.2960
 1295SOL     OW15520   0.206   0.151   8.237  0.3693  0.3797  0.0237
 1295SOL    HW115521   0.176   0.079   8.293  0.4351 -0.2004 -0.6956
 1295SOL    HW215522   0.254   0.201   8.304  0.5718  0.2988 -0.0614
 1296SOL     OW15523   3.707   1.667   0.746  0.2636  0.2547  0.5260
 1296SOL    HW115524   3.648   1.618   0.804  0.6216 -0.2425  0.4720
 1296SOL    HW215525   3.790   1.625   0.769  0.9790  1.7866  0.7270
 1297SOL     OW15526   1.319   4.153   7.975 -0.0012  0.2101  0.2573
 1297SOL    HW115527   1.256   4.224   7.962  1.6963  2.0449  2.0148
 1297SOL    HW215528   1.260   4.090   8.015 -2.7166  1.8960 -1.0689
 1298SOL     OW15529   0.981   3.698   0.500 -0.2134  0.2549 -0.2251
 1298SOL    HW115530   0.997   3.693   0.406 -1.3928  0.3341 -0.4364
 1298SOL    HW215531   1.062   3.665   0.538  0.0382  0.3999 -0.6357
 1299SOL     OW15532   4.367   1.653  10.850 -0.0521  0.6061 -0.1404
 1299SOL    HW115533   4.296   1.592  10.871  1.8839 -1.3927  0.5849
 1299SOL    HW215534   4.354   1.720  10.917  0.3364 -0.7210  1.2692
 1300SOL     OW15535   3.095   1.025   8.443  0.1172  0.3170  0.3774
 1300SOL    HW115536   3.088   0.938   8.481  0.0480  0.2243  0.1490
 1300SOL    HW215537   3.166   1.010   8.381 -1.0379  1.9100 -1.3447
 1301SOL     OW15538   1.047   1.343   5.563 -0.1956  0.3917  0.4611
 1301SOL    HW115539   1.098   1.423   5.547  0.1143  0.3031  1.0147
 1301SOL    HW215540   0.955   1.364   5.549 -0.6100 -1.8683 -0.2974
 1302SOL     OW15541   0.638   1.750  12.713  0.2669  0.4377  0.8206
 1302SOL    HW115542   0.655   1.805  12.790 -2.9825  0.7179  1.3351
 1302SOL    HW215543   0.719   1.754  12.663  0.5042  2.5945  1.3857
 1303SOL     OW15544   2.364   0.163   2.262 -0.0025 -0.3842  0.1017
 1303SOL    HW115545   2.272   0.154   2.238  0.0142 -0.5583  0.0997
 1303SOL    HW215546   2.404   0.124   2.185  1.3104 -0.0128  0.5932
 1304SOL     OW15547   3.843   3.992   2.358 -0.0610 -0.0468  0.7859
 1304SOL    HW115548   3.897   4.025   2.430 -1.2046 -3.6169  3.3114
 1304SOL    HW215549   3.874   4.042   2.283 -0.9395 -2.1012 -0.9456
 1305SOL     OW15550   1.438   4.133   2.525  0.1512  0.0515 -0.4086
 1305SOL    HW115551   1.483   4.051   2.505 -0.1048  0.2697 -1.8699
 1305SOL    HW215552   1.394   4.119   2.609  0.2389 -0.4078 -0.4391
 1306SOL     OW15553   0.966   1.379   3.020  0.2085  0.0085 -0.0490
 1306SOL    HW115554   0.931   1.425   2.944 -1.3540 -1.5055 -0.2343
 1306SOL    HW215555   0.910   1.302   3.022 -3.4988  2.6812 -0.4987
 1307SOL     OW15556   0.883   2.204  15.390  0.5650 -0.1289  0.1162
 1307SOL    HW115557   0.911   2.284  15.436 -0.6278  0.6577 -0.5310
 1307SOL    HW215558   0.900   2.141  15.460  0.7773 -0.6026 -0.3608
 1308SOL     OW15559   3.527   1.414   8.286  0.0057  0.3350 -0.3934
 1308SOL    HW115560   3.623   1.411   8.288 -0.0081  1.0669  1.8884
 1308SOL    HW215561   3.500   1.395   8.376 -1.2972 -1.7463 -1.2114
 1309SOL     OW15562   0.152   1.947   2.414 -0.2246  0.3231 -0.1706
 1309SOL    HW115563   0.100   1.868   2.432  0.2843 -0.0330 -0.2511
 1309SOL    HW215564   0.107   1.960   2.330  0.0447 -2.1116 -0.7049
 1310SOL     OW15565   1.871   2.521   7.564 -0.0893  0.2899 -0.1639
 1310SOL    HW115566   1.846   2.490   7.651  1.4326  1.2345  0.6138
 1310SOL    HW215567   1.893   2.440   7.518  0.4739  1.6014 -2.2124
 1311SOL     OW15568   1.838   1.995   9.849 -0.1449 -0.0756 -0.8332
 1311SOL    HW115569   1.857   1.989   9.943  0.2355  2.8713 -0.7266
 1311SOL    HW215570   1.929   2.003   9.819  0.1829 -0.6593  0.0034
 1312SOL     OW15571   2.966   1.638   9.769  0.1150  0.3109 -0.4209
 1312SOL    HW115572   2.961   1.542   9.775 -1.0746  0.4605  1.0735
 1312SOL    HW215573   3.053   1.644   9.808  0.5664 -0.7466 -1.2711
 1313SOL     OW15574   1.617   4.496   4.388 -0.4169  0.6746  0.0501
 1313SOL    HW115575   1.615   4.474   4.295  1.9395  0.3465  0.0957
 1313SOL    HW215576   1.523   4.508   4.404 -0.0429  0.7067  2.1767
 1314SOL     OW15577   1.261   2.953   7.993  0.0611 -0.1002 -0.3578
 1314SOL    HW115578   1.278   2.858   7.994  0.7980  0.0330 -0.4197
 1314SOL    HW215579   1.273   2.975   8.086  0.7575  0.8234 -0.6674
 1315SOL     OW15580   0.053   2.095  10.900 -0.0743  0.1117  0.2830
 1315SOL    HW115581   0.141   2.067  10.879 -0.7754 -0.7794 -1.4856
 1315SOL    HW215582   0.076   2.185  10.922  0.3186 -0.0952  0.7182
 1316SOL     OW15583   4.560   1.237   5.045 -0.3061  0.7213 -0.2961
 1316SOL    HW115584   4.529   1.325   5.024 -1.4613 -0.1176 -2.0676
 1316SOL    HW215585   4.514   1.191   4.975  0.9027  0.9484 -1.2283
 1317SOL     OW15586   0.934   0.343  12.518 -0.1892 -0.0287  0.1947
 1317SOL    HW115587   0.933   0.301  12.603 -0.7635  0.6114  0.5085
 1317SOL    HW215588   0.937   0.266  12.461 -0.8539  0.8391 -1.0100
 1318SOL     OW15589   3.922   3.117   2.774  0.1415  0.0303 -0.4010
 1318SOL    HW115590   3.988   3.187   2.776 -1.8518  1.8878 -0.0219
 1318SOL    HW215591   3.843   3.155   2.736  0.3616  0.3992 -0.4848
 1319SOL     OW15592   1.243   3.613   1.695  0.1773  0.1992 -0.1458
 1319SOL    HW115593   1.271   3.610   1.786 -0.0977 -2.1018 -0.1418
 1319SOL    HW215594   1.148   3.611   1.690  0.1202  1.5406  0.3933
 1320SOL     OW15595   3.213   3.146   3.786 -0.3741  0.2487 -0.1382
 1320SOL    HW115596   3.296   3.100   3.777 -0.7055 -0.3289 -0.2493
 1320SOL    HW215597   3.186   3.153   3.695 -1.4729  2.4391  0.3487
 1321SOL     OW15598   2.034   1.378   6.003 -0.3397  0.5676 -0.3892
 1321SOL    HW115599   2.081   1.454   6.036  0.3566  0.1297 -0.3790
 1321SOL    HW215600   2.106   1.324   5.970 -0.0713  0.7658 -0.1309
 1322SOL     OW15601   0.273   3.028  15.888 -0.2315 -0.5667  0.3165
 1322SOL    HW115602   0.246   3.084  15.816  0.0084 -3.2220 -1.8381
 1322SOL    HW215603   0.348   2.988  15.845 -2.7697 -1.5278 -3.2308
 1323SOL     OW15604   0.770   2.021   3.082 -0.1580 -0.0723  0.1917
 1323SOL    HW115605   0.794   2.113   3.086 -0.8708  0.0634  1.3400
 1323SOL    HW215606   0.849   1.990   3.036 -1.3063  0.1386 -1.9016
 1324SOL     OW15607   0.458   0.613   6.361 -0.3640  0.2917  0.3425
 1324SOL    HW115608   0.385   0.628   6.420 -1.1912 -2.5373  0.0571
 1324SOL    HW215609   0.476   0.520   6.378  3.1893  1.1604  1.4181
 1325SOL     OW15610   1.635   4.174   3.494  0.2894 -0.2563  0.4483
 1325SOL    HW115611   1.695   4.161   3.567 -1.1134 -0.1773  1.6172
 1325SOL    HW215612   1.650   4.094   3.444 -0.3829 -0.4546  0.5665
 1326SOL     OW15613   1.671   1.803   4.220 -0.2221  0.1531  0.1007
 1326SOL    HW115614   1.666   1.883   4.273  2.1714 -0.1084  0.6975
 1326SOL    HW215615   1.672   1.827   4.128 -0.7268  0.3952  0.1562
 1327SOL     OW15616   0.150   0.998   8.038  0.2645  0.3968  0.0028
 1327SOL    HW115617   0.177   0.907   8.048  2.2488  0.9236 -0.4952
 1327SOL    HW215618   0.220   1.056   8.069  0.2491  2.1803 -3.2908
 1328SOL     OW15619   3.458   2.006   5.761 -0.2655 -0.8643  0.2853
 1328SOL    HW115620   3.478   2.096   5.784  1.2980 -1.4931  1.3466
 1328SOL    HW215621   3.413   1.970   5.838  0.2421  0.2722  1.1081
 1329SOL     OW15622   3.711   3.798  16.640 -0.5303  0.6741  0.3811
 1329SOL    HW115623   3.734   3.794  16.547 -0.7848  0.9536  0.3026
 1329SOL    HW215624   3.726   3.887  16.670  0.1757  0.1286  1.6263
 1330SOL     OW15625   2.496   1.641   6.094 -0.0990  0.3841 -0.3916
 1330SOL    HW115626   2.509   1.736   6.095  2.3805  0.0733 -2.9329
 1330SOL    HW215627   2.446   1.635   6.012  0.9901  0.2865 -1.0561
 1331SOL     OW15628   4.688   2.051  16.744  0.2522 -0.0292 -0.8951
 1331SOL    HW115629   0.015   2.121  16.749  1.3986 -1.1413 -0.1339
 1331SOL    HW215630   4.730   1.979  16.697 -0.3947 -1.3758  0.5761
 1332SOL     OW15631   1.988   1.234  11.792 -0.1909  0.3307 -0.1391
 1332SOL    HW115632   1.900   1.202  11.809  0.7149 -2.7057 -1.0992
 1332SOL    HW215633   2.019   1.264  11.878 -1.9185 -0.1171  0.6301
 1333SOL     OW15634   3.307   1.821  12.772 -0.3764 -1.0702 -0.6122
 1333SOL    HW115635   3.359   1.760  12.824 -0.8247  0.3785  1.5116
 1333SOL    HW215636   3.216   1.808  12.797  0.2702 -0.4513  2.0081
 1334SOL     OW15637   2.357   3.543   7.393  0.1655 -0.3749 -0.6744
 1334SOL    HW115638   2.281   3.511   7.345 -1.1438  0.5083  0.8338
 1334SOL    HW215639   2.432   3.526   7.336  1.5824 -1.0787  1.3967
 1335SOL     OW15640   2.422   4.288   8.458  0.0230 -0.2882  0.4613
 1335SOL    HW115641   2.508   4.282   8.500  0.2002  2.6038  0.4853
 1335SOL    HW215642   2.370   4.307   8.537  0.6923  0.4804  0.7180
 1336SOL     OW15643   0.951   3.439   3.993 -0.2049  0.3552  0.3650
 1336SOL    HW115644   0.869   3.447   4.041  0.8072 -3.5824  2.7408
 1336SOL    HW215645   1.008   3.488   4.051  2.3377 -3.3634  1.0367
 1337SOL     OW15646   3.115   3.772   0.492  0.0783 -0.2493 -0.0546
 1337SOL    HW115647   3.190   3.829   0.505  0.4654 -1.1823  1.9315
 1337SOL    HW215648   3.140   3.718   0.417  1.9380 -0.5864  0.7977
 1338SOL     OW15649   1.490   4.132   9.193 -0.0818 -0.4311 -0.1571
 1338SOL    HW115650   1.411   4.185   9.183  0.2075  0.1702  0.7483
 1338SOL    HW215651   1.483   4.079   9.113  0.7059 -4.7587  2.6406
 1339SOL     OW15652   2.353   2.402   9.925 -0.0584  0.1045  0.4784
 1339SOL    HW115653   2.434   2.372   9.884 -1.3421 -0.9204 -1.2724
 1339SOL    HW215654   2.384   2.477   9.976 -1.2894 -0.5426  2.2080
 1340SOL     OW15655   4.229   3.600  12.393  0.0162  0.3555 -0.3712
 1340SOL    HW115656   4.282   3.558  12.325  0.6894 -1.3496  1.1928
 1340SOL    HW215657   4.304   3.642  12.437  0.3219  1.2096 -1.7069
 1341SOL     OW15658   0.794   0.147   8.557  0.0707 -0.2281 -0.5292
 1341SOL    HW115659   0.733   0.077   8.534  1.3790 -0.9948 -1.7035
 1341SOL    HW215660   0.878   0.103   8.544  1.4542  2.0086  0.9228
 1342SOL     OW15661   0.747   4.632   0.559 -0.3631  0.2838  0.4314
 1342SOL    HW115662   0.735   4.648   0.466 -0.1119  0.9552  0.5088
 1342SOL    HW215663   0.834   4.592   0.559 -0.8784 -0.8280 -0.0697
 1343SOL     OW15664   0.702   2.126   0.559 -0.0871  0.3424  0.2468
 1343SOL    HW115665   0.690   2.157   0.649  0.9549  2.0253 -0.1883
 1343SOL    HW215666   0.632   2.181   0.524 -0.3991 -1.3797 -1.8350
 1344SOL     OW15667   2.354   0.775  13.404 -0.5963  0.4154  0.1569
 1344SOL    HW115668   2.378   0.857  13.446 -1.6197 -0.2182  1.9772
 1344SOL    HW215669   2.336   0.800  13.313  0.0698 -0.9710 -0.3570
 1345SOL     OW15670   4.466   1.886   6.508 -0.3458  0.1161  0.3537
 1345SOL    HW115671   4.552   1.875   6.548 -1.0482 -0.4490  1.7276
 1345SOL    HW215672   4.463   1.809   6.451 -0.8222 -0.8444  1.6563
 1346SOL     OW15673   0.781   3.400  17.414 -0.1634 -0.4760  0.1951
 1346SOL    HW115674   0.693   3.425  17.386  0.7930  2.7104 -0.0132
 1346SOL    HW215675   0.786   3.439  17.502  0.5781 -0.0060 -0.0483
 1347SOL     OW15676   3.479   1.623  15.840 -0.9240  0.1606 -0.0292
 1347SOL    HW115677   3.508   1.693  15.899  2.5287 -0.5821 -0.8816
 1347SOL    HW215678   3.476   1.667  15.755  0.0161  0.4333  0.0795
 1348SOL     OW15679   4.527   1.180   3.308  0.2728  0.1316 -0.3103
 1348SOL    HW115680   4.466   1.194   3.236  1.7793  0.4268 -1.5207
 1348SOL    HW215681   4.554   1.089   3.295  0.4029  0.2345 -0.7734
 1349SOL     OW15682   3.664   3.616   9.982 -0.1064 -0.5670  0.3751
 1349SOL    HW115683   3.738   3.666  10.018 -0.2742  0.9903 -1.4321
 1349SOL    HW215684   3.641   3.566  10.060  0.1147 -1.8257 -0.3731
 1350SOL     OW15685   2.178   1.139  12.119  0.1755  0.4371  0.0994
 1350SOL    HW115686   2.220   1.156  12.203 -2.1260 -0.0186  1.3376
 1350SOL    HW215687   2.086   1.119  12.138  0.0227 -1.4036 -2.5910
 1351SOL     OW15688   0.807   2.088  16.761 -0.4712 -0.0398  0.0570
 1351SOL    HW115689   0.814   2.157  16.827  0.7685  0.5943 -0.7233
 1351SOL    HW215690   0.718   2.103  16.729 -1.1548 -0.1394  1.9195
 1352SOL     OW15691   1.744   0.425  14.026  0.3191 -0.1330  0.4850
 1352SOL    HW115692   1.773   0.516  14.022 -1.1949  0.3346 -0.1637
 1352SOL    HW215693   1.704   0.420  13.939 -0.3087 -0.7639  0.8023
 1353SOL     OW15694   0.951   2.879   2.856 -0.3517 -0.1564 -0.1997
 1353SOL    HW115695   0.922   2.790   2.837 -0.6939 -0.1050  0.0691
 1353SOL    HW215696   1.042   2.874   2.827  0.0163 -0.6079  1.0573
 1354SOL     OW15697   2.917   4.132  10.056 -0.1108  0.2533 -0.8906
 1354SOL    HW115698   2.965   4.169  10.130  1.1434 -0.4948 -1.3210
 1354SOL    HW215699   2.842   4.190  10.046  0.4604  0.9835 -0.8849
 1355SOL     OW15700   1.190   2.340  11.884  0.3404 -0.2695  0.0526
 1355SOL    HW115701   1.204   2.250  11.854  1.3019 -0.2558  0.4526
 1355SOL    HW215702   1.280   2.374  11.878 -0.2402  1.3013  0.1902
 1356SOL     OW15703   4.699   0.511   4.658  0.2781  0.2125 -0.0614
 1356SOL    HW115704   4.621   0.529   4.711  0.2678 -1.6138  0.5413
 1356SOL    HW215705   0.028   0.518   4.726 -1.3268  0.5937  1.4920
 1357SOL     OW15706   0.834   2.551  15.304  0.0103  0.0888 -0.1120
 1357SOL    HW115707   0.834   2.642  15.274  1.9487  0.8835  2.3195
 1357SOL    HW215708   0.795   2.499  15.233  2.2943  0.4253 -1.5932
 1358SOL     OW15709   2.786   3.888  16.961 -0.3574 -0.3940 -0.2515
 1358SOL    HW115710   2.829   3.974  16.961  1.3738 -1.2576 -2.6557
 1358SOL    HW215711   2.869   3.841  16.965 -0.0805 -0.0397 -2.1544
 1359SOL     OW15712   4.512   0.999  17.615 -0.2204 -0.0111 -0.7350
 1359SOL    HW115713   4.516   0.961  17.703 -1.0401  0.5074 -0.4754
 1359SOL    HW215714   4.554   1.084  17.632  1.6130 -1.6596  2.8210
 1360SOL     OW15715   4.412   4.430   2.400 -0.0804 -0.1798 -0.0828
 1360SOL    HW115716   4.454   4.467   2.322 -0.2379  0.4057  0.1084
 1360SOL    HW215717   4.362   4.506   2.431  0.8549  0.0139  0.9573
 1361SOL     OW15718   2.486   4.608   5.965  0.4479  0.3990 -0.1475
 1361SOL    HW115719   2.572   4.641   5.994 -1.1212  0.1857  4.8643
 1361SOL    HW215720   2.513   4.543   5.900  1.3027  0.4082  0.1865
 1362SOL     OW15721   2.069   3.352   5.248  0.2638 -0.4050  0.2056
 1362SOL    HW115722   2.083   3.341   5.342  3.1602  0.5728 -0.0829
 1362SOL    HW215723   1.977   3.326   5.246  0.2607 -0.4622  1.8883
 1363SOL     OW15724   1.528   1.666   2.715 -0.3732 -0.5713  0.3715
 1363SOL    HW115725   1.465   1.696   2.650  1.9676  0.4383 -1.4114
 1363SOL    HW215726   1.603   1.708   2.675 -0.1603 -3.3440 -2.1407
 1364SOL     OW15727   1.311   0.529  17.441  0.3869 -0.9819 -0.6594
 1364SOL    HW115728   1.275   0.469  17.376  0.7029 -1.2868 -0.5542
 1364SOL    HW215729   1.386   0.479  17.472  0.3263 -2.1089 -2.3249
 1365SOL     OW15730   4.457   2.633  16.962  0.5996 -0.3537 -0.0647
 1365SOL    HW115731   4.404   2.612  17.039  0.5053 -0.3646 -0.1327
 1365SOL    HW215732   4.407   2.695  16.910  0.2296  0.3487  1.1336
 1366SOL     OW15733   2.551   1.343   7.576  0.0477  0.8473  0.3488
 1366SOL    HW115734   2.609   1.302   7.639 -1.6407 -0.8301  0.8229
 1366SOL    HW215735   2.610   1.329   7.502 -0.1179  1.2287  0.1471
 1367SOL     OW15736   4.135   0.757   2.055  0.2272 -0.1924 -0.2927
 1367SOL    HW115737   4.161   0.821   2.121 -0.4864  0.8043 -0.9915
 1367SOL    HW215738   4.220   0.757   2.010 -0.3583  0.8348 -1.3763
 1368SOL     OW15739   2.925   1.477   2.654 -0.0152 -0.1229 -0.2089
 1368SOL    HW115740   2.991   1.497   2.587  1.0602  1.5707  1.3780
 1368SOL    HW215741   2.853   1.436   2.606  1.0979 -0.7804 -1.3267
 1369SOL     OW15742   3.372   3.459   5.723 -0.1537  0.2038 -0.2882
 1369SOL    HW115743   3.299   3.482   5.781  1.8075  0.8661  1.9112
 1369SOL    HW215744   3.326   3.477   5.641 -2.8630 -1.5614  0.8582
 1370SOL     OW15745   0.045   3.907   6.020 -0.6595  0.0811 -0.0405
 1370SOL    HW115746   0.058   3.961   5.941  0.2638 -2.0077 -1.3022
 1370SOL    HW215747   0.101   3.834   5.995 -0.3007 -0.2270  1.6776
 1371SOL     OW15748   1.913   0.294   2.798 -0.0600 -0.2442  0.9375
 1371SOL    HW115749   1.925   0.377   2.752 -1.7298  0.3279  1.5518
 1371SOL    HW215750   1.993   0.255   2.763 -0.7269 -1.9724  1.3739
 1372SOL     OW15751   3.885   2.328   5.826 -0.5616 -0.1035 -0.0248
 1372SOL    HW115752   3.976   2.353   5.815 -0.3003 -0.2463  1.8060
 1372SOL    HW215753   3.886   2.235   5.801 -1.9025  0.7983 -3.4525
 1373SOL     OW15754   4.646   0.759   8.757 -0.2699 -0.1051 -0.2978
 1373SOL    HW115755   4.725   0.799   8.721 -0.7932  0.4566 -0.8053
 1373SOL    HW215756   4.599   0.841   8.774 -0.3831 -0.4350  0.9777
 1374SOL     OW15757   0.614   4.106   7.027  0.2904  0.4080 -0.6767
 1374SOL    HW115758   0.591   4.177   6.967 -0.1800  1.7586  1.1040
 1374SOL    HW215759   0.708   4.105   7.012  0.4521  2.0965  0.2368
 1375SOL     OW15760   4.082   3.377   2.353 -0.1178 -0.2174  0.5217
 1375SOL    HW115761   4.030   3.296   2.352 -1.2773  0.5500 -2.5932
 1375SOL    HW215762   4.047   3.420   2.431  3.4554  1.3869  1.2014
 1376SOL     OW15763   0.047   0.234   5.768  0.1586 -0.0256 -0.1480
 1376SOL    HW115764   0.058   0.317   5.721  0.9378 -1.5485 -2.6357
 1376SOL    HW215765   0.128   0.223   5.817  0.2214  3.0982  0.4734
 1377SOL     OW15766   1.419   1.793   1.467  0.1552  0.3237  0.1563
 1377SOL    HW115767   1.470   1.873   1.479  0.9631 -0.4236  1.6522
 1377SOL    HW215768   1.343   1.803   1.524 -0.3443 -0.0832 -0.4436
 1378SOL     OW15769   1.870   4.639   4.578 -0.1246  0.1146  0.2260
 1378SOL    HW115770   1.835   4.586   4.650  0.4150 -0.6798 -0.0924
 1378SOL    HW215771   1.955   4.649   4.622  0.1103  1.4155 -0.5283
 1379SOL     OW15772   3.213   1.513   5.666 -0.1405 -0.0232 -0.0090
 1379SOL    HW115773   3.249   1.504   5.578  0.8414  0.7588  0.3142
 1379SOL    HW215774   3.120   1.515   5.645  0.6029 -3.5425 -3.6267
 1380SOL     OW15775   1.231   0.080   7.337  0.1101  0.2924  0.1002
 1380SOL    HW115776   1.276   4.733   7.332 -0.4217  0.0331 -0.3615
 1380SOL    HW215777   1.186   0.068   7.421  1.4154  0.2018  0.7824
 1381SOL     OW15778   4.611   3.537   2.407 -0.1059 -0.4470 -0.4485
 1381SOL    HW115779   4.620   3.572   2.319  0.7416  0.1004 -0.1441
 1381SOL    HW215780   4.568   3.606   2.457 -0.8163 -1.6467  0.5936
 1382SOL     OW15781   2.894   1.384   8.435  0.1619 -0.4792  0.3205
 1382SOL    HW115782   2.849   1.301   8.418 -0.9411  0.3148 -0.6797
 1382SOL    HW215783   2.986   1.362   8.422 -0.0473 -0.8614 -0.5703
 1383SOL     OW15784   3.296   3.031   5.698  0.1269 -0.1218  0.4280
 1383SOL    HW115785   3.330   3.041   5.787  0.0322  0.1751  0.4321
 1383SOL    HW215786   3.386   3.021   5.666 -0.9983  0.2884 -2.8508
 1384SOL     OW15787   3.718   1.537   6.136  0.1497 -0.0117  0.9578
 1384SOL    HW115788   3.672   1.603   6.084  0.9559  0.2002  0.5218
 1384SOL    HW215789   3.703   1.577   6.222  1.2350 -0.5306  1.3822
 1385SOL     OW15790   0.754   0.001   3.200 -0.2245  0.0371 -0.0724
 1385SOL    HW115791   0.714   0.072   3.151 -2.8826 -1.2123  0.2580
 1385SOL    HW215792   0.675   4.686   3.213 -0.4064  0.0516 -1.0880
 1386SOL     OW15793   0.951   2.005   6.853 -0.1440  0.7025  0.7822
 1386SOL    HW115794   0.967   1.939   6.920  0.3906  1.2641  1.2180
 1386SOL    HW215795   0.858   2.024   6.867 -0.5484 -1.3256  0.7679
 1387SOL     OW15796   4.606   4.702   8.023 -0.0185  0.2017 -0.2413
 1387SOL    HW115797   4.607   4.618   8.068  0.0247  0.4658  0.2519
 1387SOL    HW215798   4.571   0.019   8.094 -0.9835 -0.9886  0.1926
 1388SOL     OW15799   0.064   3.492   6.919  0.0768 -0.0039  0.1533
 1388SOL    HW115800   4.730   3.509   6.980  2.0339  0.7345  2.2496
 1388SOL    HW215801   0.119   3.430   6.967 -1.1333 -1.4158 -0.2769
 1389SOL     OW15802   4.398   2.565   5.649 -0.5491  0.1187 -0.0965
 1389SOL    HW115803   4.345   2.602   5.578 -0.2428  1.4837  0.3878
 1389SOL    HW215804   4.484   2.567   5.607 -1.9103  0.3425 -2.9039
 1390SOL     OW15805   3.554   3.738   3.569  0.2361  0.2377  0.5459
 1390SOL    HW115806   3.522   3.828   3.557  1.6978  0.8485  1.3149
 1390SOL    HW215807   3.623   3.741   3.503 -0.2567 -0.8598 -0.0215
 1391SOL     OW15808   2.519   1.251   9.101 -0.1945 -0.4771 -0.0395
 1391SOL    HW115809   2.601   1.208   9.078  1.6210  1.9750  1.8387
 1391SOL    HW215810   2.453   1.183   9.113  0.1355 -0.5399  1.4005
 1392SOL     OW15811   1.109   2.898   8.797 -0.5384  0.6083 -0.1630
 1392SOL    HW115812   1.042   2.964   8.780 -0.1256  0.8464 -0.8557
 1392SOL    HW215813   1.166   2.907   8.721  2.3124 -1.5280  1.7179
 1393SOL     OW15814   4.253   4.383  16.131  0.1214 -0.5777 -0.6105
 1393SOL    HW115815   4.167   4.425  16.129  0.0450 -0.6758  0.2502
 1393SOL    HW215816   4.229   4.290  16.133  1.5712 -0.9309  0.1024
 1394SOL     OW15817   3.491   2.553   4.466 -0.0473  0.2510 -0.2100
 1394SOL    HW115818   3.475   2.618   4.397  0.2132  0.1377 -0.3758
 1394SOL    HW215819   3.431   2.486   4.431  0.8442 -1.5263  1.6700
 1395SOL     OW15820   0.844   2.599   4.821 -0.3093  0.2840  0.1156
 1395SOL    HW115821   0.936   2.628   4.825  0.1164 -1.3894  2.4262
 1395SOL    HW215822   0.806   2.643   4.745  1.7779 -1.6790 -2.0803
 1396SOL     OW15823   3.652   2.217   7.163  0.2601  0.1297 -0.1553
 1396SOL    HW115824   3.664   2.215   7.258  0.4532  3.0897 -0.1389
 1396SOL    HW215825   3.745   2.212   7.138  0.2197 -2.9371  0.2568
 1397SOL     OW15826   3.039   3.296   0.348  0.7030 -0.2547  0.7331
 1397SOL    HW115827   3.109   3.245   0.308  0.8357 -1.0707  1.9995
 1397SOL    HW215828   3.083   3.378   0.324 -0.7879  0.3451  0.0479
 1398SOL     OW15829   1.649   0.264   0.446 -0.4075 -0.4371  0.1910
 1398SOL    HW115830   1.674   0.175   0.421  1.4836 -0.2709  1.5343
 1398SOL    HW215831   1.624   0.289   0.357 -1.7438  0.5933  0.8607
 1399SOL     OW15832   4.517   4.505  13.964 -0.0971  0.0658  0.0717
 1399SOL    HW115833   4.459   4.441  13.923 -0.0954  1.0725 -1.5291
 1399SOL    HW215834   4.581   4.520  13.894  2.1715 -2.7346  1.5803
 1400SOL     OW15835   4.439   2.283   5.635 -0.3742 -0.2808 -0.4864
 1400SOL    HW115836   4.466   2.249   5.720 -1.1286 -0.4988 -0.3421
 1400SOL    HW215837   4.417   2.374   5.653 -3.8469 -1.5730  1.6322
 1401SOL     OW15838   2.206   2.276   5.524 -0.1824  0.3504  0.1311
 1401SOL    HW115839   2.297   2.247   5.529 -0.2877 -0.2244 -1.2637
 1401SOL    HW215840   2.213   2.359   5.572 -0.7533  0.4172  0.1016
 1402SOL     OW15841   0.323   0.983   7.278  0.2185 -0.7090 -0.0142
 1402SOL    HW115842   0.252   1.005   7.339 -1.5308 -0.9366 -1.9660
 1402SOL    HW215843   0.399   1.014   7.327  0.0253 -1.2019  0.5931
 1403SOL     OW15844   1.651   3.034   0.141  0.4868 -0.5067 -0.3917
 1403SOL    HW115845   1.719   3.101   0.149  0.0793 -0.3088  1.2628
 1403SOL    HW215846   1.691   2.962   0.190  1.6577  1.4240  1.4755
 1404SOL     OW15847   1.171   3.243   1.892  0.1798 -0.0541  0.5465
 1404SOL    HW115848   1.197   3.228   1.983  1.4509 -0.3460  0.1287
 1404SOL    HW215849   1.101   3.307   1.905 -0.4734 -0.5836 -0.3881
 1405SOL     OW15850   1.224   3.284  17.631  0.0817  0.5321 -0.4027
 1405SOL    HW115851   1.154   3.243  17.580 -0.0933  0.1245  0.1601
 1405SOL    HW215852   1.296   3.232  17.596 -2.0273 -0.3950 -3.4475
 1406SOL     OW15853   3.891   0.870   9.528 -0.8860 -0.4050  0.3265
 1406SOL    HW115854   3.978   0.837   9.506  0.1859  1.6896  1.3414
 1406SOL    HW215855   3.912   0.902   9.616 -0.0742  0.4595 -0.1802
 1407SOL     OW15856   1.438   3.311   5.167  0.7481  0.1301  0.8068
 1407SOL    HW115857   1.351   3.335   5.199  0.6154 -0.1391  0.6545
 1407SOL    HW215858   1.400   3.266   5.091 -0.6794  1.4748  0.7339
 1408SOL     OW15859   1.464   0.658   7.611 -0.5369 -0.1233  0.4575
 1408SOL    HW115860   1.402   0.591   7.585  1.4155 -1.7247 -0.0456
 1408SOL    HW215861   1.491   0.634   7.700  2.0142  0.7422 -0.0695
 1409SOL     OW15862   3.410   2.840   2.527 -0.0698  0.0880  0.6323
 1409SOL    HW115863   3.432   2.847   2.434 -0.2921 -0.9185  0.5039
 1409SOL    HW215864   3.344   2.909   2.534 -0.2740 -0.1526  1.0750
 1410SOL     OW15865   3.191   3.211  17.064  0.0462  0.3662 -0.1075
 1410SOL    HW115866   3.171   3.238  17.153  0.6227 -1.6898  0.6387
 1410SOL    HW215867   3.122   3.145  17.057 -0.1178  0.6291 -0.9825
 1411SOL     OW15868   2.478   0.914  10.585 -0.3213 -0.2745 -0.5113
 1411SOL    HW115869   2.408   0.940  10.645 -1.2579 -2.8725 -0.4839
 1411SOL    HW215870   2.531   0.872  10.653 -0.6957 -3.1683 -2.0122
 1412SOL     OW15871   4.194   1.422   1.763 -0.8282 -0.0108  0.0983
 1412SOL    HW115872   4.109   1.403   1.803 -0.7067  0.1716  0.4408
 1412SOL    HW215873   4.214   1.506   1.805  0.0663  0.0717 -0.4864
 1413SOL     OW15874   1.935   2.086   8.870 -0.3761  0.1905  0.2086
 1413SOL    HW115875   1.982   2.147   8.814  2.1080 -3.0127 -1.2008
 1413SOL    HW215876   1.841   2.106   8.863  0.0574  1.9277 -0.5246
 1414SOL     OW15877   4.051   4.579   3.966 -0.0255  0.6683  0.3386
 1414SOL    HW115878   4.144   4.599   3.956 -1.1514  5.2148 -1.1304
 1414SOL    HW215879   4.025   4.640   4.035 -1.1957  0.1266  0.3816
 1415SOL     OW15880   1.728   1.414   1.472 -0.2934 -0.2541 -0.4753
 1415SOL    HW115881   1.671   1.468   1.527 -0.8188  0.4449 -1.6915
 1415SOL    HW215882   1.818   1.425   1.504 -0.0115 -0.8497 -1.0687
 1416SOL     OW15883   1.387   0.554   2.953 -0.3604 -0.2533 -0.2458
 1416SOL    HW115884   1.307   0.580   2.999 -0.0865  1.1176 -0.5291
 1416SOL    HW215885   1.444   0.530   3.026 -0.3507 -1.5017 -0.6707
 1417SOL     OW15886   3.670   2.274   6.745 -0.0862  0.7446 -0.1313
 1417SOL    HW115887   3.602   2.232   6.797  0.5831  0.2414  0.3363
 1417SOL    HW215888   3.701   2.195   6.701 -4.6389 -0.8049 -0.5497
 1418SOL     OW15889   0.489   1.409   6.771  0.5188 -0.6529 -0.7342
 1418SOL    HW115890   0.410   1.433   6.724 -0.8222 -1.1548  1.2492
 1418SOL    HW215891   0.465   1.347   6.840  2.5699  1.4596  1.8677
 1419SOL     OW15892   3.275   0.511   7.869  0.0684  0.0843 -0.5731
 1419SOL    HW115893   3.210   0.455   7.825 -1.5659  1.6102 -0.1236
 1419SOL    HW215894   3.342   0.448   7.893  3.5030  3.1594 -2.0687
 1420SOL     OW15895   2.567   3.726  13.584  0.1005 -0.1143 -0.0300
 1420SOL    HW115896   2.502   3.711  13.653 -1.2981 -3.5145 -2.0945
 1420SOL    HW215897   2.595   3.635  13.575 -0.4907 -0.2697 -0.3225
 1421SOL     OW15898   3.142   4.089   3.818 -0.2933 -0.2304 -0.3115
 1421SOL    HW115899   3.194   4.170   3.818  0.0324 -0.4421 -0.1186
 1421SOL    HW215900   3.176   4.048   3.739  1.1862 -0.8191  0.6185
 1422SOL     OW15901   2.425   2.585   8.601  0.0568  0.6196  0.2408
 1422SOL    HW115902   2.461   2.556   8.517 -2.1881  0.5764 -0.7061
 1422SOL    HW215903   2.378   2.662   8.569 -1.0789 -0.4159 -0.5800
 1423SOL     OW15904   3.920   3.048   0.554  0.1779  0.1620  0.0972
 1423SOL    HW115905   4.006   3.075   0.587  1.5206 -0.7668 -2.6330
 1423SOL    HW215906   3.890   3.135   0.528 -0.8168  0.3186  1.7247
 1424SOL     OW15907   0.631   1.190   5.435  0.2571 -0.3942 -0.0073
 1424SOL    HW115908   0.584   1.107   5.427  1.2894 -0.9879  0.1242
 1424SOL    HW215909   0.683   1.201   5.355 -2.0050 -1.6520 -1.6398
 1425SOL     OW15910   1.271   3.221   7.330 -0.5622  0.1891  0.2724
 1425SOL    HW115911   1.249   3.128   7.330  0.0296  0.0565 -0.5391
 1425SOL    HW215912   1.279   3.235   7.236  1.0181 -0.1267  0.3592
 1426SOL     OW15913   0.533   1.542   7.325  0.3648 -0.1777  0.4990
 1426SOL    HW115914   0.486   1.459   7.309  4.0777 -1.9790 -0.9511
 1426SOL    HW215915   0.621   1.509   7.341  0.9042  0.2671 -1.4917
 1427SOL     OW15916   3.316   3.186   3.376  0.0529 -0.2595 -0.8478
 1427SOL    HW115917   3.346   3.097   3.355 -1.0033 -0.5533 -1.1337
 1427SOL    HW215918   3.339   3.225   3.292 -0.7817  0.5809 -0.6831
 1428SOL     OW15919   3.132   4.617   0.057  0.2152  0.2208 -0.7098
 1428SOL    HW115920   3.164   4.690   0.111  0.3811 -0.4172  0.0462
 1428SOL    HW215921   3.040   4.641   0.063  0.2638  1.1150 -3.5841
 1429SOL     OW15922   0.198   0.511   7.296 -0.2424  0.7192 -0.2152
 1429SOL    HW115923   0.218   0.602   7.273  1.3173 -0.0143 -1.7406
 1429SOL    HW215924   0.257   0.486   7.367  0.2718 -0.2911 -1.0156
 1430SOL     OW15925   2.299   3.836  14.520  0.1796 -0.1827  0.1650
 1430SOL    HW115926   2.321   3.806  14.432  0.8480 -2.4062  1.0993
 1430SOL    HW215927   2.203   3.840  14.515  0.2830 -0.0267 -1.6413
 1431SOL     OW15928   0.767   4.698  12.525 -0.1574 -0.5669 -0.3878
 1431SOL    HW115929   0.795   0.018  12.454  0.3772 -1.3575 -0.8190
 1431SOL    HW215930   0.702   4.642  12.484 -0.3184  1.8412 -3.4648
 1432SOL     OW15931   2.960   2.395   5.828  0.0390 -0.4849  0.4740
 1432SOL    HW115932   2.982   2.457   5.758 -0.4597 -1.0999 -0.2196
 1432SOL    HW215933   2.978   2.446   5.907 -2.1740 -0.7842  1.1427
 1433SOL     OW15934   3.093   3.663   7.602  0.2699  0.1523 -0.0301
 1433SOL    HW115935   3.079   3.736   7.542 -0.4632 -0.6154 -0.7896
 1433SOL    HW215936   3.008   3.651   7.644  0.0032  0.3874 -0.5041
 1434SOL     OW15937   0.012   3.796  13.383  0.8019 -0.2872 -0.0360
 1434SOL    HW115938   0.093   3.748  13.371  0.3430 -0.4751 -2.3815
 1434SOL    HW215939   0.020   3.866  13.318 -1.3555  1.1070  1.1609
 1435SOL     OW15940   3.483   2.523   4.807  0.5741 -0.3107 -0.3449
 1435SOL    HW115941   3.488   2.531   4.712  1.4086  1.0340 -0.1842
 1435SOL    HW215942   3.573   2.543   4.834  0.3271  0.8245 -0.3495
 1436SOL     OW15943   1.596   4.435   9.858 -0.4482  0.3009 -0.0821
 1436SOL    HW115944   1.616   4.514   9.908 -0.2360  0.7355 -0.8584
 1436SOL    HW215945   1.682   4.395   9.867 -0.8358 -0.4967  0.0839
 1437SOL     OW15946   2.785   0.386   1.780 -0.3365 -0.1495  0.5352
 1437SOL    HW115947   2.832   0.425   1.854  2.5824 -0.5960 -1.0820
 1437SOL    HW215948   2.832   0.433   1.711 -2.6108 -0.2652 -1.1119
 1438SOL     OW15949   1.009   2.794   2.544  0.0136 -0.2780 -0.3961
 1438SOL    HW115950   1.033   2.843   2.623 -0.8684 -0.8600  0.2276
 1438SOL    HW215951   1.051   2.840   2.472 -1.9350 -0.7177 -1.8168
 1439SOL     OW15952   4.610   0.616   2.139 -0.4616  0.6921  0.2788
 1439SOL    HW115953   4.598   0.535   2.190 -1.7877  1.5631  1.3369
 1439SOL    HW215954   4.585   0.589   2.050  0.8730  0.2303  0.0347
 1440SOL     OW15955   2.317   4.091   4.471  0.5359  0.3363  0.2052
 1440SOL    HW115956   2.323   4.126   4.382  1.1886  0.2540  0.2215
 1440SOL    HW215957   2.314   4.169   4.527  2.8383 -0.0095  0.7953
 1441SOL     OW15958   0.918   0.356  12.206  0.0655  0.9965  0.1436
 1441SOL    HW115959   0.940   0.448  12.189 -0.2137  1.3773  1.8551
 1441SOL    HW215960   0.937   0.301  12.130 -1.7171  0.0633  0.3710
 1442SOL     OW15961   4.106   0.075   3.651  0.5426  0.9408  0.5066
 1442SOL    HW115962   4.187   0.100   3.697  1.2813 -1.6574  0.6019
 1442SOL    HW215963   4.130   0.093   3.560  0.0327 -1.2191 -0.0545
 1443SOL     OW15964   3.556   4.603   4.399  0.1410 -0.0388  0.0931
 1443SOL    HW115965   3.528   4.634   4.485  0.5971  0.4434  0.0622
 1443SOL    HW215966   3.630   4.550   4.428 -0.1779 -0.0063  0.9838
 1444SOL     OW15967   3.886   2.840   0.344 -0.0010 -0.2818  0.1960
 1444SOL    HW115968   3.976   2.821   0.371  1.2305 -0.6584 -4.2720
 1444SOL    HW215969   3.878   2.916   0.402  1.0919 -0.2654  0.3427
 1445SOL     OW15970   2.964   2.315   8.594 -0.0221 -0.1332 -0.1416
 1445SOL    HW115971   3.011   2.340   8.674 -0.8418 -2.0569  0.9309
 1445SOL    HW215972   2.953   2.224   8.619 -1.5305 -0.2765 -1.3324
 1446SOL     OW15973   0.121   4.233   7.371  0.2327  0.2431  0.1101
 1446SOL    HW115974   0.057   4.266   7.433 -0.6363 -1.8887  0.3310
 1446SOL    HW215975   0.074   4.241   7.288  0.7878  2.4364 -0.0060
 1447SOL     OW15976   3.870   1.380   4.102 -0.2099 -0.5424 -0.4562
 1447SOL    HW115977   3.885   1.404   4.010 -0.1786  0.9271 -0.0636
 1447SOL    HW215978   3.784   1.341   4.090 -0.3110 -0.8006  1.0647
 1448SOL     OW15979   1.540   4.326  11.246  0.2623  0.6860  0.3576
 1448SOL    HW115980   1.628   4.298  11.222 -0.2726 -0.2177 -0.6046
 1448SOL    HW215981   1.485   4.266  11.195  0.4247 -1.0258  2.1946
 1449SOL     OW15982   3.617   2.108  10.719 -0.6307 -0.7908  0.1823
 1449SOL    HW115983   3.560   2.163  10.774 -0.7560 -1.0303  0.2897
 1449SOL    HW215984   3.547   2.050  10.689 -0.7681 -0.7616  0.4454
 1450SOL     OW15985   2.646   0.927   8.346 -0.5114 -0.5137  1.1091
 1450SOL    HW115986   2.649   0.834   8.324  1.5070 -0.3673  0.7827
 1450SOL    HW215987   2.612   0.974   8.270  0.1544 -1.1699  0.4052
 1451SOL     OW15988   1.573   2.490   0.678 -0.3460 -0.1185 -0.1916
 1451SOL    HW115989   1.484   2.455   0.667 -0.2307  0.0432 -1.7009
 1451SOL    HW215990   1.607   2.413   0.725 -2.7969 -0.9219  0.2638
 1452SOL     OW15991   3.049   4.697   2.295  0.7746 -0.1785  0.0974
 1452SOL    HW115992   2.981   4.646   2.251 -0.2399  0.2320  1.1908
 1452SOL    HW215993   3.071   4.645   2.372  1.0388  2.0169  1.4883
 1453SOL     OW15994   2.576   0.365   3.960  0.0162 -0.3483 -0.0242
 1453SOL    HW115995   2.506   0.300   3.960 -0.5263  0.2482 -0.3977
 1453SOL    HW215996   2.640   0.322   3.903 -2.3844  1.3757 -3.9591
 1454SOL     OW15997   0.877   0.601  11.539 -0.3822  0.4711  0.2112
 1454SOL    HW115998   0.956   0.646  11.570  0.5852  0.3875 -2.1297
 1454SOL    HW215999   0.927   0.528  11.503 -0.7144  0.5615 -0.4266
 1455SOL     OW16000   0.897   3.372   6.798 -0.0267 -0.3393  0.0425
 1455SOL    HW116001   0.824   3.376   6.737  0.8836  1.5304 -0.9287
 1455SOL    HW216002   0.853   3.373   6.882 -1.7634  1.5038 -0.9039
 1456SOL     OW16003   0.823   1.977   5.074  0.3702  0.3757  0.2235
 1456SOL    HW116004   0.787   2.007   5.157  1.8648  1.8597  0.3170
 1456SOL    HW216005   0.753   1.994   5.011  0.7705  0.8873 -0.0734
 1457SOL     OW16006   1.199   1.559   5.565 -0.2733  0.4698 -0.5299
 1457SOL    HW116007   1.192   1.609   5.483  0.9785 -0.7173 -1.3603
 1457SOL    HW216008   1.154   1.617   5.625  0.4931  0.0078  0.4906
 1458SOL     OW16009   0.182   1.794   7.146  0.1220 -0.5333 -0.3146
 1458SOL    HW116010   0.256   1.834   7.192 -1.3498  1.2667  0.5058
 1458SOL    HW216011   0.136   1.786   7.230  1.3143  0.1523  0.4045
 1459SOL     OW16012   2.274   3.079   3.402  0.3110  0.1994  1.0822
 1459SOL    HW116013   2.302   2.988   3.411 -2.5462 -0.8310 -0.5380
 1459SOL    HW216014   2.220   3.081   3.481  0.5098  0.8740  1.2028
 1460SOL     OW16015   2.479   3.584  14.491 -0.0353  0.0825  0.4808
 1460SOL    HW116016   2.430   3.616  14.567  2.2571  0.6653  1.6937
 1460SOL    HW216017   2.420   3.612  14.421  1.1524 -2.9797 -1.7672
 1461SOL     OW16018   3.945   3.243   4.869 -0.0171 -0.3408 -0.1332
 1461SOL    HW116019   3.881   3.313   4.855  2.0795  2.0630  2.3393
 1461SOL    HW216020   4.024   3.289   4.897  1.3392 -2.6005 -0.2929
 1462SOL     OW16021   1.076   4.162   4.518 -0.0223  0.4090 -0.4959
 1462SOL    HW116022   1.097   4.233   4.579 -0.9274  0.4249 -0.2037
 1462SOL    HW216023   0.987   4.191   4.497  1.1816  2.6053 -2.6042
 1463SOL     OW16024   3.441   3.808   4.595 -0.2899  0.3675 -0.8451
 1463SOL    HW116025   3.480   3.852   4.520  1.0322  1.8964  0.7188
 1463SOL    HW216026   3.371   3.751   4.564  0.2272 -0.9308  0.3794
 1464SOL     OW16027   4.467   0.083   7.210 -0.2027  0.2178 -0.0038
 1464SOL    HW116028   4.551   0.077   7.254 -1.0570  0.9178  1.6973
 1464SOL    HW216029   4.407   0.046   7.274 -0.7890  1.1808  0.0007
 1465SOL     OW16030   3.450   2.361   8.391 -0.3201  0.6732  0.1169
 1465SOL    HW116031   3.462   2.421   8.465  1.6440 -0.2939  0.5748
 1465SOL    HW216032   3.457   2.421   8.317  0.5412 -1.1956 -1.3258
 1466SOL     OW16033   2.854   0.871   3.455  0.0189 -0.2237 -0.0290
 1466SOL    HW116034   2.892   0.897   3.372 -0.8571  0.0804 -0.3349
 1466SOL    HW216035   2.924   0.812   3.486  0.7266  0.4867 -0.2797
 1467SOL     OW16036   1.604   2.651  14.894  0.5426  0.0613 -0.0611
 1467SOL    HW116037   1.659   2.726  14.870  1.0485  0.0778  1.1512
 1467SOL    HW216038   1.526   2.663  14.840  0.7481  0.0795 -0.3575
 1468SOL     OW16039   0.514   1.851   2.068 -0.4295 -0.1322  0.2599
 1468SOL    HW116040   0.599   1.869   2.109  0.6752 -0.0616 -2.0531
 1468SOL    HW216041   0.474   1.937   2.078  0.9418  0.5460 -0.0058
 1469SOL     OW16042   2.615   0.739   3.708 -0.1707 -0.5716 -0.4861
 1469SOL    HW116043   2.604   0.791   3.628  2.3457 -0.7738 -0.9803
 1469SOL    HW216044   2.524   0.718   3.725 -0.7338  1.8705 -0.5419
 1470SOL     OW16045   1.951   1.388   4.059 -0.2703 -0.0652  0.0525
 1470SOL    HW116046   1.912   1.468   4.093 -1.2963 -0.2726 -0.6402
 1470SOL    HW216047   1.883   1.329   4.089 -0.5251  0.6801  0.9310
 1471SOL     OW16048   2.253   4.168  11.966 -0.4561  0.4464 -0.1503
 1471SOL    HW116049   2.288   4.247  12.006  1.6774 -0.8998  0.6637
 1471SOL    HW216050   2.317   4.102  11.993  1.3351  2.5902  0.8429
 1472SOL     OW16051   1.250   1.728   1.925  0.5430  0.0391 -0.0218
 1472SOL    HW116052   1.307   1.655   1.901 -0.2098 -0.6155  0.1723
 1472SOL    HW216053   1.307   1.805   1.928  1.0469 -0.2747 -1.6295
 1473SOL     OW16054   3.192   3.095   6.534 -0.4905 -0.5629  0.2372
 1473SOL    HW116055   3.175   3.015   6.583 -1.1414  0.8396  2.2934
 1473SOL    HW216056   3.197   3.164   6.600  0.4113  1.1099 -1.5725
 1474SOL     OW16057   2.562   1.093   8.549  0.1190  0.1954  0.1031
 1474SOL    HW116058   2.619   1.033   8.500  1.3142  1.3191  0.1245
 1474SOL    HW216059   2.515   1.142   8.482 -0.4996 -2.3484 -1.3354
 1475SOL     OW16060   0.070   4.075   5.818 -0.0683 -0.1493  0.6570
 1475SOL    HW116061   0.040   4.165   5.805 -1.2369 -0.6525 -0.1549
 1475SOL    HW216062   0.104   4.064   5.729  0.3644  0.2870  0.7682
 1476SOL     OW16063   0.965   4.261  16.257 -0.3903  0.2899 -0.5375
 1476SOL    HW116064   0.985   4.224  16.171 -1.5367 -0.2191 -0.5869
 1476SOL    HW216065   1.020   4.198  16.304  1.3326  0.6063 -2.1174
 1477SOL     OW16066   4.576   1.251  15.919  0.2653 -0.3249  0.4178
 1477SOL    HW116067   4.572   1.181  15.853  0.6018 -0.7017  0.7937
 1477SOL    HW216068   4.613   1.323  15.868 -0.6911  0.0662  0.2704
 1478SOL     OW16069   4.465   4.075  14.837  0.0386  0.0049 -0.0685
 1478SOL    HW116070   4.544   4.021  14.837  0.1687  0.2002  0.2615
 1478SOL    HW216071   4.472   4.126  14.917 -2.6095 -1.3748  1.0205
 1479SOL     OW16072   4.097   2.084   6.258  0.5457 -0.6297  0.6068
 1479SOL    HW116073   4.174   2.055   6.210  0.6116  0.1884  0.2108
 1479SOL    HW216074   4.092   2.177   6.237  0.8299 -0.5499  0.8844
 1480SOL     OW16075   2.692   3.064   3.324  0.1456 -0.0327 -0.3151
 1480SOL    HW116076   2.656   2.976   3.338  0.1059  0.1668  0.7968
 1480SOL    HW216077   2.761   3.066   3.390  2.0758  0.5339 -2.3537
 1481SOL     OW16078   1.259   4.047   1.905  0.0852  0.0664  0.3864
 1481SOL    HW116079   1.197   4.120   1.898  0.5435  0.5462  1.4415
 1481SOL    HW216080   1.219   3.995   1.835  1.2108  2.4436 -2.0385
 1482SOL     OW16081   3.092   3.617   8.640  0.1927  0.1723 -0.0141
 1482SOL    HW116082   3.070   3.703   8.677  0.3027  0.2508 -0.1299
 1482SOL    HW216083   3.043   3.560   8.699  1.6145 -2.4881 -1.4133
 1483SOL     OW16084   1.318   3.392   6.676  0.2782 -0.0870  0.1380
 1483SOL    HW116085   1.262   3.384   6.754  2.1302 -0.1778  1.4620
 1483SOL    HW216086   1.406   3.382   6.710 -0.2374 -0.0909  1.4845
 1484SOL     OW16087   1.361   0.615  15.279  0.1740 -0.3566 -0.7518
 1484SOL    HW116088   1.272   0.626  15.246  0.0805  1.0238 -0.0646
 1484SOL    HW216089   1.357   0.652  15.367  1.1507  0.8685 -1.2183
 1485SOL     OW16090   0.371   3.868   7.155 -0.0051  0.7378 -0.7983
 1485SOL    HW116091   0.316   3.920   7.096  0.3870 -1.2003 -2.8561
 1485SOL    HW216092   0.443   3.858   7.093  1.0655 -0.3892  0.6266
 1486SOL     OW16093   3.277   3.576   8.346 -0.1492 -0.0384  0.1776
 1486SOL    HW116094   3.347   3.573   8.281  1.3210  2.3349  1.6758
 1486SOL    HW216095   3.220   3.651   8.327  0.2336  0.7592  2.2788
 1487SOL     OW16096   2.676   4.385   2.823  0.3362 -0.0797  0.4184
 1487SOL    HW116097   2.650   4.330   2.897  0.7094 -0.7993  0.0135
 1487SOL    HW216098   2.596   4.391   2.771 -0.4019  1.9546  1.7651
 1488SOL     OW16099   4.472   1.489   9.382  0.1071 -0.0503 -0.4598
 1488SOL    HW116100   4.514   1.501   9.297  1.9447 -0.1742  0.4351
 1488SOL    HW216101   4.388   1.450   9.357  0.5630 -1.0721 -0.3916
 1489SOL     OW16102   0.566   3.831   8.165 -0.0763 -0.4314  0.1734
 1489SOL    HW116103   0.641   3.839   8.107 -1.9514 -0.3846 -2.2415
 1489SOL    HW216104   0.560   3.735   8.163 -0.8622 -0.3511 -1.3063
 1490SOL     OW16105   2.513   0.773  14.072  0.4178 -0.2820 -0.6220
 1490SOL    HW116106   2.537   0.835  14.141 -0.4713 -0.9026  0.2305
 1490SOL    HW216107   2.419   0.779  14.086  0.1051 -1.5852 -2.1647
 1491SOL     OW16108   2.273   1.005   8.232  0.2439  0.6818  0.3535
 1491SOL    HW116109   2.253   0.912   8.224  0.8607  0.7388 -1.9965
 1491SOL    HW216110   2.358   1.001   8.187 -0.9974 -0.1124 -1.9036
 1492SOL     OW16111   0.493   3.569  10.516 -0.3361 -0.2787  0.2987
 1492SOL    HW116112   0.523   3.634  10.578  1.2284  2.2491 -3.1091
 1492SOL    HW216113   0.526   3.611  10.437 -1.1136 -1.9680 -0.9331
 1493SOL     OW16114   3.339   3.645   3.154  0.2326  0.5685  0.0686
 1493SOL    HW116115   3.346   3.633   3.248 -0.0345 -0.8317 -0.0925
 1493SOL    HW216116   3.328   3.739   3.141  0.4766  0.4456 -1.0773
 1494SOL     OW16117   3.681   2.251   5.599  0.5270  0.3730 -0.0818
 1494SOL    HW116118   3.650   2.187   5.535 -2.0258  1.7732 -0.2544
 1494SOL    HW216119   3.753   2.199   5.635 -0.4297 -0.5517  0.4704
 1495SOL     OW16120   1.808   1.081  17.173 -0.2385 -0.5335 -0.3571
 1495SOL    HW116121   1.759   1.000  17.185 -1.4296  0.5232  1.6885
 1495SOL    HW216122   1.899   1.052  17.178 -0.5812 -1.3783  0.8809
 1496SOL     OW16123   1.782   1.218   5.001  0.3267  0.4312 -0.0011
 1496SOL    HW116124   1.864   1.247   4.963  1.6633 -0.3728  2.2174
 1496SOL    HW216125   1.728   1.214   4.923  0.0955  0.3226  0.1619
 1497SOL     OW16126   3.626   2.497   7.852 -0.1968 -0.0872 -0.5587
 1497SOL    HW116127   3.542   2.451   7.856  0.2722 -1.2689 -4.1820
 1497SOL    HW216128   3.619   2.577   7.905  1.6813 -0.9554  0.9801
 1498SOL     OW16129   1.931   0.478   7.608 -0.4729  0.0628  0.2481
 1498SOL    HW116130   2.018   0.462   7.570  0.2644  0.3834  1.7988
 1498SOL    HW216131   1.881   0.440   7.536  1.0680 -1.7553  0.1192
 1499SOL     OW16132   2.883   4.630   8.958  0.0749  0.0113 -0.0970
 1499SOL    HW116133   2.854   4.630   9.050 -0.2477 -0.2244 -0.2000
 1499SOL    HW216134   2.948   4.700   8.957 -0.6429  0.6606 -1.6807
 1500SOL     OW16135   2.731   4.439   5.221 -0.0234  0.3167 -0.6967
 1500SOL    HW116136   2.710   4.450   5.313 -1.0228 -0.4530 -0.8353
 1500SOL    HW216137   2.666   4.499   5.184  0.2800  0.3010 -1.2578
 1501SOL     OW16138   2.083   2.825  14.895 -0.2367  0.0342  0.1207
 1501SOL    HW116139   2.070   2.803  14.803 -0.8392 -3.0344  0.9303
 1501SOL    HW216140   2.090   2.920  14.887  1.7174 -0.1175 -0.0185
 1502SOL     OW16141   3.328   0.385  12.835  0.0168  0.2802  0.4050
 1502SOL    HW116142   3.336   0.433  12.917 -1.7954 -0.5893  1.0723
 1502SOL    HW216143   3.415   0.347  12.822 -0.8853 -1.5337 -0.3346
 1503SOL     OW16144   0.472   1.201   0.150  0.0719 -0.0282  0.5787
 1503SOL    HW116145   0.378   1.187   0.164 -0.0042  0.8127  0.8676
 1503SOL    HW216146   0.505   1.171   0.234  2.5123 -0.5294 -0.5696
 1504SOL     OW16147   2.522   1.215   5.034 -0.1512  0.3576 -0.2743
 1504SOL    HW116148   2.576   1.207   5.112  1.0211 -2.0029 -1.3172
 1504SOL    HW216149   2.510   1.123   5.011 -2.9311  0.0565  2.4678
 1505SOL     OW16150   3.553   0.531   6.467 -0.0834  0.8480 -0.0773
 1505SOL    HW116151   3.572   0.530   6.374 -0.7774  0.7023 -0.2185
 1505SOL    HW216152   3.461   0.558   6.473 -0.4763 -1.0461  2.3397
 1506SOL     OW16153   0.069   0.657   9.222 -0.0487  0.6516 -0.0277
 1506SOL    HW116154   4.718   0.690   9.206  0.1482  1.4792  0.6010
 1506SOL    HW216155   0.056   0.574   9.268 -1.5359  0.2765 -1.1133
 1507SOL     OW16156   3.834   4.014   9.224  0.1122  0.1992  0.0630
 1507SOL    HW116157   3.854   3.933   9.177 -0.2608  0.1934 -0.0859
 1507SOL    HW216158   3.903   4.072   9.192  2.3396 -1.6631  1.5007
 1508SOL     OW16159   1.239   3.411   8.338  0.1652 -0.5898  0.1309
 1508SOL    HW116160   1.196   3.344   8.391 -3.1182  1.0572 -0.4360
 1508SOL    HW216161   1.201   3.391   8.253 -1.5930 -0.3938  0.8720
 1509SOL     OW16162   0.475   0.097   3.971  0.1445  0.3525 -0.2089
 1509SOL    HW116163   0.418   0.171   3.949 -0.7304 -0.2982 -0.1232
 1509SOL    HW216164   0.531   0.140   4.035  1.6433 -1.0712 -0.5830
 1510SOL     OW16165   3.541   0.616   2.575 -0.8659  0.0165  0.3982
 1510SOL    HW116166   3.599   0.600   2.500  0.5616  2.2229  1.0134
 1510SOL    HW216167   3.538   0.712   2.571  2.2681  0.0640 -0.8440
 1511SOL     OW16168   4.288   3.132   8.411  0.5333  0.4332 -0.7040
 1511SOL    HW116169   4.249   3.109   8.495  0.5202  0.3653 -0.7289
 1511SOL    HW216170   4.222   3.088   8.358  1.2042 -1.9045  0.4172
 1512SOL     OW16171   0.291   4.217   6.482  0.2805 -0.0761  0.5156
 1512SOL    HW116172   0.301   4.300   6.435  1.5720 -1.9898 -2.6495
 1512SOL    HW216173   0.312   4.237   6.573 -0.6487 -0.5787  0.8404
 1513SOL     OW16174   1.764   4.545   0.290  0.0609 -0.1955 -0.0846
 1513SOL    HW116175   1.784   4.611   0.357 -3.2305  0.2499  0.4393
 1513SOL    HW216176   1.763   4.468   0.347 -0.9042 -1.4859 -1.8283
 1514SOL     OW16177   0.662   1.296  13.781 -0.1735  0.1169 -0.5311
 1514SOL    HW116178   0.614   1.246  13.848  0.7726 -1.1689 -0.8095
 1514SOL    HW216179   0.710   1.358  13.836  0.2046 -1.4529  0.9158
 1515SOL     OW16180   2.284   1.643   6.388  0.2416 -0.0749  0.1984
 1515SOL    HW116181   2.250   1.637   6.299 -0.7354  2.5576  0.3705
 1515SOL    HW216182   2.261   1.734   6.411 -2.4285 -1.2215  2.0687
 1516SOL     OW16183   3.910   2.842  15.379  0.1369 -0.1708 -0.0619
 1516SOL    HW116184   3.882   2.756  15.347 -2.1518  0.2298  0.8761
 1516SOL    HW216185   3.932   2.880  15.294  1.8160  0.7274  0.7810
 1517SOL     OW16186   3.435   1.110  11.263 -0.3980 -0.2117 -0.2114
 1517SOL    HW116187   3.412   1.070  11.179 -0.7229 -2.0275  0.7313
 1517SOL    HW216188   3.353   1.100  11.311 -0.8050  0.2315 -0.8254
 1518SOL     OW16189   2.766   1.423  16.707 -0.1845  0.1084  0.0140
 1518SOL    HW116190   2.709   1.499  16.693 -1.5206 -0.9977 -0.6067
 1518SOL    HW216191   2.706   1.356  16.740  0.2619 -1.1100 -1.6639
 1519SOL     OW16192   2.993   3.188   6.311  0.1386  0.0656  0.2346
 1519SOL    HW116193   3.040   3.248   6.252 -1.5390  1.0172 -0.1226
 1519SOL    HW216194   3.036   3.219   6.391  1.3943 -0.1246 -0.3572
 1520SOL     OW16195   1.384   3.664   0.275  0.0837 -1.0035 -0.1607
 1520SOL    HW116196   1.429   3.581   0.260  1.7077 -0.3724  1.2705
 1520SOL    HW216197   1.332   3.679   0.196  0.0351 -0.4642 -0.0268
 1521SOL     OW16198   2.118   0.921  12.994 -0.2031 -0.7726 -0.8219
 1521SOL    HW116199   2.024   0.935  12.978 -0.0155 -0.5852 -1.7371
 1521SOL    HW216200   2.131   0.887  12.906  0.5650 -1.1528 -0.5574
 1522SOL     OW16201   4.457   0.889  17.379 -0.0066  0.1026  0.3167
 1522SOL    HW116202   4.530   0.829  17.365  0.5346  0.4599  1.6338
 1522SOL    HW216203   4.474   0.922  17.467  1.7480 -0.2624  0.1077
 1523SOL     OW16204   3.532   2.891   0.484 -0.4344 -0.4356 -0.3645
 1523SOL    HW116205   3.466   2.942   0.437  1.0235  0.2162 -1.6878
 1523SOL    HW216206   3.502   2.801   0.468 -1.0953 -0.0594 -1.2792
 1524SOL     OW16207   0.610   3.389   3.619  0.3787 -0.1010 -0.5363
 1524SOL    HW116208   0.697   3.383   3.578  0.2053  2.1838 -1.2300
 1524SOL    HW216209   0.563   3.450   3.562 -0.0426  1.7934  1.8514
 1525SOL     OW16210   1.604   2.643   8.228  0.1093  0.1576 -0.1547
 1525SOL    HW116211   1.668   2.713   8.236  1.3620 -0.9654 -0.4120
 1525SOL    HW216212   1.556   2.653   8.311  0.8022 -0.8950  0.3836
 1526SOL     OW16213   1.058   3.733  17.109 -0.3530 -0.1001 -0.3873
 1526SOL    HW116214   1.004   3.735  17.188 -3.2527 -0.7503 -2.3528
 1526SOL    HW216215   1.034   3.647  17.075  0.5814 -0.6834  0.4644
 1527SOL     OW16216   3.056   0.510   5.800  0.2042  0.2362  0.0307
 1527SOL    HW116217   3.111   0.512   5.721 -3.0669 -1.7877 -2.2894
 1527SOL    HW216218   3.100   0.569   5.861 -0.3943 -0.5104  1.1867
 1528SOL     OW16219   1.366   1.963  12.782  0.1050  0.1509 -0.0070
 1528SOL    HW116220   1.311   1.957  12.704  0.9839  1.3261 -0.7246
 1528SOL    HW216221   1.312   2.025  12.831  1.0216  0.1143  1.0682
 1529SOL     OW16222   0.851   3.372   6.006 -0.2207  0.1244 -0.2511
 1529SOL    HW116223   0.884   3.461   6.011  3.8123 -1.4432  0.5044
 1529SOL    HW216224   0.895   3.337   6.083 -1.9618 -0.6699  0.3898
 1530SOL     OW16225   0.307   2.399   2.216  0.2158 -0.2275 -0.5235
 1530SOL    HW116226   0.328   2.330   2.278 -0.7036 -0.9160 -0.9944
 1530SOL    HW216227   0.226   2.364   2.181  0.0430  0.8283 -1.1777
 1531SOL     OW16228   1.624   0.950  10.121  0.0665  0.2919 -0.2231
 1531SOL    HW116229   1.687   1.021  10.124  0.8519 -0.4529  0.9258
 1531SOL    HW216230   1.679   0.871  10.115 -0.7644 -0.2840 -0.2855
 1532SOL     OW16231   4.241   4.202   4.848 -0.9248  0.9290  0.0967
 1532SOL    HW116232   4.265   4.120   4.892  0.4193  2.5862  2.4259
 1532SOL    HW216233   4.150   4.202   4.876 -1.3680  1.1165 -1.3384
 1533SOL     OW16234   4.706   4.501  10.272  0.1545  0.7517 -0.6208
 1533SOL    HW116235   0.035   4.552  10.318  1.1953 -1.0869 -0.0930
 1533SOL    HW216236   4.630   4.498  10.330  1.2596 -1.2606  0.7268
 1534SOL     OW16237   2.461   0.771   4.694 -0.4014 -1.0296  0.1395
 1534SOL    HW116238   2.536   0.750   4.640 -0.5103 -1.3431  0.1066
 1534SOL    HW216239   2.407   0.695   4.671 -1.0756 -0.4138 -0.3073
 1535SOL     OW16240   1.760   1.615  14.008  0.1282  0.7781  0.6499
 1535SOL    HW116241   1.824   1.575  13.951  1.7874  0.9831  2.3662
 1535SOL    HW216242   1.703   1.539  14.020  1.1108 -0.2581 -1.2827
 1536SOL     OW16243   4.504   2.256   6.589 -0.3092 -0.3172  0.5694
 1536SOL    HW116244   4.452   2.201   6.648 -1.7329  1.6821  1.1742
 1536SOL    HW216245   4.560   2.304   6.650  0.3151  1.0114 -1.0590
 1537SOL     OW16246   1.463   0.423   0.241 -0.4348  0.2648  0.2033
 1537SOL    HW116247   1.388   0.466   0.282  0.4140  0.0593  2.0116
 1537SOL    HW216248   1.457   0.330   0.261 -0.5207  0.2629  0.1677
 1538SOL     OW16249   1.316   3.238  14.060 -0.4426 -0.3661 -0.1899
 1538SOL    HW116250   1.315   3.186  13.979  1.1319 -2.5095  1.1723
 1538SOL    HW216251   1.387   3.301  14.048 -2.2978  1.5413 -1.2034
 1539SOL     OW16252   0.752   1.359  11.045 -0.0938  0.7076  0.3995
 1539SOL    HW116253   0.755   1.311  11.128 -1.9046 -0.3162 -0.1122
 1539SOL    HW216254   0.657   1.366  11.043 -0.3796 -3.4608 -0.0751
 1540SOL     OW16255   1.791   1.192   2.244 -0.1194 -0.1228  0.0802
 1540SOL    HW116256   1.809   1.133   2.317 -0.1509  0.9539  0.9610
 1540SOL    HW216257   1.792   1.274   2.293  1.7195  0.5000 -1.0370
 1541SOL     OW16258   0.836   2.380  10.708 -0.1486 -0.5955  0.1631
 1541SOL    HW116259   0.861   2.425  10.627 -1.3792  0.3531  0.2953
 1541SOL    HW216260   0.908   2.399  10.767 -0.3720  0.8436 -0.0154
 1542SOL     OW16261   1.823   2.551  14.650  0.2362 -0.2147 -0.0187
 1542SOL    HW116262   1.831   2.555  14.745 -1.2051  0.1122  0.0901
 1542SOL    HW216263   1.780   2.634  14.630  1.3396  0.3350 -0.1321
 1543SOL     OW16264   1.385   2.526   9.188 -0.0823 -0.7004 -0.1545
 1543SOL    HW116265   1.365   2.561   9.101 -4.1183  0.5005  1.2746
 1543SOL    HW216266   1.474   2.493   9.170  0.7510  0.8067  1.2631
 1544SOL     OW16267   1.807   1.637   9.953  0.0539 -0.0197 -0.4390
 1544SOL    HW116268   1.751   1.670  10.023 -2.1723 -2.1167 -1.2386
 1544SOL    HW216269   1.879   1.700   9.949 -0.2630  0.4459  1.1655
 1545SOL     OW16270   2.021   3.194   2.378  0.2356  0.4951  0.1090
 1545SOL    HW116271   2.056   3.142   2.306  0.4964 -0.9937  1.3146
 1545SOL    HW216272   1.944   3.139   2.389 -0.8788  2.1431  0.5081
 1546SOL     OW16273   4.375   4.347  10.265  0.2912  0.5226  0.3473
 1546SOL    HW116274   4.409   4.339  10.354  0.1181  0.9218  0.4502
 1546SOL    HW216275   4.416   4.281  10.210  0.5448  0.9571  0.0119
 1547SOL     OW16276   1.341   2.346   4.408  0.7157  0.4885  0.4909
 1547SOL    HW116277   1.259   2.325   4.364  1.4165  2.5356 -1.7837
 1547SOL    HW216278   1.406   2.330   4.339 -0.8044 -1.5493 -0.4442
 1548SOL     OW16279   4.352   2.811   6.720 -0.2220  0.1792 -0.2578
 1548SOL    HW116280   4.340   2.876   6.789 -1.6040 -1.0564  0.6760
 1548SOL    HW216281   4.263   2.790   6.692 -0.5228  1.2286 -0.0755
 1549SOL     OW16282   0.459   4.724   3.533 -0.4590 -0.6397  0.3123
 1549SOL    HW116283   0.499   0.073   3.534 -0.2155 -0.7406 -0.2430
 1549SOL    HW216284   0.508   4.685   3.461 -1.6026 -1.4218 -0.0322
 1550SOL     OW16285   0.522   1.040   7.500 -0.4893 -0.0403  0.0383
 1550SOL    HW116286   0.606   1.084   7.490 -0.4155  0.0263  0.9877
 1550SOL    HW216287   0.472   1.106   7.548  0.7334  1.0618 -0.1927
 1551SOL     OW16288   1.798   2.220  14.272 -0.0133 -0.6282 -0.3772
 1551SOL    HW116289   1.828   2.187  14.187 -0.2967  0.3331 -0.8525
 1551SOL    HW216290   1.715   2.173  14.282  0.3852 -1.1378  0.5043
 1552SOL     OW16291   4.304   2.707   9.043 -0.6771  0.4494 -0.1304
 1552SOL    HW116292   4.314   2.611   9.044 -0.2684  0.5111  1.7309
 1552SOL    HW216293   4.278   2.727   9.133  0.6260 -2.5531  0.9140
 1553SOL     OW16294   2.788   1.557   6.154  0.0781 -0.1643  0.6331
 1553SOL    HW116295   2.701   1.585   6.127  0.4770  2.3462  1.9151
 1553SOL    HW216296   2.814   1.507   6.077  2.1578  2.0265 -0.0942
 1554SOL     OW16297   0.863   0.005   3.661  0.1122 -0.0853 -0.2422
 1554SOL    HW116298   0.792   4.704   3.712 -1.5173  1.1767 -1.5235
 1554SOL    HW216299   0.936   4.732   3.721 -0.3588 -2.6918 -0.1262
 1555SOL     OW16300   4.708   4.658   1.848 -0.2589  0.2269 -0.0740
 1555SOL    HW116301   4.700   4.729   1.785 -1.9512  0.3568  0.2798
 1555SOL    HW216302   0.050   4.685   1.893  0.6830  0.6435 -1.9980
 1556SOL     OW16303   3.672   2.368  15.896  0.0788  0.1913 -0.2196
 1556SOL    HW116304   3.643   2.277  15.900  0.1865  0.2506  1.5661
 1556SOL    HW216305   3.707   2.371  15.985  0.0011 -1.0118 -0.1472
 1557SOL     OW16306   2.833   4.068   0.971 -0.3385  0.4126 -0.4589
 1557SOL    HW116307   2.761   4.027   0.922  0.2078 -0.4410 -0.5640
 1557SOL    HW216308   2.890   3.991   0.981 -3.2253 -1.4994  1.3003
 1558SOL     OW16309   0.281   0.426   0.935  0.0263  0.0999 -0.1270
 1558SOL    HW116310   0.270   0.453   0.844  4.1493  1.4159 -0.2343
 1558SOL    HW216311   0.361   0.472   0.958 -0.4973  0.2982  1.2879
 1559SOL     OW16312   1.135   2.937   4.171  0.5617  1.2490  0.0133
 1559SOL    HW116313   1.205   2.974   4.118  0.8305 -1.7106 -1.7121
 1559SOL    HW216314   1.154   2.965   4.261  2.1190  0.9700 -0.2234
 1560SOL     OW16315   4.039   4.100   3.316 -0.1543  0.2787  0.2982
 1560SOL    HW116316   4.033   4.183   3.363  1.1788 -0.7514  2.2655
 1560SOL    HW216317   4.098   4.046   3.368  1.6611  0.0470 -2.0236
 1561SOL     OW16318   0.403   2.246   3.700  0.3285  0.0103  0.0148
 1561SOL    HW116319   0.451   2.188   3.759  1.4539  1.7745  0.8406
 1561SOL    HW216320   0.319   2.240   3.746  0.0806  0.0147 -0.4290
 1562SOL     OW16321   2.697   4.029   3.389 -0.1161  0.1638 -0.0320
 1562SOL    HW116322   2.681   3.959   3.326 -0.5155  0.0336  0.2146
 1562SOL    HW216323   2.774   4.076   3.357  1.1594 -1.0773  1.1808
 1563SOL     OW16324   3.479   2.613   0.496  0.2505 -0.4755  0.7747
 1563SOL    HW116325   3.560   2.628   0.545  0.6347 -1.8673  0.5580
 1563SOL    HW216326   3.483   2.518   0.487  0.2015 -0.3965 -0.0804
 1564SOL     OW16327   3.840   4.555  16.435  0.3887  0.3784 -0.0232
 1564SOL    HW116328   3.823   4.563  16.528  1.3401 -0.3504  0.2089
 1564SOL    HW216329   3.903   4.484  16.430 -0.7485 -0.5726 -0.7668
 1565SOL     OW16330   0.141   1.610  15.325 -0.0825 -0.0125  0.2612
 1565SOL    HW116331   0.152   1.566  15.241  0.2756  2.7763 -1.1615
 1565SOL    HW216332   0.150   1.702  15.300 -0.1930  0.3101  1.4054
 1566SOL     OW16333   2.112   1.183   6.268 -0.5519 -0.7000  0.0134
 1566SOL    HW116334   2.085   1.116   6.331  0.4386  0.8910  2.1584
 1566SOL    HW216335   2.119   1.258   6.328  1.4299 -1.3424  0.5890
 1567SOL     OW16336   3.228   3.432   8.896 -0.4107 -0.0601 -0.2798
 1567SOL    HW116337   3.135   3.452   8.886 -0.0405  0.4545 -2.6424
 1567SOL    HW216338   3.255   3.494   8.964  0.6548  0.4002 -1.1281
 1568SOL     OW16339   3.140   2.581   7.854 -0.1081  0.0138  0.1818
 1568SOL    HW116340   3.205   2.552   7.790 -2.1067  0.6758 -2.1237
 1568SOL    HW216341   3.151   2.675   7.841 -2.5728 -0.0195 -2.2254
 1569SOL     OW16342   1.723   0.211   7.693  0.3629  0.1050 -0.1988
 1569SOL    HW116343   1.736   0.255   7.609  2.0773  1.3542  0.7212
 1569SOL    HW216344   1.679   0.134   7.658 -0.1286 -0.0146  0.6678
 1570SOL     OW16345   3.966   1.136   8.531  0.7083 -0.3234 -0.2838
 1570SOL    HW116346   4.009   1.159   8.449  0.7192 -2.6995 -0.9290
 1570SOL    HW216347   3.908   1.069   8.496 -0.5553  1.0613 -0.8726
 1571SOL     OW16348   3.267   0.246  10.692 -0.4968  0.0508 -0.3466
 1571SOL    HW116349   3.261   0.341  10.681  1.0796  0.2089  0.1574
 1571SOL    HW216350   3.176   0.218  10.688  0.1477 -1.6494 -3.4178
 1572SOL     OW16351   1.742   3.855   4.076  0.4290 -0.0514 -0.1023
 1572SOL    HW116352   1.726   3.940   4.035 -2.9817  0.2114  1.8364
 1572SOL    HW216353   1.692   3.857   4.157  1.5499 -0.8595  0.5942
 1573SOL     OW16354   2.301   0.655   8.728  0.6087  0.3919 -0.3500
 1573SOL    HW116355   2.247   0.683   8.802 -1.1509 -1.1930 -1.0287
 1573SOL    HW216356   2.238   0.681   8.661 -1.1185 -0.8664  0.7861
 1574SOL     OW16357   1.374   3.731   3.295  0.1777 -0.7245  0.6398
 1574SOL    HW116358   1.381   3.727   3.390 -1.6744 -0.6752  0.7713
 1574SOL    HW216359   1.283   3.705   3.285  0.2256 -0.3765 -0.6625
 1575SOL     OW16360   0.712   3.061  14.815  0.0356 -0.3362 -0.1769
 1575SOL    HW116361   0.802   3.055  14.784  0.5405  1.1018  0.9946
 1575SOL    HW216362   0.718   3.118  14.892 -1.3315  0.5046 -0.6850
 1576SOL     OW16363   1.227   3.558  11.510 -0.2602  0.1431 -0.2971
 1576SOL    HW116364   1.305   3.504  11.499  0.3935  1.0089  0.0972
 1576SOL    HW216365   1.214   3.558  11.605  0.1131  1.8638 -0.2448
 1577SOL     OW16366   1.488   3.675   1.263  0.1694  0.5727 -0.4436
 1577SOL    HW116367   1.422   3.733   1.224 -0.2269  0.1524 -0.3995
 1577SOL    HW216368   1.498   3.607   1.197 -2.4707 -1.2374  1.0393
 1578SOL     OW16369   3.269   2.172   9.384  0.4224  0.5667 -0.4830
 1578SOL    HW116370   3.225   2.162   9.300 -0.7635 -3.0028  0.5664
 1578SOL    HW216371   3.337   2.105   9.374  0.1297  0.3923 -1.3354
 1579SOL     OW16372   2.655   2.194   8.649  0.6194 -0.4909  0.0179
 1579SOL    HW116373   2.735   2.243   8.669  0.9419 -0.8457 -0.4168
 1579SOL    HW216374   2.680   2.114   8.602  1.7844 -0.9095  1.3546
 1580SOL     OW16375   3.634   1.388   3.565 -1.3028  0.1894 -0.1556
 1580SOL    HW116376   3.687   1.339   3.502  0.6482  1.6799  0.3266
 1580SOL    HW216377   3.579   1.443   3.509 -0.2558  1.0588 -0.3307
 1581SOL     OW16378   4.410   3.821   4.683  0.3727 -0.5689  0.6120
 1581SOL    HW116379   4.491   3.824   4.734 -1.2987 -0.2610  3.2314
 1581SOL    HW216380   4.368   3.903   4.708 -0.2154 -1.0259  1.1288
 1582SOL     OW16381   1.664   2.354   8.441  0.1022 -0.3874  0.2690
 1582SOL    HW116382   1.694   2.318   8.525 -1.7853 -1.3618  0.5256
 1582SOL    HW216383   1.732   2.330   8.378 -2.0018 -2.0712 -1.3790
 1583SOL     OW16384   3.405   0.243   2.396  0.3090 -0.2380  0.4539
 1583SOL    HW116385   3.417   0.169   2.336 -0.0502  0.9014 -1.0193
 1583SOL    HW216386   3.320   0.270   2.361  0.2844 -0.4688  0.3343
 1584SOL     OW16387   2.190   3.334   8.672 -0.0308  0.4917  0.4231
 1584SOL    HW116388   2.259   3.396   8.695 -0.8084  1.6463 -0.3740
 1584SOL    HW216389   2.115   3.371   8.720  0.1536  1.0879  0.2449
 1585SOL     OW16390   4.196   2.672   4.419 -0.1851  0.7632 -0.3224
 1585SOL    HW116391   4.212   2.678   4.325 -0.7169  1.2269 -0.3876
 1585SOL    HW216392   4.167   2.581   4.428  0.3768  0.5289 -0.9160
 1586SOL     OW16393   3.592   3.540   7.145  0.3524 -0.2062 -0.2984
 1586SOL    HW116394   3.617   3.452   7.118 -0.2396 -1.1428  2.2602
 1586SOL    HW216395   3.641   3.528   7.226 -0.8691  2.1066  0.7850
 1587SOL     OW16396   0.731   1.200   7.441  0.2835  0.7553  0.1727
 1587SOL    HW116397   0.730   1.286   7.483 -1.7004  0.7513  0.1246
 1587SOL    HW216398   0.823   1.181   7.460  0.2050 -0.2458 -0.4544
 1588SOL     OW16399   0.174   3.263   1.873 -0.1663 -0.3837 -0.1190
 1588SOL    HW116400   0.148   3.288   1.961  0.8670  2.8288 -0.7237
 1588SOL    HW216401   0.190   3.349   1.833 -1.4037  0.2516  0.7363
 1589SOL     OW16402   4.559   3.450   6.365 -0.1187  0.0169 -0.0711
 1589SOL    HW116403   4.620   3.520   6.387  1.0361 -0.5906 -1.3445
 1589SOL    HW216404   4.617   3.391   6.316  0.2269  1.8950 -1.9190
 1590SOL     OW16405   2.161   0.031   4.544  0.1815 -0.0893  0.3520
 1590SOL    HW116406   2.197   4.720   4.470  2.0610  2.5785 -0.5164
 1590SOL    HW216407   2.083   0.072   4.507  2.0458  1.2173 -2.2135
 1591SOL     OW16408   2.521   1.461  10.831 -0.5563  0.4186  0.3677
 1591SOL    HW116409   2.482   1.431  10.913  0.2117 -0.1693  0.5188
 1591SOL    HW216410   2.487   1.550  10.836  0.5250  0.6658  3.1125
 1592SOL     OW16411   0.722   2.064   3.514  0.3297  0.4514 -0.5484
 1592SOL    HW116412   0.668   2.014   3.575  0.4947  0.7375 -0.1704
 1592SOL    HW216413   0.654   2.114   3.469  1.0293  0.3334 -1.7510
 1593SOL     OW16414   3.516   0.848   5.992 -0.1112 -0.1828 -0.3113
 1593SOL    HW116415   3.558   0.931   6.015  1.4643 -0.9921 -0.2555
 1593SOL    HW216416   3.444   0.883   5.939  0.3429 -0.0266 -0.8342
 1594SOL     OW16417   3.471   3.373   4.017 -0.1845  0.2583  0.0542
 1594SOL    HW116418   3.480   3.442   4.083  0.1593  0.2391  0.0257
 1594SOL    HW216419   3.466   3.296   4.073  0.4029 -0.2231 -0.5589
 1595SOL     OW16420   2.313   4.317  10.139  0.2719  0.0744 -0.2745
 1595SOL    HW116421   2.309   4.322  10.043  0.6286 -2.2167 -0.4075
 1595SOL    HW216422   2.222   4.333  10.163 -0.3646 -3.5515 -0.2893
 1596SOL     OW16423   0.837   3.917   5.791  0.0260 -0.0190 -0.1771
 1596SOL    HW116424   0.751   3.948   5.762 -0.6186 -2.4390 -0.8329
 1596SOL    HW216425   0.827   3.823   5.801 -1.7078  0.0126 -1.4293
 1597SOL     OW16426   1.268   2.473   3.489  0.8600  0.4302  0.5093
 1597SOL    HW116427   1.298   2.443   3.575  3.0703 -0.2630 -0.5167
 1597SOL    HW216428   1.322   2.425   3.427  1.2747  0.5982  0.7402
 1598SOL     OW16429   3.224   1.508   6.244  0.1672 -0.3861  0.2460
 1598SOL    HW116430   3.152   1.566   6.219  0.6285 -0.3845 -1.0616
 1598SOL    HW216431   3.263   1.562   6.313  0.8232  0.0487 -0.4676
 1599SOL     OW16432   3.179   3.520  17.656 -0.4079 -0.2310  0.2984
 1599SOL    HW116433   3.220   3.434  17.646  1.1644  0.3591  1.7388
 1599SOL    HW216434   3.102   3.493  17.706  0.6219 -0.3790  1.8142
 1600SOL     OW16435   3.902   4.645  11.800 -0.4312  0.0056 -0.0367
 1600SOL    HW116436   3.907   4.553  11.776 -1.4528  0.6197 -2.6181
 1600SOL    HW216437   3.823   4.677  11.757 -0.8595 -0.6788  0.2423
 1601SOL     OW16438   0.701   4.397   6.633  0.0207 -0.5167  0.0945
 1601SOL    HW116439   0.739   4.313   6.610  0.7911  0.5528 -2.5121
 1601SOL    HW216440   0.753   4.416   6.711 -1.6757 -0.8109  1.2955
 1602SOL     OW16441   1.500   3.522   8.851 -0.0491 -0.3742 -0.3517
 1602SOL    HW116442   1.554   3.466   8.794  0.4549  0.8993 -1.1214
 1602SOL    HW216443   1.419   3.473   8.869 -0.6536  0.7735  0.0067
 1603SOL     OW16444   4.399   3.701   4.207  0.3735  0.3130  0.3577
 1603SOL    HW116445   4.329   3.752   4.248  3.2372  4.8586 -0.3296
 1603SOL    HW216446   4.401   3.615   4.249  0.7489 -0.1472 -0.6123
 1604SOL     OW16447   0.380   2.028   1.846  0.0427 -0.1534 -0.2419
 1604SOL    HW116448   0.472   2.039   1.867  0.2944  0.7317 -1.7522
 1604SOL    HW216449   0.378   2.073   1.761 -1.6347  0.2503 -0.0016
 1605SOL     OW16450   3.869   3.062  15.575 -0.4802  0.8077 -0.0128
 1605SOL    HW116451   3.874   2.987  15.515 -1.9884 -0.3907  1.3470
 1605SOL    HW216452   3.795   3.033  15.630  0.3767 -0.2585  0.5770
 1606SOL     OW16453   3.455   0.098   6.830  0.5253  0.5725  0.0971
 1606SOL    HW116454   3.381   0.042   6.855  1.4404  0.8367  3.3289
 1606SOL    HW216455   3.477   0.135   6.915 -2.6313  2.5278  0.0649
 1607SOL     OW16456   3.753   2.799  17.087 -0.3012 -0.2192  0.7472
 1607SOL    HW116457   3.779   2.856  17.014  1.5150 -0.4260  1.2332
 1607SOL    HW216458   3.661   2.783  17.067  0.1834  1.6958 -2.9849
 1608SOL     OW16459   4.432   4.323   2.916 -0.0557  0.1439  0.1004
 1608SOL    HW116460   4.477   4.408   2.911  3.0441 -1.4435  0.5402
 1608SOL    HW216461   4.507   4.285   2.964  0.1131  0.9863  0.5087
 1609SOL     OW16462   0.858   0.364   2.906 -0.2650 -0.0020  0.5096
 1609SOL    HW116463   0.924   0.327   2.964  1.4126 -0.1214 -1.4985
 1609SOL    HW216464   0.910   0.403   2.836  0.1126  0.4073  1.0178
 1610SOL     OW16465   1.018   0.830   1.174 -0.2150 -0.1882  0.1751
 1610SOL    HW116466   0.939   0.792   1.212 -0.9768  1.0315 -0.1902
 1610SOL    HW216467   0.973   0.874   1.101 -0.2943 -0.4178  0.0847
 1611SOL     OW16468   2.751   3.530  14.947 -0.0745 -0.4936  0.5637
 1611SOL    HW116469   2.762   3.520  14.852 -2.8018 -1.6000  0.3813
 1611SOL    HW216470   2.661   3.498  14.952 -0.4262  0.5070  0.5493
 1612SOL     OW16471   2.639   2.395   2.571  0.4496  0.5094  0.1860
 1612SOL    HW116472   2.571   2.446   2.527 -2.4416 -2.3402  1.3425
 1612SOL    HW216473   2.710   2.443   2.530 -1.9752  1.5973 -2.6898
 1613SOL     OW16474   4.295   0.863   2.899 -0.0717  0.5264  0.2484
 1613SOL    HW116475   4.388   0.846   2.884 -0.7331 -2.0333 -0.9054
 1613SOL    HW216476   4.283   0.827   2.987 -0.4384  0.7557  0.2922
 1614SOL     OW16477   2.088   0.439   6.879  0.1564 -0.3153  0.1319
 1614SOL    HW116478   2.065   0.451   6.787 -2.1146 -0.6256  0.6489
 1614SOL    HW216479   2.010   0.394   6.912 -0.3781  0.8693  0.4804
 1615SOL     OW16480   1.976   0.310  16.403 -0.4135  0.3841  0.2613
 1615SOL    HW116481   1.913   0.347  16.464  0.0549  2.2261 -0.3679
 1615SOL    HW216482   1.972   0.222  16.441  0.2247 -0.2258 -1.0607
 1616SOL     OW16483   2.315   4.418  11.321 -0.0076  0.1816 -0.7493
 1616SOL    HW116484   2.253   4.364  11.370  1.4546  1.1710  2.2272
 1616SOL    HW216485   2.303   4.378  11.235  0.5446 -0.0262 -0.7315
 1617SOL     OW16486   0.626   1.542   3.425  0.0036  0.1944 -0.2082
 1617SOL    HW116487   0.693   1.581   3.369 -0.0817 -1.0701 -1.1918
 1617SOL    HW216488   0.550   1.538   3.367 -0.5673 -0.6254  0.5964
 1618SOL     OW16489   3.293   3.560   4.263 -0.1829  0.1413  0.5103
 1618SOL    HW116490   3.333   3.626   4.206 -1.3589 -1.0785 -1.7324
 1618SOL    HW216491   3.214   3.541   4.214  1.1191 -0.8258 -1.2237
 1619SOL     OW16492   3.881   3.773   6.765 -0.1722  0.2020  0.0401
 1619SOL    HW116493   3.840   3.848   6.722  1.4795  1.7292  1.1311
 1619SOL    HW216494   3.968   3.806   6.787 -0.8856  2.1860 -0.1373
 1620SOL     OW16495   0.456   3.475  16.759  0.0288  0.1967 -0.8252
 1620SOL    HW116496   0.387   3.409  16.768 -2.0241  2.3770 -0.5487
 1620SOL    HW216497   0.505   3.447  16.837 -2.4537 -0.9097  0.3499
 1621SOL     OW16498   0.663   2.576  10.832 -0.0419  0.3551 -0.1031
 1621SOL    HW116499   0.728   2.554  10.766  0.2272  1.2034 -0.1303
 1621SOL    HW216500   0.583   2.611  10.792 -0.9524  1.1424  2.4050
 1622SOL     OW16501   1.374   2.665   7.728 -0.6179  0.1596  0.3026
 1622SOL    HW116502   1.453   2.707   7.761  1.3166 -0.7018 -3.2086
 1622SOL    HW216503   1.345   2.719   7.654  1.4136 -0.8524 -1.2316
 1623SOL     OW16504   2.195   3.049  15.482  0.3301 -0.6026 -0.3003
 1623SOL    HW116505   2.283   3.082  15.462 -0.3639  0.1286 -2.1729
 1623SOL    HW216506   2.192   2.989  15.407 -2.8574 -0.9472  0.0928
 1624SOL     OW16507   4.535   0.081   6.204 -0.1814  0.2568 -0.0916
 1624SOL    HW116508   4.546   0.109   6.114  2.0954  1.4025  0.5412
 1624SOL    HW216509   4.509   0.166   6.238 -4.1585 -0.9859 -0.1116
 1625SOL     OW16510   0.297   1.929   7.646  0.4703  0.2622 -0.5653
 1625SOL    HW116511   0.205   1.954   7.648  0.7972  1.4700 -0.3031
 1625SOL    HW216512   0.319   1.932   7.553 -2.0562  1.5884 -1.1101
 1626SOL     OW16513   3.033   4.596   5.569  0.3027 -0.2500  0.4208
 1626SOL    HW116514   3.048   4.687   5.546  1.6831 -0.9624 -1.5613
 1626SOL    HW216515   2.942   4.594   5.597 -0.1180 -1.7031 -0.9927
 1627SOL     OW16516   2.071   3.061  16.553  0.0873  0.1573  0.4420
 1627SOL    HW116517   2.104   3.132  16.497  3.1138 -1.1435  0.5999
 1627SOL    HW216518   2.057   3.120  16.627 -1.1882  0.9769 -0.4506
 1628SOL     OW16519   3.549   4.086   8.678  0.3165 -0.4584  0.3483
 1628SOL    HW116520   3.529   4.126   8.763 -2.2316  0.8897 -0.8894
 1628SOL    HW216521   3.485   4.016   8.677 -0.7667  0.5597 -2.0580
 1629SOL     OW16522   1.118   1.783   9.034  0.5396 -0.1734 -0.6518
 1629SOL    HW116523   1.108   1.833   9.116 -0.5961 -1.0638 -0.2593
 1629SOL    HW216524   1.164   1.850   8.982  0.5721  1.0749  0.9824
 1630SOL     OW16525   0.409   3.684   1.395 -0.0198  0.3056 -0.1355
 1630SOL    HW116526   0.476   3.744   1.361 -0.2758  1.6553  1.7705
 1630SOL    HW216527   0.437   3.682   1.486  0.2983  0.4441 -0.2281
 1631SOL     OW16528   3.626   2.493   3.675  0.2610 -0.3881  0.9743
 1631SOL    HW116529   3.678   2.427   3.629  0.7936  1.5966 -1.2580
 1631SOL    HW216530   3.580   2.447   3.746 -0.9769 -1.7639 -0.7426
 1632SOL     OW16531   1.915   4.682   8.832 -0.1292 -0.0856  0.1604
 1632SOL    HW116532   1.985   4.685   8.898 -1.9036  0.8101  1.9970
 1632SOL    HW216533   1.846   4.630   8.874 -1.1137  1.5334  0.5258
 1633SOL     OW16534   4.206   3.604   8.831 -0.1575  0.2119 -0.4301
 1633SOL    HW116535   4.273   3.595   8.763  0.2435  0.1898 -0.0342
 1633SOL    HW216536   4.191   3.698   8.823 -1.8978 -0.1974 -1.9241
 1634SOL     OW16537   2.490   1.860   2.531  0.2432  0.1346 -0.7610
 1634SOL    HW116538   2.458   1.837   2.444 -1.1832  0.5631 -0.3513
 1634SOL    HW216539   2.518   1.950   2.509  0.8630 -0.4117 -2.2309
 1635SOL     OW16540   1.679   0.748   3.442  0.8473  0.4779 -0.0695
 1635SOL    HW116541   1.685   0.661   3.403  0.6407  0.2674  0.3592
 1635SOL    HW216542   1.588   0.758   3.469  0.1730  0.6569 -2.4339
 1636SOL     OW16543   0.571   0.615   4.887  0.6061 -0.0491 -0.5750
 1636SOL    HW116544   0.665   0.598   4.894 -0.2287 -4.1871  0.7306
 1636SOL    HW216545   0.569   0.688   4.826  0.7186  0.2345 -0.2334
 1637SOL     OW16546   2.917   2.432  13.335  0.3756 -0.3062  0.1888
 1637SOL    HW116547   2.891   2.468  13.420 -0.8627  0.5790 -0.5727
 1637SOL    HW216548   2.962   2.507  13.297 -2.3712  0.7886 -0.9103
 1638SOL     OW16549   2.804   2.669   5.829  0.2435  0.8171 -0.0932
 1638SOL    HW116550   2.878   2.649   5.772 -0.5975 -1.1073 -0.5150
 1638SOL    HW216551   2.784   2.588   5.875 -0.8489  1.7364  1.0613
 1639SOL     OW16552   0.730   3.339   8.046 -0.5294  0.1128  0.2261
 1639SOL    HW116553   0.647   3.318   8.003  0.7643 -2.2341 -1.1503
 1639SOL    HW216554   0.718   3.288   8.127  2.3489  1.0520  1.2530
 1640SOL     OW16555   0.242   4.463   9.095 -0.8241 -0.1800 -0.0348
 1640SOL    HW116556   0.285   4.403   9.033  1.7596 -1.5127  3.0446
 1640SOL    HW216557   0.315   4.487   9.152 -0.7204  2.2717 -1.1910
 1641SOL     OW16558   3.658   1.016   0.650  0.4162  0.6827  0.4111
 1641SOL    HW116559   3.753   1.010   0.656  0.4233  1.5711  1.1975
 1641SOL    HW216560   3.641   1.106   0.621 -0.0976  0.8259  1.1649
 1642SOL     OW16561   0.302   1.050  14.142  0.1875  1.1385  0.7035
 1642SOL    HW116562   0.347   1.087  14.066  0.3645  0.7308  0.6059
 1642SOL    HW216563   0.313   0.956  14.126  1.1365  1.6488 -1.5406
 1643SOL     OW16564   3.416   4.263   2.497 -0.5772  0.7200 -0.1232
 1643SOL    HW116565   3.467   4.211   2.435 -0.2279 -0.5784  1.2415
 1643SOL    HW216566   3.362   4.185   2.512  0.7672 -0.3383 -0.7106
 1644SOL     OW16567   1.259   4.396   1.859 -0.2593 -0.3001  0.4622
 1644SOL    HW116568   1.324   4.374   1.926  1.0589  0.5120 -0.5594
 1644SOL    HW216569   1.186   4.337   1.880 -0.1511 -0.4502  0.4105
 1645SOL     OW16570   2.554   1.204   4.611 -0.3427  0.1702 -0.5291
 1645SOL    HW116571   2.583   1.292   4.635  0.5562 -0.1609 -0.4106
 1645SOL    HW216572   2.622   1.182   4.548 -0.4933  1.5556 -1.1803
 1646SOL     OW16573   4.535   3.500  12.541 -0.6537 -0.3326 -0.3339
 1646SOL    HW116574   4.485   3.430  12.582  2.0953 -1.3340  1.3404
 1646SOL    HW216575   4.624   3.476  12.567  0.0227  0.9400 -1.5038
 1647SOL     OW16576   1.619   2.200   6.695  0.1163 -0.7097 -0.2256
 1647SOL    HW116577   1.674   2.177   6.620  0.6298  0.7709 -0.3124
 1647SOL    HW216578   1.570   2.271   6.653  2.1089  0.8369  0.0701
 1648SOL     OW16579   0.752   4.192   6.300  0.0330  0.4551 -0.4160
 1648SOL    HW116580   0.765   4.167   6.391  0.3407  0.3028 -0.5005
 1648SOL    HW216581   0.702   4.271   6.321 -1.3899 -0.5279 -0.0823
 1649SOL     OW16582   3.616   3.942   1.167 -0.1711 -0.0316 -0.2643
 1649SOL    HW116583   3.671   3.891   1.227 -2.4580 -1.4995  0.5667
 1649SOL    HW216584   3.566   3.997   1.228 -2.8288 -0.0852 -2.3986
 1650SOL     OW16585   1.932   1.785   6.901 -0.0494 -0.2945  0.0066
 1650SOL    HW116586   1.915   1.858   6.961 -0.6106 -1.3761  1.1505
 1650SOL    HW216587   1.878   1.803   6.825 -1.6484  0.0776  1.2333
 1651SOL     OW16588   2.514   0.705  10.821  0.2025  0.1891 -0.4932
 1651SOL    HW116589   2.454   0.664  10.758 -0.7118  0.2531  0.3396
 1651SOL    HW216590   2.527   0.632  10.880  1.6140 -0.0860 -1.1569
 1652SOL     OW16591   2.713   0.798  12.147  0.2581  0.1474  0.2573
 1652SOL    HW116592   2.681   0.735  12.083  0.5236  0.0546  0.2157
 1652SOL    HW216593   2.696   0.754  12.230 -1.9128  1.2198  0.3946
 1653SOL     OW16594   1.972   4.036   7.235 -0.2882 -0.0742 -0.0980
 1653SOL    HW116595   1.994   3.948   7.206 -1.7514  0.4764 -2.8513
 1653SOL    HW216596   2.030   4.084   7.176 -2.1526  3.4819  0.9827
 1654SOL     OW16597   3.012   3.679  16.035 -0.1908  0.2218  0.1223
 1654SOL    HW116598   2.969   3.628  15.967 -3.1357  1.7164  0.8654
 1654SOL    HW216599   2.933   3.706  16.081 -0.1873 -1.0467  0.8790
 1655SOL     OW16600   1.248   3.776   0.058  0.0638  0.0509 -1.0104
 1655SOL    HW116601   1.319   3.834   0.032 -1.5930  2.7946  0.6873
 1655SOL    HW216602   1.249   3.717  17.731 -3.2100 -0.0023 -0.9982
 1656SOL     OW16603   4.047   0.678   6.034 -0.0037 -0.0133 -0.3777
 1656SOL    HW116604   3.985   0.662   5.963 -0.3119 -0.1395 -0.0839
 1656SOL    HW216605   3.978   0.687   6.100 -0.2344 -0.3926 -0.5678
 1657SOL     OW16606   0.967   3.127   7.609  0.2925 -0.3656  0.1543
 1657SOL    HW116607   0.939   3.204   7.560  0.1894  1.2538  2.7061
 1657SOL    HW216608   0.883   3.101   7.648 -0.3931 -0.5806 -1.4609
 1658SOL     OW16609   3.824   3.172  16.238 -0.0056  0.0621 -0.3761
 1658SOL    HW116610   3.917   3.176  16.262  0.2753  3.0960 -1.9679
 1658SOL    HW216611   3.790   3.167  16.328 -0.2003  0.8610 -0.4065
 1659SOL     OW16612   0.618   1.098   6.185  0.0804 -0.1517  0.0083
 1659SOL    HW116613   0.546   1.056   6.232  0.3611  0.7757  1.2749
 1659SOL    HW216614   0.648   1.038   6.117  1.5103 -0.5498  0.9933
 1660SOL     OW16615   3.672   1.903   8.080  0.5131  0.1754  0.4208
 1660SOL    HW116616   3.765   1.900   8.104  1.0494 -0.5201 -1.7070
 1660SOL    HW216617   3.647   1.993   8.100 -1.4271 -0.0105 -1.2078
 1661SOL     OW16618   1.518   4.188  17.532  0.1760  0.6383 -0.6366
 1661SOL    HW116619   1.543   4.215  17.621  0.8895 -1.0853 -0.3308
 1661SOL    HW216620   1.428   4.221  17.534  0.4114  1.3358 -1.7994
 1662SOL     OW16621   2.218   2.538   8.383  0.4565 -0.2699  1.0206
 1662SOL    HW116622   2.311   2.523   8.366  0.4131  1.1958 -0.4819
 1662SOL    HW216623   2.218   2.632   8.365 -1.2284 -0.6838 -1.0517
 1663SOL     OW16624   2.916   2.113  14.137 -0.8190 -0.0112  0.0668
 1663SOL    HW116625   2.970   2.183  14.100 -1.5039 -0.1198 -1.1365
 1663SOL    HW216626   2.881   2.066  14.061 -1.1855  0.5106 -0.0852
 1664SOL     OW16627   2.888   4.243   9.458  0.2526  0.1620 -0.1534
 1664SOL    HW116628   2.928   4.317   9.504 -0.0524  0.2258  0.0083
 1664SOL    HW216629   2.971   4.214   9.420 -0.4637 -0.4237 -1.2611
 1665SOL     OW16630   3.777   1.661   3.952  0.1027  0.1934  0.1437
 1665SOL    HW116631   3.849   1.723   3.937 -0.7393  1.7772  2.5805
 1665SOL    HW216632   3.765   1.613   3.870  1.8057  0.9215 -0.5436
 1666SOL     OW16633   2.659   2.738   9.548  0.7806 -0.1756 -0.0428
 1666SOL    HW116634   2.602   2.797   9.597 -0.7163 -0.0717 -1.9138
 1666SOL    HW216635   2.615   2.743   9.463  0.3713  2.9495  0.3539
 1667SOL     OW16636   1.682   3.255   9.140 -0.2591 -0.4334  0.3568
 1667SOL    HW116637   1.773   3.230   9.158 -0.3426 -0.7929  0.2891
 1667SOL    HW216638   1.644   3.169   9.123  1.9661 -1.5650  1.1097
 1668SOL     OW16639   1.006   1.888  13.545  0.3158 -0.3054 -0.6870
 1668SOL    HW116640   1.081   1.892  13.604 -0.6073  0.8198  0.4082
 1668SOL    HW216641   1.002   1.982  13.526 -0.3135 -0.4576 -1.2948
 1669SOL     OW16642   0.673   2.698  13.807  0.1489 -0.1170  0.3327
 1669SOL    HW116643   0.578   2.694  13.815  0.0758  0.0868 -0.4301
 1669SOL    HW216644   0.690   2.604  13.805 -0.9254 -0.3050  0.3785
 1670SOL     OW16645   1.676   4.075   6.604 -0.6194 -0.5575  0.2367
 1670SOL    HW116646   1.735   4.003   6.627  1.5026  1.0676 -0.1728
 1670SOL    HW216647   1.609   4.023   6.560 -0.9009 -0.2351  0.2766
 1671SOL     OW16648   3.616   4.332   3.250 -0.4736 -0.3308  0.0313
 1671SOL    HW116649   3.601   4.366   3.161  0.5870 -0.6425 -0.2685
 1671SOL    HW216650   3.539   4.373   3.291  0.3502 -0.6488  1.8658
 1672SOL     OW16651   0.175   2.837  10.460 -0.5534 -0.0151 -0.6654
 1672SOL    HW116652   0.270   2.830  10.469 -0.6467 -0.2745  0.1344
 1672SOL    HW216653   0.160   2.851  10.553  3.7384  1.2959 -0.2072
 1673SOL     OW16654   0.170   2.533   7.728 -0.3044 -0.2646  0.2755
 1673SOL    HW116655   0.125   2.449   7.736 -0.7402  0.1998  2.4314
 1673SOL    HW216656   0.247   2.505   7.678  0.4410  1.8551  0.2287
 1674SOL     OW16657   0.327   4.482   4.579  0.3852 -0.0981 -0.5416
 1674SOL    HW116658   0.356   4.554   4.635  0.0934  0.2426 -0.8325
 1674SOL    HW216659   0.267   4.437   4.639 -0.7221 -3.4263 -4.1581
 1675SOL     OW16660   3.081   0.830   2.548  0.3221  0.2919  0.0935
 1675SOL    HW116661   3.071   0.736   2.529  0.0177  0.1730  0.8152
 1675SOL    HW216662   3.174   0.849   2.541 -0.3236  2.5582 -2.1857
 1676SOL     OW16663   1.687   4.325  13.958 -0.2764 -0.2808 -0.0069
 1676SOL    HW116664   1.688   4.277  14.041 -2.4292  2.3469  1.5384
 1676SOL    HW216665   1.753   4.286  13.900 -1.3303 -0.2769 -1.1938
 1677SOL     OW16666   2.281   1.305   5.180  1.1211 -0.6053 -0.3235
 1677SOL    HW116667   2.284   1.400   5.164 -1.2951 -0.3264  0.8930
 1677SOL    HW216668   2.368   1.285   5.145  2.2960 -1.1989  2.9055
 1678SOL     OW16669   3.737   1.209  17.045 -0.1301 -0.1887 -0.4653
 1678SOL    HW116670   3.797   1.178  17.113 -0.4640  0.0561 -0.0586
 1678SOL    HW216671   3.795   1.231  16.972  0.1982  0.5010  0.0041
 1679SOL     OW16672   1.256   1.424   9.027 -0.0522 -0.2123  0.0135
 1679SOL    HW116673   1.218   1.493   8.972  0.4980  1.0242  1.1859
 1679SOL    HW216674   1.337   1.458   9.063 -1.3007  2.2376  0.5331
 1680SOL     OW16675   3.728   3.427   3.708  0.0324 -0.4096 -0.1182
 1680SOL    HW116676   3.759   3.501   3.760 -0.8325  0.9403 -1.4993
 1680SOL    HW216677   3.754   3.458   3.621 -0.6528 -0.4820 -0.3501
 1681SOL     OW16678   1.502   0.040   8.518 -0.1916 -0.0330  0.0784
 1681SOL    HW116679   1.529   4.723   8.592  0.2862 -0.5526 -0.4747
 1681SOL    HW216680   1.582   0.092   8.510 -0.8665  1.1279  0.9165
 1682SOL     OW16681   2.071   3.668   4.778 -0.0470  0.0865  0.5555
 1682SOL    HW116682   2.112   3.593   4.823  2.7205  0.4596 -1.3878
 1682SOL    HW216683   2.154   3.697   4.740 -1.6162  2.7280 -0.8261
 1683SOL     OW16684   3.760   2.971   8.247 -0.1677  0.1527  0.2730
 1683SOL    HW116685   3.691   2.906   8.245 -0.0794 -0.0288  2.4252
 1683SOL    HW216686   3.825   2.902   8.261 -0.0331  0.2852  0.3105
 1684SOL     OW16687   0.009   0.969  14.482  0.5545  0.1195 -0.0313
 1684SOL    HW116688   0.042   1.012  14.403 -1.4158 -1.7005 -1.8261
 1684SOL    HW216689   4.658   0.954  14.451  0.6136  1.0072 -0.6520
 1685SOL     OW16690   2.061   3.848   2.709 -0.6261  0.5403 -0.2938
 1685SOL    HW116691   2.153   3.845   2.681 -0.5625  0.1679 -0.0505
 1685SOL    HW216692   2.086   3.846   2.802 -2.7769  0.1076  0.2850
 1686SOL     OW16693   2.870   4.267   6.725  0.6892  0.7696  0.2537
 1686SOL    HW116694   2.804   4.247   6.659  0.1014 -1.1522  1.4025
 1686SOL    HW216695   2.851   4.196   6.786 -1.0245 -0.6109 -1.9039
 1687SOL     OW16696   0.980   3.513   9.360  0.4561  0.3039 -0.8337
 1687SOL    HW116697   1.011   3.439   9.412 -3.0671 -0.2726  0.4752
 1687SOL    HW216698   1.041   3.506   9.287 -0.6419 -1.6553 -1.5713
 1688SOL     OW16699   3.085   0.179   5.530 -0.4853  0.4130  0.3249
 1688SOL    HW116700   3.015   0.243   5.516  0.6608  1.6089  0.0588
 1688SOL    HW216701   3.165   0.229   5.521 -0.9521  1.2728  0.9697
 1689SOL     OW16702   3.058   3.457   0.653  0.0489 -0.2401 -0.7209
 1689SOL    HW116703   3.058   3.545   0.689 -1.5886 -0.3687 -0.3981
 1689SOL    HW216704   3.115   3.460   0.576  2.4963 -1.7877  1.0329
 1690SOL     OW16705   0.398   2.301  14.733 -0.1755  0.0272  0.1442
 1690SOL    HW116706   0.350   2.224  14.703  0.5572 -0.8919  1.3283
 1690SOL    HW216707   0.462   2.303  14.663 -0.0143 -3.3226  0.1702
 1691SOL     OW16708   4.262   4.531  14.429  0.6054  0.1296 -0.0595
 1691SOL    HW116709   4.194   4.464  14.420  1.0890 -0.7832  2.9444
 1691SOL    HW216710   4.307   4.500  14.508 -0.8473 -1.1496  0.2744
 1692SOL     OW16711   2.257   1.916   9.566 -0.0013  0.0677 -0.0437
 1692SOL    HW116712   2.170   1.898   9.600  0.5376 -0.9896  0.7759
 1692SOL    HW216713   2.312   1.848   9.607 -0.2110  1.4025  2.4767
 1693SOL     OW16714   0.955   3.472  11.782 -0.3663 -0.0147  0.0178
 1693SOL    HW116715   0.869   3.452  11.819  0.8288 -1.7391  1.8160
 1693SOL    HW216716   0.960   3.416  11.705  0.4207 -1.2922  1.0125
 1694SOL     OW16717   0.996   2.104   3.565  0.3158 -0.3387 -0.2047
 1694SOL    HW116718   1.000   2.199   3.572  0.8946 -0.4384  0.7942
 1694SOL    HW216719   0.904   2.100   3.540  0.1916  1.6943 -0.0623
 1695SOL     OW16720   2.372   0.727   6.544 -0.7153 -0.7369  0.9223
 1695SOL    HW116721   2.372   0.804   6.488 -0.2051 -0.9379  0.6430
 1695SOL    HW216722   2.465   0.706   6.557  0.0306  1.3508 -1.0689
 1696SOL     OW16723   3.628   4.481  17.681  0.2698 -0.2715 -0.1808
 1696SOL    HW116724   3.559   4.421  17.709 -0.8212 -0.0175 -2.3231
 1696SOL    HW216725   3.687   4.412  17.653 -0.7847 -0.9347 -0.7500
 1697SOL     OW16726   3.348   4.197   7.883 -0.2821 -0.1674  0.4025
 1697SOL    HW116727   3.434   4.167   7.852  0.0397  0.0367  1.0931
 1697SOL    HW216728   3.303   4.159   7.808  1.3339 -1.2421 -0.0357
 1698SOL     OW16729   0.784   0.921  10.681  0.4353 -0.5381  0.6595
 1698SOL    HW116730   0.850   0.975  10.638  1.6890 -2.9559 -0.4889
 1698SOL    HW216731   0.799   0.836  10.640  0.3427 -0.0152 -0.4580
 1699SOL     OW16732   4.396   3.737   1.042 -0.1639 -0.7888  0.2909
 1699SOL    HW116733   4.367   3.816   1.087  0.8058  0.1837 -0.7819
 1699SOL    HW216734   4.386   3.765   0.951  0.2997 -0.3401  0.3795
 1700SOL     OW16735   3.653   0.418   9.228 -0.0321  0.9963  0.7645
 1700SOL    HW116736   3.701   0.492   9.265  1.1974  1.3464 -1.5017
 1700SOL    HW216737   3.571   0.458   9.201 -0.6740  0.6688  2.2432
 1701SOL     OW16738   1.000   2.694   4.074  0.1262 -0.0419  0.3955
 1701SOL    HW116739   0.913   2.730   4.059  0.3065  0.1526 -0.1495
 1701SOL    HW216740   1.050   2.775   4.079 -1.2841  0.7469  1.5864
 1702SOL     OW16741   2.074   3.858   2.155 -0.4730 -0.1243 -0.3643
 1702SOL    HW116742   1.983   3.843   2.181 -0.8727  0.7902 -1.2327
 1702SOL    HW216743   2.092   3.952   2.153 -2.5390  0.2995  0.7554
 1703SOL     OW16744   4.160   3.885   6.750  0.0806 -0.0713 -0.2604
 1703SOL    HW116745   4.140   3.914   6.661  0.4826  0.4083 -0.1985
 1703SOL    HW216746   4.187   3.794   6.736  2.7490  0.9357 -1.8713
 1704SOL     OW16747   1.676   0.083   4.425  0.5056  0.1104  0.3955
 1704SOL    HW116748   1.726   0.007   4.453  2.3711  1.6120  1.1395
 1704SOL    HW216749   1.608   0.042   4.371  1.5665 -0.1428 -0.7492
 1705SOL     OW16750   1.969   1.283   4.387 -0.3721 -0.2689 -0.4199
 1705SOL    HW116751   1.938   1.252   4.472  0.9100 -3.3788 -1.1130
 1705SOL    HW216752   2.043   1.335   4.420 -1.6066  0.2961  1.4344
 1706SOL     OW16753   0.080   0.433   2.415 -0.1883 -0.3956 -0.0722
 1706SOL    HW116754   0.111   0.519   2.442 -2.0733  1.1216 -2.7048
 1706SOL    HW216755   0.126   0.419   2.332  2.1664  2.2667  0.7878
 1707SOL     OW16756   1.612   1.795   5.214  0.5656  0.3061 -0.9041
 1707SOL    HW116757   1.628   1.717   5.161  0.3054 -0.1843 -0.2560
 1707SOL    HW216758   1.546   1.756   5.271  1.5410 -0.5651 -0.3676
 1708SOL     OW16759   0.950   2.388  17.669 -0.3493 -0.4600  0.5888
 1708SOL    HW116760   1.004   2.460  17.637 -2.2148  0.4039 -0.6248
 1708SOL    HW216761   0.922   2.344  17.588 -0.2537 -0.8792  0.7806
 1709SOL     OW16762   1.806   3.339   7.400 -0.3779 -0.0492  0.7469
 1709SOL    HW116763   1.901   3.328   7.398 -0.4814 -1.0458  1.4364
 1709SOL    HW216764   1.781   3.313   7.488  0.3386 -1.1794  0.6128
 1710SOL     OW16765   1.868   4.696  12.325 -0.6069  0.0629 -0.4928
 1710SOL    HW116766   1.956   4.689  12.362 -0.7383 -2.3526 -0.6128
 1710SOL    HW216767   1.884   0.006  12.244  0.4852  0.3099 -0.1231
 1711SOL     OW16768   2.392   4.639   1.606 -0.2831  0.2522 -0.2515
 1711SOL    HW116769   2.433   4.601   1.529 -0.0978  2.6448 -1.3142
 1711SOL    HW216770   2.316   4.685   1.571 -0.3784 -0.0987 -0.5077
 1712SOL     OW16771   1.253   4.096  16.700 -0.5571  0.2815  0.1960
 1712SOL    HW116772   1.286   4.116  16.788  3.8421 -0.8309 -1.1862
 1712SOL    HW216773   1.186   4.162  16.684  0.4665  1.6651  1.5410
 1713SOL     OW16774   2.692   3.046   3.059 -0.0124  0.0098 -0.3300
 1713SOL    HW116775   2.707   3.056   3.153  0.5304 -0.8508 -0.3193
 1713SOL    HW216776   2.762   2.983   3.041 -0.2162 -0.6365  1.1614
 1714SOL     OW16777   4.452   3.130   7.556 -0.2859 -0.2109  0.7184
 1714SOL    HW116778   4.542   3.102   7.575 -0.9727 -1.6582  1.8536
 1714SOL    HW216779   4.422   3.049   7.514  0.1775  0.0987 -0.2210
 1715SOL     OW16780   1.881   2.785   5.670 -0.0184 -0.0319 -0.8277
 1715SOL    HW116781   1.958   2.788   5.615  1.2279  2.6719  1.0858
 1715SOL    HW216782   1.840   2.869   5.651 -0.5571  0.0188  0.5193
 1716SOL     OW16783   0.212   1.274   9.345  0.1586  0.4316  0.1014
 1716SOL    HW116784   0.159   1.234   9.277  1.2008 -0.9355  0.0993
 1716SOL    HW216785   0.140   1.296   9.404 -1.2861 -1.2923 -1.0662
 1717SOL     OW16786   2.728   2.032   9.047  0.1562  0.2702  0.6474
 1717SOL    HW116787   2.793   1.983   8.996  0.2447  1.5870 -0.5195
 1717SOL    HW216788   2.775   2.090   9.107  2.2559 -0.1910 -0.5374
 1718SOL     OW16789   0.972   1.190   2.347 -0.1368  0.1405 -0.7021
 1718SOL    HW116790   0.878   1.177   2.341 -0.1535 -0.6802  1.1656
 1718SOL    HW216791   0.990   1.269   2.297 -3.1715  2.1406  1.3670
 1719SOL     OW16792   0.245   2.753  14.715 -0.2158 -0.1389  0.4545
 1719SOL    HW116793   0.326   2.703  14.700 -0.1556  0.3944 -1.0386
 1719SOL    HW216794   0.270   2.789  14.800  0.1871  2.2128 -0.6606
 1720SOL     OW16795   1.566   2.616   1.936  0.4421 -0.4409 -0.0951
 1720SOL    HW116796   1.588   2.548   2.000 -3.4547  0.1222  1.8295
 1720SOL    HW216797   1.647   2.614   1.885  1.1212 -0.9980  1.0017
 1721SOL     OW16798   1.677   1.512   1.120  0.7553  0.4761  0.1452
 1721SOL    HW116799   1.613   1.552   1.179  0.7284  0.9608 -0.2083
 1721SOL    HW216800   1.693   1.425   1.156  2.0116  0.7163  0.1870
 1722SOL     OW16801   3.679   0.314   2.180  0.1993  0.8357 -0.0618
 1722SOL    HW116802   3.697   0.355   2.265 -1.1616  3.0655 -0.8583
 1722SOL    HW216803   3.586   0.329   2.168  0.5744  3.5585  0.5158
 1723SOL     OW16804   2.950   0.407   5.394 -0.5469 -0.3295 -0.0382
 1723SOL    HW116805   2.884   0.456   5.345 -0.3876  0.4093  0.4936
 1723SOL    HW216806   3.008   0.390   5.320  0.2979 -1.0439  0.7888
 1724SOL     OW16807   1.454   1.432   6.637  0.1723  0.0506 -0.1588
 1724SOL    HW116808   1.534   1.435   6.585 -0.4086  0.2572 -1.0378
 1724SOL    HW216809   1.465   1.344   6.673  0.0363  0.3095  0.5098
 1725SOL     OW16810   0.256   1.971   4.732  0.3345  0.2211 -0.2372
 1725SOL    HW116811   0.296   2.058   4.730  2.0098 -0.6190 -2.3056
 1725SOL    HW216812   0.240   1.956   4.825 -2.6167 -0.9500 -0.9239
 1726SOL     OW16813   0.193   3.468   0.017 -0.0013 -0.1889  0.3132
 1726SOL    HW116814   0.155   3.381   0.032  0.9210 -0.7586 -0.6045
 1726SOL    HW216815   0.179   3.505   0.104  0.9722  0.1383  0.3372
 1727SOL     OW16816   1.192   4.715  17.468 -0.0196  0.4149 -0.0437
 1727SOL    HW116817   1.268   0.029  17.443 -1.1241  1.7124 -0.7304
 1727SOL    HW216818   1.143   0.041  17.519  1.0910  1.0070  0.2726
 1728SOL     OW16819   3.116   2.226   8.344 -0.3147 -0.5091  0.1527
 1728SOL    HW116820   3.054   2.286   8.384 -1.3047 -2.4230  1.4996
 1728SOL    HW216821   3.064   2.149   8.369 -1.9596  1.1311  1.7705
 1729SOL     OW16822   1.877   2.480   9.059 -0.2869  0.2282 -0.3009
 1729SOL    HW116823   1.891   2.391   9.090  0.2418  0.7832  1.0473
 1729SOL    HW216824   1.927   2.497   8.979  1.7850  0.3713  1.0266
 1730SOL     OW16825   3.411   4.094   6.903  0.5028  0.1781  0.0547
 1730SOL    HW116826   3.348   4.032   6.865  0.7250 -1.3646  2.1577
 1730SOL    HW216827   3.377   4.183   6.899 -0.0991 -0.1236 -1.6140
 1731SOL     OW16828   4.321   2.620  13.568 -0.3229 -0.1022  0.6942
 1731SOL    HW116829   4.360   2.558  13.630  0.7186 -1.0780 -0.9396
 1731SOL    HW216830   4.316   2.695  13.628 -0.8098  0.0229  0.4991
 1732SOL     OW16831   2.030   1.190   9.024 -0.1456  0.1950  0.2968
 1732SOL    HW116832   2.050   1.283   9.019 -1.2894  0.4614  0.6745
 1732SOL    HW216833   2.029   1.177   8.929 -0.4113  2.1893  0.0435
 1733SOL     OW16834   0.622   1.818   7.727  0.1443 -0.1908  0.4457
 1733SOL    HW116835   0.540   1.769   7.734  0.1349 -0.3443 -0.7042
 1733SOL    HW216836   0.655   1.825   7.817  1.5904 -2.3633  0.0721
 1734SOL     OW16837   3.366   0.094   0.417  0.2715 -0.2678 -0.1912
 1734SOL    HW116838   3.377   0.086   0.512  1.9811 -1.7078 -0.5066
 1734SOL    HW216839   3.458   0.102   0.391 -0.5799 -0.1234 -3.1921
 1735SOL     OW16840   1.242   0.357   7.220  0.3431  0.0040 -0.0680
 1735SOL    HW116841   1.244   0.266   7.247  2.8334 -0.4256 -1.6803
 1735SOL    HW216842   1.274   0.352   7.130 -0.7980  2.3181 -0.6184
 1736SOL     OW16843   0.305   0.301   3.957  0.4245  0.1890 -0.0536
 1736SOL    HW116844   0.297   0.368   4.025  0.1632  0.4252 -0.3144
 1736SOL    HW216845   0.214   0.293   3.929  0.3578  1.8206 -0.3297
 1737SOL     OW16846   2.956   4.094  16.907  0.2942  0.5369 -0.2004
 1737SOL    HW116847   2.941   4.186  16.932 -0.0796  0.4973 -0.2741
 1737SOL    HW216848   3.050   4.089  16.925 -0.0978  0.8724  2.0109
 1738SOL     OW16849   0.488   1.665   5.496  0.4956 -0.3219  0.5668
 1738SOL    HW116850   0.458   1.577   5.474 -0.0815 -0.5356  2.2083
 1738SOL    HW216851   0.431   1.693   5.568  2.0317 -0.0178  1.6475
 1739SOL     OW16852   1.532   2.718  12.742  0.1029 -0.2474 -0.2686
 1739SOL    HW116853   1.570   2.727  12.829 -0.4417 -1.8898  0.1448
 1739SOL    HW216854   1.438   2.723  12.757  0.4481  3.7354  0.5111
 1740SOL     OW16855   3.430   1.664   3.696  0.0806 -0.2622 -0.3044
 1740SOL    HW116856   3.455   1.627   3.780  2.9257 -0.0384 -1.0179
 1740SOL    HW216857   3.342   1.698   3.708  0.1275  0.0014 -0.6709
 1741SOL     OW16858   3.312   2.487   5.052  0.4653  0.2222 -0.7065
 1741SOL    HW116859   3.292   2.482   4.958 -2.2529 -0.5767 -0.0830
 1741SOL    HW216860   3.271   2.407   5.085 -0.4084  1.5567  1.4303
 1742SOL     OW16861   1.510   3.026   9.052  0.1287  0.2215 -0.3374
 1742SOL    HW116862   1.444   3.014   9.120  0.9283 -0.1177  0.3673
 1742SOL    HW216863   1.456   3.074   8.988  0.5560  1.6422  0.3702
 1743SOL     OW16864   1.424   1.022  11.456 -0.1692 -0.5761 -0.1075
 1743SOL    HW116865   1.471   1.100  11.426  0.9115 -1.3577 -0.4586
 1743SOL    HW216866   1.414   0.968  11.378 -0.0828 -0.5997 -0.1019
 1744SOL     OW16867   3.888   2.471  10.918  0.3693 -0.4762 -0.1004
 1744SOL    HW116868   3.958   2.410  10.894 -0.0477 -1.3786  0.9427
 1744SOL    HW216869   3.823   2.442  10.854 -0.6658  0.8423  0.3532
 1745SOL     OW16870   1.162   3.491  14.774 -0.5317 -0.0258  0.0223
 1745SOL    HW116871   1.219   3.512  14.848 -0.3467  2.0765 -0.7205
 1745SOL    HW216872   1.222   3.433  14.727  2.1082  3.2649 -0.6548
 1746SOL     OW16873   4.401   2.835   5.181  0.6519  0.4465  0.1369
 1746SOL    HW116874   4.345   2.804   5.110 -0.3777 -1.6484  1.8740
 1746SOL    HW216875   4.346   2.904   5.218 -0.1970  1.3676 -2.8012
 1747SOL     OW16876   1.290   1.868  13.940 -0.1722  0.3472 -0.5180
 1747SOL    HW116877   1.214   1.924  13.928 -1.7322 -0.9199  3.4187
 1747SOL    HW216878   1.343   1.929  13.993  1.1518 -1.0757 -0.1989
 1748SOL     OW16879   0.805   4.547   5.992 -0.3169 -0.1767 -0.4236
 1748SOL    HW116880   0.776   4.507   5.910 -1.3076 -1.6811  0.6423
 1748SOL    HW216881   0.767   4.634   5.982 -2.6973 -0.8410  2.5080
 1749SOL     OW16882   1.150   0.738   2.197  0.3913  0.4569 -0.1923
 1749SOL    HW116883   1.129   0.805   2.262  0.1963  0.3050 -0.0962
 1749SOL    HW216884   1.240   0.764   2.179 -0.1129  0.3775 -2.7758
 1750SOL     OW16885   2.906   4.249   5.549 -0.2562 -0.0261  0.1014
 1750SOL    HW116886   2.987   4.291   5.519 -0.0206 -2.0827 -2.1768
 1750SOL    HW216887   2.949   4.205   5.623  3.1495 -1.7751 -2.8690
 1751SOL     OW16888   4.327   0.876   5.271  0.4201  0.1433  0.6846
 1751SOL    HW116889   4.275   0.956   5.282  0.6868  0.3044  0.7643
 1751SOL    HW216890   4.412   0.905   5.238  0.3602 -1.2224 -0.6494
 1752SOL     OW16891   3.072   2.348  16.868  0.0964  0.2119 -0.3657
 1752SOL    HW116892   2.997   2.330  16.924  1.5008 -0.4634  1.3172
 1752SOL    HW216893   3.083   2.262  16.828 -0.4514 -0.5542  1.1553
 1753SOL     OW16894   2.841   0.398   6.965 -0.0017 -0.2088  0.1360
 1753SOL    HW116895   2.764   0.373   7.016  1.2766 -2.1216  1.1022
 1753SOL    HW216896   2.818   0.487   6.938  0.8450  0.5037  1.7686
 1754SOL     OW16897   4.150   1.563   6.746  0.0123  1.1591  0.3195
 1754SOL    HW116898   4.099   1.548   6.825 -1.8838 -0.1211 -1.1329
 1754SOL    HW216899   4.175   1.655   6.750 -2.5176  1.9074 -0.5564
 1755SOL     OW16900   3.314   3.656  12.506  0.1129 -0.1888  0.2298
 1755SOL    HW116901   3.350   3.688  12.588  0.9356 -0.5815  0.0257
 1755SOL    HW216902   3.244   3.721  12.497  1.0297  0.7703  0.0274
 1756SOL     OW16903   1.945   3.487   0.341  0.0815  0.0654  0.1094
 1756SOL    HW116904   1.968   3.416   0.400 -2.6325 -0.2497  0.8192
 1756SOL    HW216905   2.032   3.517   0.315  1.1279 -2.3091  0.8977
 1757SOL     OW16906   1.401   0.518   6.395  0.4439  0.1889  0.1681
 1757SOL    HW116907   1.328   0.578   6.415 -1.0160 -0.9357 -1.7852
 1757SOL    HW216908   1.423   0.556   6.310 -1.7165 -1.6084 -1.2239
 1758SOL     OW16909   2.947   0.707   9.140  0.2168  0.0763 -0.3171
 1758SOL    HW116910   2.936   0.778   9.204 -2.0299  1.8032 -2.5935
 1758SOL    HW216911   2.944   0.772   9.069  0.1635  1.3969  0.8993
 1759SOL     OW16912   0.462   0.904   1.697  0.3062 -0.6692 -0.0004
 1759SOL    HW116913   0.492   0.966   1.630  2.2459 -0.8103  0.7235
 1759SOL    HW216914   0.421   0.959   1.763  1.7680  0.9016 -0.3984
 1760SOL     OW16915   3.490   0.533   2.841 -0.0435 -0.2388 -0.5378
 1760SOL    HW116916   3.564   0.482   2.874 -0.4673 -0.3096  0.3076
 1760SOL    HW216917   3.527   0.564   2.759 -1.3154 -1.0784 -1.4093
 1761SOL     OW16918   2.456   1.906   7.829 -0.2175  0.1476 -0.2737
 1761SOL    HW116919   2.415   1.985   7.864 -0.3893 -0.2885  0.5205
 1761SOL    HW216920   2.454   1.927   7.736  0.7047  0.2463 -0.2754
 1762SOL     OW16921   2.242   3.519   5.129 -0.2201  0.2349 -0.8521
 1762SOL    HW116922   2.167   3.465   5.155  0.7658 -0.7931 -0.1495
 1762SOL    HW216923   2.225   3.593   5.187  2.8123 -1.8206  2.6471
 1763SOL     OW16924   0.424   0.052   5.545  0.5815 -0.2192 -0.2066
 1763SOL    HW116925   0.337   0.035   5.509  1.0496 -2.7245 -0.1513
 1763SOL    HW216926   0.413   4.736   5.623 -0.6809  0.8451  0.3473
 1764SOL     OW16927   0.618   4.468   8.213 -0.7348 -0.4970 -0.5553
 1764SOL    HW116928   0.577   4.543   8.169 -0.2536  0.7172  1.0578
 1764SOL    HW216929   0.687   4.446   8.150 -0.5207  1.2505 -0.9468
 1765SOL     OW16930   2.197   3.409   1.933 -0.0694  0.0757 -0.2175
 1765SOL    HW116931   2.243   3.474   1.881 -0.3918 -0.0575 -0.6719
 1765SOL    HW216932   2.110   3.445   1.919  0.0235 -0.3787 -2.0106
 1766SOL     OW16933   3.468   3.973   4.090  0.8017 -0.1195  0.2177
 1766SOL    HW116934   3.407   3.990   4.161  2.1190 -0.5514  1.4556
 1766SOL    HW216935   3.462   4.051   4.034 -1.5796 -0.4820 -0.0468
 1767SOL     OW16936   1.919   4.722   4.054 -0.4403 -0.2516  0.4978
 1767SOL    HW116937   1.904   4.669   4.132  2.2352 -0.5432  0.7966
 1767SOL    HW216938   1.871   4.673   3.987  1.6268 -0.1937 -1.0287
 1768SOL     OW16939   3.015   3.822   3.621  0.3517 -0.1558  0.0998
 1768SOL    HW116940   3.087   3.883   3.601  0.3968  0.7118  2.9847
 1768SOL    HW216941   3.057   3.743   3.654 -0.2610  0.2323  1.7725
 1769SOL     OW16942   1.648   1.666   8.369  0.3119 -0.3037  0.2934
 1769SOL    HW116943   1.567   1.625   8.337  1.3724 -0.6798 -1.9059
 1769SOL    HW216944   1.628   1.759   8.356 -0.9011 -0.4317  1.2757
 1770SOL     OW16945   3.240   3.615  15.906  0.0594 -0.3611 -0.2886
 1770SOL    HW116946   3.211   3.660  15.826  2.1910  0.9398 -0.3189
 1770SOL    HW216947   3.171   3.642  15.967  0.4953 -0.6765  0.3328
 1771SOL     OW16948   1.444   4.668   5.249  0.0041  0.6699 -0.4476
 1771SOL    HW116949   1.432   4.624   5.333  0.3518 -2.7466 -2.1822
 1771SOL    HW216950   1.353   4.691   5.228 -0.6755 -0.0442  1.7315
 1772SOL     OW16951   3.134   3.718   1.269 -0.0809 -0.0023 -0.1655
 1772SOL    HW116952   3.062   3.659   1.293  1.4203 -0.2234  3.7276
 1772SOL    HW216953   3.203   3.665   1.230 -0.1458  0.0262 -0.3195
 1773SOL     OW16954   3.759   1.801   4.493 -0.3949 -0.3514 -0.1787
 1773SOL    HW116955   3.813   1.722   4.499 -1.6572 -1.3517 -2.2177
 1773SOL    HW216956   3.675   1.771   4.459 -2.0519  1.6823  2.1287
 1774SOL     OW16957   2.158   4.118   2.220 -0.1192  0.3084  0.2305
 1774SOL    HW116958   2.235   4.100   2.167 -0.5466  0.1814 -0.3556
 1774SOL    HW216959   2.184   4.109   2.312  0.2903  2.3945  0.3032
 1775SOL     OW16960   2.270   3.472   5.694  0.1160  0.5577 -0.4881
 1775SOL    HW116961   2.317   3.555   5.701  2.1693 -0.6579  0.1188
 1775SOL    HW216962   2.343   3.410   5.691 -1.3123 -1.1148 -0.2351
 1776SOL     OW16963   2.197   3.511   0.105 -0.4995 -0.3758 -0.0841
 1776SOL    HW116964   2.281   3.466   0.118 -0.7886 -0.8651  0.0902
 1776SOL    HW216965   2.143   3.432   0.109 -1.3601  0.0625 -3.7756
 1777SOL     OW16966   2.441   2.881   9.641 -0.2301 -0.1864  0.2914
 1777SOL    HW116967   2.374   2.943   9.669 -0.5188 -0.1552 -0.4742
 1777SOL    HW216968   2.386   2.843   9.573 -1.1779  1.7727 -0.0470
 1778SOL     OW16969   2.381   4.470  16.229 -0.7761  0.4137 -0.0498
 1778SOL    HW116970   2.320   4.428  16.169 -0.8085  0.1999  0.1319
 1778SOL    HW216971   2.368   4.419  16.309  0.6145 -0.8640 -0.6320
 1779SOL     OW16972   0.395   4.706   2.941  0.2440  0.4239 -0.0286
 1779SOL    HW116973   0.364   4.625   2.901 -2.6854  0.1836  2.7187
 1779SOL    HW216974   0.484   4.704   2.904  0.0065 -1.8358 -0.4277
 1780SOL     OW16975   3.270   2.741   6.112  0.0699 -0.3731  0.1142
 1780SOL    HW116976   3.329   2.756   6.038 -0.9141  2.2464 -0.1140
 1780SOL    HW216977   3.269   2.825   6.158  0.9044 -0.1332 -0.2999
 1781SOL     OW16978   3.148   1.699   2.290 -0.6199 -0.0616  0.5934
 1781SOL    HW116979   3.121   1.673   2.201 -0.6145  1.4339  0.1598
 1781SOL    HW216980   3.145   1.616   2.338 -0.7774 -0.1791  0.3870
 1782SOL     OW16981   2.273   3.627  13.802  0.2008 -0.2263 -0.2813
 1782SOL    HW116982   2.219   3.650  13.877 -0.0087 -3.6551  0.6039
 1782SOL    HW216983   2.362   3.639  13.835  0.4588 -0.9835 -0.6862
 1783SOL     OW16984   1.075   0.926   3.230  0.3954 -0.0828  0.0614
 1783SOL    HW116985   1.066   0.959   3.140 -0.2541 -1.1165 -0.2433
 1783SOL    HW216986   0.992   0.952   3.269  0.5210 -0.6476  0.6898
 1784SOL     OW16987   0.204   2.318   1.546 -0.7845  1.2688  0.4436
 1784SOL    HW116988   0.213   2.304   1.640  0.2235 -1.1399 -0.0121
 1784SOL    HW216989   0.262   2.392   1.529 -0.2340  0.8454  0.5029
 1785SOL     OW16990   4.263   3.838  15.181  0.4557 -0.2308  0.4856
 1785SOL    HW116991   4.222   3.852  15.096  0.8204 -2.3669 -0.0438
 1785SOL    HW216992   4.191   3.814  15.240  0.5711 -0.3621  0.5745
 1786SOL     OW16993   2.118   1.875   4.636 -1.0596  0.8499  0.0142
 1786SOL    HW116994   2.101   1.898   4.544 -0.8821 -0.1728 -0.2734
 1786SOL    HW216995   2.042   1.925   4.668 -0.8896 -0.1595  1.9651
 1787SOL     OW16996   3.080   1.770   6.239 -0.4870  0.4268 -0.0705
 1787SOL    HW116997   2.996   1.807   6.266 -1.0054  0.7167 -2.0934
 1787SOL    HW216998   3.106   1.833   6.172  1.6727 -0.5801 -0.1873
 1788SOL     OW16999   1.979   4.702   2.305  0.0435 -1.0403  0.7268
 1788SOL    HW117000   2.002   4.611   2.286  2.0709 -0.4688  0.4393
 1788SOL    HW217001   1.895   4.703   2.260  0.0449 -3.9202  0.6105
 1789SOL     OW17002   4.087   0.382   4.241  0.1290  0.2424  0.4417
 1789SOL    HW117003   4.144   0.398   4.316  0.4870  1.3180 -0.0599
 1789SOL    HW217004   3.997   0.393   4.273 -0.9178 -2.9472 -1.4356
 1790SOL     OW17005   3.977   3.217   3.491 -0.1805  0.0716  0.2549
 1790SOL    HW117006   3.930   3.291   3.452 -2.1119 -0.3064  1.8504
 1790SOL    HW217007   3.994   3.159   3.417 -0.4954  0.7361 -0.3485
 1791SOL     OW17008   4.490   2.243   5.388 -0.3538  0.0656  0.2814
 1791SOL    HW117009   4.484   2.338   5.393  1.5733  0.3910 -3.6413
 1791SOL    HW217010   4.471   2.224   5.480  1.9907 -1.0024  0.5409
 1792SOL     OW17011   2.559   0.412   4.780  0.0486 -0.7576  0.2635
 1792SOL    HW117012   2.513   0.475   4.836  1.6322  0.1803  0.5285
 1792SOL    HW217013   2.598   0.355   4.845 -0.0421  1.5096  2.3113
 1793SOL     OW17014   3.337   1.106   9.194  0.0245  0.1502 -0.4804
 1793SOL    HW117015   3.285   1.148   9.263  1.1900  0.4670  0.1971
 1793SOL    HW217016   3.337   1.181   9.134  1.0775  2.7194  2.7196
 1794SOL     OW17017   1.031   0.123   6.708  0.2594  0.2400 -0.5489
 1794SOL    HW117018   1.023   0.203   6.656 -0.4543 -0.7375 -1.9589
 1794SOL    HW217019   1.082   0.075   6.642 -0.4704 -1.6158  0.2306
 1795SOL     OW17020   1.733   0.422   3.778 -0.9153  0.4613  0.5431
 1795SOL    HW117021   1.810   0.376   3.812 -1.5891  1.2270  3.1416
 1795SOL    HW217022   1.772   0.464   3.702  0.5691  0.6751  1.4109
 1796SOL     OW17023   3.352   1.359   6.778 -0.0296 -0.1053  0.2072
 1796SOL    HW117024   3.260   1.332   6.771 -0.6343  1.6604  1.0921
 1796SOL    HW217025   3.354   1.377   6.872  1.8286  1.3056 -0.1016
 1797SOL     OW17026   1.576   2.083   5.504 -0.5701  0.0615 -0.1351
 1797SOL    HW117027   1.607   2.006   5.550 -2.1111 -1.1910 -1.2030
 1797SOL    HW217028   1.657   2.135   5.505 -0.1734 -0.5389 -1.0427
 1798SOL     OW17029   0.419   1.369   9.713 -0.4262  0.2211  0.3126
 1798SOL    HW117030   0.472   1.403   9.785 -1.1189  0.3729  0.7492
 1798SOL    HW217031   0.340   1.358   9.766 -1.2493 -0.4558 -1.0468
 1799SOL     OW17032   3.218   3.361   3.946 -0.5752  0.1041  0.2818
 1799SOL    HW117033   3.310   3.387   3.953 -1.2134  2.8024 -1.6699
 1799SOL    HW217034   3.223   3.285   3.888 -0.1855 -0.7369  1.3952
 1800SOL     OW17035   4.142   1.458   0.152  0.4110  0.3189  0.6633
 1800SOL    HW117036   4.124   1.426   0.240 -1.7614 -1.4072 -0.4217
 1800SOL    HW217037   4.050   1.457   0.127  0.0258 -0.0375  2.1202
 1801SOL     OW17038   1.681   1.685   3.848 -0.0110  0.4789  0.0254
 1801SOL    HW117039   1.773   1.690   3.874  0.7459 -0.1427 -2.5535
 1801SOL    HW217040   1.665   1.780   3.848 -1.3033  0.2589 -0.7297
 1802SOL     OW17041   4.255   4.232   8.795  0.6732 -0.4302 -0.1550
 1802SOL    HW117042   4.207   4.280   8.862  0.7387 -1.3986  0.5852
 1802SOL    HW217043   4.209   4.253   8.714 -2.2144 -1.1348  1.3248
 1803SOL     OW17044   4.537   2.499   9.080  0.1722  0.7469 -0.2496
 1803SOL    HW117045   4.535   2.414   9.035 -0.4594  0.4091  0.4230
 1803SOL    HW217046   4.595   2.483   9.155  0.7574  2.0322 -0.4249
 1804SOL     OW17047   1.309   4.339   4.576  0.3650  0.0772  0.7943
 1804SOL    HW117048   1.292   4.403   4.644  0.4656  2.1498 -1.1461
 1804SOL    HW217049   1.327   4.259   4.625  0.8128 -0.1974  0.1862
 1805SOL     OW17050   3.086   3.601   2.358  0.1634  0.0346 -0.2935
 1805SOL    HW117051   3.057   3.629   2.271 -0.6928  0.5504  0.1591
 1805SOL    HW217052   3.067   3.507   2.360 -1.8066  0.4074 -2.1442
 1806SOL     OW17053   0.293   0.277   5.882 -0.4822  0.9863 -0.0946
 1806SOL    HW117054   0.254   0.334   5.948 -2.5125 -0.2383 -0.2439
 1806SOL    HW217055   0.339   0.335   5.822  1.2179  0.3446  0.5980
 1807SOL     OW17056   2.364   4.097   6.801  0.3285  0.0813 -0.5403
 1807SOL    HW117057   2.322   4.027   6.850  2.2659 -0.0348  0.9480
 1807SOL    HW217058   2.310   4.168   6.837 -0.5955 -0.1791 -1.4183
 1808SOL     OW17059   2.555   3.766  17.456  0.3574 -0.3802 -0.1066
 1808SOL    HW117060   2.596   3.775  17.370  0.4873  3.9012  0.4023
 1808SOL    HW217061   2.481   3.713  17.427 -0.6166 -0.0160  1.6703
 1809SOL     OW17062   0.517   3.625   4.912  0.4019  0.3086  0.1448
 1809SOL    HW117063   0.590   3.568   4.889 -0.5531 -1.0384  0.4289
 1809SOL    HW217064   0.485   3.573   4.986  0.1207 -1.9125 -1.5516
 1810SOL     OW17065   3.505   2.427  12.455  0.0988 -0.1220  0.0688
 1810SOL    HW117066   3.538   2.434  12.365 -1.0376 -0.5718 -0.3780
 1810SOL    HW217067   3.472   2.337  12.450 -0.1111  0.0136 -0.8853
 1811SOL     OW17068   3.300   3.091   7.975 -0.1379  0.0661 -0.5949
 1811SOL    HW117069   3.309   3.048   8.060 -1.7123 -0.6631 -0.8058
 1811SOL    HW217070   3.338   3.177   7.995 -0.6601  0.3259 -0.7125
 1812SOL     OW17071   3.701   0.965   4.979  0.3927  0.1826  0.5087
 1812SOL    HW117072   3.627   1.011   5.018  0.5599 -0.0967  1.1450
 1812SOL    HW217073   3.703   0.881   5.024  1.4335 -0.5509 -0.8897
 1813SOL     OW17074   0.260   1.528   4.728  0.3399 -0.0492  0.0574
 1813SOL    HW117075   0.208   1.599   4.765  1.0898 -0.1308  1.2835
 1813SOL    HW217076   0.339   1.570   4.694 -0.9137  1.2771 -1.1760
 1814SOL     OW17077   4.257   2.094   8.967  0.1672  0.9545 -0.1904
 1814SOL    HW117078   4.200   2.170   8.977 -0.8229 -0.0306  1.5913
 1814SOL    HW217079   4.328   2.102   9.031 -1.6091 -1.4990  2.0562
 1815SOL     OW17080   2.553   2.643  15.498 -0.5897 -0.1013 -0.0650
 1815SOL    HW117081   2.470   2.672  15.536  0.3749 -0.2551  2.1437
 1815SOL    HW217082   2.531   2.553  15.476 -0.5164  0.2889 -1.7967
 1816SOL     OW17083   3.379   4.218  17.489  0.5051  0.2834 -0.2558
 1816SOL    HW117084   3.318   4.283  17.523 -0.5688 -0.9962  0.2515
 1816SOL    HW217085   3.326   4.140  17.472  0.3753 -0.3350  3.0804
 1817SOL     OW17086   0.472   2.402   5.414  0.4324 -0.1448  0.0938
 1817SOL    HW117087   0.415   2.469   5.376  2.0929  1.6337  0.7312
 1817SOL    HW217088   0.403   2.345   5.446  0.6602  0.7347  2.1805
 1818SOL     OW17089   3.779   2.953  11.245  0.1466 -0.2228  0.0493
 1818SOL    HW117090   3.766   2.876  11.300 -1.3169  0.8335  1.1734
 1818SOL    HW217091   3.867   2.936  11.212  0.7384 -1.3740  2.2341
 1819SOL     OW17092   3.242   1.286   9.739 -0.2023  0.4709  0.3182
 1819SOL    HW117093   3.336   1.278   9.724 -0.6502 -0.6797 -1.9003
 1819SOL    HW217094   3.229   1.265   9.831 -1.1467  1.0211  0.3110
 1820SOL     OW17095   1.159   4.280  12.639 -0.5226 -1.7398  0.3093
 1820SOL    HW117096   1.069   4.253  12.657 -1.2564  0.3059 -0.2652
 1820SOL    HW217097   1.191   4.206  12.587  1.1388 -1.0250  0.3212
 1821SOL     OW17098   1.103   2.535   9.787 -0.1614 -0.9500 -0.4157
 1821SOL    HW117099   1.128   2.611   9.840 -0.0803 -0.7997 -0.6701
 1821SOL    HW217100   1.010   2.535   9.812 -0.1864  0.4318 -0.5096
 1822SOL     OW17101   1.858   4.202   1.597  0.1818  0.0166  0.0200
 1822SOL    HW117102   1.876   4.284   1.644 -0.6828 -1.2875  2.6548
 1822SOL    HW217103   1.898   4.222   1.513  0.4584  1.3749  0.4841
 1823SOL     OW17104   0.948   1.464   3.728 -0.0991  0.4080  0.1872
 1823SOL    HW117105   1.008   1.396   3.697  0.6042  2.0359 -2.0260
 1823SOL    HW217106   0.947   1.437   3.820  0.8706  2.2654  0.7268
 1824SOL     OW17107   0.143   0.072   3.786  0.0571  0.3300  0.2406
 1824SOL    HW117108   0.213   0.135   3.770 -0.9260  1.4559  0.2959
 1824SOL    HW217109   0.169   0.002   3.727 -0.1696 -0.0874  0.6333
 1825SOL     OW17110   2.498   3.713   8.366 -0.4236  0.2631 -0.2973
 1825SOL    HW117111   2.584   3.688   8.334 -0.6642 -0.3032 -0.5004
 1825SOL    HW217112   2.522   3.800   8.398 -0.0749  0.0204  0.0919
 1826SOL     OW17113   3.992   0.525   8.262  0.1158  0.1408  0.6594
 1826SOL    HW117114   4.007   0.483   8.347 -0.7770 -0.1665  0.6617
 1826SOL    HW217115   4.079   0.566   8.259 -0.5200  1.4296  0.0989
 1827SOL     OW17116   3.190   4.172   0.086  0.2147  0.4986 -0.0181
 1827SOL    HW117117   3.191   4.239   0.018 -0.6953 -0.4782 -0.9871
 1827SOL    HW217118   3.256   4.118   0.044  0.3713  1.3787 -0.9292
 1828SOL     OW17119   1.047   0.689  14.625  0.2988 -0.4580 -0.4769
 1828SOL    HW117120   1.004   0.773  14.642 -0.3281 -0.6906 -0.9318
 1828SOL    HW217121   1.086   0.673  14.711  2.7010 -0.7568 -1.6016
 1829SOL     OW17122   0.437   1.210   3.788  0.1934 -0.0632  0.4726
 1829SOL    HW117123   0.507   1.167   3.739  0.0705 -0.0113  0.2513
 1829SOL    HW217124   0.470   1.287   3.834  0.4850 -0.6948  1.3257
 1830SOL     OW17125   0.216   0.728  15.599  0.1719 -0.0707 -0.0885
 1830SOL    HW117126   0.286   0.695  15.543  3.2090  3.7518  1.4520
 1830SOL    HW217127   0.188   0.641  15.626  2.0923 -0.3597  0.9184
 1831SOL     OW17128   2.046   3.742   6.688 -0.2872  0.4434 -0.5545
 1831SOL    HW117129   2.085   3.819   6.729  0.7091 -1.0385  1.2730
 1831SOL    HW217130   2.124   3.707   6.645  0.9972  3.2031 -0.4819
 1832SOL     OW17131   0.933   1.211   9.764  0.1660 -0.7194  0.1595
 1832SOL    HW117132   0.986   1.161   9.701 -0.3125  0.7931 -1.4486
 1832SOL    HW217133   0.990   1.249   9.831  2.0575 -1.2214 -1.1357
 1833SOL     OW17134   4.582   1.258  15.521 -0.7561  0.7007 -0.3736
 1833SOL    HW117135   4.550   1.251  15.431  0.7404  0.6778 -0.9000
 1833SOL    HW217136   4.512   1.213  15.569  0.2063 -1.2758 -0.8336
 1834SOL     OW17137   3.549   4.292   6.713 -0.4000 -0.2573  0.1967
 1834SOL    HW117138   3.525   4.223   6.651 -2.0223  1.5481 -1.1615
 1834SOL    HW217139   3.598   4.349   6.653 -0.3033 -1.6017 -0.9914
 1835SOL     OW17140   2.777   2.122   2.267  0.5312 -0.4051  0.1655
 1835SOL    HW117141   2.729   2.051   2.225 -1.5057  1.2462 -0.3100
 1835SOL    HW217142   2.852   2.073   2.299  0.4136  0.2533  1.4656
 1836SOL     OW17143   3.668   1.696   8.371  0.4294  0.1367 -0.4306
 1836SOL    HW117144   3.581   1.734   8.357  1.4731  2.5550 -0.4364
 1836SOL    HW217145   3.698   1.772   8.421 -2.3882 -0.2574  1.9009
 1837SOL     OW17146   0.293   2.713   8.591  0.1477 -0.1702 -0.5707
 1837SOL    HW117147   0.209   2.710   8.637  0.1025  0.1575 -0.6339
 1837SOL    HW217148   0.272   2.636   8.539  0.0544  0.0739 -0.8943
 1838SOL     OW17149   2.325   1.021   8.650 -0.3692  0.5956  0.4590
 1838SOL    HW117150   2.338   0.984   8.737  0.3766 -2.0251 -0.7784
 1838SOL    HW217151   2.403   1.075   8.636 -0.9436  1.4538  0.5737
 1839SOL     OW17152   3.695   2.405  17.601 -0.1474 -0.2765  0.3478
 1839SOL    HW117153   3.740   2.320  17.599 -2.0289 -1.2759  0.5383
 1839SOL    HW217154   3.601   2.387  17.608 -0.3601  0.2829 -1.1959
 1840SOL     OW17155   0.706   2.881   1.314  0.1924 -0.5125  0.4133
 1840SOL    HW117156   0.781   2.932   1.285 -1.7523  0.6138 -2.6499
 1840SOL    HW217157   0.685   2.926   1.396 -1.3869  0.2876 -0.4229
 1841SOL     OW17158   3.591   3.967   3.038 -0.0345  0.6415 -0.7406
 1841SOL    HW117159   3.665   3.913   3.009 -0.1859  0.2036 -0.3216
 1841SOL    HW217160   3.572   4.011   2.955  1.6976  1.0316 -0.9304
 1842SOL     OW17161   2.559   2.585   4.851 -0.8187 -0.0824 -0.6038
 1842SOL    HW117162   2.623   2.528   4.807  0.9389  2.1929 -1.0409
 1842SOL    HW217163   2.549   2.651   4.783  0.6511  0.2447 -0.5229
 1843SOL     OW17164   0.321   1.892   7.911 -0.4002  0.3466 -0.2847
 1843SOL    HW117165   0.412   1.918   7.921 -0.3860  0.4143 -0.5926
 1843SOL    HW217166   0.307   1.907   7.817  2.4190 -0.2013 -0.7744
 1844SOL     OW17167   2.695   2.567  10.810  0.2027 -0.0435 -0.1114
 1844SOL    HW117168   2.764   2.529  10.755  0.5922  1.4985 -0.6649
 1844SOL    HW217169   2.741   2.633  10.860  0.1136 -0.5913  0.6979
 1845SOL     OW17170   4.559   3.992   4.160 -0.1493 -0.3519  0.2964
 1845SOL    HW117171   4.515   4.075   4.177 -1.6320 -1.1347  0.2646
 1845SOL    HW217172   4.553   3.961   4.250  0.5573  0.0464  0.4767
 1846SOL     OW17173   1.351   3.338   0.861  0.1200  0.2383  0.3269
 1846SOL    HW117174   1.440   3.353   0.830  0.6071 -1.5192  0.9204
 1846SOL    HW217175   1.363   3.289   0.941 -0.0139 -2.0232 -1.0436
 1847SOL     OW17176   1.717   0.391   7.910 -0.4539  0.8205 -0.5925
 1847SOL    HW117177   1.723   0.340   7.829  0.8704 -0.8567  0.5454
 1847SOL    HW217178   1.786   0.456   7.899 -1.9250  2.2041 -1.6123
 1848SOL     OW17179   1.267   2.755   3.563 -0.4770 -0.3787  0.2780
 1848SOL    HW117180   1.276   2.668   3.523  2.6299 -1.0381  2.3912
 1848SOL    HW217181   1.299   2.813   3.495  0.5298 -1.6636 -0.3593
 1849SOL     OW17182   1.990   1.281   6.940 -0.5924 -0.1781 -0.6638
 1849SOL    HW117183   1.952   1.368   6.951  0.7141  0.5678 -2.1027
 1849SOL    HW217184   2.062   1.281   7.003 -0.6968  0.2684 -0.5464
 1850SOL     OW17185   2.840   2.057  11.135  0.5254  0.5455 -0.2757
 1850SOL    HW117186   2.850   2.032  11.227  1.8176  0.4060 -0.4450
 1850SOL    HW217187   2.926   2.042  11.095  0.4991 -2.9893  1.0259
 1851SOL     OW17188   1.711   3.591   2.979  0.1513  0.0720  0.3493
 1851SOL    HW117189   1.674   3.634   3.056  0.0655  0.8873 -0.1472
 1851SOL    HW217190   1.802   3.620   2.985  0.6590 -1.2870 -0.8702
 1852SOL     OW17191   0.358   4.323   1.838  0.3354  0.4834 -0.5916
 1852SOL    HW117192   0.328   4.234   1.824 -2.4976  1.4622 -0.7368
 1852SOL    HW217193   0.278   4.372   1.818 -0.3368 -0.6069 -0.5181
 1853SOL     OW17194   1.316   2.686   8.008  0.1569  0.3567 -0.2425
 1853SOL    HW117195   1.375   2.625   7.964 -0.7415 -0.4513 -0.3317
 1853SOL    HW217196   1.334   2.669   8.100 -0.4411 -1.1123 -0.3961
 1854SOL     OW17197   3.163   2.719   7.358  0.3761 -0.1223 -0.0799
 1854SOL    HW117198   3.240   2.713   7.413  0.7268  2.0098 -0.3533
 1854SOL    HW217199   3.116   2.641   7.387  1.2075 -0.5353  0.1359
 1855SOL     OW17200   3.482   3.071   5.219  0.2644  0.1523  0.1010
 1855SOL    HW117201   3.531   3.094   5.140 -1.6002 -0.4498 -1.2109
 1855SOL    HW217202   3.530   2.991   5.238 -1.6657 -1.4742 -1.9532
 1856SOL     OW17203   4.478   2.058   3.353 -0.6371 -0.1582 -0.4474
 1856SOL    HW117204   4.530   2.137   3.339  0.2257 -1.0666 -2.3956
 1856SOL    HW217205   4.419   2.065   3.277 -0.1528  0.8025 -0.7411
 1857SOL     OW17206   0.334   4.164   2.913  0.0315 -0.1684 -0.4857
 1857SOL    HW117207   0.238   4.168   2.916 -0.0539 -2.3188 -0.6021
 1857SOL    HW217208   0.360   4.238   2.857  4.5403 -0.3975  1.3299
 1858SOL     OW17209   1.905   2.522  11.206 -0.0670 -0.1692  0.5719
 1858SOL    HW117210   1.999   2.533  11.191 -0.6026  0.2824 -2.3689
 1858SOL    HW217211   1.856   2.570  11.139  1.0490  0.4071  0.1584
 1859SOL     OW17212   3.707   0.343  16.172  0.1718  0.0325 -0.1580
 1859SOL    HW117213   3.658   0.365  16.092  1.6693 -5.1027 -2.4722
 1859SOL    HW217214   3.694   0.422  16.224  0.8909  0.4816 -0.6751
 1860SOL     OW17215   1.236   1.257  17.317 -0.5667 -0.5018  0.6507
 1860SOL    HW117216   1.221   1.194  17.247  0.7918  1.1534 -1.1571
 1860SOL    HW217217   1.193   1.335  17.281 -0.4067 -1.5637 -1.7697
 1861SOL     OW17218   3.141   4.102   8.074  0.4018 -0.1579 -1.2813
 1861SOL    HW117219   3.193   4.027   8.044 -0.9363 -1.5756 -0.0914
 1861SOL    HW217220   3.176   4.160   8.007 -1.9960  1.4088 -1.1820
 1862SOL     OW17221   3.143   3.653  16.303 -0.8297  0.2223  0.0394
 1862SOL    HW117222   3.147   3.655  16.208 -1.0167  1.4510  0.0678
 1862SOL    HW217223   3.152   3.560  16.326  1.7694  0.8891  1.7854
 1863SOL     OW17224   1.232   1.367   5.252  0.3172  0.2209 -0.1978
 1863SOL    HW117225   1.325   1.376   5.273 -0.0883  3.9306  0.0347
 1863SOL    HW217226   1.227   1.375   5.157 -0.0099  0.6302 -0.1441
 1864SOL     OW17227   4.084   3.066   3.296  0.5247 -0.2154  0.0244
 1864SOL    HW117228   4.167   3.025   3.322  1.6056  2.0001  0.0968
 1864SOL    HW217229   4.105   3.104   3.211 -3.2308  0.7563 -0.4606
 1865SOL     OW17230   4.167   2.150  16.448  0.2512 -0.5409 -0.5417
 1865SOL    HW117231   4.208   2.207  16.513 -2.7573 -0.6958  1.5182
 1865SOL    HW217232   4.075   2.172  16.459  0.4560 -0.3985  0.9692
 1866SOL     OW17233   3.449   1.446   2.190 -0.4296  0.0685 -0.1040
 1866SOL    HW117234   3.491   1.373   2.143 -1.6781 -0.4541 -0.4036
 1866SOL    HW217235   3.356   1.427   2.183 -0.3210 -0.5262  0.0787
 1867SOL     OW17236   3.043   4.086   4.970  0.1937  0.3244  0.4832
 1867SOL    HW117237   3.117   4.121   5.021  0.7152 -0.5794  0.3441
 1867SOL    HW217238   2.980   4.155   4.991 -0.5787 -0.6990  1.5139
 1868SOL     OW17239   2.320   4.299   1.662 -0.0889 -0.1366 -0.8054
 1868SOL    HW117240   2.310   4.368   1.596 -2.6759 -1.5852 -1.9624
 1868SOL    HW217241   2.263   4.336   1.730  0.7059 -1.9653  0.8452
 1869SOL     OW17242   1.651   2.328  16.604 -0.1151 -0.3483  0.4051
 1869SOL    HW117243   1.723   2.267  16.615  0.4721  0.1604 -0.6979
 1869SOL    HW217244   1.579   2.292  16.656  1.3701 -1.3565  1.7707
 1870SOL     OW17245   3.247   0.215   3.114 -0.0664 -0.4841 -0.0912
 1870SOL    HW117246   3.286   0.223   3.201 -0.9769 -1.2089  0.3761
 1870SOL    HW217247   3.177   0.278   3.126 -0.8811 -1.4126 -0.0215
 1871SOL     OW17248   2.933   2.153  14.951  0.4233  0.2967 -0.0134
 1871SOL    HW117249   2.858   2.185  15.001 -1.4050 -0.4520 -2.2806
 1871SOL    HW217250   2.976   2.234  14.923  1.1108 -0.0959 -0.1079
 1872SOL     OW17251   3.267   4.085   1.588 -0.4702  0.1858 -0.4376
 1872SOL    HW117252   3.232   4.020   1.649  1.0072 -1.3577 -1.2267
 1872SOL    HW217253   3.203   4.070   1.519  0.4280  3.3770 -1.9620
 1873SOL     OW17254   2.304   1.716   1.093  0.0876  0.7406  0.3641
 1873SOL    HW117255   2.254   1.797   1.106 -1.6284 -0.1598 -0.6671
 1873SOL    HW217256   2.242   1.654   1.132 -0.1326  0.0433 -1.1161
 1874SOL     OW17257   3.948   1.853   3.007 -0.1305  0.1344 -0.0965
 1874SOL    HW117258   3.904   1.932   3.038  1.0141  1.1713 -1.1107
 1874SOL    HW217259   3.905   1.782   3.055 -0.6869  0.6902  0.2283
 1875SOL     OW17260   4.289   2.727   4.128 -0.5925  0.0186  0.2315
 1875SOL    HW117261   4.372   2.717   4.080 -0.4157  0.6787  0.4047
 1875SOL    HW217262   4.231   2.673   4.074 -0.1135 -0.3647  0.1029
 1876SOL     OW17263   3.319   3.756   6.464  0.2971 -0.3705 -0.1468
 1876SOL    HW117264   3.378   3.746   6.538  0.3918  0.2635 -0.1369
 1876SOL    HW217265   3.315   3.664   6.436 -2.6370 -0.3437  0.1279
 1877SOL     OW17266   0.054   3.395   3.064  0.6922 -0.2656 -0.0206
 1877SOL    HW117267   4.737   3.363   2.993  1.7078 -0.0555 -0.9082
 1877SOL    HW217268   0.119   3.325   3.071  1.1423 -0.0710 -2.1562
 1878SOL     OW17269   0.002   2.025   6.246  0.7032 -0.1882  0.6390
 1878SOL    HW117270   0.080   2.080   6.252  0.3360  0.1017  2.8106
 1878SOL    HW217271   4.669   2.081   6.277 -0.3390 -1.0405 -0.2151
 1879SOL     OW17272   3.887   4.112   7.421 -0.8238 -0.4139 -0.1581
 1879SOL    HW117273   3.889   4.016   7.414 -1.1647 -0.3352 -1.3047
 1879SOL    HW217274   3.982   4.125   7.420 -0.9209  0.4787  2.6865
 1880SOL     OW17275   0.238   0.461   3.008 -0.5492  0.1057  0.2272
 1880SOL    HW117276   0.239   0.365   3.009 -1.2184  0.1073  2.3665
 1880SOL    HW217277   0.298   0.496   3.074  0.1477  1.4614 -1.1361
 1881SOL     OW17278   4.658   3.672   8.737 -0.4777  0.0176  0.0330
 1881SOL    HW117279   4.629   3.652   8.648  2.5109 -0.7336 -0.7628
 1881SOL    HW217280   0.010   3.698   8.715  0.1383  1.0064  3.8088
 1882SOL     OW17281   0.725   3.445  11.194 -0.0907  0.3645 -0.4334
 1882SOL    HW117282   0.816   3.462  11.218  0.6896 -1.1794 -2.3525
 1882SOL    HW217283   0.736   3.352  11.176 -1.7218  0.0483  0.2266
 1883SOL     OW17284   0.881   3.687   6.639  0.1721  0.1888 -0.5152
 1883SOL    HW117285   0.926   3.614   6.598 -0.0281  0.1066 -0.5881
 1883SOL    HW217286   0.791   3.657   6.627  0.4288 -1.0404  0.7449
 1884SOL     OW17287   0.198   4.597   8.754 -0.3505 -0.3869  0.3071
 1884SOL    HW117288   0.219   4.504   8.752  0.4426 -0.1876 -0.4480
 1884SOL    HW217289   0.284   4.631   8.730 -0.8754  2.7006  2.8201
 1885SOL     OW17290   2.877   0.316   5.799 -0.0878  0.3812  0.1212
 1885SOL    HW117291   2.926   0.398   5.801  1.7311 -0.6635 -1.0814
 1885SOL    HW217292   2.829   0.329   5.717 -1.7451  2.2182  1.3860
 1886SOL     OW17293   1.419   3.054  13.892  0.0073  0.7425  0.2361
 1886SOL    HW117294   1.467   2.972  13.906 -0.3236  0.4759 -0.2019
 1886SOL    HW217295   1.426   3.060  13.797  1.8979 -0.0824  0.3270
 1887SOL     OW17296   3.992   0.997  17.020 -0.3369  0.4327  0.0102
 1887SOL    HW117297   4.058   0.937  16.986 -2.4405 -1.3558 -0.9334
 1887SOL    HW217298   3.972   0.966  17.109 -2.6137  0.4242 -0.5106
 1888SOL     OW17299   2.425   1.767   1.571  0.2430 -0.4603  0.1029
 1888SOL    HW117300   2.430   1.764   1.475  0.0322  0.7618  0.0516
 1888SOL    HW217301   2.480   1.843   1.583 -3.0066  1.4571  2.9619
 1889SOL     OW17302   0.179   1.326   8.244 -0.7009 -0.4129  0.4055
 1889SOL    HW117303   0.151   1.375   8.167 -1.7350 -1.6918 -0.0173
 1889SOL    HW217304   0.249   1.386   8.271 -0.9211  1.3838 -2.9772
 1890SOL     OW17305   3.183   1.895   6.922  0.2851 -0.2029  0.0345
 1890SOL    HW117306   3.138   1.811   6.915  0.7220 -0.5917  1.8473
 1890SOL    HW217307   3.108   1.947   6.953 -0.2062 -0.1137 -1.3104
 1891SOL     OW17308   1.243   1.547  15.350  0.0058  0.2513  0.0356
 1891SOL    HW117309   1.193   1.476  15.309  0.4026  0.8753 -1.5225
 1891SOL    HW217310   1.260   1.616  15.286 -1.3211 -0.9447 -1.6159
 1892SOL     OW17311   4.358   1.294   2.511  0.3628 -0.2648 -0.4595
 1892SOL    HW117312   4.365   1.273   2.604 -3.1606 -0.2727 -0.1725
 1892SOL    HW217313   4.440   1.259   2.477 -0.2417 -0.0727 -2.1645
 1893SOL     OW17314   2.324   3.428   3.035  0.1034 -0.8791 -0.4752
 1893SOL    HW117315   2.324   3.431   2.940 -0.4435  0.0098 -0.4465
 1893SOL    HW217316   2.256   3.489   3.064  1.1047 -0.6216  1.3396
 1894SOL     OW17317   1.832   4.130   5.359  0.4275  0.1011 -0.0974
 1894SOL    HW117318   1.829   4.193   5.431  0.9975 -0.9196  0.8138
 1894SOL    HW217319   1.789   4.053   5.397  1.8816 -0.3792  0.6007
 1895SOL     OW17320   1.419   4.061   2.229  0.4251 -0.0023  0.4898
 1895SOL    HW117321   1.367   4.028   2.301  0.0303 -1.6128 -0.5381
 1895SOL    HW217322   1.501   4.012   2.236  0.7733  0.3761 -0.8450
 1896SOL     OW17323   2.217   1.261   4.074 -0.4218 -0.4815 -0.0662
 1896SOL    HW117324   2.127   1.293   4.068  0.3801  1.6563 -0.7055
 1896SOL    HW217325   2.234   1.240   3.982  2.7226 -2.1476  0.9178
 1897SOL     OW17326   4.136   3.546   3.633 -0.4352  0.1560 -0.2827
 1897SOL    HW117327   4.178   3.544   3.547  0.0781  3.6680 -0.1342
 1897SOL    HW217328   4.166   3.632   3.663  0.1778 -0.8563  2.0191
 1898SOL     OW17329   1.307   1.235   3.292 -0.5337  0.5154  0.2062
 1898SOL    HW117330   1.293   1.282   3.210 -1.0758  1.8404  1.0595
 1898SOL    HW217331   1.260   1.287   3.357  0.1334  0.3135  0.8521
 1899SOL     OW17332   1.974   3.930  11.493  0.2900 -0.5250 -0.1235
 1899SOL    HW117333   2.007   3.957  11.578 -1.9017  2.0112 -0.1086
 1899SOL    HW217334   1.922   4.009  11.482  1.3669  0.0320 -1.2037
 1900SOL     OW17335   1.031   4.283   8.378 -0.4254 -0.2123  0.0038
 1900SOL    HW117336   1.110   4.230   8.372 -0.0445  0.1652  1.5357
 1900SOL    HW217337   0.963   4.218   8.364 -1.0916  0.7905 -1.3168
 1901SOL     OW17338   4.328   2.487  12.741 -0.3000 -0.4350  0.9298
 1901SOL    HW117339   4.404   2.449  12.784  0.9616  2.6818  1.4408
 1901SOL    HW217340   4.296   2.551  12.805  2.0568  0.7199  0.9361
 1902SOL     OW17341   3.608   1.648   6.381  0.0811  0.1108  0.7725
 1902SOL    HW117342   3.520   1.656   6.418  0.0275  0.0851  0.6487
 1902SOL    HW217343   3.631   1.732   6.343  1.8926 -1.1130 -0.7943
 1903SOL     OW17344   0.327   1.190   1.460  0.2041 -0.0008  0.2998
 1903SOL    HW117345   0.278   1.183   1.378  0.9153 -0.2966 -0.1000
 1903SOL    HW217346   0.267   1.241   1.515 -1.8930 -0.7022 -1.3533
 1904SOL     OW17347   1.449   2.222  16.748 -0.7377 -0.0604  0.3032
 1904SOL    HW117348   1.450   2.269  16.831  1.1078  2.4250 -1.1161
 1904SOL    HW217349   1.357   2.199  16.732 -0.9483  0.2126  1.1530
 1905SOL     OW17350   1.604   2.332  14.665  0.1263 -0.5538 -0.1829
 1905SOL    HW117351   1.649   2.411  14.695  1.4438 -1.0447 -0.8672
 1905SOL    HW217352   1.560   2.368  14.588  1.5062  0.6767 -0.3907
 1906SOL     OW17353   2.080   3.003  10.210 -0.2885 -0.1680  0.0166
 1906SOL    HW117354   2.075   2.990  10.304 -0.6273 -0.4697 -0.0408
 1906SOL    HW217355   2.087   2.912  10.180 -1.5358  0.7762 -3.2299
 1907SOL     OW17356   1.852   1.665  15.829 -0.1450  0.2070  0.3843
 1907SOL    HW117357   1.895   1.654  15.913 -0.8105  1.4668  0.8934
 1907SOL    HW217358   1.829   1.758  15.831 -0.2373  0.1667  1.3358
 1908SOL     OW17359   0.127   1.175   3.044  0.6991 -0.0643 -0.3190
 1908SOL    HW117360   0.102   1.244   3.104 -0.0179  1.0077 -1.8596
 1908SOL    HW217361   0.160   1.112   3.108  1.4138  0.7864  0.1590
 1909SOL     OW17362   3.798   0.911   5.546  0.2734 -0.1421 -0.5044
 1909SOL    HW117363   3.822   0.833   5.597 -0.4541 -1.9960 -2.9733
 1909SOL    HW217364   3.862   0.976   5.573 -2.6861  1.3230  3.0126
 1910SOL     OW17365   1.725   1.281   9.255  0.0698  0.5621  0.0558
 1910SOL    HW117366   1.761   1.350   9.309 -0.4379  0.6559  0.2754
 1910SOL    HW217367   1.696   1.325   9.175 -1.1844 -2.3254 -1.0849
 1911SOL     OW17368   0.078   4.084   9.489  0.3420  0.2472  0.1045
 1911SOL    HW117369   0.056   4.151   9.554  2.5362 -0.1408  1.2473
 1911SOL    HW217370   0.078   4.139   9.411  0.1746 -1.6220 -1.2090
 1912SOL     OW17371   1.583   4.527   3.660 -0.4639 -0.6694  0.3272
 1912SOL    HW117372   1.528   4.472   3.604  0.0878 -1.4511  0.5481
 1912SOL    HW217373   1.515   4.571   3.711 -0.8825 -1.2750  0.2866
 1913SOL     OW17374   4.700   0.926  10.924 -0.4122  0.5783 -0.1331
 1913SOL    HW117375   4.643   0.864  10.970 -2.4999  1.0004 -2.1280
 1913SOL    HW217376   4.690   1.009  10.970 -1.6791  1.6402 -2.3168
 1914SOL     OW17377   0.176   2.004   5.823  0.0901  0.2977  1.1687
 1914SOL    HW117378   0.226   2.008   5.741 -2.1043  0.1514 -0.1689
 1914SOL    HW217379   0.093   1.968   5.792  1.3178 -2.4050  0.9460
 1915SOL     OW17380   4.684   2.670   5.850  0.5318  0.1691  0.7111
 1915SOL    HW117381   4.733   2.590   5.831 -1.8390 -0.8561 -1.1094
 1915SOL    HW217382   4.602   2.643   5.892 -0.6471  0.2391 -1.5239
 1916SOL     OW17383   3.130   1.775   3.433 -0.0952 -0.6460  0.0957
 1916SOL    HW117384   3.201   1.751   3.373  0.3829 -1.0596  0.8296
 1916SOL    HW217385   3.108   1.860   3.395 -0.6759  0.3192  2.6015
 1917SOL     OW17386   2.683   0.803   8.805 -0.1180  0.3255 -0.5623
 1917SOL    HW117387   2.726   0.736   8.858  2.4317  2.4163 -0.0195
 1917SOL    HW217388   2.752   0.838   8.748  0.1695  2.9439  1.3987
 1918SOL     OW17389   0.965   1.829   8.457 -0.7863  0.1220  0.0844
 1918SOL    HW117390   0.951   1.902   8.397  1.0363  0.0148 -0.4904
 1918SOL    HW217391   0.936   1.757   8.402  1.2414  1.7664 -3.1772
 1919SOL     OW17392   4.456   2.143   0.068  0.0238  0.2730  0.2132
 1919SOL    HW117393   4.458   2.048   0.080  0.3183  0.0149 -1.7980
 1919SOL    HW217394   4.366   2.156   0.037 -0.7425 -2.2760  1.4210
 1920SOL     OW17395   1.237   1.116   2.188  0.2484  0.0668 -0.2452
 1920SOL    HW117396   1.193   1.123   2.272  0.8409  1.5348 -0.0471
 1920SOL    HW217397   1.294   1.040   2.201 -1.5088 -1.2620 -0.4207
 1921SOL     OW17398   1.894   2.513   4.106 -1.6154 -0.1976  0.0429
 1921SOL    HW117399   1.890   2.608   4.097 -0.0720 -0.1415 -0.0435
 1921SOL    HW217400   1.805   2.500   4.138 -1.4693  0.9576  0.9143
 1922SOL     OW17401   3.240   2.955  15.601  0.1244  0.1645  0.4551
 1922SOL    HW117402   3.321   2.951  15.550 -0.0825  2.3223 -0.0603
 1922SOL    HW217403   3.275   2.921  15.684  0.8775 -0.4755 -0.1232
 1923SOL     OW17404   0.473   2.784   1.210  0.7776 -0.0978  0.2522
 1923SOL    HW117405   0.487   2.794   1.116 -1.5905  0.6782 -0.0178
 1923SOL    HW217406   0.533   2.849   1.245  1.1361 -1.0944  1.4872
 1924SOL     OW17407   3.283   0.443  13.346  0.0694 -0.6079 -0.0306
 1924SOL    HW117408   3.230   0.469  13.421 -2.2114 -0.7630 -1.5734
 1924SOL    HW217409   3.277   0.348  13.336  0.0383 -0.4213 -1.7932
 1925SOL     OW17410   2.890   3.410  11.380  0.3040 -0.3108 -0.1062
 1925SOL    HW117411   2.844   3.333  11.346 -1.1704 -1.1503  3.7842
 1925SOL    HW217412   2.921   3.381  11.466  1.7389 -0.5754 -0.7217
 1926SOL     OW17413   3.404   2.253   2.707 -0.7109 -0.0073  0.1875
 1926SOL    HW117414   3.423   2.212   2.623 -0.2785  0.0590  0.2535
 1926SOL    HW217415   3.336   2.319   2.688 -1.0333  0.0983  1.7028
 1927SOL     OW17416   3.409   2.035  12.657 -0.3386 -0.0092  0.0887
 1927SOL    HW117417   3.392   1.954  12.704  0.2965  0.2583  0.7879
 1927SOL    HW217418   3.492   2.069  12.690  0.2680 -0.3037 -1.1465
 1928SOL     OW17419   4.342   0.231   9.062 -0.4764  1.0213 -0.8278
 1928SOL    HW117420   4.375   0.284   9.134  0.4934  0.6588 -1.0111
 1928SOL    HW217421   4.374   0.295   8.998 -0.9701  2.3830  0.2828
 1929SOL     OW17422   3.957   1.076   9.008 -0.1097  0.5117  0.0972
 1929SOL    HW117423   4.025   1.110   9.066 -1.9486  1.0206  1.9473
 1929SOL    HW217424   4.000   1.082   8.923  1.6646  0.5384  1.0012
 1930SOL     OW17425   2.682   1.386   3.286  0.2536  0.0745 -0.0044
 1930SOL    HW117426   2.659   1.475   3.262 -0.6588 -0.0151  0.5434
 1930SOL    HW217427   2.601   1.336   3.290  0.1831  0.3773  2.4530
 1931SOL     OW17428   1.399   0.658  12.720 -0.5744 -0.8209  0.4704
 1931SOL    HW117429   1.303   0.661  12.719 -0.4039  4.2887  0.4064
 1931SOL    HW217430   1.403   0.580  12.664 -2.2242 -0.9204  0.4735
 1932SOL     OW17431   1.177   4.723   6.526  0.0089 -0.0453 -0.0092
 1932SOL    HW117432   1.268   4.728   6.556  0.7291  0.2773 -2.2696
 1932SOL    HW217433   1.188   4.659   6.455  0.2325  0.1245 -0.1270
 1933SOL     OW17434   4.542   0.013   9.386  0.0103  0.2718 -0.2503
 1933SOL    HW117435   4.483   4.706   9.326  0.7562  0.9971 -1.5114
 1933SOL    HW217436   4.595   0.067   9.328  1.9718 -0.1217  1.1733
 1934SOL     OW17437   0.894   1.458  15.367 -0.5063 -0.4671 -0.5962
 1934SOL    HW117438   0.908   1.393  15.299 -1.6661 -0.3692 -0.9360
 1934SOL    HW217439   0.867   1.532  15.312  2.0673  1.2203  0.3761
 1935SOL     OW17440   0.732   4.414  16.238 -0.1056 -0.8308 -0.1642
 1935SOL    HW117441   0.654   4.360  16.227 -1.6489  1.1204  1.1959
 1935SOL    HW217442   0.800   4.350  16.218  1.2368 -0.0175  1.7906
 1936SOL     OW17443   0.973   1.999   4.672 -0.4370 -0.5371 -0.2146
 1936SOL    HW117444   0.991   1.980   4.764 -3.6225 -0.4306  0.4553
 1936SOL    HW217445   0.879   2.014   4.686 -0.3808  0.4785 -0.9929
 1937SOL     OW17446   4.574   1.697   3.312  0.0464  0.1949 -0.3216
 1937SOL    HW117447   4.487   1.712   3.348 -0.3436 -0.1681 -1.1177
 1937SOL    HW217448   4.627   1.754   3.369  2.2856 -2.2546  0.0410
 1938SOL     OW17449   2.935   3.473   1.935  0.3278 -0.0286  0.3159
 1938SOL    HW117450   2.906   3.492   1.846  0.4618  0.5535  0.3961
 1938SOL    HW217451   2.940   3.377   1.936  3.3242  0.1180  0.0108
 1939SOL     OW17452   2.489   1.973  12.825  0.0131 -0.6215 -0.1829
 1939SOL    HW117453   2.443   1.915  12.764 -1.3112  0.1260  0.1146
 1939SOL    HW217454   2.549   2.021  12.769  2.2608 -1.4848  1.4993
 1940SOL     OW17455   2.574   1.931   9.596 -0.1874  0.2722  0.1345
 1940SOL    HW117456   2.667   1.946   9.613 -1.0868  3.8900  1.7741
 1940SOL    HW217457   2.533   1.926   9.682 -2.4988 -2.8543 -1.1565
 1941SOL     OW17458   0.743   2.227   4.399  0.2185 -0.2044  0.8147
 1941SOL    HW117459   0.733   2.313   4.439 -1.0158 -0.1540  0.3851
 1941SOL    HW217460   0.829   2.238   4.359 -0.6226 -1.7495 -1.4467
 1942SOL     OW17461   1.046   4.066  16.417  0.1327 -0.4941 -0.4454
 1942SOL    HW117462   1.021   4.075  16.509 -0.6777 -0.4134 -0.6677
 1942SOL    HW217463   1.002   3.984  16.396  1.9025 -1.7905  0.9137
 1943SOL     OW17464   2.129   3.254   0.031  0.5058 -0.7629  0.4595
 1943SOL    HW117465   2.197   3.248  17.713 -0.5313 -2.6561 -0.4346
 1943SOL    HW217466   2.126   3.170   0.078 -0.6508 -0.4175  0.9870
 1944SOL     OW17467   3.769   2.425   1.615 -0.2326 -0.5054  0.3444
 1944SOL    HW117468   3.771   2.520   1.613  0.5308 -0.5300  0.1444
 1944SOL    HW217469   3.764   2.398   1.707  1.3992 -0.7895  0.3341
 1945SOL     OW17470   1.421   2.748   0.627 -0.5484  0.3253  0.3215
 1945SOL    HW117471   1.478   2.786   0.694 -0.3109 -0.3784  0.5204
 1945SOL    HW217472   1.490   2.695   0.589 -1.5937 -2.3315  2.1040
 1946SOL     OW17473   0.113   1.659   2.525  0.5060  0.0712  0.6175
 1946SOL    HW117474   0.195   1.681   2.568  1.3451 -0.2308 -0.8481
 1946SOL    HW217475   0.051   1.633   2.594  1.5741 -4.2905 -0.0329
 1947SOL     OW17476   1.760   1.411   4.747 -0.9994 -0.2337 -0.0706
 1947SOL    HW117477   1.821   1.470   4.702 -1.6491  0.0310 -0.6041
 1947SOL    HW217478   1.771   1.330   4.697  2.7266  1.3887 -1.8627
 1948SOL     OW17479   4.017   2.004   1.903  0.3233 -0.0946  0.2236
 1948SOL    HW117480   4.004   2.021   1.810 -1.9945 -1.9821  0.1862
 1948SOL    HW217481   3.961   2.076   1.932  1.0488 -0.3472  2.2413
 1949SOL     OW17482   0.647   0.836   4.739  0.0715 -0.6622 -0.2192
 1949SOL    HW117483   0.716   0.884   4.694 -2.6171  1.1846 -2.3541
 1949SOL    HW217484   0.580   0.902   4.753  1.4831  0.1872  2.6733
 1950SOL     OW17485   2.988   0.175  10.887 -0.4075 -0.2258 -0.4250
 1950SOL    HW117486   2.937   0.114  10.940 -1.9242  0.9450 -0.5636
 1950SOL    HW217487   3.001   0.136  10.801  0.6534  0.7576 -0.7099
 1951SOL     OW17488   2.524   2.124   8.866  0.0674  0.1524 -0.4036
 1951SOL    HW117489   2.570   2.141   8.784 -1.5306 -1.6314 -1.6727
 1951SOL    HW217490   2.596   2.092   8.921 -1.3919  0.0621  1.4247
 1952SOL     OW17491   2.014   2.982   3.529 -0.0104 -0.0271  0.6368
 1952SOL    HW117492   1.964   2.905   3.502 -0.2900 -0.6449  2.9790
 1952SOL    HW217493   1.977   3.054   3.478  1.4003  0.9599  1.0082
 1953SOL     OW17494   2.348   4.506   6.731 -0.0421  0.0794  0.2464
 1953SOL    HW117495   2.301   4.536   6.653  1.8466 -0.6382 -1.1781
 1953SOL    HW217496   2.431   4.475   6.693 -0.2422 -0.7360  0.4747
 1954SOL     OW17497   1.076   3.765   1.948  0.0436 -0.1488 -0.0184
 1954SOL    HW117498   1.062   3.759   1.854  0.5089 -3.2280  0.1325
 1954SOL    HW217499   1.165   3.729   1.954  0.0686  0.0476  0.8553
 1955SOL     OW17500   4.171   4.127   2.363 -0.3176  0.4786  0.2197
 1955SOL    HW117501   4.207   4.190   2.301  0.2374 -0.3580 -0.3111
 1955SOL    HW217502   4.116   4.074   2.305  1.6415  0.7000 -1.8478
 1956SOL     OW17503   1.242   4.622   1.698 -0.1533  0.9272  0.2794
 1956SOL    HW117504   1.248   4.535   1.736 -0.2823 -0.1712 -2.2060
 1956SOL    HW217505   1.331   4.646   1.673 -0.7742  0.6926 -2.1784
 1957SOL     OW17506   3.896   2.346   9.523 -0.2896  0.5763 -0.1320
 1957SOL    HW117507   3.951   2.340   9.601 -0.5137  1.6807  0.1198
 1957SOL    HW217508   3.960   2.328   9.454 -0.0135  3.8187 -0.7639
 1958SOL     OW17509   1.412   1.536   8.278  0.3955  0.3205 -0.6233
 1958SOL    HW117510   1.354   1.577   8.214  0.0510 -0.9648 -1.1366
 1958SOL    HW217511   1.454   1.469   8.225 -3.1020 -2.3475 -0.0114
 1959SOL     OW17512   0.833   1.171  13.603  0.3901 -0.1241  0.5400
 1959SOL    HW117513   0.775   1.212  13.668 -0.4998 -0.5512  0.0046
 1959SOL    HW217514   0.777   1.113  13.552 -0.4555  1.2343 -0.0785
 1960SOL     OW17515   4.042   4.189   8.083 -0.6302  0.9604  0.1056
 1960SOL    HW117516   4.117   4.165   8.029 -0.9542 -2.4356  1.1721
 1960SOL    HW217517   4.035   4.279   8.050 -0.9367  0.9787  0.2177
 1961SOL     OW17518   4.273   4.522   3.406 -0.7531  0.1032  0.0773
 1961SOL    HW117519   4.232   4.607   3.388  2.3769  1.9382  1.6439
 1961SOL    HW217520   4.295   4.531   3.498 -0.9450  0.5316  0.0795
 1962SOL     OW17521   3.817   1.303   8.719  0.1751 -0.5069 -0.7737
 1962SOL    HW117522   3.862   1.251   8.653 -1.0858 -1.5479 -0.8179
 1962SOL    HW217523   3.798   1.385   8.673 -1.0672 -0.9017 -0.9554
 1963SOL     OW17524   1.997   0.964   4.095 -0.5802  0.1039  0.7266
 1963SOL    HW117525   1.907   0.933   4.085 -0.1936 -2.4307  5.0263
 1963SOL    HW217526   2.018   0.971   4.002  1.6979 -2.4990  1.0613
 1964SOL     OW17527   0.938   3.465   4.687  0.3791 -0.0766  0.2952
 1964SOL    HW117528   0.884   3.470   4.609 -0.8599  0.2586  1.1728
 1964SOL    HW217529   0.992   3.387   4.674 -1.6641 -1.1275 -1.8545
 1965SOL     OW17530   3.119   2.685   2.375  0.3937 -0.2060  0.5143
 1965SOL    HW117531   3.199   2.634   2.372  0.0155 -0.7636 -0.0029
 1965SOL    HW217532   3.102   2.673   2.469  1.8220 -1.0944  0.6510
 1966SOL     OW17533   3.136   1.508   2.468  0.5579 -0.0372  0.2843
 1966SOL    HW117534   3.175   1.423   2.447  1.8789  1.1492 -2.0444
 1966SOL    HW217535   3.205   1.542   2.525 -0.3808  1.1889  0.6856
 1967SOL     OW17536   4.288   4.656   2.477 -0.2027  0.4494  0.1605
 1967SOL    HW117537   4.206   4.669   2.525 -0.4834  3.0865 -1.0264
 1967SOL    HW217538   4.278   4.723   2.409 -0.0268 -1.1216 -1.4293
 1968SOL     OW17539   2.466   3.429   5.417 -0.6542 -0.2638 -0.1876
 1968SOL    HW117540   2.400   3.489   5.453 -0.6130 -0.4972  0.2818
 1968SOL    HW217541   2.478   3.365   5.487  0.2964 -1.5259 -1.5252
 1969SOL     OW17542   0.485   1.405   2.777 -0.2750 -0.0724  0.0300
 1969SOL    HW117543   0.463   1.349   2.851 -1.6821 -1.6407 -1.5745
 1969SOL    HW217544   0.439   1.479   2.815 -0.0290  0.2569 -0.3021
 1970SOL     OW17545   4.104   0.768  11.278 -0.5198 -0.2405 -0.3917
 1970SOL    HW117546   4.026   0.731  11.235 -0.8025  0.1959 -0.2538
 1970SOL    HW217547   4.086   0.769  11.372 -0.1556  0.3694 -0.3287
 1971SOL     OW17548   2.629   1.016  12.758 -0.0751 -0.4445  0.2915
 1971SOL    HW117549   2.639   1.060  12.673 -0.5746  0.2940  0.6113
 1971SOL    HW217550   2.671   0.931  12.746  0.4751  0.1104 -1.7390
 1972SOL     OW17551   0.102   1.720  16.076  0.0199  0.1013 -0.5240
 1972SOL    HW117552   0.081   1.813  16.079 -0.4137 -0.0509  0.9184
 1972SOL    HW217553   0.017   1.680  16.060  1.2657 -3.2338  1.1458
 1973SOL     OW17554   0.592   1.968  11.646 -0.0075  1.0746  0.5208
 1973SOL    HW117555   0.667   1.909  11.652 -0.1313  0.8837  0.1064
 1973SOL    HW217556   0.545   1.957  11.564  0.3999  0.2960  0.4005
 1974SOL     OW17557   0.067   0.240   6.242  0.7805 -0.0510 -0.0303
 1974SOL    HW117558   0.158   0.228   6.269  1.3154  0.1198 -1.7716
 1974SOL    HW217559   0.050   0.151   6.210 -1.0196  0.2738  0.0364
 1975SOL     OW17560   3.275   3.202  13.087  0.6698  0.4067 -0.0267
 1975SOL    HW117561   3.268   3.295  13.066  0.7689  0.7003  1.2463
 1975SOL    HW217562   3.343   3.165  13.029  0.0231 -0.1990 -0.3929
 1976SOL     OW17563   1.620   4.709  17.641  0.0524 -0.0610  0.0968
 1976SOL    HW117564   1.620   0.004  17.551 -2.7993 -2.5106 -0.8119
 1976SOL    HW217565   1.535   0.001  17.673 -0.8033  0.9346 -3.1051
 1977SOL     OW17566   1.111   1.096   0.987 -0.1395 -0.3055 -0.0142
 1977SOL    HW117567   1.111   1.020   0.929  1.7519  0.4510 -1.0028
 1977SOL    HW217568   1.204   1.118   0.987  0.1394 -1.4978  0.1299
 1978SOL     OW17569   0.809   2.444   3.677  0.0833  0.1742  0.4126
 1978SOL    HW117570   0.873   2.463   3.608  0.8703 -2.9060  0.2673
 1978SOL    HW217571   0.732   2.494   3.651 -0.0864  0.0020  0.5896
 1979SOL     OW17572   2.117   3.758  16.999  0.2284  0.6150  0.0061
 1979SOL    HW117573   2.200   3.763  16.952  1.1043  0.2630  1.5136
 1979SOL    HW217574   2.056   3.815  16.951  0.0047  0.0778 -0.3483
 1980SOL     OW17575   1.947   1.550   4.628  0.1464  0.6056  0.5320
 1980SOL    HW117576   2.037   1.547   4.596  0.6205 -0.2367  1.9356
 1980SOL    HW217577   1.905   1.617   4.574  1.5720  0.7658 -0.3633
 1981SOL     OW17578   3.130   2.167  12.708  0.2814  0.3445 -0.3423
 1981SOL    HW117579   3.100   2.111  12.779 -0.1075 -0.1709 -0.9107
 1981SOL    HW217580   3.214   2.122  12.696  1.4313  2.4358 -0.0612
 1982SOL     OW17581   3.835   1.647  13.274 -0.5546  0.0524 -0.0785
 1982SOL    HW117582   3.785   1.725  13.248  0.9685  0.6293 -1.2622
 1982SOL    HW217583   3.893   1.666  13.348 -0.0370  0.5163 -0.5983
 1983SOL     OW17584   4.006   2.772  17.520 -0.4974  0.1269  0.1297
 1983SOL    HW117585   3.964   2.783  17.435 -2.0910  1.6104  1.1000
 1983SOL    HW217586   4.034   2.681  17.508  2.3231  1.0579 -0.3695
 1984SOL     OW17587   2.046   2.354   5.034 -0.0937 -0.8124 -0.2967
 1984SOL    HW117588   2.083   2.317   5.115  0.8773  0.0274 -0.3557
 1984SOL    HW217589   2.110   2.422   5.016  2.0326 -2.8432 -0.4205
 1985SOL     OW17590   1.679   1.941   8.329 -0.2158  0.7904  0.2294
 1985SOL    HW117591   1.754   1.971   8.379 -0.1841  0.1469  0.5664
 1985SOL    HW217592   1.599   1.980   8.365  1.0413  2.6794  0.9522
 1986SOL     OW17593   1.929   1.104   9.263  0.3114 -0.0277 -0.3453
 1986SOL    HW117594   1.866   1.176   9.269 -2.0141 -2.0229 -1.0112
 1986SOL    HW217595   1.990   1.127   9.192  0.7832  1.7464  0.6232
 1987SOL     OW17596   4.099   3.925  11.966 -0.3197  0.6242 -0.0972
 1987SOL    HW117597   4.100   3.909  12.060 -0.6267  0.6765 -0.0851
 1987SOL    HW217598   4.005   3.934  11.950 -0.4881  0.9009  1.0572
 1988SOL     OW17599   1.978   3.796  16.226 -0.1660 -0.0610 -0.1562
 1988SOL    HW117600   1.961   3.715  16.177 -1.1465  1.5597 -2.5062
 1988SOL    HW217601   2.043   3.835  16.168  0.5456  0.2002  0.8255
 1989SOL     OW17602   4.107   2.368   9.092 -0.7075  0.1689  0.0107
 1989SOL    HW117603   4.185   2.384   9.040 -2.2465  1.4272 -1.9346
 1989SOL    HW217604   4.033   2.405   9.043 -0.3600  2.6562  1.3364
 1990SOL     OW17605   2.737   1.470  10.117 -0.0508 -0.3357 -0.3296
 1990SOL    HW117606   2.782   1.411  10.057 -0.1865 -2.6531  1.8603
 1990SOL    HW217607   2.722   1.542  10.056 -1.2717  0.1649  0.5658
 1991SOL     OW17608   1.739   0.778   1.239  0.1906  0.6355 -0.1881
 1991SOL    HW117609   1.695   0.746   1.160  0.3386 -1.1411  0.4556
 1991SOL    HW217610   1.823   0.737   1.218  1.2634  1.3954  2.6732
 1992SOL     OW17611   0.533   2.245   2.869 -0.5039 -0.1022  0.6871
 1992SOL    HW117612   0.547   2.165   2.818 -1.0214  0.0496  0.3125
 1992SOL    HW217613   0.506   2.303   2.798  2.3226  0.0915 -0.2204
 1993SOL     OW17614   0.312   1.424   8.974 -0.7473 -0.0197  0.2135
 1993SOL    HW117615   0.275   1.449   8.889 -0.1342 -1.2754 -0.4237
 1993SOL    HW217616   0.287   1.332   8.983 -1.0183  0.1567  1.2398
 1994SOL     OW17617   3.012   2.134   6.298 -0.1425  0.1712 -0.0407
 1994SOL    HW117618   3.077   2.182   6.246 -0.3484  0.7027  0.1973
 1994SOL    HW217619   2.958   2.211   6.315 -0.7674 -0.9449  2.9480
 1995SOL     OW17620   2.586   0.935  14.609 -0.4803 -0.3389 -0.2983
 1995SOL    HW117621   2.564   1.007  14.667  0.0461 -1.5538  1.4020
 1995SOL    HW217622   2.608   0.867  14.673  3.0783  0.2739 -0.8414
 1996SOL     OW17623   2.614   1.202   3.982 -0.1459 -0.1350  0.7344
 1996SOL    HW117624   2.555   1.241   3.918 -0.7456 -0.7351  0.9235
 1996SOL    HW217625   2.649   1.130   3.930  1.0615  1.1569 -0.2763
 1997SOL     OW17626   2.980   1.098   8.126 -0.0143  0.3532  0.6611
 1997SOL    HW117627   2.943   1.108   8.214 -0.3622  0.5561  0.4918
 1997SOL    HW217628   3.023   1.015   8.146 -0.3822 -0.2018 -0.8456
 1998SOL     OW17629   2.032   1.308   5.357 -0.2430  0.0568 -0.5236
 1998SOL    HW117630   1.960   1.352   5.311  1.3411  1.0808 -2.0042
 1998SOL    HW217631   2.097   1.373   5.330 -1.8686  1.9940  0.2157
 1999SOL     OW17632   2.484   1.121  14.763 -0.1774 -0.1199  0.0354
 1999SOL    HW117633   2.415   1.176  14.726 -1.0596  0.0841  1.9793
 1999SOL    HW217634   2.438   1.090  14.841 -0.8550  1.4687  0.2682
 2000SOL     OW17635   0.697   2.815   9.421 -0.0711 -0.2009 -0.0393
 2000SOL    HW117636   0.678   2.723   9.442  0.7607  0.0459  1.7782
 2000SOL    HW217637   0.747   2.813   9.340  0.0201  0.0808  0.0086
 2001SOL     OW17638   2.225   4.218   6.348 -0.1789 -0.3162 -0.0112
 2001SOL    HW117639   2.172   4.284   6.302  2.3306  1.1033 -0.8552
 2001SOL    HW217640   2.305   4.268   6.362  1.1586 -1.9049 -1.9529
 2002SOL     OW17641   0.510   3.831   5.770  0.9740 -0.4606 -0.6550
 2002SOL    HW117642   0.562   3.783   5.836  0.5062 -0.2402 -0.1248
 2002SOL    HW217643   0.443   3.864   5.830  0.6347 -1.5759 -0.4267
 2003SOL     OW17644   1.161   3.942   8.049  0.1643  0.2152  0.0521
 2003SOL    HW117645   1.154   3.863   7.995 -0.7562 -0.0553  0.5735
 2003SOL    HW217646   1.080   3.984   8.021 -0.0983  0.0942  0.6355
 2004SOL     OW17647   4.634   3.521   3.335  0.4227  0.2620 -0.0809
 2004SOL    HW117648   4.555   3.476   3.304  2.2174 -0.6615 -3.3504
 2004SOL    HW217649   4.694   3.521   3.260  0.4160 -3.5441 -0.0871
 2005SOL     OW17650   1.830   3.327   2.161  0.3166  0.4497 -0.3830
 2005SOL    HW117651   1.770   3.318   2.235  0.9171 -2.4442 -0.2352
 2005SOL    HW217652   1.916   3.305   2.196  0.7467  0.4912 -1.4269
 2006SOL     OW17653   3.024   1.305   6.147  0.4304 -0.0189 -0.0050
 2006SOL    HW117654   3.037   1.366   6.075  0.7195  1.0776  0.9843
 2006SOL    HW217655   3.067   1.351   6.219 -1.3882  0.0602  1.0177
 2007SOL     OW17656   3.039   0.814   4.900  0.5035 -0.1699  0.1486
 2007SOL    HW117657   2.958   0.828   4.852 -0.4669  0.6995  2.0504
 2007SOL    HW217658   3.099   0.876   4.859 -1.3948  1.1124 -0.6848
 2008SOL     OW17659   3.990   1.626   8.520  0.3765 -0.0567 -0.2668
 2008SOL    HW117660   4.008   1.676   8.599 -2.1651  1.6582 -0.7670
 2008SOL    HW217661   3.906   1.585   8.543  2.1894 -3.2767  0.6864
 2009SOL     OW17662   1.837   2.924  12.284 -0.1603 -0.4207  0.3336
 2009SOL    HW117663   1.841   2.864  12.359  0.0372 -1.3742 -0.4302
 2009SOL    HW217664   1.743   2.939  12.277 -0.2508 -0.9760  0.3374
 2010SOL     OW17665   4.455   3.629   6.969  0.3374 -0.0863 -0.1512
 2010SOL    HW117666   4.450   3.541   7.005  0.9164  0.0931  0.3736
 2010SOL    HW217667   4.523   3.663   7.027 -0.8143  0.1404  1.0442
 2011SOL     OW17668   1.805   3.539   2.692 -0.3494  0.1617  0.5503
 2011SOL    HW117669   1.780   3.590   2.769  1.1690  0.2060  1.0242
 2011SOL    HW217670   1.896   3.517   2.713 -0.0470 -0.4594 -1.3888
 2012SOL     OW17671   3.551   0.963   8.152 -0.0225 -0.7020 -0.5663
 2012SOL    HW117672   3.613   1.033   8.129 -0.6235 -0.4599 -1.4284
 2012SOL    HW217673   3.612   0.890   8.169  3.1090  1.9420 -0.4075
 2013SOL     OW17674   4.646   2.412   6.761 -0.3215 -0.4863  0.3834
 2013SOL    HW117675   4.733   2.438   6.731 -0.4196  1.7500  2.0050
 2013SOL    HW217676   4.657   2.391   6.854 -1.1161  1.5183  0.9331
 2014SOL     OW17677   0.329   3.748   7.418 -0.4147  0.6755 -0.1984
 2014SOL    HW117678   0.396   3.724   7.482 -0.4797  0.7261 -0.1101
 2014SOL    HW217679   0.379   3.777   7.342 -0.5169 -0.0881 -0.5565
 2015SOL     OW17680   4.008   3.703   5.923  0.0737 -0.5994  0.6839
 2015SOL    HW117681   4.103   3.696   5.931  0.1619 -0.6057 -0.4219
 2015SOL    HW217682   3.981   3.742   6.006 -0.0770  0.4737  0.1322
 2016SOL     OW17683   0.950   0.868   6.713 -0.5627 -0.3731  0.5832
 2016SOL    HW117684   0.857   0.852   6.729 -0.4032 -2.4774 -0.6352
 2016SOL    HW217685   0.985   0.822   6.790 -0.3597 -0.9905  0.1211
 2017SOL     OW17686   4.600   3.531  16.490 -0.3129 -0.7170  0.0845
 2017SOL    HW117687   4.540   3.606  16.497  0.6479  0.1796 -1.3555
 2017SOL    HW217688   4.564   3.478  16.419  4.1047 -4.1819  0.4749
 2018SOL     OW17689   3.415   0.171  10.927  0.1804 -0.3021 -0.1792
 2018SOL    HW117690   3.375   0.230  10.991 -0.8997  0.1468 -1.2637
 2018SOL    HW217691   3.360   0.195  10.853  1.0772  2.2803 -0.0062
 2019SOL     OW17692   3.745   3.004   7.130  0.3517 -0.0116 -0.2505
 2019SOL    HW117693   3.789   3.032   7.210 -1.5647  0.7417  0.5383
 2019SOL    HW217694   3.705   2.922   7.161 -2.1698  0.9014 -1.0659
 2020SOL     OW17695   3.932   0.277   1.893  0.1163 -0.0322 -0.6404
 2020SOL    HW117696   3.969   0.366   1.897  0.8124 -0.2695 -1.9354
 2020SOL    HW217697   3.839   0.299   1.882  0.3631  0.5520 -1.5762
 2021SOL     OW17698   3.347   3.646   6.078 -0.5143 -0.8352  0.0343
 2021SOL    HW117699   3.315   3.724   6.124 -0.4217 -1.2039  0.7100
 2021SOL    HW217700   3.288   3.635   6.003  0.5277 -3.4777 -0.3995
 2022SOL     OW17701   2.677   4.059  14.753  0.1796 -0.3142 -0.0477
 2022SOL    HW117702   2.768   4.077  14.730  0.1080 -1.0818 -0.9489
 2022SOL    HW217703   2.643   4.147  14.737  4.8858  1.3767 -0.6595
 2023SOL     OW17704   2.355   0.866  13.135 -0.1319 -0.9943 -0.0612
 2023SOL    HW117705   2.400   0.950  13.127 -1.2719 -0.1118  2.9183
 2023SOL    HW217706   2.266   0.883  13.105 -0.7972 -1.4760  1.6634
 2024SOL     OW17707   3.796   2.768   6.674 -0.4911  0.6532  0.2804
 2024SOL    HW117708   3.777   2.675   6.691 -0.6789  0.5453 -0.5221
 2024SOL    HW217709   3.712   2.794   6.637 -1.1919  0.7273  1.9198
 2025SOL     OW17710   3.954   4.083   4.668  0.1946 -0.1553 -0.8764
 2025SOL    HW117711   4.004   4.004   4.686  0.3244 -0.1992 -1.4564
 2025SOL    HW217712   3.875   4.056   4.622  0.0424 -2.4000  0.7287
 2026SOL     OW17713   3.619   4.076   2.078  0.4636 -1.1012  0.2870
 2026SOL    HW117714   3.608   3.981   2.070 -1.7808 -0.7524 -0.6949
 2026SOL    HW217715   3.536   4.095   2.035  0.2926 -1.5519  0.4164
 2027SOL     OW17716   1.866   2.665   4.487 -0.1796  0.1140 -0.3441
 2027SOL    HW117717   1.806   2.590   4.483 -1.0493  0.6954  1.8754
 2027SOL    HW217718   1.947   2.613   4.487 -1.2898 -1.5955  1.8929
 2028SOL     OW17719   2.536   2.966   6.766  0.1144 -0.0929 -0.3283
 2028SOL    HW117720   2.492   3.022   6.702  0.4764 -0.1004 -0.5883
 2028SOL    HW217721   2.497   2.882   6.746  0.4340 -0.5866  1.1246
 2029SOL     OW17722   4.502   0.639   3.736  0.0476  0.3217  0.1457
 2029SOL    HW117723   4.596   0.651   3.741  0.1570 -0.8590  0.7630
 2029SOL    HW217724   4.469   0.723   3.770  0.2029  0.2858  0.3835
 2030SOL     OW17725   1.863   2.685   8.366  1.0422 -0.1878 -0.3286
 2030SOL    HW117726   1.852   2.762   8.310 -0.1642 -1.1375 -1.4039
 2030SOL    HW217727   1.824   2.702   8.452  0.2159 -2.4818 -0.2430
 2031SOL     OW17728   3.606   1.604  17.381 -0.1709 -0.4509 -0.4561
 2031SOL    HW117729   3.684   1.610  17.436 -1.1498  0.7640  0.7961
 2031SOL    HW217730   3.650   1.626  17.298  1.5073 -0.7472  0.3572
 2032SOL     OW17731   1.448   0.108  10.185 -0.0231 -0.4343 -0.1927
 2032SOL    HW117732   1.510   0.094  10.257  1.1247  1.0982 -0.8927
 2032SOL    HW217733   1.467   0.200  10.171  1.0685 -0.7719 -0.9736
 2033SOL     OW17734   2.202   3.876   8.495  0.0608  0.4157  0.0258
 2033SOL    HW117735   2.212   3.899   8.402  0.8150 -1.1894 -0.3038
 2033SOL    HW217736   2.194   3.781   8.485  0.6677  0.4072 -0.3856
 2034SOL     OW17737   1.486   0.974  17.678 -0.7943 -0.1731 -0.1995
 2034SOL    HW117738   1.517   1.064  17.675 -2.3805  0.4016  1.2025
 2034SOL    HW217739   1.424   0.973  17.605  0.6112 -1.2895 -1.3710
 2035SOL     OW17740   2.561   3.036   9.360 -0.6555 -0.1736  0.1590
 2035SOL    HW117741   2.563   2.942   9.342 -2.3351 -0.2685  0.4954
 2035SOL    HW217742   2.472   3.057   9.332 -1.1612 -0.0645  1.8454
 2036SOL     OW17743   3.603   1.159   2.593  0.2653 -0.1103 -0.4253
 2036SOL    HW117744   3.689   1.144   2.633 -0.7430 -1.4006  1.2902
 2036SOL    HW217745   3.615   1.250   2.564 -0.8625  0.1266 -0.1360
 2037SOL     OW17746   3.027   4.721   5.081 -0.4161  0.0237  0.0630
 2037SOL    HW117747   2.970   4.663   5.030  0.3080 -0.5957 -0.0358
 2037SOL    HW217748   2.966   4.737   5.154 -1.2330  0.7002 -0.7669
 2038SOL     OW17749   1.124   0.619   7.204  0.2227  0.2086 -0.9893
 2038SOL    HW117750   1.183   0.545   7.218 -2.5052 -1.2942  2.6212
 2038SOL    HW217751   1.058   0.578   7.149  0.5003  0.4891 -1.5272
 2039SOL     OW17752   3.795   3.872   2.879  0.1782  0.1560  0.1724
 2039SOL    HW117753   3.858   3.852   2.949  1.9218  1.8535 -0.8965
 2039SOL    HW217754   3.858   3.911   2.819  0.4540 -1.0093 -0.3038
 2040SOL     OW17755   3.447   2.134   9.067 -0.0762 -0.1221  0.0430
 2040SOL    HW117756   3.440   2.160   8.975 -0.5557  0.8837  0.3627
 2040SOL    HW217757   3.465   2.214   9.117  0.0755 -1.2664  1.7974
 2041SOL     OW17758   4.356   2.281  11.260  0.4633 -0.2601 -0.0152
 2041SOL    HW117759   4.445   2.249  11.275  0.2299 -0.2529  1.3675
 2041SOL    HW217760   4.362   2.281  11.165 -0.9183 -1.1766 -0.0942
 2042SOL     OW17761   1.005   1.988   2.960 -0.8368  0.8610  0.2734
 2042SOL    HW117762   1.065   2.056   2.990 -0.9513  0.9768  0.2428
 2042SOL    HW217763   1.066   1.941   2.904 -2.6353 -0.6408 -0.4340
 2043SOL     OW17764   3.575   4.619   5.344  0.1403 -0.5363 -0.4136
 2043SOL    HW117765   3.602   4.710   5.337 -1.8564 -0.0107 -1.1192
 2043SOL    HW217766   3.569   4.607   5.438 -2.0604 -1.3807 -0.6700
 2044SOL     OW17767   1.111   1.696   4.644  0.0003  0.2422  0.0082
 2044SOL    HW117768   1.060   1.777   4.646 -0.1433  0.1552 -0.1135
 2044SOL    HW217769   1.195   1.732   4.614  0.7453 -1.0251  0.5843
 2045SOL     OW17770   0.575   4.478  16.495  0.0221  0.4370 -0.0854
 2045SOL    HW117771   0.559   4.450  16.405  2.7967 -2.2472  0.2592
 2045SOL    HW217772   0.628   4.407  16.532  0.0764  0.0478 -0.9180
 2046SOL     OW17773   0.851   1.720   3.628  0.1668  0.0623 -0.6733
 2046SOL    HW117774   0.803   1.673   3.560  1.6951 -1.7527 -0.5264
 2046SOL    HW217775   0.916   1.654   3.655 -0.7184 -0.5250  0.0376
 2047SOL     OW17776   0.035   2.554   6.328  0.0140  0.5360  0.5070
 2047SOL    HW117777   4.705   2.504   6.374 -0.3376  0.5543  0.0012
 2047SOL    HW217778   0.034   2.503   6.247 -1.2090 -0.3785  1.1065
 2048SOL     OW17779   2.391   2.250  11.450 -0.2130  0.1971  0.2076
 2048SOL    HW117780   2.367   2.308  11.378  1.9362 -0.9195 -1.3775
 2048SOL    HW217781   2.434   2.172  11.415 -1.4057 -1.7120  2.9784
 2049SOL     OW17782   0.766   4.395  14.523  0.9425  0.3790  0.1701
 2049SOL    HW117783   0.692   4.345  14.489  0.0131  2.5727 -1.0220
 2049SOL    HW217784   0.729   4.482  14.529 -0.1930 -0.0565 -0.5488
 2050SOL     OW17785   4.552   0.830  10.675 -0.3615  0.3940  0.5663
 2050SOL    HW117786   4.517   0.771  10.742 -1.5582  0.2054 -0.2338
 2050SOL    HW217787   4.601   0.898  10.722 -2.1533  0.5434  2.2408
 2051SOL     OW17788   4.673   0.197   9.192  0.2066 -0.3136  0.4100
 2051SOL    HW117789   4.735   0.260   9.230  0.5372  0.1193 -0.8552
 2051SOL    HW217790   4.594   0.250   9.204  1.0052  1.1498 -0.6942
 2052SOL     OW17791   1.924   0.320  16.147  0.2657 -0.3237  0.1296
 2052SOL    HW117792   1.848   0.378  16.146  0.2198 -0.4102 -2.6134
 2052SOL    HW217793   1.934   0.317  16.242 -1.6681 -0.0994  0.3490
 2053SOL     OW17794   4.584   0.374   2.703 -0.3514 -0.0529 -0.3711
 2053SOL    HW117795   4.555   0.288   2.674 -1.0195  0.4135 -1.0710
 2053SOL    HW217796   4.632   0.405   2.627 -0.6791  0.6490 -0.2869
 2054SOL     OW17797   0.060   0.302   6.571 -0.4426  0.3638 -0.1839
 2054SOL    HW117798   4.728   0.236   6.579 -1.0201  1.1107  1.0231
 2054SOL    HW217799   0.130   0.260   6.622 -1.7235 -0.8570  0.5868
 2055SOL     OW17800   4.175   2.278  16.935  0.4222 -0.0916  0.0098
 2055SOL    HW117801   4.122   2.255  17.011  2.6928  0.4667  1.7470
 2055SOL    HW217802   4.211   2.195  16.903  2.0223  1.4803 -2.2782
 2056SOL     OW17803   4.498   3.465   7.537 -0.5872 -0.5179 -0.3588
 2056SOL    HW117804   4.579   3.469   7.589 -0.1789 -1.8568 -0.8838
 2056SOL    HW217805   4.519   3.535   7.475  2.9192 -0.9356  0.3082
 2057SOL     OW17806   3.354   2.824   5.344  0.6988  0.3882 -0.4753
 2057SOL    HW117807   3.446   2.843   5.364  0.1108  1.2348  1.3141
 2057SOL    HW217808   3.324   2.784   5.425  1.0695  2.1839  0.5234
 2058SOL     OW17809   0.954   1.964  16.004 -0.4665 -0.0025 -0.5083
 2058SOL    HW117810   1.046   1.947  15.983  0.2437  1.5526  1.2995
 2058SOL    HW217811   0.903   1.939  15.927 -1.8961 -0.9184  0.7392
 2059SOL     OW17812   3.318   1.712   1.113  0.1637 -0.4561 -0.3477
 2059SOL    HW117813   3.228   1.743   1.118 -0.1157 -1.3618  0.2540
 2059SOL    HW217814   3.325   1.618   1.132 -1.7476 -0.6620 -0.7171
 2060SOL     OW17815   0.892   3.620   2.835  0.6111 -0.4080 -0.0937
 2060SOL    HW117816   0.863   3.698   2.789 -0.5451 -0.2249  0.9555
 2060SOL    HW217817   0.824   3.606   2.901  3.2007 -0.6577  2.5548
 2061SOL     OW17818   1.645   2.868  10.052 -0.8221  0.3492  0.0867
 2061SOL    HW117819   1.573   2.818  10.015 -0.4653  1.3320 -1.9495
 2061SOL    HW217820   1.629   2.860  10.146  1.5916  1.8376  0.6454
 2062SOL     OW17821   4.648   1.874   1.453  0.6758  0.2529  0.1603
 2062SOL    HW117822   4.640   1.969   1.460 -0.4572 -0.0510  3.2444
 2062SOL    HW217823   4.712   1.893   1.384  1.1799 -0.7439  0.3533
 2063SOL     OW17824   1.880   0.302   3.074 -0.3715 -0.0829 -0.1837
 2063SOL    HW117825   1.927   0.307   2.991 -0.1851  0.7699 -0.0328
 2063SOL    HW217826   1.798   0.348   3.053 -2.0193 -1.1681  3.8250
 2064SOL     OW17827   2.421   2.098  12.420  0.3974 -0.0371 -0.6326
 2064SOL    HW117828   2.494   2.128  12.474  1.3556 -2.2856 -0.6909
 2064SOL    HW217829   2.431   2.006  12.443  1.7477  0.2514 -0.0713
 2065SOL     OW17830   1.451   2.075   2.964  0.1951  0.0406  0.0867
 2065SOL    HW117831   1.530   2.072   2.910 -1.2173 -2.2121 -1.8621
 2065SOL    HW217832   1.456   2.170   2.979 -0.7353 -0.1757  1.8461
 2066SOL     OW17833   4.646   3.129   5.520  0.3896 -0.3562 -0.4601
 2066SOL    HW117834   4.661   3.050   5.467  1.5540 -0.5996  0.2125
 2066SOL    HW217835   4.580   3.093   5.579  1.1767  2.2233  1.9796
 2067SOL     OW17836   3.640   1.907   3.383  0.5159 -0.5866  0.2709
 2067SOL    HW117837   3.673   1.830   3.338  0.4803  0.8087 -2.1757
 2067SOL    HW217838   3.643   1.866   3.469  2.9648  1.7527  1.2938
 2068SOL     OW17839   3.752   2.055   6.583 -0.3674  0.0901  0.2704
 2068SOL    HW117840   3.763   1.969   6.622 -2.8063 -0.0316  0.6850
 2068SOL    HW217841   3.839   2.073   6.547  1.1178 -2.5375  2.6218
 2069SOL     OW17842   3.564   2.302   2.911  0.4322  0.4475 -0.2392
 2069SOL    HW117843   3.636   2.290   2.849  0.1379  0.8684 -0.6523
 2069SOL    HW217844   3.488   2.299   2.854  0.6614  0.0966 -0.5249
 2070SOL     OW17845   1.522   4.566   2.385 -0.1090 -0.2094 -0.2344
 2070SOL    HW117846   1.430   4.541   2.376 -0.5374  1.1190  0.5231
 2070SOL    HW217847   1.533   4.505   2.458  0.1231 -1.4660 -1.3140
 2071SOL     OW17848   0.263   0.645   6.542 -0.1834  0.1388  0.2203
 2071SOL    HW117849   0.198   0.604   6.484  1.1830  0.8646 -1.8076
 2071SOL    HW217850   0.230   0.622   6.629 -1.1270 -2.8382 -0.9268
 2072SOL     OW17851   1.543   1.240   4.342  0.2324  0.6338 -0.1083
 2072SOL    HW117852   1.464   1.269   4.298  1.0521  1.1464 -1.2417
 2072SOL    HW217853   1.611   1.234   4.275  0.0695 -1.0159 -0.1439
 2073SOL     OW17854   3.938   4.138   4.972 -0.2427 -0.3932 -0.5550
 2073SOL    HW117855   3.921   4.229   4.950  1.9455  0.4760  1.4329
 2073SOL    HW217856   3.908   4.104   4.888 -1.1026 -0.3182 -0.2794
 2074SOL     OW17857   2.064   3.689   3.370 -0.6853  0.5350  0.5863
 2074SOL    HW117858   2.020   3.753   3.314 -1.9191  0.6394  1.6597
 2074SOL    HW217859   2.039   3.727   3.455 -0.0166 -0.3592  1.1833
 2075SOL     OW17860   1.624   3.179   6.979  0.7428  0.7262  0.1517
 2075SOL    HW117861   1.600   3.148   7.066  1.2525 -0.6511 -0.1979
 2075SOL    HW217862   1.706   3.221   7.003 -0.3672  2.9275  0.0365
 2076SOL     OW17863   0.833   4.373   8.625 -0.0006  0.2846 -0.1406
 2076SOL    HW117864   0.904   4.336   8.572  1.5623  1.1809  1.2988
 2076SOL    HW217865   0.867   4.354   8.713 -1.4578 -0.0321  0.3434
 2077SOL     OW17866   4.120   2.564   2.974  0.2637 -0.6222  0.0959
 2077SOL    HW117867   4.071   2.514   2.909  1.8354 -0.6347 -1.0714
 2077SOL    HW217868   4.133   2.650   2.934 -1.9243  0.5246  1.8372
 2078SOL     OW17869   2.992   3.846  14.702  0.1327 -0.2473 -0.2528
 2078SOL    HW117870   2.980   3.940  14.686  0.3617 -0.5951 -2.5171
 2078SOL    HW217871   2.926   3.797  14.653 -0.3092 -2.1381  2.2535
 2079SOL     OW17872   3.866   4.416   5.156  0.4670 -0.0514 -0.3453
 2079SOL    HW117873   3.827   4.477   5.095 -0.1043 -0.6618 -0.5816
 2079SOL    HW217874   3.828   4.332   5.130  2.7950 -1.8595  1.9651
 2080SOL     OW17875   2.414   3.584   1.447  0.2417  0.3480  0.0356
 2080SOL    HW117876   2.402   3.511   1.508 -0.8378 -2.2551 -3.2836
 2080SOL    HW217877   2.373   3.650   1.503  1.0386 -1.1580  2.4302
 2081SOL     OW17878   1.662   2.513   9.362  0.4333 -0.2285  0.2520
 2081SOL    HW117879   1.699   2.599   9.380 -0.4920  0.5072 -1.3794
 2081SOL    HW217880   1.628   2.515   9.273 -0.5854 -2.3040  0.5985
 2082SOL     OW17881   2.944   1.034   2.685  0.1267  0.2603 -0.2933
 2082SOL    HW117882   2.869   0.999   2.733  0.2888 -0.8893 -0.8732
 2082SOL    HW217883   2.955   0.971   2.614  0.5088  0.3042 -0.2715
 2083SOL     OW17884   4.225   2.807   4.957  1.1023  0.6163  0.0941
 2083SOL    HW117885   4.155   2.868   4.933 -0.0179 -1.0531 -0.8449
 2083SOL    HW217886   4.283   2.817   4.881  0.6910 -2.6576 -0.6246
 2084SOL     OW17887   4.250   1.017   6.851 -0.2233  0.3535  0.9079
 2084SOL    HW117888   4.179   0.978   6.901 -0.7719 -0.5057 -0.5390
 2084SOL    HW217889   4.324   0.958   6.864  0.1762  0.7359  0.3791
 2085SOL     OW17890   0.107   2.319   8.229  0.8149  0.0348 -0.4921
 2085SOL    HW117891   0.146   2.232   8.230  1.8281  0.4855 -0.3860
 2085SOL    HW217892   0.144   2.349   8.146  1.3261  1.7409  0.3380
 2086SOL     OW17893   2.900   2.678  16.252 -0.2371 -0.7191 -0.4258
 2086SOL    HW117894   2.833   2.738  16.285 -0.4401 -1.9492  1.4354
 2086SOL    HW217895   2.913   2.717  16.166 -0.3507 -0.0741 -0.1496
 2087SOL     OW17896   4.368   2.122  11.468  0.5161  0.4370 -0.2181
 2087SOL    HW117897   4.386   2.188  11.535  0.3281  2.2935 -2.0113
 2087SOL    HW217898   4.329   2.175  11.398  0.6385  1.1005  0.2221
 2088SOL     OW17899   2.126   1.883   4.042  0.0564 -0.2103 -0.0800
 2088SOL    HW117900   2.207   1.892   3.992 -0.0433  1.0271 -0.0140
 2088SOL    HW217901   2.134   1.807   4.100 -0.6691  1.3135  2.0440
 2089SOL     OW17902   2.613   4.244  16.259 -0.1074 -0.0817 -0.1831
 2089SOL    HW117903   2.602   4.311  16.326  1.0237  0.0477 -0.1333
 2089SOL    HW217904   2.695   4.272  16.219 -0.0067 -2.5898 -1.7104
 2090SOL     OW17905   0.080   4.408   1.765  0.2871  0.3506  0.5527
 2090SOL    HW117906   0.046   4.493   1.793 -0.5202  0.1332  0.2457
 2090SOL    HW217907   0.069   4.423   1.671 -0.6108 -0.3353  0.5446
 2091SOL     OW17908   2.594   1.605   2.145  0.4695  0.4884 -0.3683
 2091SOL    HW117909   2.527   1.600   2.213  0.4109  0.8481 -0.4014
 2091SOL    HW217910   2.599   1.516   2.109 -1.0484  0.0686  0.4721
 2092SOL     OW17911   1.650   4.687   1.965 -0.1185  0.0095 -0.2347
 2092SOL    HW117912   1.594   0.023   1.943  1.3806  1.4916  0.9371
 2092SOL    HW217913   1.674   4.702   2.056 -1.0957  0.7157 -0.0927
 2093SOL     OW17914   2.647   4.366   4.504 -0.0889 -0.0990 -0.0949
 2093SOL    HW117915   2.555   4.379   4.527  0.5259  2.4633  0.9105
 2093SOL    HW217916   2.695   4.410   4.574  3.6295 -1.7086 -1.6361
 2094SOL     OW17917   2.608   3.499  11.521  0.7770 -0.3395  0.2871
 2094SOL    HW117918   2.567   3.414  11.507 -0.0715  0.2499 -0.8252
 2094SOL    HW217919   2.613   3.547  11.438  1.8317  1.4327  1.3796
 2095SOL     OW17920   3.429   0.822   2.854  0.4443  0.2509  0.0037
 2095SOL    HW117921   3.377   0.866   2.787  1.1613  1.1969  0.0689
 2095SOL    HW217922   3.512   0.802   2.810  0.3916  0.9250 -0.3906
 2096SOL     OW17923   3.051   1.412   5.111  0.2400 -0.3071  0.3702
 2096SOL    HW117924   2.960   1.404   5.139  0.7084 -0.8791  1.7046
 2096SOL    HW217925   3.096   1.411   5.195 -1.4074 -2.2029  1.2309
 2097SOL     OW17926   1.568   0.254  14.678 -0.0682  0.5713  0.0623
 2097SOL    HW117927   1.626   0.191  14.721 -0.1078  0.7431  0.3696
 2097SOL    HW217928   1.640   0.310  14.649 -0.6984  0.5168 -1.6171
 2098SOL     OW17929   2.939   4.525   4.125 -0.0729  0.0019  0.3125
 2098SOL    HW117930   3.013   4.552   4.070 -2.9801  0.8868 -3.1671
 2098SOL    HW217931   2.979   4.533   4.211 -0.1405 -1.3285  0.4712
 2099SOL     OW17932   1.378   2.667   2.123 -0.6620  0.3739  0.2940
 2099SOL    HW117933   1.407   2.701   2.208 -2.0949  1.7232  0.2486
 2099SOL    HW217934   1.455   2.670   2.066  1.1206  2.1022  2.8042
 2100SOL     OW17935   1.788   3.097  15.401 -0.1022  0.6654  0.1616
 2100SOL    HW117936   1.729   3.057  15.465 -0.9751  0.7446 -0.5956
 2100SOL    HW217937   1.836   3.167  15.445 -0.4038  1.2803 -0.4671
 2101SOL     OW17938   2.133   3.646  14.733  0.0763  0.0509 -0.6973
 2101SOL    HW117939   2.127   3.599  14.650 -0.5297 -1.1421  0.0149
 2101SOL    HW217940   2.228   3.653  14.742  0.0517  0.7120 -0.9460
 2102SOL     OW17941   0.515   3.711  11.920 -0.7163 -0.3931  0.3057
 2102SOL    HW117942   0.465   3.782  11.961 -0.7042  0.5327 -1.2711
 2102SOL    HW217943   0.598   3.708  11.967 -0.0182  1.1557 -0.8410
 2103SOL     OW17944   3.766   2.218   9.203 -0.5142 -0.0013 -0.1891
 2103SOL    HW117945   3.785   2.207   9.296 -3.1759  0.0866  0.3794
 2103SOL    HW217946   3.853   2.221   9.163 -0.1806  2.0738  0.6879
 2104SOL     OW17947   0.670   3.721   4.475  0.4375 -0.3629 -0.1789
 2104SOL    HW117948   0.678   3.795   4.414 -2.5470  0.7337  0.7539
 2104SOL    HW217949   0.575   3.718   4.487  0.6718  0.9205  1.9317
 2105SOL     OW17950   3.810   3.931   1.791 -0.2932 -0.0126 -0.3213
 2105SOL    HW117951   3.863   4.000   1.832 -0.1577 -0.1787 -0.2180
 2105SOL    HW217952   3.751   3.989   1.743  1.5891  0.2116 -2.3993
 2106SOL     OW17953   0.907   4.718   9.436  0.4022  0.1570  0.2129
 2106SOL    HW117954   0.929   4.727   9.529 -0.3396  1.3339  0.2707
 2106SOL    HW217955   0.971   0.035   9.390  1.4914 -0.7937  0.6010
 2107SOL     OW17956   2.724   4.208   5.779  0.4141 -0.3330  0.0631
 2107SOL    HW117957   2.741   4.209   5.685  1.2212 -0.6775  0.2072
 2107SOL    HW217958   2.809   4.227   5.818 -0.3131  0.5313  1.2541
 2108SOL     OW17959   0.561   4.160   3.351  0.2763 -0.0432 -0.3497
 2108SOL    HW117960   0.621   4.146   3.279  1.0063 -1.0996  0.4721
 2108SOL    HW217961   0.533   4.072   3.376 -0.5742 -0.2297 -1.9831
 2109SOL     OW17962   2.436   3.188  12.372  0.4990  0.3736 -0.3147
 2109SOL    HW117963   2.357   3.172  12.320  1.0730  0.5549 -1.2488
 2109SOL    HW217964   2.483   3.252  12.319  0.5028  2.1492  1.8535
 2110SOL     OW17965   4.044   3.387   4.536  0.0579  0.2014  0.2257
 2110SOL    HW117966   3.972   3.324   4.530 -1.5852  1.8828  2.2068
 2110SOL    HW217967   4.008   3.444   4.468 -2.1252 -0.3182  0.9324
 2111SOL     OW17968   2.987   1.627  13.151  0.3398 -0.5466  0.5564
 2111SOL    HW117969   2.964   1.535  13.164 -0.3889 -0.2596  1.2958
 2111SOL    HW217970   2.982   1.661  13.240 -0.5517 -1.7702  0.9608
 2112SOL     OW17971   1.556   3.366   3.629 -0.1715 -0.1782  0.4888
 2112SOL    HW117972   1.573   3.414   3.710 -1.6221  1.5964 -0.2558
 2112SOL    HW217973   1.489   3.425   3.592 -0.4208 -1.1606 -0.6341
 2113SOL     OW17974   4.508   4.717   7.763 -0.5435  0.7269  0.2647
 2113SOL    HW117975   4.430   4.716   7.819  0.7165  1.3404  2.0085
 2113SOL    HW217976   4.576   4.704   7.828  0.1582  0.7428 -0.4735
 2114SOL     OW17977   1.767   2.828  14.812  0.3599 -0.0786 -0.2811
 2114SOL    HW117978   1.773   2.831  14.717 -2.9306  2.2150 -0.4132
 2114SOL    HW217979   1.851   2.859  14.847 -1.0560  0.1896  2.9235
 2115SOL     OW17980   3.907   4.484  16.721  0.2499  0.6602 -0.0745
 2115SOL    HW117981   3.980   4.423  16.725 -1.3840 -1.1408  2.3641
 2115SOL    HW217982   3.889   4.503  16.814 -0.2861 -2.4514  0.4609
 2116SOL     OW17983   0.178   2.638   3.199  0.2348  0.1573  0.0428
 2116SOL    HW117984   0.265   2.648   3.239  1.7195 -1.7760 -2.7473
 2116SOL    HW217985   0.178   2.557   3.150 -0.6943  1.7218 -2.5128
 2117SOL     OW17986   0.029   4.737   7.600 -0.0491 -0.1706  0.2745
 2117SOL    HW117987   0.047   4.697   7.685  0.6170 -0.3484  0.0491
 2117SOL    HW217988   4.722   0.079   7.628  1.2467  1.1149 -1.2977
 2118SOL     OW17989   1.016   2.422   6.190 -0.0913  0.7198 -0.3853
 2118SOL    HW117990   1.109   2.446   6.195 -0.1021  0.4874  0.9065
 2118SOL    HW217991   1.016   2.327   6.176 -1.1513  1.0164 -2.3009
 2119SOL     OW17992   0.166   1.083   4.925  0.1332 -0.1369 -0.1606
 2119SOL    HW117993   0.097   1.137   4.964  0.9889  0.9909 -0.1861
 2119SOL    HW217994   0.248   1.108   4.967  1.0248 -1.5887 -1.0271
 2120SOL     OW17995   2.721   3.949   4.978  0.3415 -0.3419  0.4018
 2120SOL    HW117996   2.678   3.863   4.971  0.5622 -0.2384 -2.4282
 2120SOL    HW217997   2.797   3.940   4.921 -0.7863 -1.6992 -0.8973
 2121SOL     OW17998   3.681   2.034   2.558  0.0624 -0.1132 -0.3599
 2121SOL    HW117999   3.772   2.041   2.530 -0.2591  0.6713 -1.2421
 2121SOL    HW218000   3.668   1.941   2.579  1.7865 -0.1335  0.5493
 2122SOL     OW18001   4.249   0.500  15.636 -0.3559  0.5423 -0.3128
 2122SOL    HW118002   4.329   0.523  15.589 -0.1258  1.6352  0.6056
 2122SOL    HW218003   4.253   0.406  15.618  1.0941  0.6368 -0.4226
 2123SOL     OW18004   1.709   0.200   6.689  0.0514 -0.1216 -0.1337
 2123SOL    HW118005   1.689   0.261   6.618  1.4954  3.7601  2.8206
 2123SOL    HW218006   1.740   0.124   6.639 -1.0960 -1.6427  1.4502
 2124SOL     OW18007   1.524   1.604   3.626  0.3248  0.5525  0.3443
 2124SOL    HW118008   1.455   1.538   3.641  0.7676 -0.4365 -1.9655
 2124SOL    HW218009   1.574   1.585   3.706 -0.1368 -0.9628  0.2816
 2125SOL     OW18010   3.573   4.478   8.130  0.3689  0.5813  0.0559
 2125SOL    HW118011   3.561   4.492   8.036  0.2144 -0.5254 -0.0807
 2125SOL    HW218012   3.619   4.395   8.123 -1.0729 -0.4503  3.1795
 2126SOL     OW18013   1.830   1.155  11.238 -0.6012 -0.0573  0.4581
 2126SOL    HW118014   1.746   1.113  11.223 -1.3625  1.3615  0.6836
 2126SOL    HW218015   1.812   1.207  11.316 -1.4931  0.4712 -0.1023
 2127SOL     OW18016   4.260   2.732   2.637  0.0558  0.2344  0.5697
 2127SOL    HW118017   4.176   2.704   2.601 -0.8871  2.0873  1.3373
 2127SOL    HW218018   4.222   2.765   2.718 -0.9354 -0.6839  0.4817
 2128SOL     OW18019   1.773   3.549   7.220 -0.2735 -0.4935  0.0274
 2128SOL    HW118020   1.680   3.541   7.241 -0.1868 -0.5851  0.3719
 2128SOL    HW218021   1.821   3.484   7.272  0.5167  1.6194  1.9687
 2129SOL     OW18022   3.894   4.531   7.388  0.8049 -0.3435  0.2612
 2129SOL    HW118023   3.870   4.547   7.480  1.9427 -1.1289  0.6961
 2129SOL    HW218024   3.966   4.592   7.377  0.6352 -0.0814  0.5778
 2130SOL     OW18025   0.341   2.175   5.162  0.1931 -0.3082  0.3030
 2130SOL    HW118026   0.288   2.190   5.083 -0.1015  1.1874  0.7990
 2130SOL    HW218027   0.425   2.209   5.131  0.4105 -0.7518  0.4104
 2131SOL     OW18028   0.001   2.300   4.210 -0.1868 -0.3842 -0.0104
 2131SOL    HW118029   0.035   2.264   4.292 -1.3554  1.1106  1.1447
 2131SOL    HW218030   0.048   2.383   4.210  2.9291 -2.1328  3.3819
 2132SOL     OW18031   4.163   1.275  11.114  0.0478  0.0072  0.2352
 2132SOL    HW118032   4.165   1.249  11.022  0.8034 -0.7238  0.4478
 2132SOL    HW218033   4.217   1.206  11.154 -1.4090 -1.2795 -0.0022
 2133SOL     OW18034   2.083   0.711   4.271 -0.0674  0.1491 -0.1783
 2133SOL    HW118035   2.056   0.775   4.205  0.9530  2.6177  1.7529
 2133SOL    HW218036   2.124   0.650   4.210 -1.3067  0.7948 -1.6563
 2134SOL     OW18037   3.162   2.598   1.373 -0.1740  0.8684 -0.2299
 2134SOL    HW118038   3.184   2.547   1.451  0.2458  0.7360 -0.4373
 2134SOL    HW218039   3.109   2.536   1.323  0.9857  0.4383 -0.9186
 2135SOL     OW18040   2.048   3.972   8.022 -0.0687  0.7126  0.0972
 2135SOL    HW118041   1.954   3.975   8.006  0.1875  2.2253 -1.0814
 2135SOL    HW218042   2.069   3.960   8.115 -0.0791 -1.4879 -0.1852
 2136SOL     OW18043   1.810   2.228   5.597 -0.5204 -0.4267  0.2180
 2136SOL    HW118044   1.802   2.296   5.664 -0.2827  0.2518 -0.4375
 2136SOL    HW218045   1.901   2.202   5.614 -1.0729 -1.9028  0.8301
 2137SOL     OW18046   2.979   3.082   4.321 -0.1458  0.2333  0.2026
 2137SOL    HW118047   2.992   3.094   4.227  0.8414  1.1378  0.4485
 2137SOL    HW218048   3.054   3.133   4.351 -0.1230 -0.5691  1.5072
 2138SOL     OW18049   0.200   4.653   2.074 -0.0291 -0.2098  0.5423
 2138SOL    HW118050   0.144   4.578   2.094  0.8974 -0.9731  0.2514
 2138SOL    HW218051   0.286   4.614   2.091  0.6428  1.7502  1.6779
 2139SOL     OW18052   3.931   1.804   7.319  0.0613 -0.8324  0.0259
 2139SOL    HW118053   3.974   1.723   7.346 -0.0827 -0.8580  0.1815
 2139SOL    HW218054   3.985   1.820   7.242  0.0506  0.2707  0.2460
 2140SOL     OW18055   0.362   0.398   4.988  0.3475 -0.3547 -0.3213
 2140SOL    HW118056   0.359   0.372   5.080  0.7269  1.9789  0.3535
 2140SOL    HW218057   0.453   0.422   4.975  0.8087 -0.9465  1.8082
 2141SOL     OW18058   1.173   3.497  17.344 -0.2068  0.3516  0.3215
 2141SOL    HW118059   1.201   3.408  17.323 -0.0810 -0.2582  3.1155
 2141SOL    HW218060   1.101   3.510  17.283 -0.8788  0.4095  1.1260
 2142SOL     OW18061   0.273   2.861  12.680 -0.3339 -0.0476 -0.0740
 2142SOL    HW118062   0.248   2.944  12.720 -0.6105 -0.0417 -0.2548
 2142SOL    HW218063   0.366   2.865  12.702  0.0205 -1.3968 -1.3271
 2143SOL     OW18064   0.143   0.940   5.940 -0.3118 -0.0408 -0.2148
 2143SOL    HW118065   0.172   0.994   6.013 -1.0903  0.1461 -0.0388
 2143SOL    HW218066   0.056   0.981   5.933 -1.8662 -3.0818  1.0505
 2144SOL     OW18067   2.311   3.657  14.293  0.1869  0.7074  0.1129
 2144SOL    HW118068   2.349   3.593  14.233  2.1895  1.6968  0.3162
 2144SOL    HW218069   2.220   3.648  14.266  0.4960  1.2335 -1.1234
 2145SOL     OW18070   1.695   0.247   3.375 -0.2333 -0.0526  0.3434
 2145SOL    HW118071   1.677   0.177   3.313  1.9545 -2.0159  1.9142
 2145SOL    HW218072   1.642   0.229   3.452  1.2993  0.3021  1.4872
 2146SOL     OW18073   1.763   4.635  15.282 -0.7402  0.1301 -0.0887
 2146SOL    HW118074   1.835   4.689  15.249 -0.0890  0.4797  1.8839
 2146SOL    HW218075   1.736   4.587  15.203 -1.3555 -2.3177  1.6240
 2147SOL     OW18076   1.042   4.283   0.365  0.2370  0.4690 -0.6456
 2147SOL    HW118077   1.046   4.353   0.431  0.9011  0.3699 -0.5776
 2147SOL    HW218078   0.950   4.259   0.361  0.8474 -1.9555  0.1445
 2148SOL     OW18079   2.096   4.580  14.391  0.3165 -0.0235  0.6131
 2148SOL    HW118080   2.173   4.610  14.343  0.1594 -1.5274 -0.5943
 2148SOL    HW218081   2.117   4.487  14.384  1.3374  0.2383  0.2313
 2149SOL     OW18082   3.102   1.866  15.485  0.1527  0.2057 -0.5685
 2149SOL    HW118083   3.150   1.795  15.443  3.7688  0.8996  2.4634
 2149SOL    HW218084   3.106   1.937  15.421 -0.9564  3.5867  3.1192
 2150SOL     OW18085   3.005   3.340   2.388  0.0919  0.2101 -0.2424
 2150SOL    HW118086   3.000   3.292   2.471 -0.9526 -0.4735 -0.7035
 2150SOL    HW218087   2.911   3.349   2.372 -0.0179  1.7062  1.1529
 2151SOL     OW18088   1.246   4.708  15.545 -0.0070 -0.3381 -0.0618
 2151SOL    HW118089   1.327   4.725  15.593 -1.1144  1.9301  1.0323
 2151SOL    HW218090   1.189   4.700  15.621 -3.2053  2.5417 -2.1554
 2152SOL     OW18091   4.738   2.939  11.061 -0.0790 -0.4668  0.0215
 2152SOL    HW118092   0.041   2.945  11.147  0.2232 -0.4474 -0.1229
 2152SOL    HW218093   0.068   2.939  10.994  1.9542 -1.0536  2.0856
 2153SOL     OW18094   3.007   1.708   6.922 -0.2067  0.4753 -0.0613
 2153SOL    HW118095   2.923   1.741   6.891 -1.1643 -0.5908  1.4039
 2153SOL    HW218096   2.991   1.614   6.933 -2.0463  1.1072  2.5451
 2154SOL     OW18097   2.001   3.207   3.374  0.8674  0.5905  0.3957
 2154SOL    HW118098   2.082   3.204   3.322  0.7358 -1.2786  0.3071
 2154SOL    HW218099   1.948   3.174   3.302 -0.7668  2.6391  0.6560
 2155SOL     OW18100   2.231   3.110   8.010 -0.3375 -0.2874 -0.8756
 2155SOL    HW118101   2.211   3.184   8.068  2.2203 -0.5057  0.2601
 2155SOL    HW218102   2.324   3.120   7.995  0.1249  0.1669  2.2885
 2156SOL     OW18103   0.875   4.029   8.343  0.3450  0.8008 -0.1352
 2156SOL    HW118104   0.873   3.995   8.432 -1.4941  2.4786  0.4482
 2156SOL    HW218105   0.883   3.956   8.282  2.2304  1.8322 -1.1523
 2157SOL     OW18106   3.521   4.219   7.254  0.7950 -0.1976  0.9494
 2157SOL    HW118107   3.583   4.290   7.242 -0.9450  1.4002  1.2734
 2157SOL    HW218108   3.453   4.267   7.302  0.8472 -0.8079  1.6370
 2158SOL     OW18109   1.920   1.301  11.514 -0.6865  0.3268 -0.0973
 2158SOL    HW118110   1.833   1.328  11.540 -0.4288  1.2361 -0.2045
 2158SOL    HW218111   1.963   1.273  11.596  1.2971  1.1971 -0.8395
 2159SOL     OW18112   2.804   2.938   5.833  0.0263  0.3486 -0.1582
 2159SOL    HW118113   2.804   2.843   5.847 -2.1014  0.4218  0.2481
 2159SOL    HW218114   2.858   2.963   5.908 -0.7904  0.6067  0.3463
 2160SOL     OW18115   4.170   0.785   7.198 -0.1725 -0.5233  0.2084
 2160SOL    HW118116   4.221   0.732   7.259 -2.7560 -0.5019  2.3508
 2160SOL    HW218117   4.198   0.737   7.120 -1.2246 -0.1113 -0.4187
 2161SOL     OW18118   1.850   1.194   6.143 -0.1985 -0.1620 -0.0462
 2161SOL    HW118119   1.892   1.248   6.076 -0.9446  0.5043  0.0227
 2161SOL    HW218120   1.920   1.168   6.202 -0.0867 -1.4201 -0.7218
 2162SOL     OW18121   2.362   3.896   0.319 -0.4195  0.1982  0.4767
 2162SOL    HW118122   2.299   3.853   0.262  0.7992 -1.6333  0.4902
 2162SOL    HW218123   2.337   3.858   0.403 -0.3709  0.6609  0.7004
 2163SOL     OW18124   1.607   0.954   4.619  0.2448  0.2887  0.2777
 2163SOL    HW118125   1.643   0.896   4.686 -1.1103 -1.0516 -0.1615
 2163SOL    HW218126   1.517   0.926   4.636 -0.0105  1.7392  1.3265
 2164SOL     OW18127   4.005   3.355  11.173 -0.3466 -0.6245  0.7034
 2164SOL    HW118128   4.058   3.353  11.253 -1.3824  3.5396  1.5291
 2164SOL    HW218129   3.923   3.333  11.218 -1.5349 -0.4587 -1.3887
 2165SOL     OW18130   2.050   4.464  10.512 -0.0156  0.5189  0.3770
 2165SOL    HW118131   2.045   4.509  10.596  0.6682  2.5638 -0.6883
 2165SOL    HW218132   1.994   4.387  10.526 -1.6190  1.5462 -0.3382
 2166SOL     OW18133   2.625   2.149   6.025  0.3887 -0.3026 -0.3259
 2166SOL    HW118134   2.701   2.112   6.070 -0.7272 -1.8762  0.2221
 2166SOL    HW218135   2.547   2.118   6.070  1.7388  0.5091  2.6219
 2167SOL     OW18136   0.581   4.231   8.670 -0.6264 -0.9130 -0.2419
 2167SOL    HW118137   0.660   4.280   8.694 -0.9472 -0.9297  0.8189
 2167SOL    HW218138   0.571   4.264   8.580  0.8387  0.9380  0.2620
 2168SOL     OW18139   3.797   4.272  17.657 -0.4121  0.1530  0.7829
 2168SOL    HW118140   3.812   4.178  17.668  3.4316  0.6890  0.2876
 2168SOL    HW218141   3.873   4.314  17.697 -0.9087 -0.3480  2.2528
 2169SOL     OW18142   1.035   4.416   5.620  0.7579  0.1554 -0.2318
 2169SOL    HW118143   0.944   4.425   5.648  1.1762  0.1830  1.1290
 2169SOL    HW218144   1.072   4.359   5.688  0.9241  1.0451  0.4181
 2170SOL     OW18145   4.444   3.082   2.274  0.4472  0.7124 -0.5433
 2170SOL    HW118146   4.397   3.016   2.326  0.7241 -0.9080 -2.3531
 2170SOL    HW218147   4.449   3.155   2.335  0.9491  0.6327 -0.4923
 2171SOL     OW18148   4.254   0.918   4.440  0.0944 -0.8097  0.6087
 2171SOL    HW118149   4.179   0.964   4.403  1.1549  1.2483  0.9795
 2171SOL    HW218150   4.332   0.966   4.410 -0.9783  1.4540  1.4146
 2172SOL     OW18151   4.650   3.815  10.423  0.1816  0.0312 -0.2920
 2172SOL    HW118152   4.670   3.723  10.407 -1.6812 -0.7275  1.6997
 2172SOL    HW218153   4.665   3.834  10.331 -1.0887  0.0557 -0.4924
 2173SOL     OW18154   1.817   2.564   7.088  0.1866 -0.0046  0.0890
 2173SOL    HW118155   1.733   2.538   7.127 -1.1250  1.1077 -1.9656
 2173SOL    HW218156   1.799   2.658   7.081  0.9822  0.1857  0.5708
 2174SOL     OW18157   2.850   4.211   3.697  0.3849 -0.0084 -0.0544
 2174SOL    HW118158   2.908   4.159   3.753  2.2376  1.2324 -0.8238
 2174SOL    HW218159   2.909   4.232   3.624 -0.6609  1.8062 -0.3565
 2175SOL     OW18160   3.188   4.349   3.704 -0.1142  0.2947 -0.5540
 2175SOL    HW118161   3.193   4.414   3.634  3.1560 -0.7567 -1.2844
 2175SOL    HW218162   3.278   4.316   3.709  0.4284  2.1104  1.7300
 2176SOL     OW18163   3.896   4.727   9.582  0.3085 -0.1918  0.1940
 2176SOL    HW118164   3.969   0.038   9.545  0.4492 -1.3036 -0.9972
 2176SOL    HW218165   3.945   4.657   9.624 -0.1444 -0.9099 -0.4622
 2177SOL     OW18166   3.996   4.322  16.428  0.7019  0.1093 -0.1524
 2177SOL    HW118167   4.065   4.297  16.367 -0.9385 -0.1633 -1.9335
 2177SOL    HW218168   4.018   4.271  16.506  1.6345  0.5325 -0.1442
 2178SOL     OW18169   3.586   4.142   7.790 -0.1324 -0.8369 -0.4244
 2178SOL    HW118170   3.604   4.063   7.739  3.2054 -0.9149  0.8624
 2178SOL    HW218171   3.620   4.206   7.727  0.0500 -0.4226  0.0872
 2179SOL     OW18172   1.596   3.739   5.782 -0.3527  0.1507 -0.1116
 2179SOL    HW118173   1.537   3.760   5.854 -1.8345  1.5327 -1.7126
 2179SOL    HW218174   1.658   3.812   5.789 -0.3314  0.1385 -0.1762
 2180SOL     OW18175   2.088   1.152  13.121 -0.3643 -0.1912 -0.1579
 2180SOL    HW118176   1.994   1.161  13.107 -0.5883  0.0223  1.4474
 2180SOL    HW218177   2.106   1.097  13.045 -3.1109 -0.6923 -0.4439
 2181SOL     OW18178   2.349   0.958   6.379  0.3664 -0.0646 -0.1153
 2181SOL    HW118179   2.343   0.924   6.289 -0.0611 -0.8964  0.2302
 2181SOL    HW218180   2.417   1.026   6.375 -0.9630  1.2830  0.2080
 2182SOL     OW18181   3.939   2.551   7.052 -0.2094 -0.2033 -1.0857
 2182SOL    HW118182   3.866   2.613   7.048 -1.2031 -1.1650  1.4037
 2182SOL    HW218183   3.947   2.525   6.961 -0.6632  1.5860 -1.6269
 2183SOL     OW18184   1.336   3.349  14.575 -0.5992 -0.6997 -0.4670
 2183SOL    HW118185   1.403   3.416  14.560 -2.5086  1.7508  2.0265
 2183SOL    HW218186   1.311   3.333  14.484  0.9363  1.6894 -1.3096
 2184SOL     OW18187   3.210   1.877  10.258 -0.1547  0.3547 -0.2718
 2184SOL    HW118188   3.215   1.959  10.308  1.3684 -0.9239  1.7080
 2184SOL    HW218189   3.120   1.876  10.227 -0.4304  0.0204  0.5259
 2185SOL     OW18190   3.756   2.605   4.848 -0.2594 -0.0457  0.0320
 2185SOL    HW118191   3.832   2.549   4.834  1.0285  2.2291 -1.9799
 2185SOL    HW218192   3.749   2.602   4.944 -1.6711 -1.4564 -0.1145
 2186SOL     OW18193   1.720   3.078  10.664  0.1657 -0.0734 -0.4793
 2186SOL    HW118194   1.676   3.031  10.593 -2.4506  1.5393  0.0538
 2186SOL    HW218195   1.660   3.078  10.739  0.4453 -0.7074 -0.2592
 2187SOL     OW18196   3.586   2.167   0.266  0.1726 -0.3424  0.2872
 2187SOL    HW118197   3.593   2.258   0.237 -1.5252 -0.1328  0.5269
 2187SOL    HW218198   3.494   2.147   0.248  0.0249  0.2684  0.3560
 2188SOL     OW18199   1.616   4.493   4.060  0.1222  0.1597 -0.1906
 2188SOL    HW118200   1.552   4.424   4.044  0.8161 -0.4722 -0.2404
 2188SOL    HW218201   1.682   4.501   3.991  0.9632 -2.4318  0.3221
 2189SOL     OW18202   3.578   1.023   5.449 -0.1652 -0.3120 -0.0326
 2189SOL    HW118203   3.521   1.010   5.525 -1.2529 -0.4146 -0.8519
 2189SOL    HW218204   3.654   0.976   5.482  0.4243 -0.7633 -2.0605
 2190SOL     OW18205   0.734   0.909   2.640  0.3230  0.3899 -0.6888
 2190SOL    HW118206   0.735   0.867   2.554  1.3823 -2.0150  0.4839
 2190SOL    HW218207   0.641   0.925   2.658  1.0207  1.1633  2.2107
 2191SOL     OW18208   3.136   4.484   4.967  0.1481 -0.0673  0.3394
 2191SOL    HW118209   3.148   4.465   4.874 -3.5900  1.3430 -0.4268
 2191SOL    HW218210   3.132   4.579   4.958  0.5819 -0.1537 -0.7181
 2192SOL     OW18211   0.316   2.996   9.167 -0.3794 -0.1226 -0.4272
 2192SOL    HW118212   0.318   2.934   9.095  0.8753 -1.6835  0.9721
 2192SOL    HW218213   0.331   2.945   9.246 -0.2422 -2.1955 -1.8094
 2193SOL     OW18214   4.288   1.933   1.048  0.3406  0.4617  0.2393
 2193SOL    HW118215   4.300   1.945   0.954 -1.6241  0.7619  0.0172
 2193SOL    HW218216   4.222   1.998   1.074  1.3073  1.5627 -0.0965
 2194SOL     OW18217   3.763   2.098   0.073  0.1043  0.2869 -0.3180
 2194SOL    HW118218   3.716   2.018   0.047 -0.0261  0.0256  0.7184
 2194SOL    HW218219   3.710   2.128   0.147  0.9876 -2.2321  1.3667
 2195SOL     OW18220   3.314   0.393   6.752 -1.2323 -0.2951  0.4609
 2195SOL    HW118221   3.334   0.322   6.813  0.2253  0.1029  0.4489
 2195SOL    HW218222   3.265   0.341   6.688 -1.0502  2.3926 -1.8649
 2196SOL     OW18223   4.492   3.303   2.440  0.2383 -0.0264 -0.3064
 2196SOL    HW118224   4.520   3.390   2.414 -1.0436  1.4147  3.1517
 2196SOL    HW218225   4.578   3.263   2.453 -0.2166 -1.2729 -1.0614
 2197SOL     OW18226   4.547   2.994   2.751 -0.3093  0.3261 -0.8940
 2197SOL    HW118227   4.618   2.959   2.698  0.5986 -0.6797  1.0032
 2197SOL    HW218228   4.470   2.953   2.711 -1.0425  1.0150 -0.1880
 2198SOL     OW18229   4.546   1.606   7.454 -0.0826 -0.3839  1.1331
 2198SOL    HW118230   4.544   1.579   7.545  0.4009 -1.0760  0.9303
 2198SOL    HW218231   4.534   1.699   7.475 -2.2047 -0.7089  1.4282
 2199SOL     OW18232   0.695   0.786   6.750 -0.2206  0.0154 -0.2152
 2199SOL    HW118233   0.611   0.739   6.753 -2.6784  4.4162 -0.3513
 2199SOL    HW218234   0.663   0.875   6.767  0.8070  0.3652 -0.1423
 2200SOL     OW18235   0.310   2.414   8.029  0.2589 -0.2715 -0.0066
 2200SOL    HW118236   0.396   2.431   8.068  1.3665 -0.7559 -2.1921
 2200SOL    HW218237   0.330   2.434   7.937 -1.7455  1.2800 -0.1102
 2201SOL     OW18238   2.352   4.393   7.901  0.4274 -0.4384  0.0215
 2201SOL    HW118239   2.309   4.308   7.894 -0.9810  0.1678  1.4498
 2201SOL    HW218240   2.311   4.404   7.987 -2.6205 -1.8393 -1.2474
 2202SOL     OW18241   3.407   4.454   3.346  0.5934 -0.0814  0.2149
 2202SOL    HW118242   3.357   4.489   3.420  0.5109 -0.3817  0.3030
 2202SOL    HW218243   3.420   4.530   3.289  1.0184 -0.6264 -0.4120
 2203SOL     OW18244   3.786   3.274   0.598 -0.4170 -0.4568 -0.8353
 2203SOL    HW118245   3.802   3.364   0.568 -0.4077 -0.7813 -1.8020
 2203SOL    HW218246   3.695   3.290   0.624  0.1057  1.9701 -0.4392
 2204SOL     OW18247   3.244   2.970   6.309 -0.0235 -0.4896 -0.0626
 2204SOL    HW118248   3.261   2.895   6.367  0.4625  0.9812  1.6903
 2204SOL    HW218249   3.226   3.031   6.380 -0.4797  0.7973 -1.2989
 2205SOL     OW18250   0.848   4.479   6.849 -0.0684  0.6706  0.1168
 2205SOL    HW118251   0.885   4.444   6.929  1.4589  1.0668 -0.4093
 2205SOL    HW218252   0.928   4.507   6.804  0.8997 -0.5849  1.0738
 2206SOL     OW18253   3.552   0.173   0.221  0.0168  0.0634  0.1142
 2206SOL    HW118254   3.505   0.227   0.157  0.7976  1.8567  1.0611
 2206SOL    HW218255   3.552   0.090   0.172 -1.4576  0.7850 -1.1314
 2207SOL     OW18256   4.473   4.564  15.713  0.3171  0.0513 -0.3145
 2207SOL    HW118257   4.417   4.491  15.685 -1.0607  1.1270 -0.3496
 2207SOL    HW218258   4.476   4.547  15.807 -0.0550 -0.0618 -0.3223
 2208SOL     OW18259   1.271   0.982  13.398  0.6309  0.9085 -0.6307
 2208SOL    HW118260   1.306   0.913  13.342 -2.1915 -1.7719  0.9086
 2208SOL    HW218261   1.319   0.964  13.479 -0.3555 -1.4655 -0.5728
 2209SOL     OW18262   0.387   2.115  11.204 -0.1965 -0.2689  0.1629
 2209SOL    HW118263   0.370   2.110  11.110 -1.2348  2.8299  0.1936
 2209SOL    HW218264   0.454   2.184  11.202  0.2601 -0.7429 -0.9236
 2210SOL     OW18265   2.345   4.279  14.131  0.3308 -0.1125 -0.2937
 2210SOL    HW118266   2.305   4.355  14.088  2.1413  0.5924 -0.7280
 2210SOL    HW218267   2.358   4.308  14.221 -1.9792  1.0892 -0.3219
 2211SOL     OW18268   4.699   2.757   2.610  0.7894 -0.0770 -0.1371
 2211SOL    HW118269   4.620   2.716   2.576  0.6924 -0.4487  0.5333
 2211SOL    HW218270   0.033   2.721   2.557  0.0728  0.5374 -1.5302
 2212SOL     OW18271   1.692   3.065   0.746  0.1196  0.3273  0.2793
 2212SOL    HW118272   1.775   3.019   0.759 -0.0972  0.1144  0.9243
 2212SOL    HW218273   1.629   2.995   0.763  0.5396 -0.4569 -1.4219
 2213SOL     OW18274   0.534   4.675   8.963 -0.3430  0.3278 -0.0744
 2213SOL    HW118275   0.510   4.583   8.952  0.0775  0.2774 -0.5789
 2213SOL    HW218276   0.629   4.665   8.959 -0.1965  1.6631 -0.0642
 2214SOL     OW18277   4.672   4.687   8.759  0.1475  0.0716 -0.4333
 2214SOL    HW118278   0.026   4.661   8.772 -0.1066 -1.4857 -1.8838
 2214SOL    HW218279   4.675   4.730   8.845  0.7250 -0.5095 -0.1594
 2215SOL     OW18280   4.166   0.098   6.911 -0.4811  0.0657  0.4284
 2215SOL    HW118281   4.094   0.099   6.847 -0.2096 -1.2949  0.0946
 2215SOL    HW218282   4.189   0.007   6.927 -1.0066 -0.4019 -1.5174
 2216SOL     OW18283   3.872   3.661   5.466 -0.2697  0.7086 -0.3861
 2216SOL    HW118284   3.811   3.589   5.447  0.0951  0.0907  0.8192
 2216SOL    HW218285   3.840   3.692   5.551 -1.8087 -1.8246 -0.0223
 2217SOL     OW18286   0.490   0.623   1.670  0.1651  0.2558  0.3981
 2217SOL    HW118287   0.467   0.714   1.689 -1.6195 -0.0176 -0.3801
 2217SOL    HW218288   0.496   0.580   1.755  1.2422 -1.3975 -0.5014
 2218SOL     OW18289   1.357   4.006   6.896  0.4048  0.0771 -0.0590
 2218SOL    HW118290   1.381   4.048   6.978  0.3250  1.3427 -0.6888
 2218SOL    HW218291   1.390   3.916   6.898  2.2414  0.7483  0.0794
 2219SOL     OW18292   4.427   2.294   6.133  0.5206  0.1146  0.0823
 2219SOL    HW118293   4.396   2.219   6.184  0.8933 -1.4183 -1.9390
 2219SOL    HW218294   4.346   2.336   6.108  1.0581 -0.3821 -2.5327
 2220SOL     OW18295   4.133   4.460   1.674 -0.4775  0.4496  0.4634
 2220SOL    HW118296   4.064   4.437   1.736 -0.6094 -0.7824 -0.1416
 2220SOL    HW218297   4.205   4.439   1.733  1.1232 -0.8866 -1.9608
 2221SOL     OW18298   3.249   1.346  15.332 -0.0093 -0.2945  0.0430
 2221SOL    HW118299   3.230   1.337  15.239  1.7704 -0.2819 -0.3243
 2221SOL    HW218300   3.269   1.440  15.335 -0.1037 -0.3305  1.7053
 2222SOL     OW18301   4.287   4.111   2.780 -0.3123 -0.2878 -0.1573
 2222SOL    HW118302   4.322   4.066   2.857  0.4370  0.9820  0.2324
 2222SOL    HW218303   4.315   4.200   2.799  1.0026 -0.7680  0.1716
 2223SOL     OW18304   2.667   2.100   7.238  0.1968 -0.3198  0.0961
 2223SOL    HW118305   2.738   2.162   7.221 -2.4512  2.6622 -0.1166
 2223SOL    HW218306   2.637   2.120   7.327  0.2998  1.4796 -0.2820
 2224SOL     OW18307   1.147   1.843   8.206  0.2079  0.0496  0.7258
 2224SOL    HW118308   1.178   1.773   8.149 -2.2651 -0.6695  0.3082
 2224SOL    HW218309   1.215   1.842   8.274 -1.9696 -0.2026  2.8721
 2225SOL     OW18310   2.428   4.418   2.768 -0.2573 -0.1305  0.1707
 2225SOL    HW118311   2.368   4.483   2.804 -0.6016  1.0126 -2.4208
 2225SOL    HW218312   2.398   4.342   2.817  2.5770 -1.7380 -0.5875
 2226SOL     OW18313   4.116   4.199  12.426  0.7771  0.0848  0.1130
 2226SOL    HW118314   4.118   4.212  12.332  0.7802  0.5323  0.1748
 2226SOL    HW218315   4.118   4.290  12.455  1.2584  0.1329 -0.0860
 2227SOL     OW18316   1.638   4.264   0.035  0.0862 -0.6312  0.0497
 2227SOL    HW118317   1.696   4.340   0.037 -1.0319  0.2641 -1.0118
 2227SOL    HW218318   1.686   4.195   0.081 -1.3432 -1.0116  0.9623
 2228SOL     OW18319   0.979   1.924   4.393  0.0796 -0.2519 -0.0565
 2228SOL    HW118320   1.000   1.975   4.472 -2.5524  2.2567 -1.0034
 2228SOL    HW218321   0.963   1.997   4.333  1.5191  0.0676 -0.0473
 2229SOL     OW18322   0.349   0.158   4.329  0.8352 -0.2742 -0.1436
 2229SOL    HW118323   0.287   0.189   4.395  1.6263  1.5416 -0.2462
 2229SOL    HW218324   0.290   0.168   4.255 -1.8480  0.0854  2.0369
 2230SOL     OW18325   1.109   0.079   7.585 -0.2068 -0.3618  0.2033
 2230SOL    HW118326   1.073   0.026   7.656  1.9160 -2.5571 -0.3384
 2230SOL    HW218327   1.150   0.158   7.621 -0.2853 -0.4306  0.4426
 2231SOL     OW18328   4.200   1.388   8.515  0.4641 -0.4931 -0.4707
 2231SOL    HW118329   4.180   1.474   8.479 -2.3533 -0.1541  1.8184
 2231SOL    HW218330   4.115   1.364   8.553  1.5604 -3.1111  0.3698
 2232SOL     OW18331   2.716   2.538   7.485  0.4370  0.5867  0.7261
 2232SOL    HW118332   2.657   2.606   7.517  0.1739  0.1273  1.2110
 2232SOL    HW218333   2.716   2.485   7.564  2.2129 -0.4783  0.0094
 2233SOL     OW18334   2.072   3.561  10.518 -0.6386  0.2701 -0.1311
 2233SOL    HW118335   1.983   3.596  10.505 -1.1251 -1.1363 -0.5379
 2233SOL    HW218336   2.070   3.484  10.461  3.4901 -1.5571  2.2394
 2234SOL     OW18337   2.371   3.748   8.088 -0.5815  0.1119 -0.0523
 2234SOL    HW118338   2.450   3.762   8.037  0.1480 -2.0991  0.4911
 2234SOL    HW218339   2.405   3.726   8.175 -0.5358 -0.2700 -0.1668
 2235SOL     OW18340   2.939   1.348  13.162 -0.0672 -0.5319  0.4041
 2235SOL    HW118341   2.868   1.284  13.168  0.3716 -0.8304  2.7126
 2235SOL    HW218342   2.997   1.310  13.228  0.5910 -0.2961 -0.0380
 2236SOL     OW18343   1.908   0.174   0.980  0.2737 -0.3898 -0.2649
 2236SOL    HW118344   1.825   0.160   1.026  0.8019 -1.2754  0.4286
 2236SOL    HW218345   1.976   0.144   1.041  0.5476  0.9187  0.0754
 2237SOL     OW18346   3.211   0.555  16.224 -0.3261 -0.0665  0.1331
 2237SOL    HW118347   3.275   0.508  16.170  1.2579 -0.7232  2.6078
 2237SOL    HW218348   3.253   0.637  16.250  0.1800 -0.3749  0.2964
 2238SOL     OW18349   4.380   3.875   9.983 -0.0553 -0.1906  0.0818
 2238SOL    HW118350   4.308   3.902   9.925 -0.3715 -1.8544 -0.3096
 2238SOL    HW218351   4.403   3.957  10.025  0.7295 -0.3188 -0.1102
 2239SOL     OW18352   3.127   2.353  12.936 -0.9036 -0.1668 -0.2924
 2239SOL    HW118353   3.109   2.336  12.844 -0.0815  2.3757 -0.9440
 2239SOL    HW218354   3.221   2.335  12.937 -0.2699  3.1097  0.0032
 2240SOL     OW18355   3.071   0.295   7.976  0.1361  0.1010  0.0218
 2240SOL    HW118356   3.154   0.252   7.995  0.8016  0.4423 -2.2145
 2240SOL    HW218357   3.010   0.226   8.005  0.1557 -0.2461 -0.7753
 2241SOL     OW18358   4.168   3.811   2.497  0.1949  0.3605  0.0540
 2241SOL    HW118359   4.147   3.718   2.502  0.8667  0.1324 -1.2821
 2241SOL    HW218360   4.189   3.825   2.589 -0.0187  0.6483  0.0597
 2242SOL     OW18361   1.416   3.579   3.539  0.0252 -0.0843 -0.3776
 2242SOL    HW118362   1.323   3.567   3.558  0.2189  1.0252  1.2927
 2242SOL    HW218363   1.422   3.656   3.595  2.2251 -0.6675  0.1870
 2243SOL     OW18364   3.180   2.507   5.338  0.0774 -0.5539 -0.3107
 2243SOL    HW118365   3.101   2.458   5.314 -1.5774  2.2940 -0.6440
 2243SOL    HW218366   3.212   2.535   5.253  0.1871 -3.7329 -1.3062
 2244SOL     OW18367   1.615   3.328   1.370  0.0920  0.3078 -0.0814
 2244SOL    HW118368   1.677   3.326   1.442  0.5056  1.8315 -0.3896
 2244SOL    HW218369   1.555   3.385   1.419 -1.1054  0.3745 -1.6221
 2245SOL     OW18370   3.308   0.493   7.276  0.2076  0.8718 -0.4307
 2245SOL    HW118371   3.297   0.413   7.327  1.9842  1.3831  0.7339
 2245SOL    HW218372   3.400   0.493   7.249  0.1605 -1.8196 -0.5665
 2246SOL     OW18373   2.613   3.576  16.992  0.1006 -0.6112  0.2717
 2246SOL    HW118374   2.574   3.627  16.921  1.9482 -0.7349 -0.8398
 2246SOL    HW218375   2.540   3.587  17.052  2.3102 -0.2133  2.9113
 2247SOL     OW18376   2.497   1.939   9.206  0.7570 -0.3442 -0.2866
 2247SOL    HW118377   2.558   1.879   9.251  1.5487  0.8535  0.2373
 2247SOL    HW218378   2.564   1.989   9.159  0.0255  0.2871 -0.6470
 2248SOL     OW18379   1.392   2.983   2.376  0.0194 -0.2440  0.2396
 2248SOL    HW118380   1.404   3.035   2.456 -0.2963 -0.2435  0.2875
 2248SOL    HW218381   1.443   2.904   2.394 -0.3522 -0.4412  0.4126
 2249SOL     OW18382   4.593   3.166   6.525  0.2670  0.2084 -0.0822
 2249SOL    HW118383   4.654   3.175   6.598  0.3728  0.2750 -0.1795
 2249SOL    HW218384   4.619   3.232   6.461  0.5531 -1.3050 -1.5212
 2250SOL     OW18385   3.878   2.476   9.810 -0.4275 -0.0137  0.1346
 2250SOL    HW118386   3.973   2.484   9.815 -0.2802 -0.6578 -1.7185
 2250SOL    HW218387   3.856   2.569   9.814  2.9728  0.9180 -2.0693
 2251SOL     OW18388   3.542   4.045  12.598 -0.0206  0.2007 -0.2703
 2251SOL    HW118389   3.542   3.984  12.524 -0.9887  1.5137 -1.3462
 2251SOL    HW218390   3.454   4.026  12.629 -0.0270 -0.2431 -0.5692
 2252SOL     OW18391   1.905   3.950   0.285 -0.1467 -0.0010  0.0029
 2252SOL    HW118392   1.957   3.879   0.249 -0.4661 -0.0101 -0.4432
 2252SOL    HW218393   1.887   3.925   0.375 -0.0730  0.7542  0.2272
 2253SOL     OW18394   3.424   2.868   5.901  0.1277 -0.0008  0.6163
 2253SOL    HW118395   3.395   2.942   5.954  1.1817  0.2932  0.7889
 2253SOL    HW218396   3.519   2.870   5.889 -0.3232  1.1184 -2.8150
 2254SOL     OW18397   2.653   2.823  14.073 -0.5424  0.5141 -0.0663
 2254SOL    HW118398   2.632   2.840  13.982  2.4476  0.1549 -0.8231
 2254SOL    HW218399   2.662   2.917  14.089  0.7063  0.5914 -1.2430
 2255SOL     OW18400   3.124   2.114  11.131 -0.0837 -0.0118 -0.2221
 2255SOL    HW118401   3.182   2.048  11.093 -0.0992  0.2073 -0.6231
 2255SOL    HW218402   3.164   2.130  11.217 -0.3076  0.0075 -0.1233
 2256SOL     OW18403   4.398   4.480   6.984 -0.1919 -0.4548 -0.2544
 2256SOL    HW118404   4.386   4.460   7.076 -0.3652  0.3252 -0.1060
 2256SOL    HW218405   4.485   4.520   6.992 -0.6131  0.2513  0.7230
 2257SOL     OW18406   1.371   4.393   4.325  0.4519 -0.1053 -0.1085
 2257SOL    HW118407   1.357   4.307   4.285 -4.1019 -0.0159  1.2528
 2257SOL    HW218408   1.355   4.370   4.417 -1.4442  0.9370 -0.1678
 2258SOL     OW18409   3.063   3.068   3.178  0.2259 -0.5542  0.0101
 2258SOL    HW118410   3.070   2.972   3.184 -0.0320 -0.5519  0.3533
 2258SOL    HW218411   3.133   3.092   3.239  0.4964  1.0726 -0.9475
 2259SOL     OW18412   1.370   2.888  13.427 -0.6680 -0.2938  0.7048
 2259SOL    HW118413   1.322   2.833  13.366 -0.6148  0.4481 -0.0075
 2259SOL    HW218414   1.456   2.848  13.411 -0.1767  0.9554  0.2128
 2260SOL     OW18415   3.684   2.196  17.397  0.0044  0.1210  0.2182
 2260SOL    HW118416   3.741   2.184  17.321 -0.1917  0.9380 -0.0564
 2260SOL    HW218417   3.612   2.241  17.354 -0.3317  1.5674  2.3234
 2261SOL     OW18418   1.000   1.378  17.042  0.0574  0.0580 -0.0377
 2261SOL    HW118419   1.038   1.436  17.109  2.1319 -1.0858 -0.2104
 2261SOL    HW218420   1.065   1.308  17.039  0.3035  0.4446 -3.3170
 2262SOL     OW18421   0.687   0.550   2.573  0.5893  0.3772  0.0491
 2262SOL    HW118422   0.617   0.613   2.589  0.6219  1.0872 -2.5393
 2262SOL    HW218423   0.719   0.581   2.488  0.1556  1.2590  0.2018
 2263SOL     OW18424   4.142   2.525  13.892  0.4671 -0.1782  0.3406
 2263SOL    HW118425   4.099   2.517  13.977 -0.0061 -0.0309  0.1211
 2263SOL    HW218426   4.101   2.596  13.841 -0.7689  0.0491  1.6401
 2264SOL     OW18427   2.849   0.574   3.781  0.2036 -0.4414 -0.0417
 2264SOL    HW118428   2.797   0.644   3.741  0.3674  0.5135  1.4293
 2264SOL    HW218429   2.797   0.576   3.861 -0.8169  2.5912 -0.7580
 2265SOL     OW18430   3.610   0.505  12.894 -0.3592  0.0142  0.1032
 2265SOL    HW118431   3.686   0.496  12.952  1.5927 -0.0195 -2.4713
 2265SOL    HW218432   3.593   0.414  12.873  2.0270 -0.5872  0.7557
 2266SOL     OW18433   0.924   0.275   7.730  0.5623 -0.2219  0.2177
 2266SOL    HW118434   0.906   0.344   7.795  1.1009  0.5755 -0.4789
 2266SOL    HW218435   1.000   0.226   7.762  0.8309  0.0592  0.0140
 2267SOL     OW18436   2.797   4.435   7.547  0.3354  0.2460 -0.0103
 2267SOL    HW118437   2.748   4.461   7.469  0.3764 -0.2810 -0.2130
 2267SOL    HW218438   2.742   4.473   7.615 -2.8589 -2.2190 -1.2205
 2268SOL     OW18439   2.789   0.963   9.668 -0.1308  0.0774 -0.6523
 2268SOL    HW118440   2.841   0.952   9.748 -2.9634 -1.6529  0.9460
 2268SOL    HW218441   2.719   0.900   9.681  0.8369 -0.8342  0.1353
 2269SOL     OW18442   3.288   1.463  14.448  0.1055 -0.0292  0.2111
 2269SOL    HW118443   3.314   1.376  14.417 -0.6546 -0.0912 -0.2566
 2269SOL    HW218444   3.374   1.504  14.444 -0.6644  1.5192 -0.6885
 2270SOL     OW18445   2.145   2.111  12.974  0.0825 -0.3474  0.7039
 2270SOL    HW118446   2.187   2.155  12.900 -2.4758  0.3270 -0.3565
 2270SOL    HW218447   2.100   2.186  13.013 -0.0597 -0.4331  0.7036
 2271SOL     OW18448   3.576   1.898  14.861  0.0668  0.3275  0.1724
 2271SOL    HW118449   3.654   1.847  14.883  1.3510  2.3204  0.2555
 2271SOL    HW218450   3.534   1.900  14.946 -0.0117  0.6582  0.1267
 2272SOL     OW18451   2.376   1.232   2.604  0.1000 -0.2016 -0.3487
 2272SOL    HW118452   2.327   1.303   2.562 -0.9320  0.1120  1.3760
 2272SOL    HW218453   2.396   1.173   2.531  0.5945  0.5231 -0.7848
 2273SOL     OW18454   3.067   2.857  13.543  0.2221 -0.1588  0.2502
 2273SOL    HW118455   3.083   2.944  13.508  0.0157  0.2532  1.1641
 2273SOL    HW218456   3.034   2.877  13.631  1.7476  0.7741  0.6098
 2274SOL     OW18457   0.656   2.579   1.274 -0.7545  0.1328  0.2455
 2274SOL    HW118458   0.583   2.628   1.238 -1.0418 -0.3841  0.1359
 2274SOL    HW218459   0.726   2.644   1.272 -0.7586  0.1029 -0.6669
 2275SOL     OW18460   3.072   1.174  14.424 -0.1069  0.0726 -0.2318
 2275SOL    HW118461   3.087   1.259  14.382 -0.4582  0.3994  0.2939
 2275SOL    HW218462   3.123   1.112  14.373 -1.5930 -0.4215 -1.1199
 2276SOL     OW18463   3.589   0.888   2.562  0.3120 -0.0278  0.2830
 2276SOL    HW118464   3.555   0.963   2.611  0.5470 -0.4120  1.0264
 2276SOL    HW218465   3.644   0.838   2.622 -2.9292 -2.8246  0.9326
 2277SOL     OW18466   3.511   0.190  10.521  0.5237 -0.2415  0.1377
 2277SOL    HW118467   3.442   0.197  10.586 -0.2071  0.0786 -0.6838
 2277SOL    HW218468   3.500   0.096  10.510  0.2854 -0.0261 -1.4556
 2278SOL     OW18469   3.289   0.631   9.060 -0.0871 -0.2435  0.0882
 2278SOL    HW118470   3.295   0.554   9.003  2.2927 -1.6681  2.2511
 2278SOL    HW218471   3.379   0.664   9.063 -0.8697  2.0371 -1.5243
 2279SOL     OW18472   2.320   3.785   7.520 -0.9675  0.0087  0.3318
 2279SOL    HW118473   2.278   3.777   7.434 -0.4291 -0.3380  0.0985
 2279SOL    HW218474   2.329   3.691   7.531 -0.6715  0.1441  1.2263
 2280SOL     OW18475   2.876   3.249  17.251 -0.2012  0.2039 -0.7011
 2280SOL    HW118476   2.892   3.341  17.227  0.9415 -0.0427 -0.8904
 2280SOL    HW218477   2.966   3.231  17.277 -1.4659 -2.3045  1.9754
 2281SOL     OW18478   1.606   0.702   2.242 -0.1045 -0.2519  0.1100
 2281SOL    HW118479   1.557   0.636   2.193 -2.0015  2.2879 -1.4600
 2281SOL    HW218480   1.681   0.647   2.263 -0.2425 -0.5143 -0.0787
 2282SOL     OW18481   4.362   4.132   1.934  0.0788 -0.9535 -0.3892
 2282SOL    HW118482   4.279   4.087   1.918  0.1245 -0.8968 -0.7795
 2282SOL    HW218483   4.424   4.062   1.956  0.0542 -0.9863 -0.4248
 2283SOL     OW18484   4.230   2.685   7.625  0.3205 -0.8296 -0.0302
 2283SOL    HW118485   4.181   2.758   7.662  1.6590  0.5310 -0.9883
 2283SOL    HW218486   4.308   2.726   7.589 -0.3139 -1.0670 -1.6915
 2284SOL     OW18487   2.559   4.689   4.724  0.1431  0.5163  0.3287
 2284SOL    HW118488   2.493   4.677   4.793 -0.8649  0.8219 -0.5828
 2284SOL    HW218489   2.507   4.695   4.644  1.0692  2.0209 -0.1572
 2285SOL     OW18490   2.483   1.236  10.378  0.0471 -0.5940 -0.1968
 2285SOL    HW118491   2.436   1.301  10.325  0.3419  0.0937  0.3887
 2285SOL    HW218492   2.552   1.281  10.426 -0.6385 -0.6417  0.8350
 2286SOL     OW18493   3.489   0.061   8.708  0.1852 -0.5396  0.4003
 2286SOL    HW118494   3.475   0.033   8.618  0.3210 -0.4680  0.3564
 2286SOL    HW218495   3.544   4.733   8.750  1.0880 -0.1481 -0.1673
 2287SOL     OW18496   2.577   3.581   4.357 -0.5550  0.3166 -0.3285
 2287SOL    HW118497   2.581   3.675   4.376 -2.1849  0.8106 -2.4001
 2287SOL    HW218498   2.666   3.557   4.333  0.0094 -0.6515  2.8238
 2288SOL     OW18499   2.092   1.614   5.850 -0.4931 -0.2289 -0.0876
 2288SOL    HW118500   2.059   1.547   5.789 -0.5257 -0.3845  0.0998
 2288SOL    HW218501   2.030   1.687   5.841 -0.2554 -0.2111 -1.5159
 2289SOL     OW18502   0.547   2.438   0.582  0.1295  0.8053  0.0387
 2289SOL    HW118503   0.567   2.420   0.490 -0.4561 -0.7487  0.2148
 2289SOL    HW218504   0.487   2.366   0.601  0.7640  0.0221 -0.9476
 2290SOL     OW18505   3.418   2.043   7.541  0.7233  0.3138  0.2680
 2290SOL    HW118506   3.439   2.016   7.630  0.1377 -1.0508 -0.0073
 2290SOL    HW218507   3.351   1.982   7.510 -1.8974  3.5747 -0.4052
 2291SOL     OW18508   2.236   3.042  15.110  0.6326 -0.1212  0.5784
 2291SOL    HW118509   2.268   2.973  15.168  2.4612  0.0158 -0.2724
 2291SOL    HW218510   2.187   2.986  15.051 -1.9089  2.6750  0.0336
 2292SOL     OW18511   0.187   1.412   7.589 -0.1425 -0.2491 -0.0692
 2292SOL    HW118512   0.127   1.371   7.527 -0.8566  1.8042 -0.7403
 2292SOL    HW218513   0.183   1.504   7.562 -0.5925 -0.2283  0.0651
 2293SOL     OW18514   0.422   1.332   1.187  0.0058 -0.1680  0.1154
 2293SOL    HW118515   0.416   1.357   1.095  2.5142 -0.4754 -0.1387
 2293SOL    HW218516   0.337   1.289   1.192  0.0081 -0.1850  0.0027
 2294SOL     OW18517   1.468   4.339  10.518  0.6937 -0.1322  0.1922
 2294SOL    HW118518   1.532   4.268  10.511 -0.5847 -1.1318 -1.4723
 2294SOL    HW218519   1.525   4.408  10.485 -0.3239  0.4984 -0.2528
 2295SOL     OW18520   3.019   0.036   1.607  0.1406 -0.0250  0.1006
 2295SOL    HW118521   2.964   4.708   1.650 -0.3322 -0.1840 -0.7352
 2295SOL    HW218522   2.957   0.060   1.538  3.9431  1.6599 -2.7219
 2296SOL     OW18523   0.662   2.233   0.802 -0.2520 -0.2740  0.2333
 2296SOL    HW118524   0.666   2.181   0.883 -0.0698  1.9249  1.6433
 2296SOL    HW218525   0.574   2.269   0.807  0.2190  1.1259 -1.5883
 2297SOL     OW18526   3.627   2.621   9.028 -0.0136 -0.2114  0.3089
 2297SOL    HW118527   3.638   2.706   9.070 -1.8753  0.4715 -0.5765
 2297SOL    HW218528   3.611   2.642   8.936  0.9537 -0.1403  0.1547
 2298SOL     OW18529   3.433   1.963   0.597 -0.4172 -0.3149 -0.6466
 2298SOL    HW118530   3.338   1.968   0.581 -1.0670 -3.3595  2.4161
 2298SOL    HW218531   3.438   1.953   0.692 -1.0892 -1.1432 -0.7017
 2299SOL     OW18532   3.206   3.541   6.697 -0.6930 -0.8148 -0.2187
 2299SOL    HW118533   3.131   3.601   6.705  0.5046  0.6754 -0.0250
 2299SOL    HW218534   3.282   3.573   6.747 -0.5615 -0.4235 -0.6692
 2300SOL     OW18535   3.794   0.210  11.041 -0.1312  0.0779 -0.6931
 2300SOL    HW118536   3.719   0.267  11.028  0.8987  2.0476  2.1442
 2300SOL    HW218537   3.853   0.218  10.965 -0.0935  1.2909 -0.5331
 2301SOL     OW18538   1.589   1.709   1.996  0.4966 -0.3153 -0.0367
 2301SOL    HW118539   1.541   1.628   1.981  1.7531 -0.7920 -1.5144
 2301SOL    HW218540   1.636   1.720   1.914  0.7114 -1.9087 -0.1239
 2302SOL     OW18541   4.116   1.008   3.432  0.3439 -0.3683 -0.3167
 2302SOL    HW118542   4.044   1.018   3.494  0.4227 -0.1511 -0.2614
 2302SOL    HW218543   4.187   0.974   3.487  0.7980 -0.3269 -0.8770
 2303SOL     OW18544   1.602   4.213  17.069 -0.0596  0.3447 -0.3422
 2303SOL    HW118545   1.570   4.152  17.003  0.3575 -2.0773  1.7162
 2303SOL    HW218546   1.556   4.184  17.147 -1.7219  2.4656 -0.5083
 2304SOL     OW18547   3.243   2.196   6.906  0.2950 -0.2278 -0.0358
 2304SOL    HW118548   3.249   2.104   6.928 -2.0257 -0.1281  1.0172
 2304SOL    HW218549   3.320   2.237   6.946  2.1384 -3.0249 -0.7651
 2305SOL     OW18550   0.708   3.551   3.092 -0.4007 -0.1608 -0.5434
 2305SOL    HW118551   0.727   3.463   3.126 -3.4763 -0.2221  1.0274
 2305SOL    HW218552   0.657   3.599   3.157  1.1821  0.2382  0.4178
 2306SOL     OW18553   3.450   2.165  12.436  0.7290  0.2828  0.1255
 2306SOL    HW118554   3.416   2.113  12.363  0.3751  0.7020 -0.0121
 2306SOL    HW218555   3.432   2.110  12.512 -1.5740  1.3894  0.3934
 2307SOL     OW18556   1.384   0.902  15.151 -0.0114 -0.5386 -0.3872
 2307SOL    HW118557   1.441   0.831  15.121 -0.4484 -1.8691  1.9107
 2307SOL    HW218558   1.296   0.873  15.129 -0.2092 -1.7301  1.9561
 2308SOL     OW18559   2.673   3.324   6.208 -0.0487  0.3426 -0.1987
 2308SOL    HW118560   2.762   3.359   6.213 -0.4907  1.6456 -1.5216
 2308SOL    HW218561   2.672   3.263   6.282 -0.1780  0.4267 -0.1318
 2309SOL     OW18562   2.062   0.599   2.879 -0.0991  0.3924 -0.4826
 2309SOL    HW118563   2.042   0.609   2.972  1.7366 -0.4541  0.0140
 2309SOL    HW218564   2.107   0.515   2.870 -2.1430 -0.7493 -0.0279
 2310SOL     OW18565   0.149   2.532   8.424  0.3196  0.3403 -0.5087
 2310SOL    HW118566   0.179   2.443   8.405 -0.0892 -0.2468  1.6008
 2310SOL    HW218567   0.171   2.582   8.346 -0.2978 -0.9371 -1.4914
 2311SOL     OW18568   0.426   1.639  16.978 -0.2573  0.0899 -0.2116
 2311SOL    HW118569   0.374   1.590  17.041 -1.9815  0.8160 -1.0877
 2311SOL    HW218570   0.429   1.726  17.016  0.6892  0.1090 -0.3165
 2312SOL     OW18571   4.036   2.778   2.817 -0.1518  0.7436  0.0928
 2312SOL    HW118572   3.982   2.806   2.891 -2.0665  1.3691 -1.5326
 2312SOL    HW218573   4.037   2.860   2.767 -0.3658 -0.7385 -2.3211
 2313SOL     OW18574   4.303   1.068  17.228 -0.0887  0.1515 -0.1366
 2313SOL    HW118575   4.306   1.013  17.150 -0.9572  2.3564 -1.7269
 2313SOL    HW218576   4.368   1.024  17.283  0.2147  0.4894 -0.2247
 2314SOL     OW18577   2.622   4.451   3.898 -0.0985 -0.2748  0.1746
 2314SOL    HW118578   2.564   4.376   3.889  0.3274 -0.5990  0.1276
 2314SOL    HW218579   2.703   4.402   3.908  0.0296 -0.0975  0.0085
 2315SOL     OW18580   2.793   3.974   4.597 -0.6298 -0.5252 -0.1654
 2315SOL    HW118581   2.815   3.977   4.690  1.9686  3.4326 -0.8972
 2315SOL    HW218582   2.871   4.022   4.570 -2.2595  1.2633 -1.7228
 2316SOL     OW18583   3.599   1.443   1.420  0.1838  0.5122  0.1910
 2316SOL    HW118584   3.643   1.358   1.429  0.3808  0.6239  0.2946
 2316SOL    HW218585   3.627   1.475   1.334  1.2250 -0.4302  0.1806
 2317SOL     OW18586   3.097   0.096  13.668 -0.1583  0.3347  0.4345
 2317SOL    HW118587   3.192   0.084  13.667 -0.1542  0.3959  0.0123
 2317SOL    HW218588   3.078   0.119  13.759 -0.3317  0.8058  0.2801
 2318SOL     OW18589   0.433   0.039  15.167 -0.2750  0.6282 -0.3738
 2318SOL    HW118590   0.400   0.057  15.255 -0.6413  1.8625 -0.7634
 2318SOL    HW218591   0.462   0.124  15.132  2.4645 -0.3961 -0.6244
 2319SOL     OW18592   0.033   3.069   9.554  0.3730 -0.2357 -0.3425
 2319SOL    HW118593   4.683   3.099   9.528 -1.0442 -1.6681  2.7362
 2319SOL    HW218594   0.080   3.106   9.480 -0.1803 -0.4329 -0.7973
 2320SOL     OW18595   0.665   4.635   2.872  0.2654 -0.3483 -0.4957
 2320SOL    HW118596   0.691   4.557   2.922  0.6077  1.0968  1.5768
 2320SOL    HW218597   0.648   4.597   2.786  2.7039 -0.4486 -0.9266
 2321SOL     OW18598   1.657   1.216   9.724 -0.4395  0.2633  0.1387
 2321SOL    HW118599   1.620   1.271   9.655 -0.1869  0.2680  0.0049
 2321SOL    HW218600   1.725   1.279   9.748  0.4110 -0.2312 -0.9588
 2322SOL     OW18601   0.036   3.378  11.098 -0.4519  0.7381  0.1123
 2322SOL    HW118602   0.103   3.310  11.085 -1.8100 -0.6331  0.3487
 2322SOL    HW218603   0.060   3.421  11.181 -0.1079 -0.2952  0.5449
 2323SOL     OW18604   1.517   1.139   7.542  0.1822  0.0405  0.1188
 2323SOL    HW118605   1.608   1.110   7.537 -0.4858 -2.3110  1.5650
 2323SOL    HW218606   1.460   1.062   7.536  0.1301  0.0709  0.2300
 2324SOL     OW18607   4.184   0.232   2.845 -0.4899  0.5928  0.2301
 2324SOL    HW118608   4.236   0.185   2.910 -1.8214 -1.0614  0.0817
 2324SOL    HW218609   4.095   0.230   2.879 -0.9014 -0.4796 -0.9100
 2325SOL     OW18610   0.734   4.169   8.139 -0.1365 -0.7038  0.4280
 2325SOL    HW118611   0.796   4.127   8.080  2.0180  1.9704  0.8210
 2325SOL    HW218612   0.748   4.130   8.226 -3.1611 -1.3886  0.6208
 2326SOL     OW18613   2.368   1.785  10.050 -0.3480  0.5417  0.3252
 2326SOL    HW118614   2.386   1.832   9.969 -3.4253  1.4234  0.1606
 2326SOL    HW218615   2.396   1.845  10.118 -1.8010  1.6944 -0.0832
 2327SOL     OW18616   2.040   2.987   6.068  0.7931  0.3172  0.3152
 2327SOL    HW118617   2.013   2.971   5.978 -1.1328  1.0401  0.7654
 2327SOL    HW218618   2.130   2.958   6.060 -0.3442 -2.9741 -0.3394
 2328SOL     OW18619   0.716   4.444   4.211 -0.1925 -0.1710  0.7607
 2328SOL    HW118620   0.668   4.415   4.288 -2.3932 -2.1728 -1.3899
 2328SOL    HW218621   0.709   4.539   4.226  0.4316 -0.2913  1.8163
 2329SOL     OW18622   2.261   2.256   8.383  0.1645  0.4467 -0.0377
 2329SOL    HW118623   2.303   2.235   8.467  2.7399 -0.5071 -1.5501
 2329SOL    HW218624   2.241   2.350   8.387 -0.2173  0.3487  0.3858
 2330SOL     OW18625   1.959   4.169  16.681 -0.4889 -0.2004 -0.6399
 2330SOL    HW118626   2.055   4.176  16.682 -0.4562 -0.8193  0.6002
 2330SOL    HW218627   1.942   4.120  16.601  0.3639 -4.0544  1.5162
 2331SOL     OW18628   4.480   2.112   8.711 -0.1116 -0.2344 -0.3950
 2331SOL    HW118629   4.446   2.025   8.732  1.8792 -1.1089 -0.9011
 2331SOL    HW218630   4.402   2.130   8.659 -0.4121 -0.7859 -0.1340
 2332SOL     OW18631   0.231   1.469   1.491  0.2504 -0.5512  0.3384
 2332SOL    HW118632   0.200   1.527   1.561 -0.2924  1.0056 -1.1833
 2332SOL    HW218633   0.186   1.509   1.416  2.2897 -1.1786 -1.2192
 2333SOL     OW18634   0.934   0.181   5.479 -0.0884  0.6110  0.3166
 2333SOL    HW118635   0.965   0.090   5.482 -0.7133  0.3803 -0.2001
 2333SOL    HW218636   0.841   0.161   5.490 -0.1680  0.6571 -0.2913
 2334SOL     OW18637   2.184   3.303  10.013  0.0668 -0.0166  0.2246
 2334SOL    HW118638   2.194   3.208  10.013  0.1653 -0.0147  2.0006
 2334SOL    HW218639   2.273   3.337  10.007 -0.4593  1.1503 -0.9913
 2335SOL     OW18640   4.633   0.084   2.908  0.2484  0.3007  0.3373
 2335SOL    HW118641   4.674   0.088   2.821  1.5062  0.9462  0.9611
 2335SOL    HW218642   4.706   0.100   2.968 -0.8736 -0.4515  1.8968
 2336SOL     OW18643   2.288   1.078   9.100 -0.1588 -0.1511 -0.2050
 2336SOL    HW118644   2.205   1.112   9.066  0.0099  0.2025 -0.2701
 2336SOL    HW218645   2.306   1.013   9.032  4.3059  0.4613  0.3352
 2337SOL     OW18646   2.382   3.060   2.564  0.0249  0.2861  0.3730
 2337SOL    HW118647   2.319   2.989   2.577 -0.1401  0.2012 -0.9630
 2337SOL    HW218648   2.333   3.142   2.555 -1.1815 -0.5318 -0.3793
 2338SOL     OW18649   4.317   0.174   0.451  0.1834  0.5057  0.1631
 2338SOL    HW118650   4.393   0.226   0.476  1.5272 -1.8692  1.0234
 2338SOL    HW218651   4.260   0.221   0.512  2.6045  4.1474 -0.3409
 2339SOL     OW18652   0.028   1.962   1.227  0.4292  0.0102 -0.3619
 2339SOL    HW118653   0.049   2.054   1.241 -0.2662 -0.3644  3.0090
 2339SOL    HW218654   0.081   1.944   1.149 -0.4470 -0.8362 -0.7606
 2340SOL     OW18655   2.720   0.761   7.218 -0.3075  0.2959 -0.2524
 2340SOL    HW118656   2.724   0.852   7.246  1.0939 -0.2452  1.2967
 2340SOL    HW218657   2.758   0.768   7.131  1.2295 -1.2742  0.2897
 2341SOL     OW18658   4.312   3.457  16.751 -0.4926 -0.4101  0.1056
 2341SOL    HW118659   4.289   3.370  16.719 -0.2926 -0.4353  0.0309
 2341SOL    HW218660   4.314   3.438  16.844  1.9323 -1.8994 -0.2451
 2342SOL     OW18661   3.162   2.720   2.740 -0.2817  0.0091  0.1942
 2342SOL    HW118662   3.128   2.792   2.687  1.0199 -0.0466 -0.7214
 2342SOL    HW218663   3.251   2.755   2.738 -0.1920 -0.1671  0.9665
 2343SOL     OW18664   3.786   0.258   8.233  0.2792  0.5952  0.4699
 2343SOL    HW118665   3.763   0.308   8.155  0.7045 -0.8691 -0.6002
 2343SOL    HW218666   3.823   0.325   8.290 -1.9041  2.8839 -0.8124
 2344SOL     OW18667   1.767   1.741   3.145 -0.4666 -0.0130  0.6598
 2344SOL    HW118668   1.695   1.730   3.083 -0.1185  1.4635  0.0078
 2344SOL    HW218669   1.750   1.662   3.197  0.8611 -1.4939 -1.1809
 2345SOL     OW18670   2.630   0.316   7.122 -0.4576  0.8089  0.2163
 2345SOL    HW118671   2.671   0.243   7.168 -1.2791  1.2604  1.6552
 2345SOL    HW218672   2.567   0.349   7.185  0.1039 -1.2434  1.8603
 2346SOL     OW18673   3.839   2.795   2.286  0.6277 -0.9077  0.2914
 2346SOL    HW118674   3.857   2.870   2.228  0.4038 -1.4000 -0.4229
 2346SOL    HW218675   3.820   2.740   2.210 -1.2583 -1.0984  0.9137
 2347SOL     OW18676   1.832   0.447   6.292 -0.2349 -0.6074 -0.4556
 2347SOL    HW118677   1.815   0.515   6.227 -0.4871  0.7724  1.0375
 2347SOL    HW218678   1.840   0.508   6.365 -2.6876  0.0931 -0.7659
 2348SOL     OW18679   2.534   3.831   6.887  0.0216  0.0264  0.6627
 2348SOL    HW118680   2.456   3.870   6.926 -1.9160 -2.7670 -0.4695
 2348SOL    HW218681   2.514   3.740   6.864  2.7180 -0.1349 -1.1099
 2349SOL     OW18682   3.024   4.339  16.967  0.0118  0.3551 -0.0231
 2349SOL    HW118683   3.031   4.389  17.049 -0.7614 -1.0401  0.8866
 2349SOL    HW218684   3.017   4.401  16.894 -5.0249  0.2968  0.4460
 2350SOL     OW18685   4.402   4.463   8.844  0.1277  0.4570 -0.2467
 2350SOL    HW118686   4.498   4.457   8.841  0.1593  0.1043  1.3141
 2350SOL    HW218687   4.376   4.374   8.819  0.3833  0.2124  0.3334
 2351SOL     OW18688   2.969   1.281   7.181 -0.3052  0.0950  0.0896
 2351SOL    HW118689   2.947   1.335   7.257  1.0292 -0.3905  0.8238
 2351SOL    HW218690   3.024   1.215   7.225  2.2375  1.2183 -1.4536
 2352SOL     OW18691   1.138   2.841  11.649 -0.6725  0.5610 -0.2608
 2352SOL    HW118692   1.151   2.760  11.697  0.2706 -0.0726 -1.5995
 2352SOL    HW218693   1.049   2.869  11.670 -0.6298  2.0602 -2.0077
 2353SOL     OW18694   4.560   3.619   3.633 -0.0777  0.2588  0.2724
 2353SOL    HW118695   4.553   3.613   3.538 -2.6881  1.2800  0.4050
 2353SOL    HW218696   4.633   3.558   3.643 -1.6401 -1.7475 -0.8446
 2354SOL     OW18697   3.689   3.425   2.732  0.2393 -0.1791  0.1649
 2354SOL    HW118698   3.604   3.468   2.727 -0.2562 -1.2268 -0.4645
 2354SOL    HW218699   3.705   3.427   2.826 -2.2833 -0.1839  0.5723
 2355SOL     OW18700   1.612   2.205   2.150  0.4539 -0.2338 -0.1335
 2355SOL    HW118701   1.617   2.109   2.151 -1.4971 -0.3140  0.6474
 2355SOL    HW218702   1.585   2.223   2.060  1.0016 -1.8445 -0.6258
 2356SOL     OW18703   0.942   3.006  13.646  0.1993 -0.2005  0.0110
 2356SOL    HW118704   1.036   2.990  13.641  0.5646  1.5254  1.3791
 2356SOL    HW218705   0.931   2.969  13.733  0.0811 -0.2125 -0.0088
 2357SOL     OW18706   0.230   4.139  12.345 -0.1616  0.1383  0.5823
 2357SOL    HW118707   0.156   4.142  12.285  1.6772 -2.1370 -1.8472
 2357SOL    HW218708   0.282   4.214  12.316  0.0928 -0.0840  0.4518
 2358SOL     OW18709   3.968   4.213   7.695 -0.2965 -0.1585  0.3168
 2358SOL    HW118710   3.991   4.130   7.738 -1.0224 -0.6328 -0.2048
 2358SOL    HW218711   4.055   4.243   7.670 -0.7382  0.3287 -0.6378
 2359SOL     OW18712   1.777   3.007   2.435 -0.0730 -1.1122  0.5301
 2359SOL    HW118713   1.712   2.954   2.480 -1.0831 -1.3189 -1.1461
 2359SOL    HW218714   1.848   2.946   2.417 -0.1291 -0.7850 -0.7807
 2360SOL     OW18715   1.511   4.300   6.974  0.0337 -0.4347 -0.6604
 2360SOL    HW118716   1.519   4.396   6.975  0.9769 -0.4926 -1.9795
 2360SOL    HW218717   1.586   4.285   7.033 -0.3657 -0.4397 -0.1543
 2361SOL     OW18718   3.991   4.218   2.550  0.0503  0.0110  0.2864
 2361SOL    HW118719   3.982   4.300   2.500  1.1504 -1.6740 -2.6748
 2361SOL    HW218720   4.065   4.182   2.501  1.0180  2.3080  0.0258
 2362SOL     OW18721   1.827   1.722   1.786 -0.4589 -0.2054  0.1045
 2362SOL    HW118722   1.809   1.628   1.791 -2.6869  0.1948 -0.4818
 2362SOL    HW218723   1.877   1.723   1.704  2.4607  0.3095  1.9245
 2363SOL     OW18724   1.931   3.316  15.124  0.3800  0.0506 -0.1091
 2363SOL    HW118725   1.862   3.249  15.124  0.6470 -0.2105  1.7286
 2363SOL    HW218726   1.947   3.338  15.032  1.4739  1.1392  0.3422
 2364SOL     OW18727   0.154   3.397  14.550 -0.4595  0.0637 -0.5884
 2364SOL    HW118728   0.190   3.312  14.523 -0.6611 -0.4746  0.8802
 2364SOL    HW218729   0.062   3.381  14.571 -0.1827  1.8291  1.9572
 2365SOL     OW18730   0.595   2.774   3.140  0.4400 -0.9529  0.5127
 2365SOL    HW118731   0.555   2.753   3.056  1.4307 -0.8352  0.0131
 2365SOL    HW218732   0.519   2.763   3.196 -0.6252  3.4085 -0.0560
 2366SOL     OW18733   1.499   3.016  10.793 -0.3505 -0.4052 -0.0368
 2366SOL    HW118734   1.536   2.971  10.869 -1.0203 -0.2883  0.3648
 2366SOL    HW218735   1.412   2.974  10.797 -0.3675 -0.4525 -0.8663
 2367SOL     OW18736   1.561   2.462   7.145  0.5398  0.1609  0.2203
 2367SOL    HW118737   1.563   2.404   7.069  0.5712  0.4077  0.0352
 2367SOL    HW218738   1.471   2.453   7.177  0.0472 -0.7811 -1.4605
 2368SOL     OW18739   0.759   2.145  12.329  0.8899 -0.0458  0.4386
 2368SOL    HW118740   0.782   2.177  12.416 -0.6377  1.6623  0.2115
 2368SOL    HW218741   0.823   2.076  12.312  0.2499 -0.1254 -1.6212
 2369SOL     OW18742   3.013   3.104   9.948  0.1305 -0.2226  0.5110
 2369SOL    HW118743   2.960   3.140   9.877  0.2995 -0.3088  0.3412
 2369SOL    HW218744   3.096   3.135   9.912 -0.1529 -2.2460 -1.9318
 2370SOL     OW18745   1.788   4.598  11.813  0.5303  0.6200  0.2808
 2370SOL    HW118746   1.756   4.686  11.832 -0.9967  0.2495 -0.5510
 2370SOL    HW218747   1.821   4.581  11.901 -1.0133 -0.2505  0.7012
 2371SOL     OW18748   1.764   3.597  10.411  0.1241 -0.7723  0.0027
 2371SOL    HW118749   1.728   3.531  10.351  0.1042 -1.8042  1.1444
 2371SOL    HW218750   1.740   3.562  10.497 -0.6767 -0.1634  0.0328
 2372SOL     OW18751   4.358   4.265   0.472  0.3734 -0.0301 -0.0764
 2372SOL    HW118752   4.438   4.212   0.481  1.9381  2.3131 -0.2668
 2372SOL    HW218753   4.316   4.255   0.557 -0.4410  1.2971 -0.3296
 2373SOL     OW18754   3.652   1.271  10.220 -0.1889 -0.5396  0.2500
 2373SOL    HW118755   3.617   1.183  10.231 -0.2571 -0.7688 -1.7624
 2373SOL    HW218756   3.567   1.311  10.199 -0.6027 -0.5547  1.8506
 2374SOL     OW18757   3.120   4.218  16.115 -0.2369 -0.5398 -0.4275
 2374SOL    HW118758   3.188   4.244  16.177  0.9411 -0.3743 -1.7847
 2374SOL    HW218759   3.101   4.133  16.153 -1.1595 -0.4912 -0.7882
 2375SOL     OW18760   0.439   3.631   6.860 -0.3031 -0.5050  0.3033
 2375SOL    HW118761   0.483   3.709   6.894  0.0359 -1.2573  1.5860
 2375SOL    HW218762   0.468   3.563   6.921  1.6966  2.3380  2.5012
 2376SOL     OW18763   4.611   0.565   6.774  1.0054 -0.4269  0.0555
 2376SOL    HW118764   4.589   0.658   6.776  0.6000 -0.5084 -0.4633
 2376SOL    HW218765   4.590   0.544   6.865  0.6629 -3.9202 -0.8233
 2377SOL     OW18766   4.561   0.430   3.326  0.0396 -0.0142 -0.4569
 2377SOL    HW118767   4.575   0.481   3.246 -1.0280  0.4299 -0.3654
 2377SOL    HW218768   4.509   0.490   3.380 -1.0277 -0.2556 -1.2136
 2378SOL     OW18769   3.804   0.201   3.177 -0.8412  0.7865  0.0580
 2378SOL    HW118770   3.731   0.262   3.164 -0.7135  0.7141 -0.9484
 2378SOL    HW218771   3.867   0.236   3.115  0.0364  0.8231  0.9631
 2379SOL     OW18772   3.691   3.738   8.168  0.6174  0.1884  0.2151
 2379SOL    HW118773   3.630   3.669   8.193  0.2213  0.6138  0.4179
 2379SOL    HW218774   3.767   3.688   8.140  1.7900  1.8641  0.3575
 2380SOL     OW18775   0.157   0.944   6.608  0.0286  0.0933 -0.0062
 2380SOL    HW118776   0.161   1.035   6.578 -1.6922  0.0115 -0.4545
 2380SOL    HW218777   0.164   0.896   6.525  0.7401  0.5303 -0.1974
 2381SOL     OW18778   4.624   2.000   4.393 -0.3575 -0.0196 -0.1854
 2381SOL    HW118779   4.714   2.004   4.426 -1.1734  0.0297  2.0124
 2381SOL    HW218780   4.585   2.017   4.479 -1.0909 -0.1739 -0.4878
 2382SOL     OW18781   0.341   2.045  10.920 -0.0049  0.0013  0.0351
 2382SOL    HW118782   0.318   1.963  10.965 -0.4750  0.1512  0.0586
 2382SOL    HW218783   0.399   2.008  10.852  0.1492  1.5360 -0.6661
 2383SOL     OW18784   4.721   2.282  17.550  0.3831 -0.4210 -0.0467
 2383SOL    HW118785   4.687   2.193  17.536 -2.4136  0.6449 -0.0404
 2383SOL    HW218786   4.685   2.336  17.481 -1.0393 -1.4012 -0.0748
 2384SOL     OW18787   1.302   0.546   3.666  0.3048  0.2858  0.1292
 2384SOL    HW118788   1.384   0.564   3.712 -0.4447  0.6629  1.3046
 2384SOL    HW218789   1.330   0.540   3.574  1.3321  1.2531  0.3805
 2385SOL     OW18790   3.289   1.635   7.216 -0.0086  0.2255  1.1274
 2385SOL    HW118791   3.287   1.550   7.172  0.6458  0.2803  0.9965
 2385SOL    HW218792   3.334   1.691   7.153  1.4513 -0.4023  1.6067
 2386SOL     OW18793   3.244   2.089  14.688  0.7977  0.0844  0.6195
 2386SOL    HW118794   3.169   2.136  14.724 -0.0682  0.6156 -1.9177
 2386SOL    HW218795   3.216   2.003  14.657  1.0687 -0.0396  0.7163
 2387SOL     OW18796   0.547   0.416   7.408 -0.0092  0.2315  0.5486
 2387SOL    HW118797   0.510   0.403   7.321  0.9126  3.2679 -0.2783
 2387SOL    HW218798   0.615   0.477   7.381 -0.2077  0.3036  0.2201
 2388SOL     OW18799   4.389   2.392  16.204 -0.1215  0.0455  0.6956
 2388SOL    HW118800   4.426   2.422  16.288 -1.6132  0.3083  1.2585
 2388SOL    HW218801   4.376   2.301  16.228  1.8678 -0.7002 -1.0380
 2389SOL     OW18802   3.810   1.845   2.103  0.1909  0.2218 -0.3530
 2389SOL    HW118803   3.759   1.918   2.137  2.1180  1.0803  0.7165
 2389SOL    HW218804   3.795   1.855   2.009 -1.1055 -0.2808 -0.1930
 2390SOL     OW18805   0.819   3.119   8.488 -0.3398 -0.6252  0.2425
 2390SOL    HW118806   0.868   3.055   8.540 -0.0225 -0.7213 -0.1819
 2390SOL    HW218807   0.734   3.118   8.533  0.4116  1.2166  1.6621
 2391SOL     OW18808   0.202   3.426   6.506  0.3510  0.7189 -0.2615
 2391SOL    HW118809   0.197   3.480   6.585 -1.9451 -1.4429  1.0722
 2391SOL    HW218810   0.121   3.442   6.456 -1.2890 -0.1719  2.1180
 2392SOL     OW18811   1.608   0.246   7.218 -0.3451 -0.0813 -0.1956
 2392SOL    HW118812   1.551   0.169   7.227  2.7427 -2.6453 -2.7253
 2392SOL    HW218813   1.585   0.281   7.132 -0.6676 -1.0687 -0.5063
 2393SOL     OW18814   1.080   3.016   9.622 -0.2113  0.1707 -0.4092
 2393SOL    HW118815   1.015   2.953   9.654 -0.3754  0.9377  0.7988
 2393SOL    HW218816   1.096   3.066   9.702  0.0927 -0.3224 -0.1621
 2394SOL     OW18817   1.474   3.758   8.676  0.0324 -0.1024 -0.2529
 2394SOL    HW118818   1.461   3.682   8.733  0.2223 -0.0494 -0.1425
 2394SOL    HW218819   1.428   3.726   8.598  0.0002  0.6111 -0.5225
 2395SOL     OW18820   4.405   4.379   7.426 -0.4462  0.5881  0.1721
 2395SOL    HW118821   4.349   4.369   7.503 -1.6801 -1.7812 -1.0327
 2395SOL    HW218822   4.371   4.324   7.356  0.7585 -0.7742  0.6733
 2396SOL     OW18823   0.681   0.088   5.504  0.1522  0.2031 -0.1864
 2396SOL    HW118824   0.713   4.737   5.489  3.4787  1.2841  0.4931
 2396SOL    HW218825   0.588   0.074   5.488  0.0836  1.0859 -0.5963
 2397SOL     OW18826   0.832   4.371   1.099  0.0658 -0.1957 -0.7512
 2397SOL    HW118827   0.902   4.387   1.036  1.8104 -1.0681  0.9420
 2397SOL    HW218828   0.778   4.449   1.092 -0.3326 -0.4314 -0.2434
 2398SOL     OW18829   1.983   4.410   6.741  0.0620 -0.2807 -0.2560
 2398SOL    HW118830   2.023   4.418   6.655 -0.9888 -2.9188 -0.9886
 2398SOL    HW218831   1.938   4.326   6.728 -0.3774 -0.1770  0.5684
 2399SOL     OW18832   2.599   3.529   3.817 -0.3458  0.2664  0.3055
 2399SOL    HW118833   2.509   3.540   3.786 -0.1302 -1.0357 -0.8235
 2399SOL    HW218834   2.613   3.434   3.820 -0.6994  0.2437  1.1241
 2400SOL     OW18835   2.178   1.025   4.843 -0.6110 -0.3202 -0.2359
 2400SOL    HW118836   2.262   0.991   4.811  0.6323  1.0516  1.6361
 2400SOL    HW218837   2.184   1.116   4.814 -2.7027 -0.0755  0.0665
 2401SOL     OW18838   4.136   0.621   6.583  0.6401 -0.0200  0.1398
 2401SOL    HW118839   4.107   0.655   6.667 -0.4473  0.0112 -0.2570
 2401SOL    HW218840   4.085   0.687   6.536  1.3360  0.6032  0.2436
 2402SOL     OW18841   3.265   2.762   3.399  0.0966 -0.0567 -0.0529
 2402SOL    HW118842   3.296   2.685   3.352 -0.6347  0.1286 -0.8495
 2402SOL    HW218843   3.351   2.797   3.420 -0.7736  0.9685  1.8329
 2403SOL     OW18844   2.034   0.843  12.234  0.2585 -0.3525 -0.8914
 2403SOL    HW118845   1.972   0.772  12.218  0.4224 -0.7583  0.2445
 2403SOL    HW218846   1.986   0.914  12.192 -1.0375 -0.1486  0.9291
 2404SOL     OW18847   0.821   2.301   8.944  0.3872  0.3750  0.3727
 2404SOL    HW118848   0.834   2.366   9.013 -1.0416  0.3555  0.6695
 2404SOL    HW218849   0.746   2.325   8.890  0.3789  2.5984  1.3547
 2405SOL     OW18850   0.491   1.231   9.288  0.1840 -0.1144 -0.5824
 2405SOL    HW118851   0.402   1.260   9.306 -0.3628 -0.8873 -2.0402
 2405SOL    HW218852   0.528   1.318   9.269 -0.4926 -0.2773 -2.6169
 2406SOL     OW18853   2.222   3.657   1.786 -0.3976  0.2390  0.2425
 2406SOL    HW118854   2.252   3.650   1.695 -0.5271 -0.6981  0.2638
 2406SOL    HW218855   2.152   3.720   1.768 -0.8266 -1.3316 -3.7379
 2407SOL     OW18856   2.383   2.724  16.434 -0.2789 -0.1609 -0.0523
 2407SOL    HW118857   2.289   2.709  16.422 -0.2682  0.1932 -0.5652
 2407SOL    HW218858   2.375   2.808  16.480 -1.1749 -1.1960  1.7176
 2408SOL     OW18859   4.567   3.404   5.494  0.5332  0.1117  0.0379
 2408SOL    HW118860   4.596   3.321   5.455  2.9389  1.6550 -1.4947
 2408SOL    HW218861   4.638   3.432   5.552  1.7158 -1.9742 -0.3990
 2409SOL     OW18862   1.867   1.464   5.209  0.2246 -0.0102 -0.5461
 2409SOL    HW118863   1.804   1.393   5.204  2.2898 -1.7187 -2.2237
 2409SOL    HW218864   1.842   1.498   5.123  0.8044 -0.5193 -0.9102
 2410SOL     OW18865   4.297   1.806  13.700 -0.5576  0.1927  0.1312
 2410SOL    HW118866   4.273   1.716  13.721 -0.2128  0.0303 -0.1686
 2410SOL    HW218867   4.321   1.830  13.790 -0.2694 -1.3382  0.4591
 2411SOL     OW18868   0.935   3.150   7.225 -0.3452  0.3867  0.2511
 2411SOL    HW118869   0.926   3.177   7.316  0.6143  2.8214 -0.3829
 2411SOL    HW218870   0.934   3.235   7.180 -1.5399 -0.3568 -1.1298
 2412SOL     OW18871   2.421   4.485   8.973  0.0382 -0.4824  0.4073
 2412SOL    HW118872   2.452   4.566   9.014 -1.1192 -0.4714  1.2466
 2412SOL    HW218873   2.498   4.431   8.987  1.1110  0.7894 -0.5966
 2413SOL     OW18874   0.557   4.549   5.778  0.0673  0.1462  0.0340
 2413SOL    HW118875   0.488   4.610   5.803 -1.1724 -1.7101  1.0965
 2413SOL    HW218876   0.515   4.472   5.817 -0.1073 -0.3085 -1.0583
 2414SOL     OW18877   3.606   4.400   1.941  0.1022 -0.5009  0.3099
 2414SOL    HW118878   3.590   4.451   2.021  0.5464 -0.1534  0.1731
 2414SOL    HW218879   3.517   4.372   1.917  0.2556  0.2907 -1.1507
 2415SOL     OW18880   1.691   0.935  14.528 -0.5461 -0.8783  0.3805
 2415SOL    HW118881   1.722   0.870  14.591  1.7401 -1.7349 -1.6179
 2415SOL    HW218882   1.629   0.991  14.574  0.5169  1.3663 -0.9491
 2416SOL     OW18883   1.739   0.498  16.200 -0.3968  0.3349 -0.1297
 2416SOL    HW118884   1.698   0.463  16.279 -2.2609  1.7222 -0.4792
 2416SOL    HW218885   1.734   0.592  16.218 -1.4095  0.8242 -2.9714
 2417SOL     OW18886   0.719   0.465  15.774  0.4817 -0.0576  0.0159
 2417SOL    HW118887   0.776   0.495  15.704  0.8046  1.1618  0.8086
 2417SOL    HW218888   0.693   0.546  15.818  0.0272 -0.9046  1.3138
 2418SOL     OW18889   2.249   3.103   8.987 -0.2818  0.4125  0.2844
 2418SOL    HW118890   2.251   3.076   8.895  0.7717  0.9654  0.1399
 2418SOL    HW218891   2.242   3.198   8.979 -0.6028  0.2598 -1.3604
 2419SOL     OW18892   2.393   2.278   6.320  0.4715 -0.4863 -0.3137
 2419SOL    HW118893   2.368   2.369   6.333  1.3450 -0.6580  2.4724
 2419SOL    HW218894   2.312   2.231   6.343 -0.9954  1.5326 -1.3637
 2420SOL     OW18895   1.509   3.535   4.927 -0.4202 -0.0096 -0.1198
 2420SOL    HW118896   1.497   3.616   4.975  2.7511  0.4453 -0.1292
 2420SOL    HW218897   1.421   3.497   4.933 -0.7933  0.7704 -0.6499
 2421SOL     OW18898   2.285   2.724   7.801 -0.0271 -0.1639 -0.0161
 2421SOL    HW118899   2.258   2.768   7.882 -0.5849  0.6096 -0.6120
 2421SOL    HW218900   2.197   2.705   7.769  0.5969  0.5423 -2.1782
 2422SOL     OW18901   3.401   4.664  12.306 -0.1832 -0.1185  0.2126
 2422SOL    HW118902   3.459   0.001  12.293 -0.8716  0.0015 -2.3104
 2422SOL    HW218903   3.407   4.663  12.401  0.7301  1.7897  0.1628
 2423SOL     OW18904   2.566   1.048   8.125 -0.1747  0.2941  0.1961
 2423SOL    HW118905   2.634   0.991   8.087  2.7597  3.1022  1.2383
 2423SOL    HW218906   2.562   1.118   8.059 -2.7494 -0.3337 -0.2868
 2424SOL     OW18907   1.460   0.206   3.531  0.1131 -0.1862 -0.0000
 2424SOL    HW118908   1.368   0.226   3.518  0.7585  0.1332 -4.0477
 2424SOL    HW218909   1.474   0.146   3.458  1.7564 -0.7002  0.7175
 2425SOL     OW18910   2.522   3.578   5.827  0.5978 -0.1691 -1.1577
 2425SOL    HW118911   2.609   3.563   5.865  0.5268 -0.5758 -1.1492
 2425SOL    HW218912   2.476   3.494   5.823 -0.3716  0.3411 -0.5572
 2426SOL     OW18913   1.112   2.768   4.646 -0.2502 -0.1562 -0.2695
 2426SOL    HW118914   1.141   2.747   4.557 -0.7542 -0.5986 -0.3268
 2426SOL    HW218915   1.190   2.757   4.700 -0.2867  2.1648  0.2416
 2427SOL     OW18916   2.667   3.843   4.376 -0.5049  0.2376  0.4604
 2427SOL    HW118917   2.734   3.886   4.429 -0.1654  0.4299 -0.1302
 2427SOL    HW218918   2.691   3.882   4.293 -0.6033  1.8801  1.2026
 2428SOL     OW18919   0.458   2.615  10.523 -0.3813 -0.3568 -0.0542
 2428SOL    HW118920   0.452   2.618  10.427 -1.0459 -0.5058 -0.0209
 2428SOL    HW218921   0.477   2.524  10.548  0.7631  0.8193  3.3080
 2429SOL     OW18922   3.317   3.658   3.427 -0.2136 -0.0758 -0.1048
 2429SOL    HW118923   3.392   3.685   3.480 -0.1869  0.3190 -0.3426
 2429SOL    HW218924   3.293   3.571   3.460  0.5187 -0.4735 -0.6362
 2430SOL     OW18925   2.625   3.526   8.597  0.3436 -0.0743  0.1415
 2430SOL    HW118926   2.700   3.568   8.556  0.5203 -0.0619  0.4727
 2430SOL    HW218927   2.591   3.606   8.638  1.3998  1.1607 -1.4282
 2431SOL     OW18928   0.201   4.638   3.575  0.2801 -0.0924  0.7329
 2431SOL    HW118929   0.290   4.661   3.549 -0.4367  0.1396 -1.5267
 2431SOL    HW218930   0.235   4.562   3.621  0.6445 -0.4148 -0.0541
 2432SOL     OW18931   0.608   2.992   7.950  0.4710 -0.2461  0.1084
 2432SOL    HW118932   0.521   3.027   7.930  0.8843  0.2711 -0.7820
 2432SOL    HW218933   0.618   3.012   8.043 -1.8510  0.3564  0.2358
 2433SOL     OW18934   0.085   1.971   5.000  0.4774 -0.7206  0.2262
 2433SOL    HW118935   0.075   1.976   5.095  3.9341 -0.4281  0.5764
 2433SOL    HW218936   4.736   1.996   4.968  1.2233 -0.6991 -1.8254
 2434SOL     OW18937   4.490   1.555   5.395  0.2423  0.1350  0.6468
 2434SOL    HW118938   4.439   1.490   5.442 -0.9202 -0.1672 -1.0621
 2434SOL    HW218939   4.541   1.577   5.473  0.7911  1.1761 -0.0044
 2435SOL     OW18940   1.385   4.585   8.308 -0.1404  0.0017 -0.3789
 2435SOL    HW118941   1.460   4.529   8.290 -0.8836 -1.4777  1.1072
 2435SOL    HW218942   1.402   4.627   8.392  2.0440  0.6283 -1.1394
 2436SOL     OW18943   4.553   3.299  10.355  0.6222 -0.1563  0.2597
 2436SOL    HW118944   4.594   3.302  10.269  0.7795 -0.6470  0.3225
 2436SOL    HW218945   4.495   3.375  10.350 -2.2068 -2.3504 -0.0572
 2437SOL     OW18946   0.634   1.052   6.761 -0.3716 -0.4500  0.1946
 2437SOL    HW118947   0.553   1.095   6.787  0.5044  1.6466 -0.5203
 2437SOL    HW218948   0.697   1.096   6.818 -1.7563  0.6438  0.8836
 2438SOL     OW18949   0.103   3.275   8.827 -0.3440  0.2563  0.4712
 2438SOL    HW118950   0.148   3.237   8.903  2.0969  1.5539 -0.3437
 2438SOL    HW218951   0.123   3.366   8.845 -0.3949 -0.0544  2.1096
 2439SOL     OW18952   2.179   1.949   0.081 -0.4688 -0.4881 -0.9207
 2439SOL    HW118953   2.271   1.955   0.053 -0.6064  1.0499 -1.0849
 2439SOL    HW218954   2.178   1.858   0.109 -0.1881 -0.2571 -0.1309
 2440SOL     OW18955   0.108   2.593  13.795  0.1071 -0.4062  0.2457
 2440SOL    HW118956   0.049   2.518  13.791  1.3576 -1.3855 -0.2898
 2440SOL    HW218957   0.123   2.611  13.888  2.0378 -0.2093 -0.0901
 2441SOL     OW18958   0.061   3.105   4.255  0.4314  0.2095 -0.0028
 2441SOL    HW118959   0.016   3.041   4.200 -0.0646 -1.6220  2.4922
 2441SOL    HW218960   0.071   3.053   4.335 -0.0529  0.6791  0.3651
 2442SOL     OW18961   2.048   1.173   9.848  0.1333 -0.7957  0.2966
 2442SOL    HW118962   2.052   1.255   9.896 -0.3785 -0.3526 -0.4248
 2442SOL    HW218963   2.133   1.176   9.804 -0.6312  0.6514 -1.0891
 2443SOL     OW18964   1.296   4.657  10.064  0.0077  0.0045  0.4551
 2443SOL    HW118965   1.345   4.736  10.084 -0.0847 -0.2088  1.5349
 2443SOL    HW218966   1.314   4.595  10.135  0.1088  0.1804  0.5824
 2444SOL     OW18967   3.526   2.972   7.831  0.6614 -0.4900  0.2248
 2444SOL    HW118968   3.514   3.026   7.753  1.1216  0.2365  0.6486
 2444SOL    HW218969   3.444   2.979   7.879  0.5885  2.6893 -0.3472
 2445SOL     OW18970   2.070   3.922  14.700  0.2539  0.6974 -0.2330
 2445SOL    HW118971   2.056   3.925  14.605 -0.2364  0.8195 -0.1569
 2445SOL    HW218972   2.056   3.830  14.719 -2.9101  1.5459  1.5317
 2446SOL     OW18973   1.500   3.188  10.358  0.7367 -0.1388 -0.2621
 2446SOL    HW118974   1.532   3.130  10.427  1.1873  0.3017 -0.0956
 2446SOL    HW218975   1.416   3.146  10.341  2.1921 -2.4387 -1.7312
 2447SOL     OW18976   2.290   2.451   2.919 -0.5546 -0.1538 -0.4041
 2447SOL    HW118977   2.302   2.464   2.825  0.3360 -0.2639 -0.3094
 2447SOL    HW218978   2.380   2.424   2.938 -1.3501 -0.3095  3.2875
 2448SOL     OW18979   1.853   3.527   4.946  0.5085 -0.1950  0.1221
 2448SOL    HW118980   1.765   3.491   4.949  0.2312  0.7787  3.0123
 2448SOL    HW218981   1.915   3.473   4.896  0.2006 -1.5278  1.1727
 2449SOL     OW18982   2.959   4.609   3.324 -0.4586  0.2573  0.2474
 2449SOL    HW118983   3.027   4.611   3.391  0.4034 -0.9625 -0.5966
 2449SOL    HW218984   2.886   4.659   3.363 -0.3340  1.4482 -1.0506
 2450SOL     OW18985   1.043   4.272   5.155 -0.1738  0.4014  0.0942
 2450SOL    HW118986   1.081   4.292   5.240  2.4037  0.9694 -1.2027
 2450SOL    HW218987   1.085   4.334   5.095 -0.1736  0.3801  0.0724
 2451SOL     OW18988   2.388   2.217   8.611  0.1604 -0.6257  0.0726
 2451SOL    HW118989   2.383   2.121   8.615  2.2336 -0.7683 -0.6464
 2451SOL    HW218990   2.482   2.238   8.607  0.1499 -0.4693  0.6646
 2452SOL     OW18991   2.209   4.148   7.868  0.1234  0.0853 -0.4544
 2452SOL    HW118992   2.151   4.086   7.913 -0.0039  0.5280  0.0039
 2452SOL    HW218993   2.270   4.090   7.824  2.2338  2.8550 -1.2029
 2453SOL     OW18994   0.022   1.489   7.804  0.4433  0.3177 -0.1802
 2453SOL    HW118995   0.093   1.454   7.750 -1.5343  0.1433 -2.7030
 2453SOL    HW218996   0.037   1.576   7.766 -2.3733  0.9872  0.2369
 2454SOL     OW18997   1.249   0.419  16.569 -0.0263 -0.0944  0.2309
 2454SOL    HW118998   1.306   0.484  16.526 -0.0370 -0.3880 -0.2312
 2454SOL    HW218999   1.310   0.345  16.558  0.9528  0.5594  1.2794
 2455SOL     OW19000   2.776   2.827   4.752 -0.6509  0.1071  0.3062
 2455SOL    HW119001   2.683   2.848   4.742 -0.8449 -1.5120 -1.3204
 2455SOL    HW219002   2.800   2.914   4.784 -0.6116  0.7043 -1.3128
 2456SOL     OW19003   1.135   2.673  14.251 -0.8617 -0.3094  0.3574
 2456SOL    HW119004   1.053   2.719  14.270 -0.6500  0.8728 -1.5753
 2456SOL    HW219005   1.169   2.737  14.188  1.2423 -0.1324  1.6763
 2457SOL     OW19006   0.305   3.503  10.843 -0.6860  0.3979  0.2287
 2457SOL    HW119007   0.348   3.447  10.908 -0.5394  0.1088 -0.1145
 2457SOL    HW219008   0.376   3.532  10.786  0.4765 -1.0148  0.9354
 2458SOL     OW19009   1.728   1.461   1.765 -0.2701 -0.3780 -0.8246
 2458SOL    HW119010   1.644   1.493   1.733  0.2408  1.3055 -0.4774
 2458SOL    HW219011   1.696   1.404   1.835  3.1417  0.9809  1.8335
 2459SOL     OW19012   3.677   0.486   5.129  0.3326  0.0430 -0.7015
 2459SOL    HW119013   3.745   0.468   5.064  3.7583  0.1090  2.9213
 2459SOL    HW219014   3.668   0.395   5.158  0.8784 -0.0313 -0.7559
 2460SOL     OW19015   1.077   3.961   4.187  0.1719  0.2882  0.0638
 2460SOL    HW119016   1.116   3.921   4.265 -0.2444  0.1490  0.2033
 2460SOL    HW219017   1.103   4.053   4.193  0.5481  0.1481  0.6617
 2461SOL     OW19018   4.555   1.077   2.567  0.2528  0.2349  0.2790
 2461SOL    HW119019   4.544   1.035   2.482 -1.9624 -2.6603  2.0331
 2461SOL    HW219020   4.499   1.020   2.620 -2.1598  1.5439 -0.8634
 2462SOL     OW19021   4.213   3.971  14.854 -0.0950  0.2230 -0.7115
 2462SOL    HW119022   4.188   4.061  14.874 -0.0578  0.4758 -1.7973
 2462SOL    HW219023   4.307   3.985  14.843 -0.4749  1.4892 -2.3448
 2463SOL     OW19024   3.786   4.463   4.453 -0.0485  0.3700 -0.1802
 2463SOL    HW119025   3.757   4.385   4.501 -1.0422  1.1999  0.5660
 2463SOL    HW219026   3.847   4.426   4.389  0.3398  0.9197 -0.1190
 2464SOL     OW19027   3.586   0.553   7.230  0.0117  0.0366 -0.2519
 2464SOL    HW119028   3.681   0.544   7.221  0.1421 -1.1052  2.4077
 2464SOL    HW219029   3.580   0.611   7.306 -2.4485 -0.7172  0.1489
 2465SOL     OW19030   4.408   4.261   1.047  0.2328  0.0673  0.3775
 2465SOL    HW119031   4.382   4.255   0.955  0.5945 -1.6708  0.3948
 2465SOL    HW219032   4.409   4.356   1.064  2.3074  0.3234 -1.1501
 2466SOL     OW19033   0.846   3.235   3.536 -0.0360 -0.3998 -0.1775
 2466SOL    HW119034   0.844   3.238   3.632 -0.0788  1.9762 -0.2533
 2466SOL    HW219035   0.804   3.152   3.517 -0.6116 -0.1617  0.0583
 2467SOL     OW19036   2.883   2.655   5.182  0.8186  0.4731 -0.1180
 2467SOL    HW119037   2.850   2.662   5.093 -0.4209 -2.0560  0.1442
 2467SOL    HW219038   2.882   2.560   5.193 -0.0477  0.7216  1.9775
 2468SOL     OW19039   3.958   2.934   7.684  0.4901  0.3300  0.4510
 2468SOL    HW119040   3.944   2.844   7.714  2.7370  0.1461  0.9671
 2468SOL    HW219041   4.042   2.958   7.724  0.5488  1.6337 -0.4468
 2469SOL     OW19042   1.756   3.321   5.239  0.4954 -0.1882  0.3615
 2469SOL    HW119043   1.762   3.412   5.210 -0.1123 -0.7163 -1.4400
 2469SOL    HW219044   1.660   3.313   5.246  0.2817  1.3778 -0.8678
 2470SOL     OW19045   4.573   0.391   6.157  0.4949 -0.2074  0.4921
 2470SOL    HW119046   4.545   0.391   6.066 -0.4238 -0.4746  0.7725
 2470SOL    HW219047   4.655   0.342   6.168 -0.8913 -2.5812  0.2508
 2471SOL     OW19048   1.345   0.329  10.847 -0.3831 -0.1076 -0.0591
 2471SOL    HW119049   1.273   0.358  10.791 -1.7493  0.7287  2.1372
 2471SOL    HW219050   1.411   0.392  10.816 -0.3888 -0.5657 -0.9972
 2472SOL     OW19051   4.011   3.010   3.015  0.0422  0.0798  0.2043
 2472SOL    HW119052   3.969   3.035   2.933 -1.4015  0.3398  1.0271
 2472SOL    HW219053   3.957   2.943   3.057  0.4664  1.7749  3.4656
 2473SOL     OW19054   1.559   0.952   3.881  0.3665  0.6233 -0.0017
 2473SOL    HW119055   1.609   0.931   3.960  0.2087  1.0392  0.2106
 2473SOL    HW219056   1.621   0.924   3.815  0.9254  2.7026 -0.3751
 2474SOL     OW19057   0.711   3.897   9.259 -0.3485  0.7115  0.3601
 2474SOL    HW119058   0.714   3.814   9.306 -0.3292  1.2560  1.3007
 2474SOL    HW219059   0.798   3.923   9.229 -0.6980  1.7737  0.2843
 2475SOL     OW19060   3.717   4.623   3.523 -0.0983 -0.2599  0.1839
 2475SOL    HW119061   3.708   4.527   3.522 -0.0672 -0.2577 -0.2330
 2475SOL    HW219062   3.789   4.627   3.586 -0.3691 -0.4274  0.5065
 2476SOL     OW19063   3.875   0.824   5.265 -0.6023  0.0751  0.2880
 2476SOL    HW119064   3.885   0.889   5.335  1.8041  2.1614 -1.9696
 2476SOL    HW219065   3.780   0.823   5.252 -0.7866  2.7737  1.2857
 2477SOL     OW19066   0.360   3.844  14.302 -0.4265  0.0062 -0.7003
 2477SOL    HW119067   0.332   3.765  14.346 -0.2622  0.8863  0.9884
 2477SOL    HW219068   0.451   3.816  14.289  0.2426  0.8307  2.1123
 2478SOL     OW19069   4.143   0.306   3.351 -0.4279 -0.4589  0.1929
 2478SOL    HW119070   4.183   0.352   3.277 -2.6552  2.7777  1.0070
 2478SOL    HW219071   4.084   0.373   3.384  0.4569 -0.5029  1.8720
 2479SOL     OW19072   1.539   0.489   5.901 -0.1212 -0.4071  0.1566
 2479SOL    HW119073   1.579   0.418   5.951 -1.0674 -0.1828  1.2345
 2479SOL    HW219074   1.604   0.522   5.839 -1.5847 -1.6493 -2.0503
 2480SOL     OW19075   1.003   4.164  17.442 -0.2763 -0.2536 -0.1431
 2480SOL    HW119076   1.082   4.215  17.424 -0.4790  0.4814  1.0964
 2480SOL    HW219077   0.951   4.241  17.467 -0.6856 -0.5760 -0.0107
 2481SOL     OW19078   2.897   1.550   6.408 -0.5904 -0.2194 -0.2059
 2481SOL    HW119079   2.820   1.562   6.464 -0.1812  1.2623  0.0528
 2481SOL    HW219080   2.861   1.571   6.322  2.2158 -0.7921 -1.5347
 2482SOL     OW19081   4.456   3.928   2.232  0.0393 -0.0396 -0.3773
 2482SOL    HW119082   4.364   3.909   2.212  0.8671 -2.6006 -1.7794
 2482SOL    HW219083   4.457   3.967   2.319 -2.6122 -0.3626 -0.2090
 2483SOL     OW19084   2.589   0.653   0.158 -0.4561 -0.0991  0.5970
 2483SOL    HW119085   2.631   0.727   0.202  0.7514  0.3904 -1.3317
 2483SOL    HW219086   2.618   0.575   0.205 -1.3607  0.0801  1.4429
 2484SOL     OW19087   0.194   3.828  14.086  0.1125  0.4090 -0.3278
 2484SOL    HW119088   0.261   3.825  14.153 -1.1809  0.6421  0.9633
 2484SOL    HW219089   0.143   3.904  14.112  0.7229  0.5278  0.5083
 2485SOL     OW19090   2.964   3.738   4.514  0.0289 -0.4097  0.1258
 2485SOL    HW119091   2.964   3.781   4.599  1.4293  0.9264 -0.5564
 2485SOL    HW219092   2.879   3.698   4.532 -0.1247  0.7406  1.9558
 2486SOL     OW19093   1.117   3.429   0.738  0.1392  0.4845 -0.0011
 2486SOL    HW119094   1.196   3.420   0.792  0.7565  1.8896 -0.6565
 2486SOL    HW219095   1.140   3.498   0.675  0.1348  0.6471  0.1749
 2487SOL     OW19096   3.044   4.289   2.948 -0.1131 -0.5420 -0.8612
 2487SOL    HW119097   2.958   4.248   2.937 -0.3727  0.0389 -1.0034
 2487SOL    HW219098   3.052   4.325   2.860 -0.9525 -0.4059 -0.8773
 2488SOL     OW19099   2.736   0.858  14.376  0.0248 -0.0090  0.2936
 2488SOL    HW119100   2.688   0.895  14.450 -0.8657  0.5760 -0.5715
 2488SOL    HW219101   2.817   0.825  14.415  0.0081 -1.9295 -1.2898
 2489SOL     OW19102   2.439   2.419  12.475  0.0746  0.5317 -0.0609
 2489SOL    HW119103   2.504   2.350  12.491  0.0294  0.3823 -0.5185
 2489SOL    HW219104   2.411   2.389  12.388  0.4214  1.2554 -0.4171
 2490SOL     OW19105   0.493   0.485   3.378  0.0532  0.1885 -0.0787
 2490SOL    HW119106   0.443   0.413   3.340 -2.0246  1.4047  0.3481
 2490SOL    HW219107   0.580   0.447   3.392  0.2418  0.2480 -1.1334
 2491SOL     OW19108   3.565   2.739   6.168  0.0949  0.4977 -0.0938
 2491SOL    HW119109   3.517   2.683   6.229 -1.1077  1.2349 -0.3749
 2491SOL    HW219110   3.517   2.719   6.088 -0.2505  0.6325  0.0798
 2492SOL     OW19111   0.099   3.477   2.654  0.2573  0.2059  0.5212
 2492SOL    HW119112   0.189   3.450   2.637  0.3416  0.7186  0.1648
 2492SOL    HW219113   0.082   3.546   2.590 -0.0966 -0.6011 -0.2497
 2493SOL     OW19114   1.172   2.604  11.755 -0.1588 -0.0072  0.0429
 2493SOL    HW119115   1.221   2.539  11.705  0.3913  1.1221 -0.8801
 2493SOL    HW219116   1.143   2.560  11.835 -0.9439 -0.9455 -0.7619
 2494SOL     OW19117   0.247   2.820  14.366  0.4769 -0.5512  0.1820
 2494SOL    HW119118   0.194   2.763  14.422 -1.6967  0.9711 -0.3014
 2494SOL    HW219119   0.185   2.893  14.370  0.1299 -0.8974  1.0776
 2495SOL     OW19120   4.395   2.558   7.416  0.2578  0.0292  0.0267
 2495SOL    HW119121   4.359   2.489   7.471 -0.2293  0.4332  0.2129
 2495SOL    HW219122   4.322   2.560   7.354 -0.4801 -2.1273  0.8243
 2496SOL     OW19123   1.438   3.760   5.580  0.1147 -0.5044  0.5373
 2496SOL    HW119124   1.478   3.748   5.666 -1.6614 -0.9134  1.2967
 2496SOL    HW219125   1.503   3.742   5.512  0.6568  1.5440  0.5190
 2497SOL     OW19126   2.821   1.117   4.486 -0.2346  0.2080 -0.2108
 2497SOL    HW119127   2.878   1.190   4.513 -0.2441 -0.1436  0.7736
 2497SOL    HW219128   2.839   1.115   4.392  0.7545  3.0514 -0.1030
 2498SOL     OW19129   3.316   0.129   3.974  0.8104 -0.0544  0.8085
 2498SOL    HW119130   3.288   0.038   3.962 -0.8229  0.8440 -2.4116
 2498SOL    HW219131   3.333   0.171   3.889 -0.4908 -1.2391 -0.0376
 2499SOL     OW19132   0.977   2.674  16.212 -0.6738  0.3741 -0.2021
 2499SOL    HW119133   0.918   2.655  16.139  0.9939 -0.1342 -1.4327
 2499SOL    HW219134   1.012   2.751  16.167 -0.5955  0.9140  0.7955
 2500SOL     OW19135   1.335   2.325   8.172  0.3727  0.4790  0.0290
 2500SOL    HW119136   1.383   2.406   8.157  0.7600  0.6095  1.9123
 2500SOL    HW219137   1.281   2.346   8.249 -0.2060 -1.8873  0.2780
 2501SOL     OW19138   4.524   0.387   8.909  0.1833 -0.3270  0.2223
 2501SOL    HW119139   4.602   0.345   8.872 -0.3152  1.4107 -2.8464
 2501SOL    HW219140   4.467   0.382   8.832 -0.7091 -0.5352  0.9033
 2502SOL     OW19141   1.127   1.072   4.231  0.2271 -0.2074 -0.1888
 2502SOL    HW119142   1.060   1.136   4.207 -0.1141 -0.6415 -0.3782
 2502SOL    HW219143   1.114   1.009   4.161 -2.5499  0.7420 -0.5492
 2503SOL     OW19144   3.939   2.859   3.551  0.1560 -0.2128  0.1555
 2503SOL    HW119145   3.855   2.814   3.550  0.3887 -0.6583  0.4130
 2503SOL    HW219146   3.923   2.944   3.593 -1.1744  1.1196 -3.0866
 2504SOL     OW19147   4.227   4.440   9.561 -0.2106 -0.4641  0.7218
 2504SOL    HW119148   4.145   4.476   9.594 -0.1878  0.6771 -0.4756
 2504SOL    HW219149   4.277   4.520   9.581  0.7160 -0.8182 -0.1724
 2505SOL     OW19150   0.106   4.660   4.049 -0.4111 -0.3747 -0.2691
 2505SOL    HW119151   0.191   4.639   4.088 -0.4019  2.0750  1.0383
 2505SOL    HW219152   0.124   0.005   4.004  1.5578 -0.3066  0.6623
 2506SOL     OW19153   2.349   3.866   3.945  0.1833  0.0629 -0.6557
 2506SOL    HW119154   2.437   3.830   3.948 -0.4695 -1.3310  1.8631
 2506SOL    HW219155   2.291   3.800   3.984 -0.2540  0.4820 -0.6049
 2507SOL     OW19156   1.918   0.886   3.285  0.1109 -0.5048  0.2490
 2507SOL    HW119157   1.832   0.858   3.317  1.1334 -2.8423  0.9842
 2507SOL    HW219158   1.897   0.977   3.264  0.0729 -0.2589  1.3927
 2508SOL     OW19159   4.263   4.295  11.682 -0.1206  0.1288  0.1988
 2508SOL    HW119160   4.183   4.296  11.735  0.5737  0.1507  1.2364
 2508SOL    HW219161   4.233   4.324  11.596 -0.3687  0.1904  0.3049
 2509SOL     OW19162   4.585   2.831   2.284  0.1977 -0.1745 -0.1878
 2509SOL    HW119163   4.522   2.901   2.265 -0.0768 -0.4902 -0.4472
 2509SOL    HW219164   4.533   2.758   2.317 -0.1392  1.2829  2.4967
 2510SOL     OW19165   3.142   3.215   8.712  0.5663  0.0422  0.8012
 2510SOL    HW119166   3.192   3.178   8.784  1.0051  2.1146  1.5546
 2510SOL    HW219167   3.106   3.282   8.769  1.5478 -0.3171  1.8301
 2511SOL     OW19168   3.943   0.210   4.785 -0.2325  0.2256  0.5192
 2511SOL    HW119169   4.024   0.226   4.735 -1.1596  3.0660 -0.0445
 2511SOL    HW219170   3.887   0.184   4.712  1.1790 -0.8989 -0.1766
 2512SOL     OW19171   0.031   2.931   9.083  1.1005 -0.2760  0.1203
 2512SOL    HW119172   0.097   2.906   9.018  0.3819 -0.6991 -0.4487
 2512SOL    HW219173   0.081   2.994   9.135  0.2757 -0.7447  1.4831
 2513SOL     OW19174   4.198   0.725   6.903  0.0211  0.1365  0.2476
 2513SOL    HW119175   4.133   0.734   6.834  0.4460  1.0873 -0.0271
 2513SOL    HW219176   4.224   0.636   6.881  2.0464  1.2871 -2.0221
 2514SOL     OW19177   1.018   2.280   9.223  0.0793  0.8128  0.0302
 2514SOL    HW119178   0.997   2.343   9.154 -1.3166  1.0606  0.6942
 2514SOL    HW219179   0.969   2.316   9.296  1.1017 -0.4116  1.3281
 2515SOL     OW19180   3.249   2.973   7.366 -0.2207 -0.2101 -0.3016
 2515SOL    HW119181   3.218   2.882   7.368 -0.4794 -0.0765  1.9619
 2515SOL    HW219182   3.200   3.007   7.441  0.2809 -1.7682  0.7224
 2516SOL     OW19183   0.889   1.405   8.497 -0.1129  0.0750 -0.2614
 2516SOL    HW119184   0.894   1.387   8.403  1.0881 -1.0345  0.0105
 2516SOL    HW219185   0.863   1.318   8.529  0.8734  0.2026  0.9004
 2517SOL     OW19186   2.380   0.070   7.807  0.6947  0.2249  0.3178
 2517SOL    HW119187   2.359   4.734   7.750  2.1598  0.5565 -0.6613
 2517SOL    HW219188   2.410   0.139   7.747  2.9322 -0.4563  0.6241
 2518SOL     OW19189   0.183   1.452   7.304 -0.5790  0.0131 -0.0615
 2518SOL    HW119190   0.173   1.537   7.347  0.5749  0.4740 -0.7141
 2518SOL    HW219191   0.100   1.404   7.309  0.7223 -2.3184 -0.8228
 2519SOL     OW19192   3.313   2.195   5.233 -0.3916  0.1782  0.6711
 2519SOL    HW119193   3.263   2.202   5.314  0.6382  1.3717  1.1927
 2519SOL    HW219194   3.241   2.196   5.169  1.2418  0.3850 -1.1801
 2520SOL     OW19195   4.048   0.007   2.579 -0.4657 -0.0210 -0.2440
 2520SOL    HW119196   3.994   0.060   2.638  1.9232  2.2402 -0.0823
 2520SOL    HW219197   4.054   0.057   2.497 -0.0804  3.0394  1.6594
 2521SOL     OW19198   3.285   2.405   4.310  0.1739 -0.0852 -0.0658
 2521SOL    HW119199   3.308   2.422   4.219 -2.8890  1.0856 -0.5945
 2521SOL    HW219200   3.191   2.402   4.291 -0.3475 -1.5000  2.7829
 2522SOL     OW19201   3.868   3.969   5.553 -0.1260 -0.4159  0.0531
 2522SOL    HW119202   3.843   3.896   5.610  2.5529 -0.8351  0.6783
 2522SOL    HW219203   3.938   3.929   5.502 -0.1366  1.7779 -1.6666
 2523SOL     OW19204   3.363   0.486  13.082  0.4964  0.5995  0.2490
 2523SOL    HW119205   3.379   0.580  13.091 -1.2873  0.9737 -0.4455
 2523SOL    HW219206   3.365   0.456  13.172 -1.2890  0.0687  0.1151
 2524SOL     OW19207   4.454   1.878  17.339  0.2220 -0.1177 -0.6335
 2524SOL    HW119208   4.470   1.807  17.276 -1.2470  0.2785 -1.4567
 2524SOL    HW219209   4.433   1.833  17.420 -1.8527  2.1604  0.0959
 2525SOL     OW19210   1.465   3.484  13.546  0.6828  0.4035 -0.6627
 2525SOL    HW119211   1.444   3.414  13.484  1.0148 -0.1132 -0.2032
 2525SOL    HW219212   1.400   3.469  13.615 -0.6528  2.3280 -1.5347
 2526SOL     OW19213   2.694   3.793  16.564  0.3589 -0.1112 -0.2279
 2526SOL    HW119214   2.665   3.863  16.505 -1.0015  0.8669  1.6147
 2526SOL    HW219215   2.775   3.772  16.517 -0.2703 -3.0965  0.0407
 2527SOL     OW19216   4.423   3.894   8.151 -0.0899 -0.1062  0.2732
 2527SOL    HW119217   4.501   3.847   8.122 -0.5197 -1.5710  1.4482
 2527SOL    HW219218   4.430   3.981   8.112  1.8186 -0.6450 -0.5976
 2528SOL     OW19219   3.693   1.961   8.449 -0.2353 -0.6282 -0.8911
 2528SOL    HW119220   3.762   2.019   8.481 -0.2981 -1.7593  1.2884
 2528SOL    HW219221   3.644   2.020   8.391  0.9605  1.8335  0.6009
 2529SOL     OW19222   3.180   4.648   2.061  0.6032 -0.7166 -0.4777
 2529SOL    HW119223   3.203   4.712   2.128 -0.0432 -1.0272  0.0385
 2529SOL    HW219224   3.238   4.665   1.987  1.5278  0.0777  0.4461
 2530SOL     OW19225   4.688   0.514   8.629 -0.1277  0.0795 -0.1446
 2530SOL    HW119226   4.665   0.599   8.667 -0.4371 -0.0440 -0.0599
 2530SOL    HW219227   4.614   0.502   8.570 -0.6105  0.9107  0.2909
 2531SOL     OW19228   4.661   3.429  11.735  0.3267  0.4579 -0.0776
 2531SOL    HW119229   4.606   3.493  11.691 -0.2871 -0.2580 -0.3602
 2531SOL    HW219230   0.009   3.455  11.702  1.8343 -0.3165  3.1666
 2532SOL     OW19231   2.457   2.343  13.410 -0.1730  0.7287 -0.0066
 2532SOL    HW119232   2.426   2.260  13.376 -0.4045  1.8905 -2.6234
 2532SOL    HW219233   2.448   2.353  13.505  0.9591 -0.6867  0.2536
 2533SOL     OW19234   4.116   4.216  12.162 -0.3380  0.2880  0.1831
 2533SOL    HW119235   4.110   4.296  12.110  0.0173  1.1635  1.5051
 2533SOL    HW219236   4.169   4.158  12.107  1.0860  1.1211  0.6845
 2534SOL     OW19237   1.127   0.429   5.104  0.0769 -0.4482  0.6604
 2534SOL    HW119238   1.123   0.457   5.195 -1.9382  1.0271  0.1320
 2534SOL    HW219239   1.190   0.358   5.115 -1.1890 -1.9562 -1.7602
 2535SOL     OW19240   4.423   3.210   4.966 -0.4651 -0.7488  0.4693
 2535SOL    HW119241   4.372   3.172   4.895 -0.5757  0.0367  0.1354
 2535SOL    HW219242   4.484   3.252   4.905 -0.8665 -1.3887 -0.3715
 2536SOL     OW19243   0.103   0.414   8.064 -0.0742 -0.1829 -0.0690
 2536SOL    HW119244   0.162   0.352   8.109 -2.4732 -0.4965  2.6092
 2536SOL    HW219245   0.098   0.365   7.982  3.8291  0.8764 -0.9350
 2537SOL     OW19246   4.240   0.192  13.851  0.3141  0.8081 -0.5806
 2537SOL    HW119247   4.275   0.227  13.769  0.1693  0.6847 -0.6946
 2537SOL    HW219248   4.309   0.127  13.864 -2.4414 -2.4703 -2.1948
 2538SOL     OW19249   0.260   2.220   5.436 -0.0050 -0.3589  0.4779
 2538SOL    HW119250   0.274   2.189   5.347  1.6404  2.8929 -0.3961
 2538SOL    HW219251   0.175   2.188   5.465 -0.4246  1.7286  1.5630
 2539SOL     OW19252   4.353   1.334   5.517  0.1962  0.5236 -0.0245
 2539SOL    HW119253   4.428   1.283   5.545 -0.3962 -0.9828 -1.2154
 2539SOL    HW219254   4.305   1.286   5.450 -0.1644  0.1990  0.4597
 2540SOL     OW19255   1.172   2.590   0.041  0.0016  0.0143 -0.3559
 2540SOL    HW119256   1.250   2.535   0.039 -0.6132 -0.8601 -0.2056
 2540SOL    HW219257   1.174   2.601  17.695  2.3261 -0.7027 -0.3898
 2541SOL     OW19258   4.286   1.311  14.806 -0.6500  0.0639 -0.6811
 2541SOL    HW119259   4.229   1.243  14.770  1.1434 -1.1488 -1.2499
 2541SOL    HW219260   4.362   1.319  14.749 -0.7830 -1.0595 -1.0181
 2542SOL     OW19261   1.472   1.650   5.413  0.0676  0.8308 -0.1153
 2542SOL    HW119262   1.502   1.560   5.404  0.3412  1.0993 -1.9126
 2542SOL    HW219263   1.382   1.650   5.380 -0.9882  0.1409  2.8208
 2543SOL     OW19264   1.986   0.106   8.635 -0.0495 -0.0203  0.4553
 2543SOL    HW119265   2.018   0.169   8.699  1.9666 -0.1026 -0.4680
 2543SOL    HW219266   1.956   0.044   8.701  2.3587  0.7012  2.2234
 2544SOL     OW19267   2.182   0.653  17.713  0.4640 -0.8148 -0.3460
 2544SOL    HW119268   2.218   0.630   0.049 -1.1115 -3.2533 -0.3374
 2544SOL    HW219269   2.266   0.651  17.667  1.8790  0.3764  2.1950
 2545SOL     OW19270   4.102   4.161  13.823 -0.7209  0.5480  0.1187
 2545SOL    HW119271   4.125   4.069  13.807  0.5732  1.1775 -1.6376
 2545SOL    HW219272   4.021   4.172  13.775 -1.0953  1.5992  0.9876
 2546SOL     OW19273   0.847   1.838   1.861  0.5512 -0.0492 -0.2764
 2546SOL    HW119274   0.800   1.922   1.867 -1.2619 -1.0602 -0.1130
 2546SOL    HW219275   0.791   1.790   1.800  0.3655  1.8323 -1.5763
 2547SOL     OW19276   3.344   3.946   7.354  0.3281  0.2805 -0.3255
 2547SOL    HW119277   3.420   3.982   7.309  0.2597  2.7280  1.5614
 2547SOL    HW219278   3.333   3.856   7.323 -0.0602 -0.2449  1.3395
 2548SOL     OW19279   3.389   0.703   6.173 -0.2573 -0.6051 -0.0648
 2548SOL    HW119280   3.449   0.629   6.187  2.7673  1.4110 -2.2519
 2548SOL    HW219281   3.455   0.758   6.130 -2.1225  2.0884  0.5310
 2549SOL     OW19282   4.259   4.249   8.423 -0.0209  0.2638  0.2086
 2549SOL    HW119283   4.352   4.270   8.413  0.4438 -0.2833  3.4426
 2549SOL    HW219284   4.226   4.305   8.353 -3.1214 -0.4543  1.1136
 2550SOL     OW19285   3.709   2.720   1.400 -0.0082  0.0013 -0.2994
 2550SOL    HW119286   3.663   2.648   1.356  0.3247  1.0967 -2.4565
 2550SOL    HW219287   3.686   2.789   1.337 -0.2840 -1.3299 -1.6628
 2551SOL     OW19288   3.462   2.874   2.254  0.5277 -0.5990  0.2102
 2551SOL    HW119289   3.402   2.949   2.256 -1.4574 -2.1332 -1.9544
 2551SOL    HW219290   3.545   2.921   2.255 -0.3935  1.0538 -0.5922
 2552SOL     OW19291   0.441   0.964   4.174 -0.4079 -0.0354 -0.0596
 2552SOL    HW119292   0.423   0.930   4.262  0.2852  0.4018  0.2559
 2552SOL    HW219293   0.494   0.888   4.148  0.8895  0.8530 -0.0083
 2553SOL     OW19294   4.247   4.431   8.231  0.1990  0.6280 -0.1435
 2553SOL    HW119295   4.302   4.376   8.173  0.5211  0.3930  0.3844
 2553SOL    HW219296   4.165   4.433   8.182 -0.1059 -0.3032  0.3271
 2554SOL     OW19297   1.085   3.198   8.429 -0.3925  0.6359 -0.3258
 2554SOL    HW119298   1.080   3.110   8.467  0.2204  0.5702 -0.3995
 2554SOL    HW219299   0.990   3.211   8.422  0.1899  3.7695 -2.4446
 2555SOL     OW19300   0.992   1.346   8.230  0.0885 -0.4503 -0.1326
 2555SOL    HW119301   1.078   1.342   8.188 -0.4203 -1.7967 -1.0451
 2555SOL    HW219302   0.960   1.263   8.194 -0.9981 -0.0642 -0.0573
 2556SOL     OW19303   0.384   1.573   3.243 -0.4532 -0.0321  0.1887
 2556SOL    HW119304   0.314   1.627   3.204 -1.1370 -0.6469  0.5719
 2556SOL    HW219305   0.350   1.571   3.332  0.7825  0.4876  0.6712
 2557SOL     OW19306   1.775   3.606  14.302  0.1322  0.4795  0.2000
 2557SOL    HW119307   1.679   3.605  14.292 -0.0712  0.2159  2.1662
 2557SOL    HW219308   1.789   3.515  14.329  1.0050  0.3778 -0.6008
 2558SOL     OW19309   0.703   1.625   5.234 -0.1244  0.1468 -0.1221
 2558SOL    HW119310   0.684   1.538   5.199 -0.8659  0.1500  0.2673
 2558SOL    HW219311   0.627   1.636   5.290 -0.1473  1.3530 -0.3805
 2559SOL     OW19312   1.766   4.378   8.647 -0.1646  0.2425 -0.1170
 2559SOL    HW119313   1.859   4.354   8.651 -0.3499 -0.3293  0.6379
 2559SOL    HW219314   1.761   4.377   8.552 -1.7120 -0.2343 -0.0236
 2560SOL     OW19315   1.474   1.224   3.879  0.2215 -0.5231 -0.1601
 2560SOL    HW119316   1.552   1.280   3.875  1.0542 -1.6534  0.0507
 2560SOL    HW219317   1.506   1.136   3.902  0.0865 -0.3820  0.5660
 2561SOL     OW19318   0.262   3.622   9.812 -0.2676 -0.2189 -0.5961
 2561SOL    HW119319   0.250   3.645   9.720 -1.1458  0.8203 -0.2110
 2561SOL    HW219320   0.358   3.623   9.814 -0.2660  0.1343 -0.9746
 2562SOL     OW19321   3.824   2.654   1.091 -0.2758 -0.1716  0.0367
 2562SOL    HW119322   3.805   2.660   0.998  1.3123 -3.0387 -0.4922
 2562SOL    HW219323   3.830   2.559   1.102  0.4431 -0.2275 -0.8063
 2563SOL     OW19324   3.318   0.988   2.664  0.6744  0.2177 -0.3177
 2563SOL    HW119325   3.239   1.040   2.679  0.5456  0.2880 -1.3003
 2563SOL    HW219326   3.378   1.061   2.647  1.3563 -0.7616 -2.0344
 2564SOL     OW19327   4.263   1.401   7.511  0.0973  0.5777 -0.2517
 2564SOL    HW119328   4.290   1.359   7.429  0.1562  0.5679 -0.2269
 2564SOL    HW219329   4.188   1.347   7.535  1.4983 -0.7745  1.0949
 2565SOL     OW19330   1.838   0.702   4.660  0.2302  0.7919  0.0399
 2565SOL    HW119331   1.876   0.789   4.645  3.0177 -0.5194 -0.6241
 2565SOL    HW219332   1.779   0.728   4.730  0.9528 -1.5674  1.5266
 2566SOL     OW19333   1.029   2.936   8.523  0.0826 -0.3632 -0.4185
 2566SOL    HW119334   1.120   2.905   8.517 -0.2622 -1.5734  0.6000
 2566SOL    HW219335   0.982   2.859   8.491  0.2763  0.2976 -2.2801
 2567SOL     OW19336   3.428   4.638   4.156 -0.8749 -0.1836 -0.2928
 2567SOL    HW119337   3.471   4.600   4.233  0.4784  0.6088 -0.6681
 2567SOL    HW219338   3.392   4.716   4.198  1.0114  0.4002  0.2314
 2568SOL     OW19339   0.099   1.975   8.051  0.7377  0.4327 -0.1210
 2568SOL    HW119340   0.142   1.964   8.136 -0.1373  0.6680  0.3457
 2568SOL    HW219341   0.165   1.932   7.997 -1.7895 -3.9224  0.2928
 2569SOL     OW19342   1.111   1.263   2.605 -0.5241 -0.5005  0.4550
 2569SOL    HW119343   1.073   1.206   2.672 -1.5677  1.5164  1.5825
 2569SOL    HW219344   1.040   1.247   2.542 -0.3905 -1.1371  0.4642
 2570SOL     OW19345   1.572   2.060   2.480 -0.1186 -0.1455  0.4723
 2570SOL    HW119346   1.584   2.125   2.550  0.5215  0.2488 -0.0084
 2570SOL    HW219347   1.654   2.054   2.432  0.0658 -0.3908  0.8203
 2571SOL     OW19348   0.407   2.616   9.560  0.3290 -0.5644  0.2422
 2571SOL    HW119349   0.491   2.586   9.525  0.6256  0.4805  0.0574
 2571SOL    HW219350   0.406   2.585   9.651 -0.0717  0.1058  0.4670
 2572SOL     OW19351   1.595   3.278   9.810  0.0934  0.2398  0.2472
 2572SOL    HW119352   1.637   3.324   9.882 -1.2435 -1.7076  2.2685
 2572SOL    HW219353   1.584   3.190   9.845  0.1032  0.0935 -0.1145
 2573SOL     OW19354   3.175   1.063   6.081 -0.2431 -0.3635 -0.1208
 2573SOL    HW119355   3.217   1.074   6.167 -2.4546  2.5683  0.5905
 2573SOL    HW219356   3.103   1.126   6.083 -1.1804 -1.4306 -0.2894
 2574SOL     OW19357   1.742   0.320  15.191  0.1816  0.1608 -0.0266
 2574SOL    HW119358   1.714   0.293  15.278  1.3479 -0.4328  0.1572
 2574SOL    HW219359   1.668   0.374  15.161  0.3016  0.0079 -0.6090
 2575SOL     OW19360   2.249   1.501  12.547 -0.5691 -0.0919 -0.5121
 2575SOL    HW119361   2.293   1.513  12.631  0.9473 -1.2385 -1.1583
 2575SOL    HW219362   2.301   1.556  12.490  0.2238  0.4354  0.7169
 2576SOL     OW19363   4.343   2.889   8.801  0.2516  0.0800  0.4617
 2576SOL    HW119364   4.438   2.891   8.791  0.2542 -2.2844  0.1222
 2576SOL    HW219365   4.321   2.828   8.872  2.1892 -1.0656  0.0709
 2577SOL     OW19366   1.598   0.995  13.736 -0.3751  0.2264  0.0512
 2577SOL    HW119367   1.509   0.977  13.705 -0.1901  0.4666 -0.6229
 2577SOL    HW219368   1.638   0.911  13.714  1.0349  1.5924 -2.5854
 2578SOL     OW19369   0.857   2.293   9.645 -0.0780  0.6085 -0.1652
 2578SOL    HW119370   0.847   2.271   9.553 -0.4281  2.2493 -0.5295
 2578SOL    HW219371   0.805   2.218   9.675 -2.3094  2.3027  0.2016
 2579SOL     OW19372   1.372   4.490   5.468  0.2000 -0.6947  0.1831
 2579SOL    HW119373   1.355   4.465   5.559  0.3324  1.2083  0.7341
 2579SOL    HW219374   1.302   4.445   5.420 -0.6313  2.4569 -1.5759
 2580SOL     OW19375   4.487   2.257   9.367  0.6155  0.4177  0.0645
 2580SOL    HW119376   4.572   2.300   9.358  0.6097  0.4669  0.2557
 2580SOL    HW219377   4.446   2.283   9.450  2.6258 -0.8855  1.4475
 2581SOL     OW19378   0.540   3.046   2.740  0.2910  0.2229  0.2208
 2581SOL    HW119379   0.534   2.984   2.667 -0.0612 -0.3964  0.7773
 2581SOL    HW219380   0.629   3.075   2.720  0.1050  1.6088  1.3721
 2582SOL     OW19381   2.156   3.536  17.588 -0.2059 -0.2089 -0.8396
 2582SOL    HW119382   2.181   3.522  17.679 -1.9903 -0.3388 -0.3695
 2582SOL    HW219383   2.121   3.624  17.590 -0.1160 -0.1816 -0.3619
 2583SOL     OW19384   2.049   0.988   3.804  0.3769 -0.3766  0.1831
 2583SOL    HW119385   2.015   1.031   3.725 -2.5109 -0.6265  1.2838
 2583SOL    HW219386   2.010   0.901   3.794  0.2724 -0.0223 -2.4259
 2584SOL     OW19387   4.166   3.146  14.335  0.6274 -0.3629  0.0977
 2584SOL    HW119388   4.094   3.100  14.378 -0.5309 -0.5580 -2.0359
 2584SOL    HW219389   4.130   3.229  14.304  0.8115 -0.8032 -1.3005
 2585SOL     OW19390   2.373   1.966   6.034  0.5741 -0.6365 -0.3311
 2585SOL    HW119391   2.284   1.951   6.067 -0.7623 -0.1746 -3.7010
 2585SOL    HW219392   2.372   1.911   5.955  0.2233  1.5105 -1.8249
 2586SOL     OW19393   4.292   3.198   3.162 -0.6208  0.6897  0.1887
 2586SOL    HW119394   4.307   3.137   3.090  1.0085  0.3130  0.8441
 2586SOL    HW219395   4.380   3.196   3.200 -0.8534 -1.2357  0.6109
 2587SOL     OW19396   0.435   0.625   8.538 -0.4248  0.7078 -1.0705
 2587SOL    HW119397   0.374   0.641   8.466 -0.6941  0.7581 -0.8323
 2587SOL    HW219398   0.462   0.714   8.563 -3.4088  1.1197  0.7209
 2588SOL     OW19399   4.508   3.765   3.288  0.7174  0.5171 -0.1342
 2588SOL    HW119400   4.483   3.767   3.195  2.3199  1.9411 -0.5381
 2588SOL    HW219401   4.556   3.683   3.306  0.9500  0.3604 -1.3948
 2589SOL     OW19402   2.565   0.484  15.761  0.2918 -0.3176  0.6225
 2589SOL    HW119403   2.487   0.474  15.706  1.7394  1.5351 -1.7817
 2589SOL    HW219404   2.574   0.579  15.770 -3.5069  0.0309  0.7140
 2590SOL     OW19405   3.548   1.605   7.598 -0.0404  0.2877 -0.6978
 2590SOL    HW119406   3.625   1.550   7.611  1.1321  1.7774 -1.3323
 2590SOL    HW219407   3.492   1.551   7.542  2.1825 -0.0054 -2.6344
 2591SOL     OW19408   0.692   3.726   5.391  0.0956 -0.4679  0.4034
 2591SOL    HW119409   0.656   3.814   5.382 -2.9010 -1.4397  2.7616
 2591SOL    HW219410   0.688   3.688   5.303 -2.5858 -0.7595  0.6606
 2592SOL     OW19411   1.261   2.674  12.752  0.3599 -0.3896 -0.0242
 2592SOL    HW119412   1.295   2.587  12.728 -1.0870 -0.8855 -0.2697
 2592SOL    HW219413   1.185   2.674  12.694  0.3479 -0.7328 -0.0125
 2593SOL     OW19414   3.760   0.672   8.291  0.0527 -0.0737 -0.0061
 2593SOL    HW119415   3.766   0.727   8.213  1.1005  1.3215  1.0606
 2593SOL    HW219416   3.840   0.621   8.279 -0.7779 -0.7567 -2.6647
 2594SOL     OW19417   4.485   3.973   4.418  0.0011  0.4453 -0.2092
 2594SOL    HW119418   4.460   3.932   4.501 -0.8874  0.8346 -0.2889
 2594SOL    HW219419   4.404   3.966   4.368 -1.6597  0.0880  2.5190
 2595SOL     OW19420   3.598   2.560   2.753 -0.0999 -0.1903  0.5395
 2595SOL    HW119421   3.649   2.482   2.774 -0.0520 -0.0926  0.7899
 2595SOL    HW219422   3.627   2.559   2.662 -3.3966  0.9017 -0.5270
 2596SOL     OW19423   1.777   3.438  15.550 -0.7708  0.5205  0.3257
 2596SOL    HW119424   1.710   3.471  15.610 -0.9149  1.5625 -0.4037
 2596SOL    HW219425   1.846   3.397  15.603 -1.0880 -1.8598 -1.1047
 2597SOL     OW19426   1.879   3.239  10.499  0.5053  0.1517  0.2072
 2597SOL    HW119427   1.842   3.182  10.567 -1.2722  0.8920 -0.1323
 2597SOL    HW219428   1.820   3.314  10.506 -1.1442 -1.0369 -0.8674
 2598SOL     OW19429   2.999   1.213   3.256 -0.0592 -0.2403  0.8216
 2598SOL    HW119430   2.968   1.292   3.302  0.6720  1.2563 -1.2646
 2598SOL    HW219431   2.966   1.228   3.167  0.1091  1.2252  1.0044
 2599SOL     OW19432   1.033   0.501   3.806  0.0391 -0.1036 -0.0942
 2599SOL    HW119433   1.121   0.496   3.769 -0.1078  0.8559 -0.5698
 2599SOL    HW219434   0.995   0.438   3.745  0.1316 -2.4683  2.2731
 2600SOL     OW19435   1.650   1.675  13.333  0.0063 -0.5967  0.1972
 2600SOL    HW119436   1.588   1.670  13.406 -1.7297 -1.0344 -1.3230
 2600SOL    HW219437   1.596   1.726  13.272  1.4486 -1.3376 -1.6792
 2601SOL     OW19438   1.262   4.210  16.981 -0.9734  0.2943  0.4067
 2601SOL    HW119439   1.309   4.282  16.939 -0.0024 -0.3593  0.3621
 2601SOL    HW219440   1.322   4.179  17.050 -0.4227  2.0344  0.7057
 2602SOL     OW19441   0.901   1.355   6.484  0.3529  0.1655  0.3075
 2602SOL    HW119442   0.953   1.283   6.518 -0.2861  0.7972  2.6286
 2602SOL    HW219443   0.891   1.393   6.572 -1.2661  1.4150 -0.4143
 2603SOL     OW19444   3.468   1.894  10.617 -0.0599  0.4168 -0.3740
 2603SOL    HW119445   3.514   1.843  10.551  0.1896  0.6515 -0.3833
 2603SOL    HW219446   3.380   1.861  10.598  0.4219 -0.4874 -1.0300
 2604SOL     OW19447   4.290   3.004   1.543  0.0002  0.2684  0.8446
 2604SOL    HW119448   4.334   3.088   1.526 -1.1793  0.9304  1.0229
 2604SOL    HW219449   4.359   2.962   1.594  0.9308  0.3616 -0.3508
 2605SOL     OW19450   1.814   2.760   2.807 -0.2917  0.5164  0.7700
 2605SOL    HW119451   1.827   2.668   2.830 -1.9976  0.0031 -0.3270
 2605SOL    HW219452   1.719   2.759   2.817 -0.5483  2.4189 -1.4775
 2606SOL     OW19453   2.597   3.756  16.793  0.1861 -0.1335 -0.3605
 2606SOL    HW119454   2.629   3.768  16.704  1.1863  0.9890  0.1524
 2606SOL    HW219455   2.665   3.798  16.845  1.0668  0.6197 -2.1141
 2607SOL     OW19456   2.096   1.995   5.304  0.1983 -0.0479  0.1109
 2607SOL    HW119457   2.058   1.967   5.221 -0.5399  0.3036  0.3315
 2607SOL    HW219458   2.034   1.951   5.361 -0.4081  1.6957  0.8173
 2608SOL     OW19459   4.579   2.392   8.275 -0.4016 -0.0538 -0.3283
 2608SOL    HW119460   4.618   2.389   8.363  2.2651 -1.6141 -1.5582
 2608SOL    HW219461   4.659   2.400   8.223 -0.4018 -0.7278 -0.4407
 2609SOL     OW19462   3.259   4.452   9.994 -0.4349  0.0919  0.3180
 2609SOL    HW119463   3.201   4.496   9.932  0.1209 -0.4955 -0.6258
 2609SOL    HW219464   3.191   4.401  10.038 -0.3057  0.8697  1.4097
 2610SOL     OW19465   0.416   3.942  10.647  0.5800 -0.3951  0.3541
 2610SOL    HW119466   0.441   3.849  10.648  0.1247 -0.5274 -0.5488
 2610SOL    HW219467   0.395   3.949  10.740  3.2513  0.2248  0.9087
 2611SOL     OW19468   2.503   3.755   5.259 -0.1261  0.1704 -0.1278
 2611SOL    HW119469   2.489   3.848   5.240  1.0480 -0.2879 -3.2419
 2611SOL    HW219470   2.433   3.711   5.210  1.8339 -2.4979 -0.5263
 2612SOL     OW19471   1.811   2.461   8.699 -0.3705  0.2419  0.0096
 2612SOL    HW119472   1.789   2.554   8.705 -0.2437  0.4624 -2.7025
 2612SOL    HW219473   1.879   2.478   8.633 -2.5227  1.9752 -1.7727
 2613SOL     OW19474   2.692   0.501   7.803 -0.3590 -0.2362  0.0628
 2613SOL    HW119475   2.716   0.411   7.825  2.4306 -0.1812 -2.6069
 2613SOL    HW219476   2.687   0.548   7.886  1.2006  1.8947 -1.0255
 2614SOL     OW19477   4.067   2.941   3.832 -0.2053  0.2986 -0.3107
 2614SOL    HW119478   4.157   2.941   3.800 -0.2338 -2.6760 -0.3300
 2614SOL    HW219479   4.048   3.029   3.800 -1.1143  0.2017 -0.0584
 2615SOL     OW19480   4.319   0.516   6.430  0.0818  0.0110  0.0887
 2615SOL    HW119481   4.409   0.538   6.454 -0.1292 -0.4692  1.3290
 2615SOL    HW219482   4.271   0.556   6.502  0.1874  2.5198 -1.2258
 2616SOL     OW19483   2.242   3.781   0.536  0.3653 -0.0165  0.3771
 2616SOL    HW119484   2.157   3.792   0.494  1.2926  0.4383 -1.3773
 2616SOL    HW219485   2.243   3.686   0.541 -0.0487 -0.0429 -0.0307
 2617SOL     OW19486   4.053   3.083   8.226  0.2684  0.0112  0.0779
 2617SOL    HW119487   4.077   2.993   8.205  0.0986 -0.3797  1.5138
 2617SOL    HW219488   3.958   3.079   8.215  0.1957  1.2493  0.2732
 2618SOL     OW19489   1.333   0.969   4.653 -0.7321  0.2025  0.5997
 2618SOL    HW119490   1.358   1.034   4.718 -1.5860  1.3374 -0.2045
 2618SOL    HW219491   1.257   0.924   4.689 -1.9476  0.1624 -1.9713
 2619SOL     OW19492   1.100   4.385  17.291 -0.6809 -0.0553 -0.0795
 2619SOL    HW119493   1.111   4.386  17.196  2.0954  0.2395  0.2671
 2619SOL    HW219494   1.184   4.406  17.331 -0.9329 -0.2692  0.5602
 2620SOL     OW19495   4.580   2.913   3.023  0.6224 -0.0481  0.2847
 2620SOL    HW119496   4.572   2.957   2.938 -2.9515  0.9465  1.1522
 2620SOL    HW219497   4.661   2.951   3.056  1.1794  0.7232 -1.9682
 2621SOL     OW19498   1.594   1.228   6.295  0.5193 -0.4107 -0.2559
 2621SOL    HW119499   1.662   1.211   6.230  0.5298  2.2797 -0.9260
 2621SOL    HW219500   1.592   1.323   6.295  1.1737 -0.3827  1.2250
 2622SOL     OW19501   4.075   3.834  16.394 -0.4292  0.6935 -0.1870
 2622SOL    HW119502   4.105   3.828  16.303  1.6937 -1.6925  0.6707
 2622SOL    HW219503   4.073   3.739  16.407  1.4680  0.7933  0.9287
 2623SOL     OW19504   4.486   3.742   2.531 -0.3308 -0.6905  0.0435
 2623SOL    HW119505   4.407   3.783   2.495  0.1555 -0.4260 -0.7279
 2623SOL    HW219506   4.524   3.821   2.569  1.7535 -1.6767 -0.0267
 2624SOL     OW19507   2.635   3.939   0.808  0.0297 -0.4831  0.4706
 2624SOL    HW119508   2.696   3.926   0.736 -1.3816 -0.5001 -0.7278
 2624SOL    HW219509   2.565   3.983   0.759  1.2782  3.1496  1.9305
 2625SOL     OW19510   1.108   1.277   7.058 -0.1810 -0.3889 -0.3152
 2625SOL    HW119511   1.015   1.287   7.035 -0.1098  0.7893 -0.1055
 2625SOL    HW219512   1.144   1.219   6.990 -1.7920 -2.2847  0.4592
 2626SOL     OW19513   1.210   3.391   5.801  0.6533  0.7966 -0.0696
 2626SOL    HW119514   1.171   3.476   5.783  1.4859  1.1750 -0.0829
 2626SOL    HW219515   1.269   3.385   5.725  1.3595 -0.4580  0.5782
 2627SOL     OW19516   0.499   3.150   6.601 -0.0437 -0.1262 -0.0106
 2627SOL    HW119517   0.574   3.097   6.628 -0.5657  0.6970  3.0740
 2627SOL    HW219518   0.439   3.120   6.669 -0.6024 -1.0323 -0.8981
 2628SOL     OW19519   4.592   1.485   8.765  0.2093 -0.5057 -0.1879
 2628SOL    HW119520   4.645   1.407   8.749  0.3070 -0.9069  2.0065
 2628SOL    HW219521   4.510   1.442   8.790  0.5641  0.6806  3.0470
 2629SOL     OW19522   2.603   2.467  10.360 -0.1090  0.1687 -0.9398
 2629SOL    HW119523   2.618   2.540  10.299 -1.3514  2.7348  1.8016
 2629SOL    HW219524   2.566   2.500  10.442  0.5137  2.5305 -1.5890
 2630SOL     OW19525   4.177   2.244   5.097  0.0809  0.5083 -0.0703
 2630SOL    HW119526   4.138   2.331   5.102  1.7308  1.1312  1.8211
 2630SOL    HW219527   4.187   2.219   5.189  2.3856  1.0353 -0.1880
 2631SOL     OW19528   0.977   0.604   6.362  0.1536  0.2693 -0.2729
 2631SOL    HW119529   0.912   0.655   6.409  1.4372  1.5881  0.0698
 2631SOL    HW219530   0.950   0.620   6.271  0.6981 -0.3062 -0.5383
 2632SOL     OW19531   4.727   4.594   4.298  0.3915  0.1188  0.1922
 2632SOL    HW119532   0.029   4.640   4.224 -0.8698 -0.2036 -0.6905
 2632SOL    HW219533   0.055   4.528   4.321 -0.0946  0.0603  1.4197
 2633SOL     OW19534   2.855   0.573   2.462  0.1111 -0.2610  0.1752
 2633SOL    HW119535   2.787   0.628   2.424 -0.8857 -1.2306  0.5460
 2633SOL    HW219536   2.875   0.617   2.544 -0.2282 -0.9955  0.6510
 2634SOL     OW19537   4.415   1.813   2.868  0.2179  0.5354  0.1806
 2634SOL    HW119538   4.447   1.894   2.827  2.9120 -0.9336 -0.5896
 2634SOL    HW219539   4.441   1.762   2.791 -0.6001 -1.7041  1.3817
 2635SOL     OW19540   0.550   0.191   8.330 -0.1926 -0.2274 -0.0319
 2635SOL    HW119541   0.590   0.268   8.370  1.7314 -1.5241  0.5569
 2635SOL    HW219542   0.472   0.189   8.386  1.1866  0.9671  1.9247
 2636SOL     OW19543   3.968   3.856  14.864  0.8050  0.0346 -0.2734
 2636SOL    HW119544   4.044   3.914  14.852  0.4807  1.0994  2.7516
 2636SOL    HW219545   3.989   3.827  14.952 -0.3018 -0.2191 -0.0927
 2637SOL     OW19546   2.932   2.036   9.889 -0.2745 -0.5029 -0.3730
 2637SOL    HW119547   2.881   2.044   9.969  0.4217  0.4178 -0.0234
 2637SOL    HW219548   2.929   2.120   9.842  1.6940 -0.2598 -0.0407
 2638SOL     OW19549   4.441   2.520   5.923  0.3994 -0.4326 -0.3044
 2638SOL    HW119550   4.399   2.555   5.844  0.2942 -1.4155 -0.6874
 2638SOL    HW219551   4.403   2.582   5.985 -0.3599 -1.0884 -0.1059
 2639SOL     OW19552   3.421   4.636   0.231 -0.0698  0.5736  0.1059
 2639SOL    HW119553   3.387   4.692   0.301  0.5595 -0.8549  1.5583
 2639SOL    HW219554   3.362   4.562   0.245 -0.6604  0.9189 -0.5754
 2640SOL     OW19555   0.639   1.073   9.111 -0.4168  0.4305 -0.6727
 2640SOL    HW119556   0.599   1.072   9.198 -0.5138  1.3887 -0.7077
 2640SOL    HW219557   0.635   1.167   9.091  0.6788  0.4755 -0.6795
 2641SOL     OW19558   1.161   2.198   7.994  0.3805 -0.0095 -0.3718
 2641SOL    HW119559   1.224   2.226   8.061 -1.4929  0.6886  1.0952
 2641SOL    HW219560   1.219   2.186   7.919  1.2142 -0.8202  0.4057
 2642SOL     OW19561   2.985   3.502   6.056  0.0068  0.0238  0.2779
 2642SOL    HW119562   3.021   3.446   6.125  0.2264  1.2079  1.1393
 2642SOL    HW219563   3.005   3.591   6.086 -3.0985  0.0714  2.1688
 2643SOL     OW19564   1.547   4.484  14.329 -0.2034  0.4354 -0.0444
 2643SOL    HW119565   1.559   4.395  14.296  0.9402  0.7733 -0.5470
 2643SOL    HW219566   1.452   4.487  14.319 -0.1901  2.1388  0.2021
 2644SOL     OW19567   2.132   1.003   6.526 -0.1507 -0.4325  0.0470
 2644SOL    HW119568   2.209   0.974   6.478  0.4050  1.2279 -0.0789
 2644SOL    HW219569   2.170   1.064   6.590 -0.9728 -1.0014  1.0830
 2645SOL     OW19570   4.306   0.279   7.096  0.1137  0.3472 -0.9908
 2645SOL    HW119571   4.368   0.237   7.156 -1.2661 -1.0226 -0.5289
 2645SOL    HW219572   4.292   0.211   7.031  2.8790 -1.7459  0.6227
 2646SOL     OW19573   2.377   2.049   6.638  0.1809  0.1748 -0.0477
 2646SOL    HW119574   2.418   2.118   6.690 -0.7763  1.4342 -0.9737
 2646SOL    HW219575   2.445   1.981   6.630 -1.8111 -1.7393 -0.7608
 2647SOL     OW19576   3.631   2.868   5.346  0.7760  0.1009 -0.7490
 2647SOL    HW119577   3.724   2.869   5.368  0.7440 -0.2159 -0.5959
 2647SOL    HW219578   3.621   2.773   5.346  0.0357  0.1775 -2.0642
 2648SOL     OW19579   4.713   4.557   6.155 -0.2014 -0.0902 -0.3863
 2648SOL    HW119580   4.658   4.594   6.224 -0.8791  2.5486 -2.3704
 2648SOL    HW219581   4.646   4.510   6.104  0.0541 -2.4883  1.4724
 2649SOL     OW19582   4.225   1.870  16.477  0.1937 -0.2061  0.5080
 2649SOL    HW119583   4.163   1.812  16.432  0.4028 -0.8026  0.9955
 2649SOL    HW219584   4.174   1.950  16.492  1.9629  0.9738  0.1568
 2650SOL     OW19585   3.342   1.363   6.058  0.5330  0.2066 -0.3864
 2650SOL    HW119586   3.436   1.371   6.072 -0.1539  1.0078  3.6939
 2650SOL    HW219587   3.294   1.423   6.115  0.3553 -0.6764  0.3913
 2651SOL     OW19588   2.897   4.214   4.461  0.1053  0.2577 -0.3511
 2651SOL    HW119589   2.804   4.216   4.486  0.3042  0.2797  0.3918
 2651SOL    HW219590   2.886   4.239   4.369 -1.5724 -0.6183 -0.3927
 2652SOL     OW19591   4.656   2.977   7.463  0.2486 -0.3148 -0.1921
 2652SOL    HW119592   4.688   2.983   7.373  0.6442  1.4744  0.0722
 2652SOL    HW219593   4.711   3.041   7.509 -0.6739  1.3856 -1.4313
 2653SOL     OW19594   1.818   4.524  14.473 -0.2713 -0.3731  0.1102
 2653SOL    HW119595   1.889   4.570  14.429 -0.4897 -1.6862 -1.6314
 2653SOL    HW219596   1.744   4.515  14.413 -0.4814  1.1026  0.1536
 2654SOL     OW19597   2.679   4.326   4.954  0.6369  0.2095  0.6576
 2654SOL    HW119598   2.644   4.241   4.930 -0.2426  0.8121 -0.2196
 2654SOL    HW219599   2.738   4.313   5.028  1.4443  0.0229 -0.0198
 2655SOL     OW19600   1.715   0.182   2.500  0.3955 -0.6943 -0.2695
 2655SOL    HW119601   1.629   0.153   2.471  0.3186  0.7157 -1.4918
 2655SOL    HW219602   1.709   0.160   2.593  1.6888  0.4861  0.1016
 2656SOL     OW19603   3.033   4.733   3.828 -0.0739  0.5884  0.1866
 2656SOL    HW119604   3.000   4.667   3.767 -1.2075  0.6645  0.7201
 2656SOL    HW219605   3.081   4.689   3.898  1.7049  1.3503 -0.5481
 2657SOL     OW19606   2.429   3.644  14.753 -0.6850  0.5338  0.2546
 2657SOL    HW119607   2.483   3.712  14.793  2.6252 -3.2457  2.2807
 2657SOL    HW219608   2.454   3.571  14.810 -1.0282  1.4650  1.5952
 2658SOL     OW19609   0.226   3.700   9.564  0.1568  0.8506 -0.8017
 2658SOL    HW119610   0.181   3.630   9.517  0.3892  0.7080 -0.8131
 2658SOL    HW219611   0.307   3.693   9.512 -0.4195 -0.5419 -1.5110
 2659SOL     OW19612   1.587   0.148   3.761 -0.1046 -0.5313  0.0269
 2659SOL    HW119613   1.555   0.207   3.692  2.3104 -1.2519 -1.7161
 2659SOL    HW219614   1.545   0.063   3.748 -1.6131  0.2436 -0.1892
 2660SOL     OW19615   3.512   1.070   4.629  0.6572 -0.1326 -0.1164
 2660SOL    HW119616   3.481   1.095   4.716 -0.1998  1.5857 -0.9186
 2660SOL    HW219617   3.560   0.990   4.653  1.4459 -0.1103 -1.6082
 2661SOL     OW19618   1.929   2.125   1.498  0.0459  0.1959 -0.6571
 2661SOL    HW119619   1.910   2.146   1.407  0.7623  0.9561 -0.6231
 2661SOL    HW219620   1.895   2.036   1.507 -0.8688  0.5964 -0.2112
 2662SOL     OW19621   3.701   3.980   8.346 -0.4560  0.1264  0.4102
 2662SOL    HW119622   3.660   4.009   8.265 -0.1080  1.1208  0.6013
 2662SOL    HW219623   3.646   3.904   8.368  1.5872 -1.3999  0.2579
 2663SOL     OW19624   4.408   2.306  10.989 -0.3201 -0.5482  0.0460
 2663SOL    HW119625   4.420   2.220  10.947 -0.0275  0.8001 -2.6393
 2663SOL    HW219626   4.373   2.362  10.919  1.1691 -0.7010 -0.8258
 2664SOL     OW19627   2.213   1.147  11.720  0.3806 -0.0623 -0.1645
 2664SOL    HW119628   2.119   1.155  11.737  0.6625  1.6795  0.5576
 2664SOL    HW219629   2.237   1.081  11.786  0.0977 -1.2920 -1.2969
 2665SOL     OW19630   3.545   4.517   2.174  0.5543  0.4697 -0.3061
 2665SOL    HW119631   3.523   4.521   2.267  0.0719 -0.0883 -0.3987
 2665SOL    HW219632   3.535   4.610   2.152 -0.0207  0.7578  1.2217
 2666SOL     OW19633   1.153   3.729   2.580 -0.1269  0.1523  0.2765
 2666SOL    HW119634   1.130   3.712   2.671  0.6639  0.7752  0.5929
 2666SOL    HW219635   1.248   3.723   2.588 -0.1972 -0.3307  0.7259
 2667SOL     OW19636   0.761   3.339   8.711  0.0952  0.4341 -0.3374
 2667SOL    HW119637   0.682   3.294   8.680  0.8176 -2.9629  2.6724
 2667SOL    HW219638   0.735   3.429   8.696 -1.1716  0.1829  0.3766
 2668SOL     OW19639   1.782   0.609   6.093  0.1338  0.0300  0.2968
 2668SOL    HW119640   1.729   0.656   6.028  0.7862  2.1835  1.3269
 2668SOL    HW219641   1.846   0.676   6.118  2.0997 -1.8322  0.1658
 2669SOL     OW19642   0.576   0.702   6.140  0.4348  0.7389 -0.5667
 2669SOL    HW119643   0.489   0.714   6.101 -0.0693 -2.6319 -0.4717
 2669SOL    HW219644   0.545   0.663   6.222  1.5022  0.1536 -0.4488
 2670SOL     OW19645   4.094   1.712   0.815 -0.3012  0.1809 -0.0773
 2670SOL    HW119646   4.105   1.701   0.910 -0.8055 -1.2511 -0.1878
 2670SOL    HW219647   4.185   1.689   0.794 -0.1566  1.5500 -0.9016
 2671SOL     OW19648   0.938   3.396   1.545 -0.0787  0.1856 -0.7523
 2671SOL    HW119649   0.858   3.419   1.497 -0.6436  0.8597  0.5118
 2671SOL    HW219650   0.990   3.353   1.478 -0.3596  0.0200 -0.8656
 2672SOL     OW19651   0.279   1.440  13.850 -0.0040 -0.2135 -0.5048
 2672SOL    HW119652   0.348   1.448  13.785  1.4639 -1.9076  0.8359
 2672SOL    HW219653   0.246   1.530  13.851 -0.7640 -0.4915 -0.8410
 2673SOL     OW19654   1.615   4.708   7.554 -0.0176  0.5068  0.5253
 2673SOL    HW119655   1.593   4.714   7.461 -0.8530 -0.6756  0.6279
 2673SOL    HW219656   1.523   4.696   7.578 -0.1447  1.1650  0.3483
 2674SOL     OW19657   3.820   2.363   4.684 -0.1078  0.3661 -0.1510
 2674SOL    HW119658   3.872   2.318   4.749  1.0887 -1.2559 -2.2432
 2674SOL    HW219659   3.885   2.425   4.650 -0.7760  0.5454 -1.1096
 2675SOL     OW19660   2.773   1.138   9.042 -0.9961 -0.1654 -0.0116
 2675SOL    HW119661   2.822   1.193   8.981 -0.7053 -0.3266  0.0776
 2675SOL    HW219662   2.792   1.050   9.008  2.8597  0.0469  1.6190
 2676SOL     OW19663   3.386   0.768  16.336 -0.4272  0.3507  0.0745
 2676SOL    HW119664   3.371   0.787  16.429  2.2515  0.2944  0.5259
 2676SOL    HW219665   3.424   0.853  16.314 -1.5970  1.1242  1.0456
 2677SOL     OW19666   1.710   2.170   0.509 -0.0302  0.0045 -0.7228
 2677SOL    HW119667   1.771   2.098   0.524 -0.7681 -0.7936 -1.5470
 2677SOL    HW219668   1.747   2.233   0.571 -0.3224 -1.5830  1.0497
 2678SOL     OW19669   3.505   2.886   3.433  0.0614  0.0641 -0.0745
 2678SOL    HW119670   3.503   2.901   3.339 -0.3026  0.4318 -0.0075
 2678SOL    HW219671   3.569   2.816   3.445  0.2631  0.7528  2.9929
 2679SOL     OW19672   1.316   0.594   5.726 -0.3606 -0.2914  0.1945
 2679SOL    HW119673   1.333   0.563   5.815  0.8319  0.4308  0.2110
 2679SOL    HW219674   1.389   0.545   5.689 -0.9565  0.0212 -1.3898
 2680SOL     OW19675   1.812   4.364  15.651 -0.5088 -0.7927  0.0246
 2680SOL    HW119676   1.876   4.328  15.712 -1.1451 -1.4885  0.2742
 2680SOL    HW219677   1.729   4.319  15.665 -0.6132 -0.7397 -0.4466
 2681SOL     OW19678   3.654   0.098   6.066 -0.0502  0.3439  0.1635
 2681SOL    HW119679   3.729   0.065   6.116  0.3489 -1.6255 -1.7186
 2681SOL    HW219680   3.600   0.125   6.140 -0.2460  0.4515 -0.0206
 2682SOL     OW19681   1.573   3.870   9.689 -0.4527  0.0339  0.1132
 2682SOL    HW119682   1.486   3.839   9.664 -0.8418 -0.3602  1.9485
 2682SOL    HW219683   1.625   3.805   9.641 -1.5438 -1.3266  0.8089
 2683SOL     OW19684   1.155   3.537   4.147 -0.1122 -0.0716 -0.0354
 2683SOL    HW119685   1.118   3.582   4.223 -0.6730 -0.2598 -0.1970
 2683SOL    HW219686   1.212   3.604   4.110 -2.3316  1.4331 -0.7545
 2684SOL     OW19687   4.128   2.263  12.947 -0.5316  0.8595  0.3921
 2684SOL    HW119688   4.198   2.213  12.990 -0.8987  0.2300  0.2632
 2684SOL    HW219689   4.130   2.348  12.991 -3.7857  0.7387  0.7811
 2685SOL     OW19690   2.177   4.042   7.494 -0.0897 -0.0805 -0.1790
 2685SOL    HW119691   2.164   3.997   7.411  0.0232 -0.3781 -0.0351
 2685SOL    HW219692   2.226   3.970   7.534  0.0513  0.4378  0.5842
 2686SOL     OW19693   4.395   3.916  12.019 -1.0178 -0.7392 -0.2003
 2686SOL    HW119694   4.434   4.003  12.033 -0.7212 -1.2221  2.0742
 2686SOL    HW219695   4.317   3.915  12.073 -1.0798  2.2001 -0.2592
 2687SOL     OW19696   0.901   4.351   7.893 -0.0613  0.3892  0.1088
 2687SOL    HW119697   0.865   4.400   7.967  0.4823  0.8734  0.0559
 2687SOL    HW219698   0.994   4.360   7.916  0.1036 -0.2438 -0.3062
 2688SOL     OW19699   3.542   2.654   7.371 -0.6924 -0.2797  0.2637
 2688SOL    HW119700   3.593   2.648   7.452  1.1532 -0.1357 -0.8875
 2688SOL    HW219701   3.537   2.750   7.366  1.6538 -0.1561  0.2003
 2689SOL     OW19702   1.404   4.269   4.022 -0.0455 -0.2383  0.3662
 2689SOL    HW119703   1.328   4.325   4.038 -3.2487 -3.5056 -3.5879
 2689SOL    HW219704   1.369   4.223   3.946 -0.9290 -1.1601  1.3316
 2690SOL     OW19705   0.495   4.569  12.465  0.4012  0.0835  0.0867
 2690SOL    HW119706   0.422   4.507  12.464  1.3548 -1.0221 -0.3707
 2690SOL    HW219707   0.488   4.603  12.375 -1.1371  1.4747  0.7308
 2691SOL     OW19708   2.378   1.938   8.614 -0.1216  0.2251  0.0904
 2691SOL    HW119709   2.427   1.857   8.627  0.5997  0.6857  0.2862
 2691SOL    HW219710   2.286   1.910   8.616  0.0616 -0.4180 -0.2709
 2692SOL     OW19711   1.964   3.165  15.610 -0.4333  0.0068  0.1044
 2692SOL    HW119712   1.936   3.080  15.575 -1.3250 -0.3456  1.6673
 2692SOL    HW219713   2.054   3.164  15.580 -0.0590 -1.6861  1.2768
 2693SOL     OW19714   1.683   0.917   7.740 -0.4910  0.5194  0.2310
 2693SOL    HW119715   1.746   0.980   7.773 -0.5204 -0.6655  2.5600
 2693SOL    HW219716   1.680   0.855   7.813  1.0507 -0.7860 -0.7942
 2694SOL     OW19717   2.989   1.136   6.509 -0.2641 -0.2116 -0.2324
 2694SOL    HW119718   2.900   1.132   6.542  0.7049 -0.0348  2.3922
 2694SOL    HW219719   3.010   1.229   6.519 -1.7515  0.1995 -0.9636
 2695SOL     OW19720   3.768   2.294  12.690  0.4833 -0.5170  0.0161
 2695SOL    HW119721   3.679   2.327  12.685  0.1433 -1.5397 -0.8165
 2695SOL    HW219722   3.818   2.376  12.690 -0.5483  0.1022 -1.3558
 2696SOL     OW19723   3.686   4.472   8.568  0.0879 -0.0639  0.7942
 2696SOL    HW119724   3.699   4.407   8.638  1.8390 -2.3673 -1.6793
 2696SOL    HW219725   3.591   4.483   8.563  0.4423  2.7482  0.1174
 2697SOL     OW19726   3.625   3.907   5.876 -0.2050 -0.4777  0.7926
 2697SOL    HW119727   3.623   3.828   5.929 -1.2674 -0.3328  0.9707
 2697SOL    HW219728   3.536   3.935   5.898  0.1184  1.9185 -0.8479
 2698SOL     OW19729   1.016   4.539   1.565  0.5862  0.2812 -0.3606
 2698SOL    HW119730   0.972   4.521   1.649 -0.0628 -0.1979 -0.8054
 2698SOL    HW219731   1.096   4.579   1.600 -0.1642  0.1768  1.4691
 2699SOL     OW19732   1.448   2.720   9.918 -0.2729 -0.6097  0.2996
 2699SOL    HW119733   1.448   2.634   9.875 -1.7468 -0.0804 -0.7604
 2699SOL    HW219734   1.397   2.761   9.848 -0.5617 -0.6435  0.4887
 2700SOL     OW19735   3.280   3.925  13.301 -0.7973  0.1576 -0.1656
 2700SOL    HW119736   3.369   3.955  13.283 -0.2592  0.2973  2.6498
 2700SOL    HW219737   3.226   4.001  13.282  0.2224  0.4662 -1.7882
 2701SOL     OW19738   1.828   4.209  10.273  0.0492  0.0258 -0.3482
 2701SOL    HW119739   1.875   4.159  10.206  0.2098 -0.8765  0.4440
 2701SOL    HW219740   1.743   4.219  10.229 -0.9973 -1.5246  1.3088
 2702SOL     OW19741   2.896   3.666   2.158  0.0747 -0.2351 -0.2493
 2702SOL    HW119742   2.877   3.750   2.115  0.6386 -1.0436 -2.0424
 2702SOL    HW219743   2.861   3.595   2.105  2.9311 -0.8546 -1.2629
 2703SOL     OW19744   4.713   2.095   2.588 -0.3716 -0.4002  0.0925
 2703SOL    HW119745   4.704   2.168   2.526  1.6990  0.2469  0.5346
 2703SOL    HW219746   0.026   2.032   2.537  1.4260  1.4402 -0.4120
 2704SOL     OW19747   2.798   4.413   8.792 -0.2345 -0.2073 -0.1761
 2704SOL    HW119748   2.751   4.392   8.872 -0.6417 -2.7334 -1.0968
 2704SOL    HW219749   2.846   4.487   8.830  1.7636 -0.5223 -2.0865
 2705SOL     OW19750   3.473   2.718   4.225  0.0576 -0.6554 -0.2168
 2705SOL    HW119751   3.554   2.701   4.176 -0.5242  0.2863 -1.4920
 2705SOL    HW219752   3.501   2.803   4.258 -0.0261 -0.5298 -0.4722
 2706SOL     OW19753   4.335   3.766   3.679  0.3644 -0.7767 -0.1700
 2706SOL    HW119754   4.415   3.714   3.667  1.3958  1.0126 -0.9591
 2706SOL    HW219755   4.318   3.746   3.772  0.7553 -1.4756 -0.2463
 2707SOL     OW19756   2.632   1.629   3.176 -0.2691 -0.2763  0.0704
 2707SOL    HW119757   2.582   1.688   3.233 -0.5664 -0.6912  0.2352
 2707SOL    HW219758   2.583   1.640   3.094  0.8227  0.1139 -0.5380
 2708SOL     OW19759   1.859   0.653  12.140 -0.0478  0.3422  0.7019
 2708SOL    HW119760   1.821   0.668  12.053 -0.0890 -2.2568  0.2582
 2708SOL    HW219761   1.906   0.570  12.132 -3.4027 -1.8946  3.9666
 2709SOL     OW19762   1.874   3.374  17.270 -0.7108  0.2913  0.0124
 2709SOL    HW119763   1.953   3.350  17.318 -0.3442  1.1205 -0.1675
 2709SOL    HW219764   1.901   3.456  17.229 -0.4064  0.2904  0.2105
 2710SOL     OW19765   4.727   4.172   1.702 -0.4409  0.0113 -0.0800
 2710SOL    HW119766   0.024   4.250   1.745 -0.3535  0.7471 -1.4710
 2710SOL    HW219767   4.648   4.206   1.658 -1.5952 -2.9295 -0.3054
 2711SOL     OW19768   2.669   4.411   6.880 -0.2291 -0.9859 -0.5886
 2711SOL    HW119769   2.632   4.337   6.929  2.5318 -2.6607 -1.0117
 2711SOL    HW219770   2.760   4.385   6.861  0.9686  1.4491  1.7599
 2712SOL     OW19771   2.775   3.230   5.124 -0.0820 -0.3603 -0.3424
 2712SOL    HW119772   2.814   3.142   5.130  1.9663  0.5477 -0.4027
 2712SOL    HW219773   2.768   3.252   5.217 -0.6907 -1.0919 -0.2115
 2713SOL     OW19774   2.718   0.380   5.592  0.6188  0.1648  0.0619
 2713SOL    HW119775   2.764   0.334   5.522  1.6679 -0.4571  1.1688
 2713SOL    HW219776   2.692   0.466   5.559  0.5030  0.7210  1.6294
 2714SOL     OW19777   1.667   3.091   2.965  0.0528 -0.1684 -0.5225
 2714SOL    HW119778   1.758   3.072   2.943  0.4728  0.5010  0.6332
 2714SOL    HW219779   1.675   3.179   3.001  0.3834 -1.3512  2.2487
 2715SOL     OW19780   2.714   2.073   3.969  0.2156  0.0600  0.1841
 2715SOL    HW119781   2.777   2.145   3.969  1.0753 -0.6779  2.1132
 2715SOL    HW219782   2.722   2.038   4.058  1.8607 -1.9452 -0.7553
 2716SOL     OW19783   1.969   3.597   7.438  0.4520 -0.0429 -0.9445
 2716SOL    HW119784   1.939   3.687   7.450  1.4594  0.3172 -1.0988
 2716SOL    HW219785   2.007   3.583   7.525  1.0397 -0.7891 -1.3190
 2717SOL     OW19786   1.565   1.169  14.588  0.0817 -0.3317  0.2205
 2717SOL    HW119787   1.472   1.162  14.568  0.3345  1.2076 -1.5138
 2717SOL    HW219788   1.596   1.227  14.518 -1.4429 -0.5874 -0.6557
 2718SOL     OW19789   0.353   0.162   0.640 -0.1834  0.0981  0.2475
 2718SOL    HW119790   0.441   0.160   0.676 -0.2037  2.3306  0.4352
 2718SOL    HW219791   0.331   0.070   0.652 -0.1450 -0.1455 -1.5583
 2719SOL     OW19792   1.639   3.224  17.553  0.6667 -0.3606 -0.2577
 2719SOL    HW119793   1.733   3.218  17.568  0.4291  1.0216  1.6590
 2719SOL    HW219794   1.610   3.289  17.616 -1.2265 -2.8621  1.4189
 2720SOL     OW19795   2.135   3.784   0.194  0.5587  0.4533 -0.3021
 2720SOL    HW119796   2.147   3.697   0.156  0.4445  0.4323 -0.2914
 2720SOL    HW219797   2.144   3.839   0.116  1.2710 -1.0953 -1.3063
 2721SOL     OW19798   3.182   3.345  11.285  0.0216 -0.5382 -0.3866
 2721SOL    HW119799   3.114   3.317  11.223 -0.3976 -0.9378  0.2483
 2721SOL    HW219800   3.130   3.380  11.358  1.6531 -3.5535  2.2320
 2722SOL     OW19801   2.214   2.917   6.740 -0.3240 -0.3399 -0.5559
 2722SOL    HW119802   2.243   2.930   6.830  1.5137 -0.7962 -1.0808
 2722SOL    HW219803   2.261   2.834   6.726 -0.1005 -0.3419  0.1656
 2723SOL     OW19804   0.687   1.746   3.011  0.8600 -0.7694  0.8038
 2723SOL    HW119805   0.693   1.678   3.078 -2.5497  0.1626  2.0650
 2723SOL    HW219806   0.698   1.831   3.053  0.5983 -1.0454  1.4246
 2724SOL     OW19807   0.898   4.616  15.188  0.1879  0.7754 -0.4479
 2724SOL    HW119808   0.804   4.609  15.173  0.2366  0.4628 -0.6296
 2724SOL    HW219809   0.884   4.587  15.278  1.7427  1.4398  0.0097
 2725SOL     OW19810   0.674   3.482   6.636  0.0446  0.4992 -0.1670
 2725SOL    HW119811   0.590   3.464   6.594 -0.6090 -0.1548  1.4499
 2725SOL    HW219812   0.735   3.445   6.571 -0.9605 -3.2524  1.0580
 2726SOL     OW19813   3.039   4.192  13.034 -0.4372 -0.1498 -0.1698
 2726SOL    HW119814   2.995   4.167  12.952 -1.1588  2.4949 -0.5722
 2726SOL    HW219815   2.967   4.227  13.087 -0.9965 -3.0252  1.0184
 2727SOL     OW19816   1.016   0.314   6.498 -0.1779 -0.1693  0.0895
 2727SOL    HW119817   1.074   0.277   6.431  2.0059 -1.4073  2.6520
 2727SOL    HW219818   0.944   0.359   6.454 -0.6720 -1.1387 -0.0942
 2728SOL     OW19819   0.810   0.680   8.297 -0.0050  0.2777  0.0486
 2728SOL    HW119820   0.727   0.700   8.253  1.8093  0.7748 -3.1413
 2728SOL    HW219821   0.787   0.641   8.381 -5.2548  2.2372 -0.4227
 2729SOL     OW19822   3.456   2.515   6.303  0.2474  0.2868  0.0179
 2729SOL    HW119823   3.389   2.511   6.371  0.7925  2.2547  0.6474
 2729SOL    HW219824   3.531   2.516   6.362 -0.5018 -0.2588  0.9687
 2730SOL     OW19825   1.994   3.868  17.323  0.1766 -0.2746  0.3573
 2730SOL    HW119826   2.055   3.887  17.394 -0.2591 -0.2572  0.7315
 2730SOL    HW219827   2.038   3.905  17.247  0.3359 -2.0579 -0.4308
 2731SOL     OW19828   2.822   3.665   3.825 -0.2364 -0.4389 -0.0268
 2731SOL    HW119829   2.737   3.624   3.810  0.2945 -1.8962  0.9569
 2731SOL    HW219830   2.876   3.590   3.851  0.0841 -1.0021 -2.3598
 2732SOL     OW19831   3.236   0.916   3.009  0.3529  0.2036  0.6073
 2732SOL    HW119832   3.291   0.976   3.059  1.2980 -1.2841  1.3836
 2732SOL    HW219833   3.304   0.880   2.951 -0.2307  1.7366 -0.9985
 2733SOL     OW19834   1.977   1.847   5.817  0.2737 -0.4462 -0.3928
 2733SOL    HW119835   1.956   1.918   5.879  0.9828  0.4674 -1.2058
 2733SOL    HW219836   2.002   1.905   5.745 -0.7588 -0.2054 -0.5613
 2734SOL     OW19837   4.683   1.663   1.899  0.1757  0.2043 -0.4703
 2734SOL    HW119838   4.654   1.749   1.866  1.6585  0.4113 -1.2587
 2734SOL    HW219839   4.600   1.623   1.923  0.7731 -0.5693  0.2967
 2735SOL     OW19840   1.386   1.084   0.875 -0.2550  0.0950  0.3918
 2735SOL    HW119841   1.454   1.127   0.928 -0.3045  0.9810 -0.2684
 2735SOL    HW219842   1.362   1.157   0.819 -0.3271  0.1574  0.5034
 2736SOL     OW19843   0.418   0.575   3.654  0.3544 -0.4470 -0.1697
 2736SOL    HW119844   0.327   0.546   3.646  0.3261 -0.2764 -0.5059
 2736SOL    HW219845   0.452   0.548   3.569  0.5240 -0.0806 -0.2156
 2737SOL     OW19846   0.041   3.996  13.221  0.7177 -0.2326  0.4100
 2737SOL    HW119847   0.085   4.078  13.242  1.1516 -0.1821 -0.6615
 2737SOL    HW219848   0.024   3.992  13.126  1.3876 -2.4350  0.3953
 2738SOL     OW19849   0.601   4.530   2.619  0.1251 -0.3249  0.4136
 2738SOL    HW119850   0.523   4.484   2.588 -0.4699  1.8166 -1.2694
 2738SOL    HW219851   0.657   4.514   2.543 -0.9433 -0.3882 -0.3682
 2739SOL     OW19852   1.792   3.697  15.826  0.5104 -0.5475 -0.5056
 2739SOL    HW119853   1.765   3.738  15.744 -0.7237 -1.2835 -0.4667
 2739SOL    HW219854   1.714   3.644  15.844  0.0794  0.5528  0.9006
 2740SOL     OW19855   1.627   3.322  14.801  0.4012 -0.0480 -0.1985
 2740SOL    HW119856   1.632   3.417  14.787 -3.4661 -0.1128 -2.1053
 2740SOL    HW219857   1.617   3.313  14.896  1.0209  0.8819 -0.0426
 2741SOL     OW19858   4.726   2.481   9.267 -0.3070  0.2208 -0.2121
 2741SOL    HW119859   0.034   2.405   9.231 -0.3692 -0.0641  0.3010
 2741SOL    HW219860   0.061   2.505   9.325  0.3740  1.3396 -1.5315
 2742SOL     OW19861   2.193   3.138   3.689 -0.4224 -0.2332  0.5679
 2742SOL    HW119862   2.148   3.200   3.745  0.2277 -0.7069  1.6095
 2742SOL    HW219863   2.117   3.090   3.656 -0.7580  0.7143 -0.0376
 2743SOL     OW19864   2.811   2.403   4.823  0.2601  0.2137  0.1323
 2743SOL    HW119865   2.906   2.401   4.838  0.6957  3.0532 -2.3116
 2743SOL    HW219866   2.811   2.442   4.736  0.2814  0.6306  0.3144
 2744SOL     OW19867   3.757   2.998  10.418  0.1080  0.4314  0.1512
 2744SOL    HW119868   3.680   2.962  10.374 -0.5584  0.8295  0.9975
 2744SOL    HW219869   3.725   3.045  10.495  1.1005  0.5973  0.4657
 2745SOL     OW19870   1.696   4.478   7.977  0.3662  0.0248  0.5694
 2745SOL    HW119871   1.646   4.440   7.905  1.0711 -1.8043  1.0322
 2745SOL    HW219872   1.743   4.547   7.932  0.3394 -0.6783 -0.5306
 2746SOL     OW19873   0.220   3.171   3.064 -0.2622 -0.4943 -0.1566
 2746SOL    HW119874   0.302   3.143   3.024 -0.7673 -0.7240 -1.0496
 2746SOL    HW219875   0.239   3.138   3.152 -1.4505 -0.1902  0.2076
 2747SOL     OW19876   0.819   2.297   3.891  0.4442 -0.1067 -0.3906
 2747SOL    HW119877   0.827   2.214   3.844 -2.2180 -1.2596  1.1711
 2747SOL    HW219878   0.804   2.360   3.822 -0.7945 -0.7846 -0.7397
 2748SOL     OW19879   4.325   0.416   3.765  0.1193  0.5872  0.3796
 2748SOL    HW119880   4.405   0.469   3.766  1.4133 -1.4242  2.7247
 2748SOL    HW219881   4.355   0.339   3.718 -1.1366 -0.8205  1.8607
 2749SOL     OW19882   0.964   0.251   0.392 -0.4141 -0.3773  0.3434
 2749SOL    HW119883   0.903   0.228   0.322 -0.1412 -1.2221  0.3852
 2749SOL    HW219884   1.001   0.164   0.408  3.0553  1.2929  1.2252
 2750SOL     OW19885   2.230   3.299   2.515 -0.4147  0.1163  0.0246
 2750SOL    HW119886   2.236   3.376   2.459  0.9483  1.5100  2.0708
 2750SOL    HW219887   2.152   3.265   2.471 -1.1299  0.4104  1.0616
 2751SOL     OW19888   3.205   4.703   2.660 -0.2012  0.0033 -0.0571
 2751SOL    HW119889   3.294   4.673   2.680  0.4381  1.7878 -0.2725
 2751SOL    HW219890   3.217   0.054   2.628  0.2870 -0.0809 -0.1223
 2752SOL     OW19891   3.738   4.278  14.069  0.2956 -0.2300 -0.2070
 2752SOL    HW119892   3.828   4.261  14.043 -0.0999 -2.0295 -0.4459
 2752SOL    HW219893   3.733   4.364  14.111 -1.1508 -0.4101  0.0072
 2753SOL     OW19894   3.569   0.797   9.981  0.3440  0.1098  0.2274
 2753SOL    HW119895   3.634   0.728   9.994  1.7299  0.8523 -3.0144
 2753SOL    HW219896   3.517   0.772  10.058  2.6609  0.1264  1.7992
 2754SOL     OW19897   0.520   3.566  14.429 -0.2908  0.1118  0.1282
 2754SOL    HW119898   0.551   3.505  14.362  1.0762 -0.5173  1.3325
 2754SOL    HW219899   0.594   3.557  14.490  0.4708  0.2969 -0.7777
 2755SOL     OW19900   3.431   2.333   7.028  0.0521  0.1246 -0.3538
 2755SOL    HW119901   3.388   2.372   7.104  0.7170 -1.4960  0.8603
 2755SOL    HW219902   3.505   2.293   7.074 -0.2329 -0.7057 -0.6230
 2756SOL     OW19903   4.044   4.354  14.364 -0.5109 -0.7730 -0.0368
 2756SOL    HW119904   3.949   4.352  14.350 -0.6100 -1.4964  0.7300
 2756SOL    HW219905   4.068   4.408  14.289  0.6324 -1.6073 -0.2677
 2757SOL     OW19906   2.299   3.421   7.930  0.7776 -0.0724  0.3044
 2757SOL    HW119907   2.281   3.455   7.843  1.4806 -0.1943  0.1150
 2757SOL    HW219908   2.392   3.405   7.918  1.5620  2.4900  2.7739
 2758SOL     OW19909   2.012   0.901   9.423 -0.1854  0.2848  0.2189
 2758SOL    HW119910   1.943   0.937   9.479 -1.4632  0.3916 -1.4261
 2758SOL    HW219911   1.996   0.947   9.341  1.1186  2.8061  1.3910
 2759SOL     OW19912   4.128   1.014   4.796 -0.3463 -0.0012 -0.4688
 2759SOL    HW119913   4.163   1.042   4.880  0.0865  2.1438 -1.3874
 2759SOL    HW219914   4.189   0.941   4.785  0.5794  0.9956 -1.9265
 2760SOL     OW19915   4.155   3.661   5.686 -0.3872 -0.0715 -0.3214
 2760SOL    HW119916   4.149   3.660   5.590  2.6048  0.4519 -0.5066
 2760SOL    HW219917   4.164   3.755   5.701 -2.7087 -0.0303  0.7773
 2761SOL     OW19918   3.049   1.938  16.397  0.3797 -0.1243 -0.5041
 2761SOL    HW119919   3.075   1.922  16.488  0.5834 -0.1428 -0.5666
 2761SOL    HW219920   3.021   2.030  16.397  0.0565 -0.2200 -0.5418
 2762SOL     OW19921   3.722   4.201   6.912  0.0836 -0.1137 -0.4398
 2762SOL    HW119922   3.648   4.204   6.972 -0.5930 -1.0050 -1.2208
 2762SOL    HW219923   3.674   4.248   6.844 -1.0973 -1.2718 -0.3957
 2763SOL     OW19924   0.255   0.096   7.975 -0.4704 -0.0578  0.0909
 2763SOL    HW119925   0.337   0.139   7.952  0.8885 -1.2023  2.7717
 2763SOL    HW219926   0.256   0.100   8.071  3.2693  1.8242 -0.0613
 2764SOL     OW19927   0.605   0.095   0.688  0.5874  0.2401 -0.0766
 2764SOL    HW119928   0.631   0.074   0.778 -0.1420  4.4364  1.1401
 2764SOL    HW219929   0.669   0.047   0.636  1.0552 -0.2761  0.9727
 2765SOL     OW19930   1.311   0.325   0.039 -0.0599  0.2517 -0.1157
 2765SOL    HW119931   1.389   0.353   0.087 -0.8900  1.5128  0.4912
 2765SOL    HW219932   1.271   0.410   0.020  0.9397  0.8006  0.2298
 2766SOL     OW19933   3.278   4.012   4.722  0.0171 -0.1248 -0.6517
 2766SOL    HW119934   3.335   3.960   4.665  0.8395 -0.5421  0.5607
 2766SOL    HW219935   3.205   3.956   4.747  0.7237 -0.7516 -0.0199
 2767SOL     OW19936   3.803   1.378   0.331 -0.1917  0.1291 -0.8233
 2767SOL    HW119937   3.811   1.420   0.246 -2.6500  1.5384 -0.3553
 2767SOL    HW219938   3.733   1.430   0.369  0.2212 -0.4693  0.7631
 2768SOL     OW19939   4.601   1.632  17.558 -0.4702  0.5655 -0.7774
 2768SOL    HW119940   4.641   1.715  17.585  0.9675 -0.4644  0.2524
 2768SOL    HW219941   4.508   1.652  17.573  0.2617  2.4951  1.2122
 2769SOL     OW19942   3.959   4.456   2.432 -0.8401  0.0582  0.4207
 2769SOL    HW119943   3.953   4.517   2.359 -0.2842 -0.4637 -0.0632
 2769SOL    HW219944   3.932   4.517   2.501  0.3806  1.5461 -0.4375
 2770SOL     OW19945   1.452   0.433   4.028  0.0514 -0.1045 -0.1689
 2770SOL    HW119946   1.488   0.489   3.959 -1.2540 -0.8811 -1.4640
 2770SOL    HW219947   1.409   0.502   4.079  0.2851 -0.4828  0.5443
 2771SOL     OW19948   4.437   3.461   3.027 -0.1133  0.6008  0.6140
 2771SOL    HW119949   4.417   3.372   2.998 -1.4874  1.0149  0.2932
 2771SOL    HW219950   4.438   3.509   2.945  0.1901 -1.8881 -0.8582
 2772SOL     OW19951   1.720   2.628   7.857 -0.4571  0.4065 -0.5126
 2772SOL    HW119952   1.793   2.689   7.862  1.0545 -1.1801 -3.3318
 2772SOL    HW219953   1.653   2.695   7.842 -1.1634 -0.1846 -0.0473
 2773SOL     OW19954   3.843   0.659   7.839  0.1730 -0.2533 -0.1486
 2773SOL    HW119955   3.937   0.646   7.848  0.0584 -1.5686 -0.7955
 2773SOL    HW219956   3.844   0.710   7.758 -2.2061  0.8761  0.5266
 2774SOL     OW19957   0.549   2.025   9.311  0.1137  0.2448 -0.0512
 2774SOL    HW119958   0.494   1.958   9.271 -1.2611  0.2624  1.8073
 2774SOL    HW219959   0.493   2.059   9.381 -0.4112  1.6400 -1.1433
 2775SOL     OW19960   4.293   2.828  13.762  0.5040  0.3837  0.1149
 2775SOL    HW119961   4.198   2.826  13.770  0.5554  0.2261  0.7037
 2775SOL    HW219962   4.312   2.918  13.787  2.0005  0.4263 -1.1426
 2776SOL     OW19963   4.526   2.268   8.932 -0.0959 -0.7648  0.0123
 2776SOL    HW119964   4.530   2.221   8.848  0.1461 -0.9506  0.1281
 2776SOL    HW219965   4.534   2.199   8.997  3.3494 -1.1183 -0.8121
 2777SOL     OW19966   4.474   1.604   4.092 -0.0535 -0.6139  0.3993
 2777SOL    HW119967   4.544   1.618   4.156  0.1073 -1.3902  0.3898
 2777SOL    HW219968   4.519   1.541   4.036  0.1708 -1.1812  1.2179
 2778SOL     OW19969   1.175   0.026   5.136 -0.7584 -0.7655 -0.5589
 2778SOL    HW119970   1.249   0.083   5.115 -0.3504 -0.7297  0.9989
 2778SOL    HW219971   1.102   0.068   5.089 -0.7475 -0.8961 -0.6915
 2779SOL     OW19972   2.656   0.076   7.342 -0.3463  0.0625 -0.4008
 2779SOL    HW119973   2.738   0.068   7.391 -0.4694 -2.0694 -0.5521
 2779SOL    HW219974   2.626   4.723   7.334 -0.6883  0.1557 -0.2187
 2780SOL     OW19975   2.891   1.644   9.497 -0.8353  0.4919 -0.2966
 2780SOL    HW119976   2.926   1.631   9.585 -1.0875  0.3871 -0.2142
 2780SOL    HW219977   2.888   1.557   9.458  1.2211  1.0528 -1.7582
 2781SOL     OW19978   4.643   2.666   4.861  0.4711  0.4525  0.0158
 2781SOL    HW119979   4.656   2.585   4.909  0.8904  0.1532 -0.5993
 2781SOL    HW219980   4.714   2.666   4.796 -0.6512 -1.0076 -1.2060
 2782SOL     OW19981   0.089   2.993   4.503 -0.2532  0.3789 -0.4388
 2782SOL    HW119982   0.162   2.984   4.565 -0.5604 -1.6836 -0.3611
 2782SOL    HW219983   0.014   3.025   4.554 -0.2355 -1.2599  0.6280
 2783SOL     OW19984   4.529   4.496  14.259 -0.0036  0.1867  0.0102
 2783SOL    HW119985   4.456   4.527  14.313 -0.5561 -2.1658  0.6288
 2783SOL    HW219986   4.501   4.523  14.171 -0.5341 -0.8189 -0.1356
 2784SOL     OW19987   0.199   1.055   6.325  0.5565 -0.0259 -0.0801
 2784SOL    HW119988   0.142   0.978   6.323 -0.6544  0.8581  0.5576
 2784SOL    HW219989   0.197   1.091   6.236  0.2498  0.2343  0.0338
 2785SOL     OW19990   0.786   4.368   5.209  0.2159 -0.2622 -0.0375
 2785SOL    HW119991   0.845   4.400   5.141 -1.5803 -0.7613 -1.8470
 2785SOL    HW219992   0.827   4.285   5.233 -0.2279 -0.4565  0.0635
 2786SOL     OW19993   2.024   2.566  10.945 -0.0681 -0.7380  0.0947
 2786SOL    HW119994   2.079   2.557  11.023 -1.1866  0.0468  0.9585
 2786SOL    HW219995   2.012   2.474  10.918 -1.1984 -1.2293  2.3205
 2787SOL     OW19996   2.205   0.374   2.895  0.4391  0.0727  0.2663
 2787SOL    HW119997   2.192   0.312   2.823  1.0221  0.6902 -0.3728
 2787SOL    HW219998   2.300   0.382   2.883  0.3769  0.6622  0.1823
 2788SOL     OW19999   1.637   4.078   4.479  0.4012 -0.7356 -0.5353
 2788SOL    HW120000   1.630   4.108   4.388  1.4023  0.6165 -0.1725
 2788SOL    HW220001   1.666   4.162   4.513 -0.3897 -0.1789 -1.2327
 2789SOL     OW20002   3.296   2.458   7.685  0.4490 -0.2205  0.2619
 2789SOL    HW120003   3.375   2.417   7.651 -0.0024  0.1573 -1.2608
 2789SOL    HW220004   3.253   2.499   7.610  1.7888 -1.0072 -0.9373
 2790SOL     OW20005   0.190   2.002   6.486  0.5481 -0.3523 -0.4743
 2790SOL    HW120006   0.284   2.016   6.486  0.7830 -2.0408 -3.0888
 2790SOL    HW220007   0.163   2.063   6.416 -0.2058 -1.0261 -0.7712
 2791SOL     OW20008   2.566   1.451   4.912  0.1933  0.2937  0.1482
 2791SOL    HW120009   2.612   1.426   4.832 -0.4647  0.9077 -0.4319
 2791SOL    HW220010   2.530   1.366   4.936  3.4685 -0.8026  1.1475
 2792SOL     OW20011   4.304   4.692  10.640 -0.3103 -0.9282  0.0687
 2792SOL    HW120012   4.297   0.015  10.566  0.6055  0.4745  1.1153
 2792SOL    HW220013   4.361   4.630  10.595 -0.1538  1.3935 -2.9189
 2793SOL     OW20014   3.223   0.500  16.594 -0.3033 -0.4983 -0.5452
 2793SOL    HW120015   3.309   0.479  16.558 -0.2812  0.2480 -0.9238
 2793SOL    HW220016   3.210   0.594  16.586  1.2005 -0.2503 -0.0179
 2794SOL     OW20017   3.305   3.017   4.877  0.3912  0.1116 -0.0249
 2794SOL    HW120018   3.325   2.972   4.959 -0.3661  0.4160  0.3303
 2794SOL    HW220019   3.393   3.016   4.839  0.6911 -1.2549  0.7381
 2795SOL     OW20020   1.468   2.972   2.795 -0.4216  0.2432  0.3727
 2795SOL    HW120021   1.557   2.984   2.829  0.3675  0.8086 -1.8846
 2795SOL    HW220022   1.457   3.044   2.733 -0.3836 -1.2222 -1.3191
 2796SOL     OW20023   0.729   2.711   5.081 -0.3523 -0.6204 -0.1985
 2796SOL    HW120024   0.817   2.692   5.047  0.6081 -0.1467  2.0765
 2796SOL    HW220025   0.741   2.800   5.113  1.3022 -0.4760 -1.2313
 2797SOL     OW20026   0.557   3.602  11.016  0.5109 -0.1841 -0.6899
 2797SOL    HW120027   0.629   3.569  11.069 -0.4722 -2.2238 -0.6344
 2797SOL    HW220028   0.490   3.565  11.073  0.8778  0.1578 -0.0420
 2798SOL     OW20029   0.459   4.099   8.161 -0.2376  0.4389 -0.0281
 2798SOL    HW120030   0.517   4.151   8.105  2.2102 -0.7721  1.3716
 2798SOL    HW220031   0.520   4.029   8.185  0.5395  1.2714  0.4108
 2799SOL     OW20032   0.276   3.034   5.975  0.3389 -0.6090 -0.0386
 2799SOL    HW120033   0.212   3.102   5.993  2.3693  1.1963  0.4201
 2799SOL    HW220034   0.234   2.959   6.017 -1.1976  0.2060 -0.1320
 2800SOL     OW20035   1.430   2.784   1.777  0.1580  0.1558  0.0392
 2800SOL    HW120036   1.486   2.861   1.784  0.0815  0.0814  1.4685
 2800SOL    HW220037   1.473   2.717   1.829 -0.2503  0.8448  1.2708
 2801SOL     OW20038   1.455   2.821   5.363 -0.6048  0.1301 -0.3812
 2801SOL    HW120039   1.420   2.733   5.351 -0.6974 -0.0415  1.1879
 2801SOL    HW220040   1.473   2.829   5.457  0.4406  0.8256 -0.6458
 2802SOL     OW20041   0.769   0.873   9.000  0.9225 -0.4323  0.3663
 2802SOL    HW120042   0.799   0.908   8.917 -2.0724 -0.8682 -0.9140
 2802SOL    HW220043   0.717   0.946   9.035 -0.5646 -1.8354  1.1066
 2803SOL     OW20044   3.944   3.401   1.460 -0.1658  0.3910 -0.1092
 2803SOL    HW120045   4.017   3.349   1.494 -1.0696  0.3406  1.7881
 2803SOL    HW220046   3.874   3.340   1.440 -0.0421 -0.3119  1.5591
 2804SOL     OW20047   2.224   2.900   9.978 -0.5624  0.4122  0.1488
 2804SOL    HW120048   2.170   2.831  10.016 -1.3416  1.3911  0.8150
 2804SOL    HW220049   2.232   2.877   9.885  1.4173 -0.2018  0.4667
 2805SOL     OW20050   4.471   2.734   1.688 -0.0344  0.1700 -0.1476
 2805SOL    HW120051   4.480   2.718   1.594  1.7995  3.0531 -0.4456
 2805SOL    HW220052   4.513   2.818   1.704  0.9985 -0.5342  0.8067
 2806SOL     OW20053   3.964   2.934   2.589 -0.2227  0.2847  0.0431
 2806SOL    HW120054   3.951   2.985   2.508  0.4009  0.1460 -0.1412
 2806SOL    HW220055   3.942   2.995   2.659  0.5627  0.9297 -0.2667
 2807SOL     OW20056   1.638   2.121   0.111 -0.5125  0.1227 -0.1401
 2807SOL    HW120057   1.579   2.157   0.176 -0.3434  0.3325 -0.1017
 2807SOL    HW220058   1.651   2.192   0.048  1.0991  0.8243  0.9909
 2808SOL     OW20059   4.255   2.997   2.907  0.5140  0.2138 -0.1891
 2808SOL    HW120060   4.172   2.978   2.951  0.3234  2.9625  0.6323
 2808SOL    HW220061   4.226   3.072   2.856  0.2814 -0.3992 -0.9688
 2809SOL     OW20062   0.002   3.332   3.625  0.3402  0.0327 -0.3181
 2809SOL    HW120063   4.734   3.343   3.720 -0.7370  1.3492 -0.5275
 2809SOL    HW220064   4.665   3.273   3.616  0.2182  0.1093  0.1982
 2810SOL     OW20065   3.526   2.373   3.938  0.0140  0.1715  0.7232
 2810SOL    HW120066   3.455   2.401   3.995  0.0287 -0.2000  0.9300
 2810SOL    HW220067   3.559   2.290   3.974  0.8606 -0.3721 -1.2878
 2811SOL     OW20068   1.615   4.182  15.721 -0.1489  0.0489 -0.3819
 2811SOL    HW120069   1.643   4.097  15.755 -0.5266 -1.3542 -3.5307
 2811SOL    HW220070   1.529   4.195  15.760  0.3881  1.2083  0.3965
 2812SOL     OW20071   1.504   3.005   8.448  0.4647 -0.2791 -0.0302
 2812SOL    HW120072   1.489   3.099   8.447 -0.8182 -0.4849  0.0995
 2812SOL    HW220073   1.599   3.000   8.447  0.5267  0.2706  2.5275
 2813SOL     OW20074   4.357   0.909  11.332  0.3827  0.4067 -0.4424
 2813SOL    HW120075   4.281   0.869  11.291 -1.3726  2.4555  0.8040
 2813SOL    HW220076   4.312   0.987  11.364 -1.4831 -0.8906  0.0984
 2814SOL     OW20077   1.169   4.307   5.411  0.3622 -0.7297  0.3165
 2814SOL    HW120078   1.171   4.220   5.452 -1.4361 -1.4659 -1.1711
 2814SOL    HW220079   1.115   4.354   5.474 -2.0869 -0.2354 -2.1390
 2815SOL     OW20080   1.601   1.971   4.604 -0.0481  0.3666  0.6207
 2815SOL    HW120081   1.526   1.998   4.551  0.3337  1.4001  0.5995
 2815SOL    HW220082   1.644   2.053   4.629  2.7081 -0.1607 -2.3904
 2816SOL     OW20083   4.159   2.983   6.030  0.2495  0.4729  0.2015
 2816SOL    HW120084   4.117   3.029   5.957 -2.2437  1.2468  2.1096
 2816SOL    HW220085   4.142   3.049   6.097 -2.8113 -0.1763  0.0733
 2817SOL     OW20086   3.768   1.222   1.865  0.6604 -0.2100 -0.2849
 2817SOL    HW120087   3.844   1.168   1.883  0.2303 -0.5909  0.4074
 2817SOL    HW220088   3.807   1.293   1.814  0.5809 -0.9314 -1.3568
 2818SOL     OW20089   2.564   2.158   8.068 -0.0202 -0.8342 -0.4142
 2818SOL    HW120090   2.642   2.177   8.121 -1.2055  0.4954  0.8306
 2818SOL    HW220091   2.561   2.065   8.091  3.0507 -0.5874  0.9776
 2819SOL     OW20092   2.414   3.367   3.950  0.2801 -0.3374 -0.7879
 2819SOL    HW120093   2.449   3.321   4.027  0.0835  1.1413  0.1788
 2819SOL    HW220094   2.429   3.456   3.982 -1.0030 -0.5416  0.3995
 2820SOL     OW20095   4.727   3.669   6.423  0.4974 -0.1094  0.2881
 2820SOL    HW120096   0.074   3.707   6.446  0.1140  0.1840  1.2098
 2820SOL    HW220097   4.692   3.745   6.377  0.0415 -1.5890 -1.8471
 2821SOL     OW20098   0.678   2.997   3.237 -0.1223  0.7187 -0.1576
 2821SOL    HW120099   0.651   2.920   3.187 -1.7067  0.5940  0.9171
 2821SOL    HW220100   0.765   3.015   3.202  1.0008  0.0456  2.3119
 2822SOL     OW20101   4.232   1.671   8.114  0.5620  0.7272 -0.3169
 2822SOL    HW120102   4.143   1.655   8.146  1.2897  0.4769  1.5975
 2822SOL    HW220103   4.266   1.736   8.176 -0.8031  0.3385  0.8527
 2823SOL     OW20104   4.134   3.710   5.415 -0.0310  0.2536 -0.0280
 2823SOL    HW120105   4.169   3.624   5.392  0.3059 -0.0637  1.6704
 2823SOL    HW220106   4.044   3.689   5.388 -0.6773  0.6999  1.8015
 2824SOL     OW20107   3.394   2.040   2.138 -0.7465  0.1018 -0.3020
 2824SOL    HW120108   3.403   2.117   2.081 -1.5111  1.4647  1.4361
 2824SOL    HW220109   3.487   2.033   2.159 -0.4490 -1.1682 -2.0340
 2825SOL     OW20110   4.444   1.021  13.183  0.0865  0.4277 -0.0219
 2825SOL    HW120111   4.536   0.994  13.189  0.7550  2.3484 -1.3583
 2825SOL    HW220112   4.420   1.001  13.273  0.1415  0.9119  0.1014
 2826SOL     OW20113   3.490   2.040  10.354 -0.7209  0.2306  0.0380
 2826SOL    HW120114   3.429   2.084  10.414  0.0397 -2.0809  2.5028
 2826SOL    HW220115   3.561   2.013  10.411 -1.7513  1.9648  2.1596
 2827SOL     OW20116   3.671   3.257   4.644  0.8074 -0.1417  0.5031
 2827SOL    HW120117   3.701   3.336   4.690 -0.1689  1.1349 -1.0501
 2827SOL    HW220118   3.743   3.249   4.581  1.7443  2.4226  1.2310
 2828SOL     OW20119   4.634   3.276   0.716 -0.1623  0.6781 -0.0291
 2828SOL    HW120120   4.642   3.252   0.808  0.7732 -2.5482 -0.9575
 2828SOL    HW220121   4.680   3.208   0.668  1.6932  0.5554  1.9191
 2829SOL     OW20122   4.034   1.191   4.633  0.3528  0.2807 -0.9300
 2829SOL    HW120123   4.064   1.123   4.694  0.8141 -0.2137 -1.7058
 2829SOL    HW220124   3.985   1.152   4.561 -1.6735  1.1260 -0.0025
 2830SOL     OW20125   0.759   0.969   3.968 -0.4118 -0.6788  0.7587
 2830SOL    HW120126   0.760   1.025   3.891  1.0753 -3.4636 -1.2726
 2830SOL    HW220127   0.808   0.893   3.936 -0.7528 -0.2413 -0.8123
 2831SOL     OW20128   2.328   4.396  13.315  0.0022  0.7385 -0.7171
 2831SOL    HW120129   2.262   4.346  13.363 -0.7911  1.2321 -1.2950
 2831SOL    HW220130   2.267   4.430  13.250 -2.1699 -0.3828  0.7325
 2832SOL     OW20131   1.839   3.827   2.530 -0.2488 -0.6311  0.1117
 2832SOL    HW120132   1.925   3.820   2.573 -0.4714  0.3412  0.7210
 2832SOL    HW220133   1.808   3.737   2.535  0.3256 -0.6804  2.8350
 2833SOL     OW20134   4.369   4.293  13.862  0.2525 -0.3579  0.2961
 2833SOL    HW120135   4.395   4.240  13.937 -0.3068 -0.0244  0.7226
 2833SOL    HW220136   4.280   4.264  13.841  1.2185 -1.8969 -1.7028
 2834SOL     OW20137   3.183   3.428  11.669  0.0913 -0.3942 -0.1591
 2834SOL    HW120138   3.127   3.504  11.654  0.2950 -0.0692  0.7195
 2834SOL    HW220139   3.122   3.356  11.657 -0.7823  0.1302  1.2127
 2835SOL     OW20140   3.685   3.096   5.042 -0.0362 -0.2863  0.2849
 2835SOL    HW120141   3.644   3.094   4.955  1.9398 -3.3522 -0.5666
 2835SOL    HW220142   3.743   3.020   5.049 -0.1558 -0.6751 -2.7639
 2836SOL     OW20143   2.196   3.560   7.692 -0.4859 -0.2448  0.3714
 2836SOL    HW120144   2.182   3.616   7.768 -0.1212  1.2745 -0.6710
 2836SOL    HW220145   2.137   3.485   7.704 -0.3898 -0.8120 -2.6802
 2837SOL     OW20146   3.773   1.751   4.779 -0.3771  0.6806  0.5818
 2837SOL    HW120147   3.834   1.698   4.728 -0.6906 -0.0213  0.9341
 2837SOL    HW220148   3.728   1.793   4.706  1.7521 -0.7134 -1.5116
 2838SOL     OW20149   2.423   3.396   0.275 -0.6737  0.2416 -0.7321
 2838SOL    HW120150   2.497   3.452   0.297  0.1254 -1.5011  1.0298
 2838SOL    HW220151   2.463   3.309   0.283  1.8159  1.4839  0.2627
 2839SOL     OW20152   3.284   0.304  16.037 -0.3449 -0.4361 -0.2343
 2839SOL    HW120153   3.298   0.251  16.115  1.8031 -2.3509 -1.9485
 2839SOL    HW220154   3.207   0.263  15.998  0.7113 -0.6559 -2.0902
 2840SOL     OW20155   1.610   1.263   1.240 -0.9968 -0.3928  0.6236
 2840SOL    HW120156   1.524   1.227   1.262 -1.7659  0.1741 -1.4903
 2840SOL    HW220157   1.635   1.298   1.326  1.4456 -0.8198  0.1102
 2841SOL     OW20158   0.875   1.077   8.212  0.2325 -0.3354 -0.2497
 2841SOL    HW120159   0.849   0.994   8.173 -0.3517 -0.3165  0.1073
 2841SOL    HW220160   0.878   1.056   8.306  0.5756  1.7124  0.1861
 2842SOL     OW20161   1.634   3.809   5.383  0.6537 -0.3114 -0.0249
 2842SOL    HW120162   1.693   3.863   5.435 -0.7027 -0.4949  1.7087
 2842SOL    HW220163   1.566   3.875   5.368 -0.3952 -1.3987 -0.1278
 2843SOL     OW20164   4.651   0.950   3.240  0.3157 -0.0220 -0.3158
 2843SOL    HW120165   0.007   0.951   3.223 -0.0311  0.3842 -2.2740
 2843SOL    HW220166   4.632   0.862   3.207 -1.2887 -0.2120  1.1210
 2844SOL     OW20167   0.057   1.231   5.138 -0.0521  0.1294 -0.1170
 2844SOL    HW120168   0.058   1.292   5.212 -0.8570  1.9101 -1.5783
 2844SOL    HW220169   4.704   1.227   5.106 -1.4518 -0.3043  3.8127
 2845SOL     OW20170   4.581   0.657   5.956  0.0747  0.0767  0.4100
 2845SOL    HW120171   4.486   0.661   5.966 -0.0977  0.7221 -1.4726
 2845SOL    HW220172   4.603   0.681   6.046  2.4832 -0.4988 -0.0047
 2846SOL     OW20173   0.602   1.063   7.845  0.0813 -0.2225  0.2255
 2846SOL    HW120174   0.626   1.129   7.910  1.6030  1.0693 -1.6776
 2846SOL    HW220175   0.690   1.057   7.808  0.4757  0.6266  1.0355
 2847SOL     OW20176   2.165   1.821  12.478  0.4348 -0.0831 -0.1638
 2847SOL    HW120177   2.109   1.774  12.540  1.6869 -0.0926  0.9771
 2847SOL    HW220178   2.240   1.824  12.538  1.7097  2.1410 -1.8421
 2848SOL     OW20179   2.566   3.986   8.443  0.3710 -0.3794 -0.5347
 2848SOL    HW120180   2.616   4.060   8.475 -1.1140  1.4389 -2.4232
 2848SOL    HW220181   2.565   4.004   8.349 -2.2380 -4.1115 -1.2522
 2849SOL     OW20182   3.516   1.251   3.144 -0.0027  0.7349 -0.5980
 2849SOL    HW120183   3.507   1.168   3.097 -0.3639  2.1400 -2.9563
 2849SOL    HW220184   3.448   1.236   3.210  2.1633 -1.1415  1.2218
 2850SOL     OW20185   3.124   3.712  16.976  0.2076 -0.4172  0.1670
 2850SOL    HW120186   3.159   3.791  16.934  0.9961 -0.8018  0.0966
 2850SOL    HW220187   3.093   3.656  16.906  0.5403 -0.8661  0.3733
 2851SOL     OW20188   4.538   4.074   5.268 -0.0081 -0.1091 -0.3404
 2851SOL    HW120189   4.534   4.008   5.337  2.9367 -1.2188 -1.2181
 2851SOL    HW220190   4.491   4.024   5.200 -1.4166 -0.7782  1.1338
 2852SOL     OW20191   2.867   1.013   7.047  0.0319  0.3851  0.1728
 2852SOL    HW120192   2.946   0.982   7.002 -0.6711 -3.1216  1.2955
 2852SOL    HW220193   2.871   1.108   7.043  1.3222  0.3684  0.8954
 2853SOL     OW20194   0.109   1.514   2.063 -1.0004  0.0051 -0.0196
 2853SOL    HW120195   0.034   1.553   2.018 -1.1029  1.7714  1.6803
 2853SOL    HW220196   0.180   1.578   2.055 -2.2543  1.5998  1.4514
 2854SOL     OW20197   2.552   0.300   1.928  0.0897  0.1886  0.0715
 2854SOL    HW120198   2.617   0.273   1.864 -0.5334 -1.2844  0.0616
 2854SOL    HW220199   2.569   0.394   1.931  1.2794 -0.0558  1.0447
 2855SOL     OW20200   1.173   3.895   8.332  0.7813  0.1968 -0.9987
 2855SOL    HW120201   1.170   3.894   8.237  0.0346  3.2800 -1.0165
 2855SOL    HW220202   1.222   3.977   8.339  1.6805 -0.3844 -0.5814
 2856SOL     OW20203   0.492   2.013   3.203 -0.1990 -0.2846 -0.2383
 2856SOL    HW120204   0.489   2.056   3.288 -2.2704 -0.2454 -0.3251
 2856SOL    HW220205   0.583   2.019   3.174 -0.2278 -0.4097 -0.3540
 2857SOL     OW20206   2.194   2.271   4.023 -0.2731  0.0698 -0.2012
 2857SOL    HW120207   2.262   2.320   3.976 -2.8319  1.2912 -2.6425
 2857SOL    HW220208   2.176   2.210   3.951 -2.0361 -0.0702  0.3598
 2858SOL     OW20209   2.374   4.694   8.355  0.1195  0.8005 -0.3904
 2858SOL    HW120210   2.368   4.604   8.388  0.3480  0.8830 -0.1254
 2858SOL    HW220211   2.282   4.721   8.358  0.1174  0.6007  1.3947
 2859SOL     OW20212   4.507   0.144   3.276  0.4436 -0.1022 -0.3063
 2859SOL    HW120213   4.488   0.237   3.263  0.4396 -0.1883 -0.9464
 2859SOL    HW220214   4.439   0.102   3.223 -1.1505  1.7903  0.2358
 2860SOL     OW20215   3.556   4.556   9.633 -0.0267 -0.2196 -0.0455
 2860SOL    HW120216   3.569   4.644   9.670  0.3408 -0.0425 -0.5799
 2860SOL    HW220217   3.622   4.559   9.563  1.2457  1.1095  1.2081
 2861SOL     OW20218   0.259   1.435   6.589 -0.4333 -0.0729  0.0218
 2861SOL    HW120219   0.275   1.432   6.495 -1.6010 -0.4201 -0.1749
 2861SOL    HW220220   0.195   1.364   6.597 -0.9434  0.5534  1.4712
 2862SOL     OW20221   2.124   2.656  16.418  0.2126  0.2959 -0.2129
 2862SOL    HW120222   2.060   2.617  16.359 -0.4512 -0.0388  0.7258
 2862SOL    HW220223   2.068   2.706  16.478  1.3121 -0.6351  1.5751
 2863SOL     OW20224   2.964   2.354   5.264 -0.2528 -0.2136  0.2892
 2863SOL    HW120225   2.921   2.280   5.306 -0.0150  1.0113  2.6684
 2863SOL    HW220226   2.941   2.336   5.172  0.2325  1.0902 -0.0894
 2864SOL     OW20227   2.844   4.318   8.166  0.3096  0.7596  0.3293
 2864SOL    HW120228   2.875   4.355   8.249  2.4976  0.6319 -0.4517
 2864SOL    HW220229   2.842   4.223   8.178 -1.0417  1.0680  2.5620
 2865SOL     OW20230   2.861   1.819   4.356 -0.1539 -0.6781 -0.1448
 2865SOL    HW120231   2.786   1.830   4.298  0.4219  0.1940 -0.7147
 2865SOL    HW220232   2.929   1.846   4.294 -1.8559  0.6574 -1.4082
 2866SOL     OW20233   4.504   2.193  13.167  0.2641  0.0469  0.2443
 2866SOL    HW120234   4.476   2.282  13.190  0.0910 -0.0185  0.2811
 2866SOL    HW220235   4.599   2.203  13.158  0.4707 -2.0498  0.2354
 2867SOL     OW20236   1.346   2.364   2.111  0.5714 -0.2066 -0.3533
 2867SOL    HW120237   1.350   2.459   2.096 -0.2467 -0.0409  0.4638
 2867SOL    HW220238   1.379   2.324   2.031  0.8393 -1.9657  0.6306
 2868SOL     OW20239   1.258   1.986   8.843 -0.2926  0.1572  0.0913
 2868SOL    HW120240   1.206   1.920   8.798 -1.1660 -0.1149  1.4943
 2868SOL    HW220241   1.204   2.065   8.845 -3.7580 -2.2679  3.7253
 2869SOL     OW20242   0.352   2.581   9.103 -0.2699 -0.1886 -0.2230
 2869SOL    HW120243   0.286   2.648   9.084  0.2437 -0.2645 -2.3201
 2869SOL    HW220244   0.429   2.630   9.074  0.4997 -0.4606  1.4099
 2870SOL     OW20245   3.644   0.283  17.649  0.5965 -0.1766  0.6542
 2870SOL    HW120246   3.650   0.190  17.675  0.3337 -0.9875 -2.2103
 2870SOL    HW220247   3.675   0.275  17.559 -0.0189 -1.1688  0.5328
 2871SOL     OW20248   0.309   2.559   3.687 -0.0470 -0.3380  0.3227
 2871SOL    HW120249   0.399   2.540   3.658  0.2528  1.5776  0.0013
 2871SOL    HW220250   0.280   2.481   3.735 -1.0912  0.0017  0.2293
 2872SOL     OW20251   1.783   1.807  11.874 -0.4879  0.2152  0.3446
 2872SOL    HW120252   1.757   1.895  11.848  2.1597 -0.1150 -3.4058
 2872SOL    HW220253   1.712   1.749  11.845  1.0178 -1.1617 -0.5489
 2873SOL     OW20254   3.723   4.330   0.201 -0.3977 -0.0949  0.0427
 2873SOL    HW120255   3.722   4.426   0.196 -0.3420 -0.1957 -1.6997
 2873SOL    HW220256   3.649   4.301   0.147 -1.4962  0.9133  0.9988
 2874SOL     OW20257   0.165   2.724   7.080  0.0252 -0.1148 -0.4424
 2874SOL    HW120258   0.163   2.642   7.130 -0.7020  0.2082  0.0600
 2874SOL    HW220259   0.251   2.763   7.097 -0.5112  0.4989  0.8883
 2875SOL     OW20260   2.586   4.081  16.531 -0.3697 -0.1788 -0.1542
 2875SOL    HW120261   2.585   4.177  16.525  0.6182 -0.1321  0.3502
 2875SOL    HW220262   2.671   4.064  16.573 -0.5402 -1.1335 -0.2004
 2876SOL     OW20263   0.316   1.270  10.422  0.4264 -0.3995 -0.0899
 2876SOL    HW120264   0.268   1.307  10.349  1.5550  1.0787 -0.0859
 2876SOL    HW220265   0.291   1.335  10.487 -1.0095 -1.3617  0.3074
 2877SOL     OW20266   2.134   0.992   3.476  0.0719 -0.1243 -0.0665
 2877SOL    HW120267   2.152   0.903   3.446  0.8435  0.2940 -0.8182
 2877SOL    HW220268   2.071   1.031   3.416  1.4311 -1.3029 -2.2470
 2878SOL     OW20269   0.314   0.240   8.776  0.1847 -0.2801  0.1590
 2878SOL    HW120270   0.278   0.321   8.740  1.7326  0.0988 -0.5452
 2878SOL    HW220271   0.336   0.273   8.864 -0.8004  1.0953 -0.1163
 2879SOL     OW20272   4.046   4.465   8.078  0.0796  0.9525  0.4345
 2879SOL    HW120273   4.022   4.537   8.020  0.8322 -0.4803 -1.6461
 2879SOL    HW220274   3.967   4.475   8.132  0.6340  1.6375  1.1259
 2880SOL     OW20275   3.971   3.700   8.286  0.6866 -0.1322 -0.0862
 2880SOL    HW120276   4.059   3.720   8.252  0.9231  0.5456  0.9186
 2880SOL    HW220277   3.931   3.784   8.266 -0.6631 -1.1041 -1.4562
 2881SOL     OW20278   0.820   4.268   4.483  0.1118  0.6546  0.0383
 2881SOL    HW120279   0.754   4.227   4.427  1.8240  1.1333 -2.3244
 2881SOL    HW220280   0.767   4.295   4.558 -1.5745 -0.9792 -0.5611
 2882SOL     OW20281   4.646   0.273   1.880  0.2323  0.8769 -0.1270
 2882SOL    HW120282   4.630   0.207   1.813 -0.4523  1.4048 -0.4814
 2882SOL    HW220283   4.721   0.233   1.924 -0.1350  0.1116 -0.1958
 2883SOL     OW20284   3.308   3.757   1.856 -0.2057 -0.2419  0.5084
 2883SOL    HW120285   3.300   3.812   1.778  0.0349 -0.8664  0.0420
 2883SOL    HW220286   3.398   3.724   1.852 -0.0837  0.0518  0.7881
 2884SOL     OW20287   3.510   1.928  16.152 -0.4087  0.3821  0.0752
 2884SOL    HW120288   3.415   1.929  16.154 -0.4070  0.8297 -0.1290
 2884SOL    HW220289   3.533   1.857  16.092 -0.4138 -0.4716  1.0777
 2885SOL     OW20290   3.337   4.412   8.292 -0.0830  0.5886  0.2384
 2885SOL    HW120291   3.278   4.466   8.241  0.8223  0.6875 -0.7019
 2885SOL    HW220292   3.402   4.391   8.225  1.2659 -0.8913  1.9643
 2886SOL     OW20293   2.915   3.898   9.143 -0.6903  0.3902  0.2982
 2886SOL    HW120294   2.959   3.983   9.137  0.7206 -0.5673 -3.0308
 2886SOL    HW220295   2.860   3.924   9.217 -0.5474  1.6632 -0.0387
 2887SOL     OW20296   1.725   2.269   0.791  0.1254 -0.3911 -0.0633
 2887SOL    HW120297   1.740   2.176   0.771 -0.1686 -0.4302 -0.1022
 2887SOL    HW220298   1.746   2.264   0.884  0.9170 -2.8370 -0.3767
 2888SOL     OW20299   2.843   1.932  12.054 -0.2441  0.3168 -0.2413
 2888SOL    HW120300   2.839   2.001  12.120  1.9342 -0.3497  0.6055
 2888SOL    HW220301   2.788   1.971  11.987  1.3825 -0.2063 -1.8866
 2889SOL     OW20302   0.094   0.494   6.376  0.2694  0.3214 -0.7131
 2889SOL    HW120303   0.093   0.421   6.315 -1.3024 -0.7900  0.6533
 2889SOL    HW220304   0.080   0.443   6.455 -0.8649 -1.7295 -2.2572
 2890SOL     OW20305   1.614   1.392   7.707 -0.0857  0.4129 -0.3004
 2890SOL    HW120306   1.694   1.374   7.658  1.4153 -0.1310  2.3700
 2890SOL    HW220307   1.566   1.319   7.667 -0.2186  1.7808 -2.6619
 2891SOL     OW20308   2.212   3.849  13.025  0.2063  0.1855 -0.0398
 2891SOL    HW120309   2.143   3.878  12.965 -0.6926 -0.1282  0.8227
 2891SOL    HW220310   2.239   3.934  13.060  1.2313  0.0186 -0.4374
 2892SOL     OW20311   1.361   2.845   4.420  0.0368 -0.3236 -0.0684
 2892SOL    HW120312   1.384   2.908   4.353  4.4303 -0.6801  1.1140
 2892SOL    HW220313   1.364   2.761   4.374 -0.1194 -1.4568  1.9772
 2893SOL     OW20314   0.953   2.865   6.715  0.3780 -0.2064 -0.4948
 2893SOL    HW120315   0.991   2.838   6.632 -1.9782 -0.5884 -1.4448
 2893SOL    HW220316   0.923   2.779   6.743  0.7031 -0.0412  0.3724
 2894SOL     OW20317   1.828   2.735   8.678 -0.0824 -0.4147  0.2778
 2894SOL    HW120318   1.909   2.786   8.691 -1.2969  1.5729  0.0225
 2894SOL    HW220319   1.758   2.799   8.692 -0.7001 -1.1843  0.6622
 2895SOL     OW20320   1.749   3.344   4.320  0.4415  0.6629 -0.3238
 2895SOL    HW120321   1.760   3.344   4.416  0.3507 -1.1120 -0.3243
 2895SOL    HW220322   1.797   3.427   4.310  0.4982  0.7986  1.0235
 2896SOL     OW20323   0.205   0.813  12.716 -0.4088  0.2421  0.2228
 2896SOL    HW120324   0.130   0.824  12.774 -0.2247  2.8677 -0.0204
 2896SOL    HW220325   0.164   0.837  12.633 -0.1311  0.4694  0.1515
 2897SOL     OW20326   2.727   2.503   2.953  0.1797  0.0522  0.4928
 2897SOL    HW120327   2.647   2.468   2.991 -1.0692  1.3176 -0.9530
 2897SOL    HW220328   2.781   2.436   2.993  1.7578  0.3372 -1.1308
 2898SOL     OW20329   0.717   1.967   3.820  0.3730  0.4446  0.7986
 2898SOL    HW120330   0.781   1.897   3.807  0.9063  1.0023  0.4420
 2898SOL    HW220331   0.635   1.931   3.784 -0.5970  1.1843  2.2560
 2899SOL     OW20332   0.729   2.064   9.108 -0.1531 -0.3391 -0.5669
 2899SOL    HW120333   0.658   2.070   9.172 -1.2810 -2.0427 -1.6841
 2899SOL    HW220334   0.739   2.158   9.091 -0.5530  0.2063  2.2125
 2900SOL     OW20335   0.071   2.291   7.774 -0.7618 -0.0054 -0.2930
 2900SOL    HW120336   0.019   2.211   7.786  3.0034 -2.4993 -0.5899
 2900SOL    HW220337   0.142   2.256   7.721 -1.4156 -0.3774 -0.9323
 2901SOL     OW20338   3.380   1.792   8.375  0.7839 -0.7246 -0.8456
 2901SOL    HW120339   3.340   1.761   8.294 -0.8787  1.9802 -1.0520
 2901SOL    HW220340   3.345   1.881   8.375  1.5743 -0.4098  0.3820
 2902SOL     OW20341   1.148   1.013   7.901 -0.8455  0.4634 -0.3310
 2902SOL    HW120342   1.187   0.937   7.944  0.1619  1.1588 -0.0157
 2902SOL    HW220343   1.153   1.077   7.972  1.3703  0.9995 -0.9784
 2903SOL     OW20344   3.585   1.492   3.197 -0.1854 -0.3296 -0.2577
 2903SOL    HW120345   3.550   1.403   3.198  1.6451 -1.0647 -1.3556
 2903SOL    HW220346   3.533   1.520   3.272  0.6129  2.9909 -0.9247
 2904SOL     OW20347   4.591   4.414  17.051  0.4309 -0.3370  0.2418
 2904SOL    HW120348   4.559   4.379  17.134 -1.0656  0.3190 -0.0463
 2904SOL    HW220349   4.666   4.465  17.079  0.0158  1.6281 -2.2023
 2905SOL     OW20350   2.945   2.649   3.960 -1.0427 -0.6302 -0.9532
 2905SOL    HW120351   2.977   2.725   4.009 -1.9461 -0.3552 -0.7805
 2905SOL    HW220352   2.852   2.648   3.983 -0.9441  0.4186 -0.4852
 2906SOL     OW20353   4.675   2.640   7.973  0.4647  0.6144  0.6400
 2906SOL    HW120354   4.604   2.679   8.025  1.8764  1.3393  2.0333
 2906SOL    HW220355   4.626   2.601   7.901  0.5888 -0.1665  0.9791
 2907SOL     OW20356   1.145   3.569   3.265 -0.5058 -0.0131 -0.0897
 2907SOL    HW120357   1.109   3.496   3.315 -0.2304 -1.2997 -1.7763
 2907SOL    HW220358   1.064   3.618   3.251 -1.4067 -1.2763  0.6384
 2908SOL     OW20359   2.363   2.971  14.277  0.0900  0.0314  0.1126
 2908SOL    HW120360   2.453   2.981  14.309  0.2618 -0.5812 -0.1746
 2908SOL    HW220361   2.359   3.046  14.218 -0.3900 -1.6481 -1.9658
 2909SOL     OW20362   3.442   3.216   8.398 -0.4168 -0.4635 -0.0448
 2909SOL    HW120363   3.457   3.134   8.445 -0.0283  0.8693  2.1457
 2909SOL    HW220364   3.401   3.266   8.469 -1.6223 -0.5644 -0.6731
 2910SOL     OW20365   1.727   4.019   1.071 -0.0186  0.1831  0.4206
 2910SOL    HW120366   1.684   3.948   1.023 -2.1120  2.1145 -0.5526
 2910SOL    HW220367   1.691   4.007   1.159  1.3083  0.5053  0.9924
 2911SOL     OW20368   0.179   3.418   7.429  1.0529  0.1680 -0.3737
 2911SOL    HW120369   0.257   3.369   7.454 -0.0995 -1.7089 -0.4830
 2911SOL    HW220370   0.210   3.499   7.387 -0.5156  0.9268 -0.0756
 2912SOL     OW20371   1.570   4.336   7.598 -0.3546  0.1165 -0.1180
 2912SOL    HW120372   1.573   4.385   7.516 -1.2710  1.2503  0.5128
 2912SOL    HW220373   1.571   4.243   7.578 -1.1113  0.5377 -2.1594
 2913SOL     OW20374   4.069   3.155  10.996 -0.2993 -0.2639 -0.0095
 2913SOL    HW120375   4.047   3.222  11.060 -0.8745  0.0323 -0.5206
 2913SOL    HW220376   4.111   3.085  11.046 -2.2277 -1.0893  0.4729
 2914SOL     OW20377   2.066   1.650  13.609  0.0647  0.1167  0.1160
 2914SOL    HW120378   2.061   1.727  13.666  1.3082  0.9296 -0.8567
 2914SOL    HW220379   2.003   1.670  13.541 -0.1785  1.6178  0.7925
 2915SOL     OW20380   1.388   0.088   6.271 -0.4754 -0.0715  0.6894
 2915SOL    HW120381   1.460   0.151   6.264 -0.6118  0.2020  1.8729
 2915SOL    HW220382   1.323   0.153   6.296 -1.5044 -0.2768 -1.3814
 2916SOL     OW20383   1.386   1.791  15.405  0.4861  0.1548 -0.2173
 2916SOL    HW120384   1.416   1.701  15.392 -0.3067 -0.2330  0.6880
 2916SOL    HW220385   1.432   1.835  15.333 -0.3608  1.2078 -0.1090
 2917SOL     OW20386   4.581   0.053  11.073 -0.3583 -0.0801  0.2607
 2917SOL    HW120387   4.599   0.143  11.101 -1.8835  0.0608  0.7924
 2917SOL    HW220388   4.659   4.736  11.080  0.4387  1.0260 -0.0545
 2918SOL     OW20389   1.679   3.329   3.102 -0.0291  0.3705  0.6298
 2918SOL    HW120390   1.698   3.335   3.196  2.0087 -0.7250  0.2805
 2918SOL    HW220391   1.703   3.416   3.072 -2.6618 -0.2173 -3.1240
 2919SOL     OW20392   0.536   1.148   4.722 -0.3257 -0.1353  0.0423
 2919SOL    HW120393   0.545   1.185   4.634 -0.7417 -2.0695 -0.7980
 2919SOL    HW220394   0.462   1.198   4.757 -0.0168 -0.0329  0.5489
 2920SOL     OW20395   3.992   4.609   7.842 -0.8286  0.2747 -0.1065
 2920SOL    HW120396   3.910   4.647   7.809 -0.7028 -0.6529 -1.4703
 2920SOL    HW220397   4.038   4.613   7.759  1.4530  1.5229  1.2049
 2921SOL     OW20398   1.328   0.255   5.137  0.3834 -0.5710 -0.7174
 2921SOL    HW120399   1.292   0.230   5.222  0.1512  0.1766 -0.5977
 2921SOL    HW220400   1.397   0.313   5.170 -0.2964 -1.5819  2.5010
 2922SOL     OW20401   4.267   4.017   3.775  0.1810  0.1341  0.0095
 2922SOL    HW120402   4.177   3.994   3.752 -0.3036  1.1467  0.9092
 2922SOL    HW220403   4.309   3.938   3.739 -1.4336 -0.2656 -0.9737
 2923SOL     OW20404   4.051   1.019   5.209  0.2444 -0.0959 -0.2644
 2923SOL    HW120405   4.026   1.075   5.134  1.3385  0.7706  0.0159
 2923SOL    HW220406   4.006   0.938   5.187  1.8011 -0.7878 -0.8660
 2924SOL     OW20407   2.675   4.049   2.380 -0.0162 -0.2643  0.2982
 2924SOL    HW120408   2.677   3.956   2.355  0.3552 -0.3907  0.7842
 2924SOL    HW220409   2.629   4.092   2.308  1.2967  0.2864 -0.2074
 2925SOL     OW20410   4.687   4.338   6.702 -0.3399 -0.3889  0.2692
 2925SOL    HW120411   4.668   4.340   6.608  0.5796  0.5530  0.1052
 2925SOL    HW220412   4.607   4.305   6.741 -1.0663 -0.7704 -1.5518
 2926SOL     OW20413   2.704   3.370  10.374 -0.0195 -0.1998 -0.2733
 2926SOL    HW120414   2.671   3.292  10.329 -2.7212  2.1582 -2.3943
 2926SOL    HW220415   2.658   3.435  10.321  0.7630  1.5666  1.2255
 2927SOL     OW20416   4.432   4.479   6.535  0.2586  0.2324  0.3940
 2927SOL    HW120417   4.397   4.418   6.600  1.1701  0.1519  0.8142
 2927SOL    HW220418   4.434   4.565   6.577 -1.5483 -0.6695  2.3460
 2928SOL     OW20419   2.822   3.198   7.097  0.3642 -0.1169 -0.0938
 2928SOL    HW120420   2.728   3.188   7.081  0.3419  0.0078 -0.0425
 2928SOL    HW220421   2.861   3.178   7.012 -0.0630  2.5626 -0.9245
 2929SOL     OW20422   3.814   3.724   2.281 -0.1574  0.5236 -0.4037
 2929SOL    HW120423   3.789   3.741   2.190  1.1843 -0.6417 -0.9966
 2929SOL    HW220424   3.816   3.814   2.314 -1.0508  0.2967  0.2642
 2930SOL     OW20425   1.112   3.647   5.706 -0.0321  0.2211 -0.0905
 2930SOL    HW120426   1.184   3.623   5.648  0.1390 -0.1521  0.2735
 2930SOL    HW220427   1.033   3.642   5.652  0.8140  0.0962 -1.3150
 2931SOL     OW20428   3.882   1.461   4.988 -0.2533  0.2156  0.0788
 2931SOL    HW120429   3.908   1.551   4.970 -0.3724  0.0778 -0.7897
 2931SOL    HW220430   3.902   1.427   4.901  0.5352  0.0952  0.3043
 2932SOL     OW20431   0.087   1.148  14.270 -0.1626 -0.6428  0.0404
 2932SOL    HW120432   0.027   1.151  14.195 -0.8522 -0.1660  0.6113
 2932SOL    HW220433   0.166   1.127  14.220 -0.5140 -3.6093  0.7303
 2933SOL     OW20434   4.514   4.325  17.615 -0.2406  0.1068  0.3203
 2933SOL    HW120435   4.477   4.239  17.636  2.4140 -1.0101  0.3173
 2933SOL    HW220436   4.428   4.362  17.593 -0.5000 -0.4979  0.3026
 2934SOL     OW20437   3.212   3.880   2.755 -0.2771  0.2757  0.4998
 2934SOL    HW120438   3.297   3.904   2.790 -0.5812  0.9198  0.7906
 2934SOL    HW220439   3.232   3.805   2.700 -0.2603 -0.4295  1.4583
 2935SOL     OW20440   0.424   0.456   7.902 -0.0934 -0.6707  0.0462
 2935SOL    HW120441   0.485   0.456   7.829  0.2204 -0.5126  0.3074
 2935SOL    HW220442   0.349   0.496   7.859  0.1750 -0.0046  0.2113
 2936SOL     OW20443   0.760   3.074   3.889 -0.3394  0.1792 -0.3124
 2936SOL    HW120444   0.810   3.138   3.838  0.1914 -0.4050 -0.5223
 2936SOL    HW220445   0.784   3.099   3.978 -1.2933 -3.5249  0.9988
 2937SOL     OW20446   3.156   2.650   1.735  0.5161  0.2561  0.0017
 2937SOL    HW120447   3.179   2.577   1.677  1.2387  0.5461 -0.0792
 2937SOL    HW220448   3.061   2.638   1.726  0.5666 -1.0320  1.0731
 2938SOL     OW20449   3.617   4.722  11.296  0.0380  0.2321  0.2958
 2938SOL    HW120450   3.573   4.690  11.217  1.9914  1.9979 -1.5150
 2938SOL    HW220451   3.675   4.647  11.313  2.6234  1.9308 -0.9719
 2939SOL     OW20452   0.201   0.120   4.775 -0.2309 -0.4358 -0.4570
 2939SOL    HW120453   0.184   0.026   4.782 -1.7269 -0.2902 -2.0627
 2939SOL    HW220454   0.127   0.152   4.825 -2.3444 -1.4888 -2.9164
 2940SOL     OW20455   1.956   3.912   0.548  0.1377  0.1068 -0.0341
 2940SOL    HW120456   1.939   3.839   0.608 -1.5736  0.2089 -0.4137
 2940SOL    HW220457   2.037   3.952   0.581 -0.4803  1.3352 -0.0276
 2941SOL     OW20458   3.607   4.722  10.713  0.1483 -0.2794 -0.1320
 2941SOL    HW120459   3.683   4.694  10.765 -0.0318  0.5238  0.5720
 2941SOL    HW220460   3.536   4.714  10.777  0.9292 -1.3898  0.6013
 2942SOL     OW20461   2.942   2.718   5.452 -0.3333  0.3756 -0.0842
 2942SOL    HW120462   2.921   2.810   5.469 -3.9133 -0.7879  1.9001
 2942SOL    HW220463   2.942   2.710   5.357 -0.0782  2.5231 -0.2491
 2943SOL     OW20464   0.907   2.482   7.558 -0.2059  0.4997  0.3562
 2943SOL    HW120465   0.923   2.414   7.624 -0.4769  0.1718  0.0873
 2943SOL    HW220466   0.881   2.556   7.613 -2.6042 -0.5584  0.6599
 2944SOL     OW20467   3.810   1.382   8.294 -0.3768 -0.2147 -0.2476
 2944SOL    HW120468   3.902   1.361   8.306 -0.9389 -2.2882  0.4341
 2944SOL    HW220469   3.814   1.473   8.264  2.5808  0.0260  0.9506
 2945SOL     OW20470   3.870   1.359   0.681 -0.2938 -0.1318 -0.3264
 2945SOL    HW120471   3.904   1.270   0.684 -0.5611 -0.1952  0.8787
 2945SOL    HW220472   3.941   1.397   0.631  0.9888 -0.2008  1.4362
 2946SOL     OW20473   3.304   3.959  12.714 -0.1829 -0.3105 -0.3082
 2946SOL    HW120474   3.292   4.017  12.789  3.6077 -0.6731  0.5888
 2946SOL    HW220475   3.324   3.879  12.763  1.7411  1.9276  2.5935
 2947SOL     OW20476   1.234   3.097   9.811 -0.2461 -0.3218 -0.5909
 2947SOL    HW120477   1.299   3.102   9.741 -0.6054  0.4688 -0.8689
 2947SOL    HW220478   1.290   3.104   9.888 -0.0978  1.4591 -0.8610
 2948SOL     OW20479   3.178   2.035   4.726  0.2002 -0.3132 -0.0399
 2948SOL    HW120480   3.179   2.085   4.644 -0.6585 -0.4301 -0.1167
 2948SOL    HW220481   3.271   2.047   4.746  0.0228  0.6604  0.2130
 2949SOL     OW20482   0.411   3.535   8.498 -0.4333  0.1182 -0.3535
 2949SOL    HW120483   0.363   3.454   8.514  0.6057 -0.6601 -1.1480
 2949SOL    HW220484   0.471   3.543   8.573 -1.3413 -2.1182  0.6342
 2950SOL     OW20485   3.309   0.636   4.796  0.1319 -0.5186 -0.3084
 2950SOL    HW120486   3.268   0.572   4.853 -0.2619  0.2627  0.2888
 2950SOL    HW220487   3.238   0.656   4.735 -0.3891  0.9151  0.7766
 2951SOL     OW20488   0.753   1.716  15.907 -0.0193  0.3684  0.7641
 2951SOL    HW120489   0.697   1.780  15.863 -0.5170 -0.3706  0.3187
 2951SOL    HW220490   0.803   1.679  15.834 -1.5277 -2.0426  0.9358
 2952SOL     OW20491   3.884   2.651   5.155  0.3749  0.3615  1.0129
 2952SOL    HW120492   3.910   2.738   5.185 -0.8393  0.5561  1.4741
 2952SOL    HW220493   3.789   2.652   5.160  0.2198 -1.2325 -1.4025
 2953SOL     OW20494   3.579   0.971   9.171  0.0890 -0.1228 -0.1438
 2953SOL    HW120495   3.589   0.941   9.261 -1.1000  1.9954  0.6933
 2953SOL    HW220496   3.492   1.009   9.184 -0.0575 -0.1029 -1.1906
 2954SOL     OW20497   2.303   2.172   9.509 -0.5921 -0.0344  0.1195
 2954SOL    HW120498   2.285   2.128   9.426  0.9064  0.4060 -0.4332
 2954SOL    HW220499   2.306   2.090   9.558  1.8186 -0.5830 -0.9410
 2955SOL     OW20500   3.910   1.874   5.548  0.6359 -0.3997  0.2796
 2955SOL    HW120501   3.887   1.790   5.586  0.7445 -0.2893  0.5922
 2955SOL    HW220502   3.884   1.862   5.457  1.3654 -0.4825  0.0822
 2956SOL     OW20503   0.054   2.082  12.413 -0.1872 -0.0800  0.7606
 2956SOL    HW120504   4.733   2.137  12.465 -0.3360 -0.1255  0.6400
 2956SOL    HW220505   0.030   1.997  12.450 -3.2200  1.2169  1.7212
 2957SOL     OW20506   1.018   2.767   8.214  0.8489 -0.1925 -0.5925
 2957SOL    HW120507   1.022   2.692   8.155 -0.9891 -1.7493  1.2545
 2957SOL    HW220508   1.092   2.742   8.270 -2.4252 -3.2279  2.4261
 2958SOL     OW20509   1.947   2.005   6.556 -0.6057 -0.3098  0.9912
 2958SOL    HW120510   1.900   1.949   6.619 -0.5838 -1.2516  0.1731
 2958SOL    HW220511   1.960   2.082   6.611 -2.0615  0.4023  0.3216
 2959SOL     OW20512   0.392   2.559  16.480 -0.3122 -0.0950 -0.0174
 2959SOL    HW120513   0.331   2.629  16.458 -0.3414  0.1711  0.9183
 2959SOL    HW220514   0.461   2.614  16.518  1.1423 -1.7616 -0.2302
 2960SOL     OW20515   4.430   0.766   1.728  0.9147 -0.3262 -0.0239
 2960SOL    HW120516   4.363   0.812   1.678  2.5222  0.0253 -1.8639
 2960SOL    HW220517   4.407   0.774   1.821 -1.5277  0.7986 -0.7241
 2961SOL     OW20518   0.660   4.101   3.911  0.4301  0.5702  0.1149
 2961SOL    HW120519   0.726   4.100   3.979 -1.4044 -2.0543  1.8672
 2961SOL    HW220520   0.604   4.172   3.942 -2.0747 -1.4393  0.2296
 2962SOL     OW20521   2.380   0.455  15.581 -0.1655 -0.3027 -0.0836
 2962SOL    HW120522   2.390   0.471  15.487 -1.1681  1.4912  0.1220
 2962SOL    HW220523   2.290   0.424  15.587 -0.7289  1.6890  1.7655
 2963SOL     OW20524   2.795   1.843   2.726  0.0188  0.3292  0.3453
 2963SOL    HW120525   2.747   1.851   2.643  0.5185 -0.6897 -0.0362
 2963SOL    HW220526   2.883   1.823   2.695 -0.0859  1.0373 -0.4166
 2964SOL     OW20527   0.544   3.747   3.703  0.0946  0.3209  0.3347
 2964SOL    HW120528   0.466   3.695   3.718  0.6445 -0.6801 -0.2787
 2964SOL    HW220529   0.560   3.711   3.615  1.0047 -1.2878  1.1667
 2965SOL     OW20530   3.385   1.595   3.990  0.2331  0.3143 -0.0454
 2965SOL    HW120531   3.410   1.682   4.022 -0.4936 -0.5330  2.8710
 2965SOL    HW220532   3.388   1.558   4.078 -0.4191  0.5620  0.0839
 2966SOL     OW20533   0.339   3.141   4.322 -0.1133  0.2319 -0.3134
 2966SOL    HW120534   0.255   3.095   4.314 -0.3422  0.6886 -0.5636
 2966SOL    HW220535   0.362   3.161   4.231 -0.5816 -0.8340 -0.6677
 2967SOL     OW20536   1.280   2.740   5.624 -0.2892  0.0931  0.3593
 2967SOL    HW120537   1.333   2.742   5.704 -1.0833 -0.7525  0.8997
 2967SOL    HW220538   1.278   2.835   5.610 -2.2553 -0.4624 -3.0296
 2968SOL     OW20539   3.576   2.947   4.316  0.1662 -0.4337  0.5442
 2968SOL    HW120540   3.553   3.017   4.254 -2.0834 -1.4683  0.2488
 2968SOL    HW220541   3.665   2.922   4.291 -0.2834 -0.6422 -0.8625
 2969SOL     OW20542   3.497   2.965   8.521  0.3828  0.0063  0.4725
 2969SOL    HW120543   3.581   2.972   8.566  2.0166 -1.8957 -2.2509
 2969SOL    HW220544   3.504   2.887   8.466  0.1878 -1.0221  1.9071
 2970SOL     OW20545   0.145   2.249   2.095 -0.7244 -0.1120 -0.0867
 2970SOL    HW120546   0.063   2.298   2.096 -2.3662 -2.7750 -1.4657
 2970SOL    HW220547   0.133   2.167   2.047 -0.5501 -0.3350  0.2470
 2971SOL     OW20548   1.507   0.915   6.796 -0.5710 -0.7698  0.2673
 2971SOL    HW120549   1.542   0.893   6.710 -0.0875 -1.5751  0.6701
 2971SOL    HW220550   1.425   0.867   6.784 -1.0712  0.2986 -0.5635
 2972SOL     OW20551   3.961   3.072   5.858  0.2473  0.0032 -0.6234
 2972SOL    HW120552   3.895   3.121   5.906  0.2914  1.6215 -2.2178
 2972SOL    HW220553   3.949   3.116   5.774  0.5597  1.0667 -0.1157
 2973SOL     OW20554   0.686   3.136   9.446 -0.1461  0.0361 -0.6110
 2973SOL    HW120555   0.654   3.053   9.482  0.5151  0.1648  0.2467
 2973SOL    HW220556   0.690   3.194   9.522 -0.6564  0.2827 -0.7729
 2974SOL     OW20557   2.115   2.466   9.824  0.0836  0.1375  0.2300
 2974SOL    HW120558   2.188   2.433   9.877  1.0667  0.8249 -0.7044
 2974SOL    HW220559   2.097   2.403   9.755  0.7708  0.5686 -0.3405
 2975SOL     OW20560   4.068   2.259  10.872  0.4396  0.5811  0.6613
 2975SOL    HW120561   4.133   2.189  10.884 -1.1116 -1.4871 -2.8661
 2975SOL    HW220562   3.991   2.217  10.912 -0.2726  2.1602  0.9246
 2976SOL     OW20563   1.616   4.594   8.710  0.2022  0.0723  0.5514
 2976SOL    HW120564   1.681   4.529   8.683  1.8846  1.3023  1.6392
 2976SOL    HW220565   1.615   4.567   8.801 -0.6225 -0.3505  0.4236
 2977SOL     OW20566   3.800   3.935   9.921  0.4114 -0.1823 -0.0615
 2977SOL    HW120567   3.882   3.982   9.907  1.2827 -1.8348 -0.5083
 2977SOL    HW220568   3.739   4.007   9.933  0.8552 -0.0904  1.5535
 2978SOL     OW20569   3.394   4.119   8.294  0.3615 -0.3980 -0.3321
 2978SOL    HW120570   3.352   4.198   8.262  0.6795  0.7492  2.1240
 2978SOL    HW220571   3.426   4.074   8.216 -0.5867  0.3665 -1.1605
 2979SOL     OW20572   0.144   0.489   3.677 -0.1519  0.3481 -0.4902
 2979SOL    HW120573   0.106   0.447   3.754 -0.4969  0.4712 -0.5968
 2979SOL    HW220574   0.100   0.573   3.683  1.2629  0.9324  1.9460
 2980SOL     OW20575   0.370   1.604   5.769  0.1017 -0.7082  0.0434
 2980SOL    HW120576   0.313   1.527   5.779 -1.3769  0.4367  0.3708
 2980SOL    HW220577   0.419   1.595   5.851  0.6050  1.1735 -0.0580
 2981SOL     OW20578   3.113   1.680   4.079  0.1154 -0.2802 -0.2806
 2981SOL    HW120579   3.059   1.758   4.088  0.8686  0.4806 -2.4843
 2981SOL    HW220580   3.147   1.704   3.993  0.6750  0.4099  0.1278
 2982SOL     OW20581   0.929   3.775   7.424 -0.2408 -0.5713  0.0999
 2982SOL    HW120582   0.916   3.741   7.513  0.1432  1.0970  0.7938
 2982SOL    HW220583   1.025   3.779   7.426 -0.3001  1.5797 -1.1401
 2983SOL     OW20584   1.920   0.298   4.151  0.4112 -0.2288  0.2564
 2983SOL    HW120585   1.905   0.263   4.064 -1.1236  0.9688  0.0465
 2983SOL    HW220586   1.847   0.360   4.154  2.2113  1.8416  1.2886
 2984SOL     OW20587   0.721   2.982   6.363 -0.0445  0.4002 -0.0317
 2984SOL    HW120588   0.691   3.025   6.283  1.3290  0.3786 -0.5508
 2984SOL    HW220589   0.737   3.040   6.437  0.3037 -0.2526  0.4051
 2985SOL     OW20590   2.391   1.512   3.432 -0.3070  0.4840 -0.0526
 2985SOL    HW120591   2.379   1.544   3.522  0.8403  3.0503 -0.8033
 2985SOL    HW220592   2.430   1.427   3.452 -0.4635  0.0723 -1.5205
 2986SOL     OW20593   2.096   2.639   6.865  0.0122 -0.7171 -0.3612
 2986SOL    HW120594   2.043   2.656   6.787  1.5734  1.5288 -0.9384
 2986SOL    HW220595   2.053   2.701   6.924 -0.0693  0.9059 -2.1408
 2987SOL     OW20596   1.897   3.001   3.208 -0.9502 -0.2095  0.0476
 2987SOL    HW120597   1.922   2.979   3.118 -2.2377  1.2960 -0.6655
 2987SOL    HW220598   1.907   2.915   3.249 -0.3295 -0.8598 -1.4607
 2988SOL     OW20599   2.025   0.365   1.988 -0.0762 -0.4872  0.2957
 2988SOL    HW120600   2.072   0.298   2.039  3.3900 -0.0189 -2.3010
 2988SOL    HW220601   1.939   0.352   2.028  0.7636  0.4455  2.4060
 2989SOL     OW20602   4.235   1.274   4.453 -0.0142 -0.4349  0.7126
 2989SOL    HW120603   4.186   1.269   4.371  3.2505  1.0200 -1.3155
 2989SOL    HW220604   4.172   1.238   4.516 -0.5061 -1.6238 -0.4619
 2990SOL     OW20605   1.457   3.006  14.199  0.4830 -0.2015 -0.0059
 2990SOL    HW120606   1.423   3.094  14.187  2.4065  0.5498  0.0595
 2990SOL    HW220607   1.499   2.992  14.114 -0.4280 -1.5739 -0.2405
 2991SOL     OW20608   3.689   1.607  17.063 -0.4729 -0.0715  0.1791
 2991SOL    HW120609   3.675   1.687  17.012 -0.8287 -1.7132 -2.2763
 2991SOL    HW220610   3.762   1.584  17.006 -0.5569  0.9545 -0.3423
 2992SOL     OW20611   1.854   1.514   8.288 -0.3432 -0.9426 -0.1846
 2992SOL    HW120612   1.775   1.569   8.292  1.8093  2.0847  0.7389
 2992SOL    HW220613   1.876   1.509   8.381 -1.8199  1.8085  0.3351
 2993SOL     OW20614   1.075   1.076  14.865 -0.2065 -0.1214  0.0743
 2993SOL    HW120615   1.163   1.092  14.830 -0.8176  2.7264 -0.2323
 2993SOL    HW220616   1.045   1.020  14.794  0.7325  3.3064 -3.0501
 2994SOL     OW20617   2.803   1.010   6.295  0.2527  1.0055  0.2116
 2994SOL    HW120618   2.711   1.032   6.287  0.7293  2.6049 -0.7451
 2994SOL    HW220619   2.846   1.095   6.306  1.4576  0.7316 -2.4554
 2995SOL     OW20620   2.201   0.783   2.170  1.1547 -0.0141 -0.0044
 2995SOL    HW120621   2.114   0.774   2.209  0.8461 -0.5516 -0.8275
 2995SOL    HW220622   2.217   0.691   2.188  2.0371  0.3742  1.2415
 2996SOL     OW20623   4.384   4.040   2.519  0.0247 -0.4798 -0.1823
 2996SOL    HW120624   4.308   4.038   2.461 -0.4747  0.3485  0.4404
 2996SOL    HW220625   4.347   4.079   2.598 -1.4783  1.2280 -1.7436
 2997SOL     OW20626   0.472   0.603   1.025 -0.4651 -0.2272  0.5275
 2997SOL    HW120627   0.555   0.638   0.993  0.3560  0.5363  3.4903
 2997SOL    HW220628   0.485   0.573   1.115  2.4289  1.3162  0.6134
 2998SOL     OW20629   0.936   3.416   5.298  0.0494  0.0685  0.2073
 2998SOL    HW120630   0.870   3.480   5.273  2.0993  1.3818 -1.8279
 2998SOL    HW220631   0.883   3.336   5.290 -0.1487  0.1200  1.0011
 2999SOL     OW20632   0.230   1.426   7.024 -0.2954 -0.4907 -0.1286
 2999SOL    HW120633   0.225   1.446   7.117 -0.5272  0.3204 -0.3138
 2999SOL    HW220634   0.212   1.332   7.021 -2.8324  0.0167 -1.3445
 3000SOL     OW20635   0.532   3.126   4.485  0.5860  0.0543 -0.1447
 3000SOL    HW120636   0.603   3.100   4.426 -0.2557 -0.7080 -0.8037
 3000SOL    HW220637   0.465   3.140   4.419  2.9999  0.4913 -2.4804
 3001SOL     OW20638   4.092   1.836   7.076  0.1154 -0.6227 -0.1021
 3001SOL    HW120639   4.170   1.890   7.090 -0.7794 -0.2882  3.6004
 3001SOL    HW220640   4.087   1.818   6.983  2.6804 -0.6625 -0.2366
 3002SOL     OW20641   1.382   4.495  10.267 -0.5749  0.4378 -0.1264
 3002SOL    HW120642   1.316   4.541  10.318 -1.2933  0.1389 -0.7813
 3002SOL    HW220643   1.465   4.527  10.304 -0.1602 -0.4093 -0.3228
 3003SOL     OW20644   2.706   0.865   7.758  0.1703 -0.3889  0.1967
 3003SOL    HW120645   2.703   0.862   7.662  0.7854 -4.2679  0.2972
 3003SOL    HW220646   2.615   0.844   7.779  0.4136  2.7516  4.2280
 3004SOL     OW20647   2.129   0.710   6.636  0.2742 -0.4569  0.1990
 3004SOL    HW120648   2.221   0.699   6.610  0.2708 -0.4697  0.1921
 3004SOL    HW220649   2.117   0.804   6.643  1.6032 -0.1715 -1.2895
 3005SOL     OW20650   2.570   1.657   8.241 -0.6680  0.2326 -0.0153
 3005SOL    HW120651   2.500   1.595   8.267 -1.4857  1.2441  0.1891
 3005SOL    HW220652   2.618   1.601   8.180 -0.5834 -0.2430  0.4837
 3006SOL     OW20653   4.275   1.193   9.305  0.3347  0.4207 -0.4013
 3006SOL    HW120654   4.215   1.184   9.231 -0.0151 -1.1632  0.0640
 3006SOL    HW220655   4.243   1.267   9.356 -3.7908  0.5911 -3.2431
 3007SOL     OW20656   4.668   4.236   5.120 -0.5209 -0.1781 -0.1213
 3007SOL    HW120657   4.711   4.287   5.188  0.4968 -0.1698 -0.7682
 3007SOL    HW220658   4.604   4.190   5.173 -1.9434  0.5776 -1.1830
 3008SOL     OW20659   0.483   1.585   3.635 -0.1745 -0.2234  0.2900
 3008SOL    HW120660   0.543   1.560   3.565 -0.8130  1.6089 -0.9163
 3008SOL    HW220661   0.395   1.579   3.597 -0.5010 -1.6407  1.2660
 3009SOL     OW20662   3.074   1.532   5.955 -0.1212 -0.0394  0.2055
 3009SOL    HW120663   3.067   1.596   6.026  1.0645  0.3645 -0.0504
 3009SOL    HW220664   3.154   1.563   5.913 -0.9639 -1.2968 -2.3041
 3010SOL     OW20665   3.418   1.412   4.535  0.4944 -0.3348 -0.3978
 3010SOL    HW120666   3.501   1.371   4.512 -1.0530 -4.7675  1.9323
 3010SOL    HW220667   3.379   1.393   4.449  1.9941  1.8565 -1.5475
 3011SOL     OW20668   3.383   0.318   4.197 -0.0815  0.2334  0.1670
 3011SOL    HW120669   3.295   0.357   4.198 -0.4584 -0.6042 -0.9240
 3011SOL    HW220670   3.373   0.251   4.130  1.8292  0.8799 -0.7552
 3012SOL     OW20671   0.038   0.798   5.327  0.4597 -0.2402  0.5968
 3012SOL    HW120672   4.699   0.833   5.281 -0.0253  1.1440  2.4549
 3012SOL    HW220673   0.096   0.873   5.330 -1.1974  1.0640  0.3083
 3013SOL     OW20674   1.337   2.135   7.795 -0.4088  0.1332  0.1390
 3013SOL    HW120675   1.359   2.219   7.754 -0.0074  0.1211  0.3279
 3013SOL    HW220676   1.424   2.096   7.786  0.5583  2.8734 -2.5759
 3014SOL     OW20677   4.718   3.153  11.720 -0.0460 -0.0415 -0.5254
 3014SOL    HW120678   0.015   3.160  11.631  2.2355 -0.9852  0.3040
 3014SOL    HW220679   4.699   3.245  11.742  1.7507  0.2039 -0.0315
 3015SOL     OW20680   2.254   0.787   5.155 -0.1530  0.2987  0.5554
 3015SOL    HW120681   2.327   0.840   5.123  1.1561 -1.2497  0.9814
 3015SOL    HW220682   2.178   0.825   5.111  0.7044  0.1496 -1.0557
 3016SOL     OW20683   3.320   2.062   8.414  0.0094  0.4483 -0.0791
 3016SOL    HW120684   3.275   2.143   8.393 -0.5775  0.1183 -0.0907
 3016SOL    HW220685   3.411   2.075   8.387  0.0158 -1.0275 -0.8031
 3017SOL     OW20686   1.184   0.056   0.650 -0.0766 -0.0973 -0.1742
 3017SOL    HW120687   1.272   0.094   0.645 -0.9781  1.8417 -1.2563
 3017SOL    HW220688   1.205   4.701   0.660 -1.6947 -0.8692 -4.0487
 3018SOL     OW20689   2.002   4.382  16.353  0.0541 -0.5647 -0.0952
 3018SOL    HW120690   1.967   4.441  16.419  0.5661  0.0789 -0.4029
 3018SOL    HW220691   2.027   4.439  16.280  0.2528 -2.1051 -1.2245
 3019SOL     OW20692   3.089   2.471   6.920 -0.1323  0.2931 -0.2492
 3019SOL    HW120693   3.136   2.389   6.932 -0.2834  0.1379 -0.7332
 3019SOL    HW220694   3.147   2.519   6.980 -1.7769  2.1702 -0.1476
 3020SOL     OW20695   1.278   1.585   3.725 -0.4159  0.4388 -0.1492
 3020SOL    HW120696   1.197   1.565   3.678 -0.8675  1.3078  0.2584
 3020SOL    HW220697   1.289   1.669   3.682 -0.7245  0.5249 -0.0631
 3021SOL     OW20698   0.643   3.404   7.664 -0.0159  0.1845 -0.5188
 3021SOL    HW120699   0.690   3.451   7.733  1.3339 -1.1070 -0.5642
 3021SOL    HW220700   0.655   3.312   7.686  1.2472  0.2229 -1.0307
 3022SOL     OW20701   2.667   0.998   3.121 -0.6933 -0.1554  0.1920
 3022SOL    HW120702   2.685   0.909   3.153  2.1455 -0.3915 -2.0395
 3022SOL    HW220703   2.752   1.023   3.085 -0.8312 -0.8406 -0.6037
 3023SOL     OW20704   0.233   4.203  11.993  0.0828  0.8622  0.0296
 3023SOL    HW120705   0.241   4.109  12.006 -0.9912  0.8226  0.3915
 3023SOL    HW220706   0.249   4.246  12.077  3.2659  0.5477 -0.4299
 3024SOL     OW20707   2.950   3.849   6.090 -0.2703 -0.0889 -0.3470
 3024SOL    HW120708   2.883   3.868   6.155 -0.0799  1.1131 -0.5077
 3024SOL    HW220709   2.896   3.829   6.014  0.6973 -1.2007 -0.7373
 3025SOL     OW20710   4.275   0.468   3.138  0.0664  1.1132  0.0767
 3025SOL    HW120711   4.293   0.561   3.143  2.8596  0.6622 -1.6853
 3025SOL    HW220712   4.354   0.426   3.104 -1.1499 -1.4158  0.3184
 3026SOL     OW20713   1.244   3.590  13.058  0.3599 -0.3858 -0.5346
 3026SOL    HW120714   1.172   3.653  13.071 -1.1520 -1.8850 -1.6685
 3026SOL    HW220715   1.266   3.604  12.966  2.5971 -2.8024 -0.3575
 3027SOL     OW20716   1.579   0.372   8.324  0.4787 -0.4077 -0.1727
 3027SOL    HW120717   1.672   0.357   8.341  0.2966 -1.2535  0.1128
 3027SOL    HW220718   1.547   0.398   8.410  3.5536  2.7357  0.0308
 3028SOL     OW20719   2.015   2.912   8.711 -0.0962  0.3620  0.5307
 3028SOL    HW120720   1.994   2.958   8.792 -1.5760  1.1568 -0.3003
 3028SOL    HW220721   2.110   2.927   8.704  0.2730 -2.3026 -0.0451
 3029SOL     OW20722   2.515   0.215   6.473 -0.7083 -0.0015 -0.0921
 3029SOL    HW120723   2.428   0.205   6.435 -0.2016 -2.9031 -0.4825
 3029SOL    HW220724   2.574   0.197   6.400 -0.2799  1.7476 -0.1762
 3030SOL     OW20725   1.853   2.408   0.138 -0.1774 -0.0310 -0.1286
 3030SOL    HW120726   1.862   2.496   0.102 -0.3268 -0.1082 -0.3551
 3030SOL    HW220727   1.797   2.367   0.072  0.3329 -0.3593 -0.3577
 3031SOL     OW20728   1.501   3.380  13.934  0.3503 -0.0765 -0.1906
 3031SOL    HW120729   1.581   3.372  13.883 -0.9531  0.9911 -2.4506
 3031SOL    HW220730   1.443   3.383  13.857 -0.2926  1.9431  0.3835
 3032SOL     OW20731   3.011   1.372   9.106  0.4319 -0.4539  0.0136
 3032SOL    HW120732   3.040   1.344   9.019 -0.2742  1.8770 -0.9487
 3032SOL    HW220733   3.001   1.466   9.094 -0.3882 -0.5452 -0.0362
 3033SOL     OW20734   1.539   0.960   7.061 -0.1673  0.4628  0.2416
 3033SOL    HW120735   1.619   0.908   7.072 -0.2125 -0.0166 -1.7310
 3033SOL    HW220736   1.527   0.941   6.968 -1.3716 -1.1617  0.7346
 3034SOL     OW20737   2.471   2.792   8.105  0.3630  0.0132 -0.2107
 3034SOL    HW120738   2.488   2.879   8.068 -0.6690 -0.4230 -1.7432
 3034SOL    HW220739   2.493   2.808   8.196  1.3672  1.2062 -0.6517
 3035SOL     OW20740   2.767   2.044  10.162 -0.1618 -0.3917  0.1610
 3035SOL    HW120741   2.736   2.131  10.187 -0.6294 -0.2329 -0.9920
 3035SOL    HW220742   2.691   1.986  10.167 -0.6037  0.2108  0.4203
 3036SOL     OW20743   2.644   0.347  14.208  0.2783 -0.0307  0.7184
 3036SOL    HW120744   2.722   0.387  14.247  1.1762  0.5619 -1.7042
 3036SOL    HW220745   2.570   0.388  14.254  0.0249  1.1828 -0.7938
 3037SOL     OW20746   4.084   4.308   4.550  0.4762 -0.5127  0.4757
 3037SOL    HW120747   4.035   4.250   4.609 -0.8128 -0.3629 -0.4438
 3037SOL    HW220748   4.070   4.265   4.466  1.9120 -0.7828  0.3834
 3038SOL     OW20749   4.508   3.202   3.633  0.2413  0.5321 -0.2608
 3038SOL    HW120750   4.451   3.257   3.687  3.3815  0.5813  2.9493
 3038SOL    HW220751   4.453   3.211   3.556 -0.9044  0.3380  0.5342
 3039SOL     OW20752   4.301   4.085  17.614  0.1946 -0.1141 -0.2347
 3039SOL    HW120753   4.289   4.074  17.520  1.0762 -0.1740 -0.3341
 3039SOL    HW220754   4.227   4.140  17.641  0.8477  0.8655 -0.4430
 3040SOL     OW20755   3.294   2.794   6.876  0.2711  0.8326  0.5579
 3040SOL    HW120756   3.378   2.756   6.849 -0.5131  0.4544 -1.3237
 3040SOL    HW220757   3.281   2.741   6.955 -2.9066  0.9107  0.0785
 3041SOL     OW20758   3.761   4.583   4.706  0.1970 -0.6911  0.0328
 3041SOL    HW120759   3.679   4.535   4.715 -0.7868  0.9642 -0.1012
 3041SOL    HW220760   3.785   4.582   4.614  0.4106 -0.1311  0.0817
 3042SOL     OW20761   1.007   0.260   3.113  0.1083  0.0892  0.1317
 3042SOL    HW120762   1.098   0.247   3.086  0.4314  0.0273  1.2592
 3042SOL    HW220763   1.019   0.286   3.204 -2.2746  0.3567  0.3847
 3043SOL     OW20764   1.178   2.502   8.697  0.0775  0.1487  0.2005
 3043SOL    HW120765   1.088   2.484   8.725  0.1837 -2.6166 -1.2630
 3043SOL    HW220766   1.162   2.581   8.646 -2.4782 -1.1507 -1.0087
 3044SOL     OW20767   4.628   3.906   5.507  0.1978  0.7016 -0.5189
 3044SOL    HW120768   4.709   3.936   5.466  0.6773 -1.7139 -1.3529
 3044SOL    HW220769   4.651   3.815   5.525  0.1958  0.8343  0.1227
 3045SOL     OW20770   3.261   1.074   6.386 -0.5170  0.0782 -0.4461
 3045SOL    HW120771   3.307   1.081   6.470  0.1351  1.5444 -0.9186
 3045SOL    HW220772   3.171   1.084   6.416 -0.9833 -3.1971 -0.7083
 3046SOL     OW20773   1.642   0.988   0.176 -0.0048  0.8175 -0.0399
 3046SOL    HW120774   1.576   0.987   0.245  1.3466  0.3658  1.2324
 3046SOL    HW220775   1.591   0.963   0.099  0.7303 -1.8654  0.3354
 3047SOL     OW20776   4.383   4.254   5.487  0.4296  0.3686  0.2585
 3047SOL    HW120777   4.360   4.161   5.483  0.7823  0.2864  0.1618
 3047SOL    HW220778   4.464   4.267   5.437  0.2927 -0.7528 -0.2482
 3048SOL     OW20779   0.006   1.415   5.342 -0.1210 -0.0606 -0.3829
 3048SOL    HW120780   4.664   1.460   5.315 -1.4878 -1.7064  0.8805
 3048SOL    HW220781   0.062   1.492   5.351  1.6307 -1.3952  0.0712
 3049SOL     OW20782   0.387   1.319   4.898 -0.7214  0.3480 -0.0923
 3049SOL    HW120783   0.411   1.386   4.962 -0.3426  0.8014 -0.7160
 3049SOL    HW220784   0.315   1.364   4.853 -0.8829  0.8431  0.6557
 3050SOL     OW20785   2.108   2.484   9.310 -0.0661 -0.5627 -0.0841
 3050SOL    HW120786   2.122   2.391   9.292 -0.0553 -0.5159 -0.3217
 3050SOL    HW220787   2.024   2.477   9.355  0.5044  2.0417  1.3838
 3051SOL     OW20788   0.148   2.193  11.450 -0.0176  0.5580 -0.3523
 3051SOL    HW120789   0.220   2.204  11.388  0.0898  0.0577 -0.3193
 3051SOL    HW220790   0.126   2.102  11.428  1.4496  0.2592 -0.6129
 3052SOL     OW20791   2.409   0.304  11.780  0.2691  0.1416 -0.2938
 3052SOL    HW120792   2.474   0.356  11.733  1.4955 -0.8767  0.2752
 3052SOL    HW220793   2.443   0.215  11.783  0.2579  0.1160 -0.9538
 3053SOL     OW20794   2.728   2.475   8.270  0.2309 -0.1512 -0.0539
 3053SOL    HW120795   2.746   2.384   8.294  1.2880  0.8343  2.9301
 3053SOL    HW220796   2.805   2.529   8.254 -0.1696  1.2792  2.9051
 3054SOL     OW20797   2.700   4.153   6.134 -0.2352  0.0227 -0.2969
 3054SOL    HW120798   2.726   4.234   6.177 -1.0059 -1.2687  2.5602
 3054SOL    HW220799   2.743   4.092   6.194  0.0744  0.4745 -0.0630
 3055SOL     OW20800   3.863   3.998  11.523 -0.7208  0.2443  0.2138
 3055SOL    HW120801   3.785   4.052  11.511 -0.9739  0.2810  2.0331
 3055SOL    HW220802   3.850   3.943  11.445  3.4255 -0.3392 -0.0610
 3056SOL     OW20803   1.435   0.170  17.391 -0.3160  0.3002  0.0084
 3056SOL    HW120804   1.496   0.239  17.418 -1.1531  0.8507  0.4663
 3056SOL    HW220805   1.500   0.102  17.371 -1.2941 -1.1291  1.7588
 3057SOL     OW20806   1.768   2.506   9.839  0.4928 -0.4004 -0.0246
 3057SOL    HW120807   1.861   2.526   9.826  0.3502  0.8743  0.8942
 3057SOL    HW220808   1.743   2.503   9.747  1.2828 -0.1999 -0.2468
 3058SOL     OW20809   3.950   0.115   8.849 -0.1376  0.6355  0.1418
 3058SOL    HW120810   3.928   0.086   8.760  0.4823  2.9233 -0.7541
 3058SOL    HW220811   4.005   0.041   8.874 -1.3910 -0.5293 -0.4562
 3059SOL     OW20812   1.048   1.662  17.369  0.0430 -0.0465 -0.0444
 3059SOL    HW120813   1.120   1.705  17.416  2.2591 -2.5954 -1.0778
 3059SOL    HW220814   0.966   1.704  17.395  0.8443  2.4373 -1.5660
 3060SOL     OW20815   2.431   3.132   4.335  0.4155  0.7803  0.0773
 3060SOL    HW120816   2.402   3.119   4.245 -2.8432  0.0026  1.2304
 3060SOL    HW220817   2.525   3.114   4.334  0.4585  0.8517  2.8604
 3061SOL     OW20818   1.026   2.957   1.288  0.4994  0.0702 -0.4159
 3061SOL    HW120819   1.098   3.002   1.334  0.1181 -0.3118  0.5476
 3061SOL    HW220820   0.981   3.027   1.242  0.8573 -0.2004 -1.1712
 3062SOL     OW20821   0.991   3.761   3.836 -0.5555 -0.1169  0.3357
 3062SOL    HW120822   0.982   3.666   3.840  0.8139 -0.4335 -4.7694
 3062SOL    HW220823   0.904   3.783   3.868 -0.6903  1.9989 -1.4491
 3063SOL     OW20824   0.928   4.052  16.669  0.5763  0.4095  0.0825
 3063SOL    HW120825   0.961   4.025  16.754 -1.6569 -0.0269  0.7879
 3063SOL    HW220826   0.942   4.147  16.668 -1.0184  0.6487  0.4216
 3064SOL     OW20827   4.284   4.135   7.910  0.2364 -0.3032 -0.2091
 3064SOL    HW120828   4.329   4.079   7.847  2.3798  0.5274  0.5661
 3064SOL    HW220829   4.358   4.159   7.967 -0.9417 -0.2953  1.3148
 3065SOL     OW20830   3.531   1.543   2.917  0.1613 -0.1255  0.2147
 3065SOL    HW120831   3.444   1.504   2.915 -0.2378  0.7732  0.5130
 3065SOL    HW220832   3.540   1.534   3.012 -1.3526 -0.8106  0.2850
 3066SOL     OW20833   2.019   0.703   3.685 -0.2782  0.8127  0.1760
 3066SOL    HW120834   2.055   0.629   3.733  1.0694  1.2831 -0.0904
 3066SOL    HW220835   2.051   0.682   3.597 -0.3795  1.7892 -0.1057
 3067SOL     OW20836   0.776   0.423   4.626 -0.2805 -0.1613 -0.5926
 3067SOL    HW120837   0.835   0.381   4.688  0.3911  0.5714 -0.7353
 3067SOL    HW220838   0.780   0.359   4.554 -2.6460 -1.1049  0.1341
 3068SOL     OW20839   2.189   4.551  12.717  0.1401 -0.5947 -0.1069
 3068SOL    HW120840   2.231   4.468  12.695  0.9738  0.3930 -2.2216
 3068SOL    HW220841   2.231   4.576  12.800 -0.2092  1.4351 -0.5612
 3069SOL     OW20842   2.102   1.511  16.694  0.0976  0.1020 -0.9144
 3069SOL    HW120843   2.077   1.510  16.601 -2.0563 -0.9953 -0.3247
 3069SOL    HW220844   2.055   1.433  16.724  0.6003  0.0066 -0.3754
 3070SOL     OW20845   2.813   2.558   4.535  0.4223  0.0732  0.3312
 3070SOL    HW120846   2.756   2.589   4.465 -2.7561 -0.9188  2.4748
 3070SOL    HW220847   2.819   2.633   4.594 -0.1050  1.9628 -2.0293
 3071SOL     OW20848   0.581   3.117   2.044  0.5388 -0.3629  0.5739
 3071SOL    HW120849   0.654   3.170   2.014  1.4541 -1.4311  0.9101
 3071SOL    HW220850   0.535   3.180   2.100 -0.8822 -0.9145  0.0336
 3072SOL     OW20851   3.142   2.839  16.309  0.2488  0.4485  0.3474
 3072SOL    HW120852   3.225   2.822  16.353  0.5722 -1.8442 -1.0926
 3072SOL    HW220853   3.086   2.777  16.355  1.4106 -1.1056 -0.3197
 3073SOL     OW20854   0.546   4.059  12.058  0.0534  0.2186 -0.1090
 3073SOL    HW120855   0.480   3.995  12.083  0.3114 -0.4647 -1.1631
 3073SOL    HW220856   0.509   4.144  12.084  0.2575 -0.5501  2.6765
 3074SOL     OW20857   1.266   4.520   0.596  0.1715  0.0577  0.9324
 3074SOL    HW120858   1.313   4.437   0.593 -1.0718 -0.6663  1.7902
 3074SOL    HW220859   1.325   4.565   0.656 -0.8239  1.8195  0.6232
 3075SOL     OW20860   3.848   2.240   8.855  0.3034 -0.0061 -0.0450
 3075SOL    HW120861   3.781   2.244   8.787 -1.0151  3.2545  1.4048
 3075SOL    HW220862   3.855   2.326   8.897  0.7741  1.2257 -2.6969
 3076SOL     OW20863   2.991   1.730   7.742 -0.3050  0.4049 -0.3116
 3076SOL    HW120864   3.019   1.819   7.720  2.6666 -1.1001 -2.6107
 3076SOL    HW220865   3.000   1.732   7.838  0.3558 -2.0878 -0.3046
 3077SOL     OW20866   2.954   2.993  15.568  0.1658  0.0452 -0.1891
 3077SOL    HW120867   3.048   3.000  15.553  0.0703  0.5445 -0.5730
 3077SOL    HW220868   2.928   3.055  15.499 -1.5160  2.5918  2.7415
 3078SOL     OW20869   2.154   0.734   0.422 -0.2604  0.3204 -0.3279
 3078SOL    HW120870   2.236   0.756   0.378  0.0316 -1.5014 -0.7058
 3078SOL    HW220871   2.114   0.683   0.352  1.3967 -1.9202  0.3548
 3079SOL     OW20872   4.492   0.653   5.167 -0.1866  0.1060  0.4333
 3079SOL    HW120873   4.481   0.748   5.175  3.0293  0.4166  1.2004
 3079SOL    HW220874   4.403   0.620   5.153  0.3893  0.0996 -3.1692
 3080SOL     OW20875   2.209   2.236   4.435 -0.2660  0.5428 -0.1537
 3080SOL    HW120876   2.287   2.206   4.482 -1.0735  1.8232  1.9974
 3080SOL    HW220877   2.233   2.210   4.346  1.8277 -2.7731  1.3717
 3081SOL     OW20878   4.556   1.053  12.525  0.8050  0.0574 -0.6599
 3081SOL    HW120879   4.475   1.069  12.574 -0.6672 -0.9129 -2.8048
 3081SOL    HW220880   4.600   1.136  12.538  1.1079 -0.4037  1.3170
 3082SOL     OW20881   4.192   2.936   7.826  0.2213  0.4463 -0.2909
 3082SOL    HW120882   4.223   3.007   7.882 -1.3631  1.7568 -1.0721
 3082SOL    HW220883   4.274   2.887   7.823 -0.6509 -1.0282  0.3627
 3083SOL     OW20884   3.598   2.262   5.201  0.5400 -0.5593 -0.1149
 3083SOL    HW120885   3.505   2.243   5.218  0.1864  0.8094 -0.4676
 3083SOL    HW220886   3.603   2.256   5.106  1.4872  0.6207 -0.1381
 3084SOL     OW20887   3.974   0.247   6.349  0.1190 -0.6911  0.2139
 3084SOL    HW120888   4.049   0.277   6.297  0.1576 -0.5375  0.3614
 3084SOL    HW220889   3.895   0.261   6.297  0.8363 -0.4305 -0.8116
 3085SOL     OW20890   1.935   2.162   8.114 -0.7856 -0.4665 -0.0928
 3085SOL    HW120891   1.971   2.116   8.190  0.0366  1.1528  0.4899
 3085SOL    HW220892   2.001   2.231   8.105  1.4857 -2.4095  1.4315
 3086SOL     OW20893   1.284   3.245  17.237 -0.4822  0.7621  0.1469
 3086SOL    HW120894   1.351   3.251  17.169 -0.1979 -2.4788  0.1218
 3086SOL    HW220895   1.325   3.196  17.308 -0.0199 -1.6486 -1.7639
 3087SOL     OW20896   1.774   0.257   2.029  0.1168 -0.3507  0.0313
 3087SOL    HW120897   1.679   0.253   2.032  0.0346  0.9510 -0.4821
 3087SOL    HW220898   1.792   0.244   2.122 -1.5227  2.6958  0.7836
 3088SOL     OW20899   3.491   2.028  14.635  0.8455  0.2432 -0.3477
 3088SOL    HW120900   3.517   1.997  14.721 -1.4723 -0.5180  0.0627
 3088SOL    HW220901   3.404   2.065  14.646  0.3671 -0.3008 -2.2518
 3089SOL     OW20902   2.744   1.333   7.367  0.1552  0.4766 -0.3532
 3089SOL    HW120903   2.736   1.352   7.273 -0.1626  1.2382 -0.1746
 3089SOL    HW220904   2.779   1.416   7.399  1.8271  0.4716 -2.1078
 3090SOL     OW20905   1.232   0.300   6.331 -0.0515 -0.2024  0.0352
 3090SOL    HW120906   1.205   0.334   6.246  1.1165 -0.6257 -0.5157
 3090SOL    HW220907   1.290   0.368   6.365  0.5918 -0.3226 -0.7907
 3091SOL     OW20908   1.823   4.526   1.560  0.0258  0.2884  0.0736
 3091SOL    HW120909   1.889   4.484   1.504  1.4053  0.7143  1.3938
 3091SOL    HW220910   1.871   4.591   1.611 -1.2171  2.3028 -1.3110
 3092SOL     OW20911   4.435   0.666  10.851 -0.0814 -0.0562 -0.5958
 3092SOL    HW120912   4.439   0.678  10.946 -1.5307  1.5513 -0.7258
 3092SOL    HW220913   4.349   0.628  10.837  0.4765 -1.1060 -1.0868
 3093SOL     OW20914   1.097   0.696  14.158  0.2848 -0.1504  0.5856
 3093SOL    HW120915   1.144   0.718  14.078 -1.0841 -0.5561 -0.3302
 3093SOL    HW220916   1.073   0.608  14.129  0.9515 -0.4019  0.7899
 3094SOL     OW20917   0.370   2.997   0.978 -0.3364 -0.2536 -0.5039
 3094SOL    HW120918   0.456   2.958   0.963 -0.4596 -0.1930 -1.3380
 3094SOL    HW220919   0.361   3.068   0.915  2.3857  1.4576  1.0493
 3095SOL     OW20920   0.494   4.588   2.297 -0.0021  0.8866  0.2389
 3095SOL    HW120921   0.555   4.530   2.342  0.3220 -1.0566 -2.6552
 3095SOL    HW220922   0.477   4.540   2.216  0.4842  0.4627  0.3910
 3096SOL     OW20923   1.346   1.729   4.241 -0.1617 -0.1235  0.1682
 3096SOL    HW120924   1.392   1.720   4.325  0.2173  2.2429  0.2189
 3096SOL    HW220925   1.390   1.659   4.192 -0.1169 -1.2836  1.8402
 3097SOL     OW20926   4.286   4.351  15.675  0.3788 -0.7915 -0.0498
 3097SOL    HW120927   4.222   4.421  15.665 -0.4239 -1.2475  1.9292
 3097SOL    HW220928   4.245   4.309  15.750 -1.6507 -0.1416 -0.8121
 3098SOL     OW20929   2.688   1.305   1.453  0.4431 -0.6555 -0.3630
 3098SOL    HW120930   2.707   1.351   1.371  0.1730  1.8787  0.9792
 3098SOL    HW220931   2.703   1.212   1.439  2.0378 -0.4188 -0.1722
 3099SOL     OW20932   0.870   0.961  11.332  0.4307  0.9099  0.0333
 3099SOL    HW120933   0.842   1.048  11.302  0.6912  0.4937 -1.3716
 3099SOL    HW220934   0.965   0.965  11.322  0.4931  1.4066  0.7531
 3100SOL     OW20935   3.528   1.092   8.604 -0.4444  1.4839  0.0035
 3100SOL    HW120936   3.611   1.070   8.648 -1.3523 -0.6079  0.7002
 3100SOL    HW220937   3.465   1.073   8.673  1.0849 -2.3587  0.4095
 3101SOL     OW20938   2.887   3.144  11.806  0.0420  0.6399 -0.3130
 3101SOL    HW120939   2.971   3.149  11.851 -0.3979  0.5262  0.5276
 3101SOL    HW220940   2.835   3.154  11.885  0.0440 -0.6862 -0.1360
 3102SOL     OW20941   3.606   0.936  16.165  0.2532 -0.1223 -0.1112
 3102SOL    HW120942   3.581   0.868  16.102  1.0460  0.6460 -1.2356
 3102SOL    HW220943   3.689   0.966  16.129 -0.0949  0.0676 -0.7531
 3103SOL     OW20944   4.141   1.511  10.895 -0.2943 -0.2047 -0.2655
 3103SOL    HW120945   4.124   1.418  10.913  0.4968 -0.5238 -1.2336
 3103SOL    HW220946   4.057   1.527  10.851 -1.2382 -2.0810  0.8052
 3104SOL     OW20947   0.899   4.105  14.454 -0.5672  0.0683 -0.5992
 3104SOL    HW120948   0.836   4.109  14.526  1.3552  1.0362  1.0121
 3104SOL    HW220949   0.925   4.014  14.469 -0.3961 -0.1521 -2.2405
 3105SOL     OW20950   1.981   0.855  17.072  0.9509  0.1620 -0.2995
 3105SOL    HW120951   1.980   0.828  17.164 -0.4466  1.4684  0.0809
 3105SOL    HW220952   1.907   0.802  17.044  0.6428  0.5471 -0.2208
 3106SOL     OW20953   3.564   1.714   6.003 -0.1847  0.2295 -0.1418
 3106SOL    HW120954   3.474   1.702   5.972  0.2713  0.4366 -1.5450
 3106SOL    HW220955   3.564   1.776   6.076 -0.2949  0.0498  0.0093
 3107SOL     OW20956   1.937   0.183   4.426 -0.0758 -0.4719  0.0733
 3107SOL    HW120957   1.849   0.146   4.439 -0.2794  0.0619  0.1894
 3107SOL    HW220958   1.939   0.214   4.336  1.7332 -2.0457 -0.4379
 3108SOL     OW20959   2.413   1.319  11.039 -0.3000 -0.2475 -0.3705
 3108SOL    HW120960   2.390   1.226  11.032 -0.3759 -0.4883  2.9826
 3108SOL    HW220961   2.384   1.340  11.127 -0.2932  0.0280 -0.4337
 3109SOL     OW20962   1.293   2.359   3.740 -0.2031  0.5623 -0.0486
 3109SOL    HW120963   1.241   2.415   3.798 -1.9384  1.0126 -2.0509
 3109SOL    HW220964   1.263   2.270   3.757 -1.4999  1.3146  1.5258
 3110SOL     OW20965   1.622   2.873   4.173 -0.5448  0.7046  0.1184
 3110SOL    HW120966   1.609   2.887   4.267  3.0265  1.0689  0.5496
 3110SOL    HW220967   1.716   2.891   4.171 -0.0200 -2.0450  0.0729
 3111SOL     OW20968   2.534   4.093   6.567 -0.0059  0.4893 -0.0935
 3111SOL    HW120969   2.461   4.101   6.628  0.5037 -5.2103  1.2838
 3111SOL    HW220970   2.506   4.025   6.505  0.2242  0.8328 -0.5806
 3112SOL     OW20971   4.148   0.766   5.445  0.3914 -0.0562  0.3985
 3112SOL    HW120972   4.181   0.809   5.366 -0.1851  1.2562  0.8795
 3112SOL    HW220973   4.181   0.821   5.516 -2.2905  1.0908  0.7221
 3113SOL     OW20974   2.608   3.709   3.025 -0.3045 -0.4722 -0.9100
 3113SOL    HW120975   2.575   3.635   3.076  0.7725 -0.6326 -0.4552
 3113SOL    HW220976   2.628   3.657   2.947  0.4475  2.3399 -2.5635
 3114SOL     OW20977   2.873   2.528  10.130  0.0697 -0.6003 -0.2659
 3114SOL    HW120978   2.794   2.576  10.107  0.0033 -0.4191  0.3270
 3114SOL    HW220979   2.839   2.442  10.106 -0.8692 -0.0144 -1.0429
 3115SOL     OW20980   0.304   4.025   6.708 -0.2565 -0.5252 -0.1999
 3115SOL    HW120981   0.317   4.017   6.614 -0.9027  0.7009 -0.3937
 3115SOL    HW220982   0.394   4.045   6.735  0.5941 -0.7272 -2.9478
 3116SOL     OW20983   2.052   2.160   5.718 -0.0936 -0.4211  0.4546
 3116SOL    HW120984   2.096   2.220   5.778 -1.0743 -0.5177  1.2746
 3116SOL    HW220985   2.116   2.153   5.647  0.3310 -1.9043  0.9797
 3117SOL     OW20986   3.208   3.150   5.167 -0.6338 -0.4464  0.6828
 3117SOL    HW120987   3.154   3.112   5.236  1.9944  0.4573  3.2501
 3117SOL    HW220988   3.292   3.112   5.193 -0.1717  1.0621  1.3538
 3118SOL     OW20989   4.419   1.726   5.171  0.7371 -1.1701  0.0715
 3118SOL    HW120990   4.482   1.673   5.220 -0.4450 -0.6057  2.2354
 3118SOL    HW220991   4.338   1.675   5.165  0.4792 -0.5164 -1.9534
 3119SOL     OW20992   1.594   0.177   5.738  0.2634 -0.2942 -0.5984
 3119SOL    HW120993   1.611   0.097   5.688 -0.1605 -1.0462  0.4632
 3119SOL    HW220994   1.683   0.201   5.763  1.1917 -2.3674 -1.8591
 3120SOL     OW20995   0.522   2.513   5.080 -0.3126  0.0211 -0.1914
 3120SOL    HW120996   0.577   2.452   5.131  0.1258  0.1995 -0.4528
 3120SOL    HW220997   0.575   2.592   5.073 -1.0462  0.5518  0.1923
 3121SOL     OW20998   0.732   3.092   5.905  0.1797  0.8142  0.3743
 3121SOL    HW120999   0.703   3.050   5.986 -1.2438  1.9185  0.4172
 3121SOL    HW221000   0.802   3.150   5.936 -0.3370  1.9774 -0.6512
 3122SOL     OW21001   1.115   4.327   0.766  0.4386  0.1635 -0.3440
 3122SOL    HW121002   1.124   4.249   0.711 -1.9998  0.3350 -1.0168
 3122SOL    HW221003   1.178   4.292   0.829  0.0214 -1.8436 -1.0285
 3123SOL     OW21004   1.701   3.994   1.576 -0.1890  0.1528  0.0032
 3123SOL    HW121005   1.616   4.010   1.615  0.3197 -0.7969  1.5277
 3123SOL    HW221006   1.750   4.068   1.610  1.4838 -0.1974 -1.6074
 3124SOL     OW21007   2.139   4.490   3.117 -0.2114 -0.3535 -0.3456
 3124SOL    HW121008   2.188   4.515   3.195  1.6484 -1.3213 -1.2006
 3124SOL    HW221009   2.054   4.474   3.159  1.7005 -2.9870  2.5678
 3125SOL     OW21010   0.180   1.147  11.228  0.2193 -0.0773  0.2252
 3125SOL    HW121011   0.219   1.130  11.314  0.0492  1.4135  0.6017
 3125SOL    HW221012   0.217   1.080  11.171  0.1880 -1.7310  2.1278
 3126SOL     OW21013   0.755   4.581  16.832  0.0079  0.6217 -0.0376
 3126SOL    HW121014   0.825   4.618  16.777 -0.4430 -1.7807 -2.2646
 3126SOL    HW221015   0.735   4.649  16.895  0.5657  1.5787 -0.8883
 3127SOL     OW21016   3.889   2.158   8.509  0.0805 -0.3205 -0.4063
 3127SOL    HW121017   3.925   2.231   8.459 -1.4162  0.0199 -0.9840
 3127SOL    HW221018   3.969   2.115   8.539 -0.3063  0.1471  1.2575
 3128SOL     OW21019   4.018   1.636   1.854 -0.1733  0.1354  0.1820
 3128SOL    HW121020   4.017   1.661   1.762  2.8410 -1.1608 -0.1948
 3128SOL    HW221021   4.103   1.664   1.888  0.5182 -2.1235  0.3148
 3129SOL     OW21022   3.796   3.242   1.034  0.0851 -0.4068 -0.3041
 3129SOL    HW121023   3.754   3.229   1.120  0.1109  1.1147 -0.0591
 3129SOL    HW221024   3.718   3.267   0.984  0.4609  0.3463 -0.4952
 3130SOL     OW21025   1.980   4.083   2.009 -0.0835  0.3089  0.5110
 3130SOL    HW121026   2.036   4.110   2.082  1.6512 -0.4734 -0.5576
 3130SOL    HW221027   2.037   4.067   1.934 -0.9844 -2.5493  0.4325
 3131SOL     OW21028   0.188   1.119   3.752  0.0527  0.5557 -0.0041
 3131SOL    HW121029   0.283   1.131   3.753  0.0150  0.8911 -0.5488
 3131SOL    HW221030   0.179   1.098   3.845  2.4472 -0.7975 -0.0770
 3132SOL     OW21031   1.051   1.086   1.890 -0.3162  0.3186  0.6191
 3132SOL    HW121032   0.999   1.145   1.944  0.0249  0.3935  0.8663
 3132SOL    HW221033   1.116   1.051   1.952 -0.9304 -1.7346  0.0832
 3133SOL     OW21034   0.131   2.612   4.714 -0.2146  0.2449  0.3189
 3133SOL    HW121035   0.204   2.592   4.772 -0.6235  0.0463  0.7623
 3133SOL    HW221036   0.153   2.701   4.686  1.4399 -0.1430  0.3902
 3134SOL     OW21037   0.977   3.234   3.783  0.5305 -0.2020  0.5480
 3134SOL    HW121038   1.072   3.225   3.771  0.2609 -0.7992 -1.0946
 3134SOL    HW221039   0.992   3.303   3.848  0.7697  1.5971 -1.4038
 3135SOL     OW21040   1.043   4.352   7.023 -0.4482 -0.0019  0.3104
 3135SOL    HW121041   1.014   4.407   7.096 -0.7722  2.1602 -1.4296
 3135SOL    HW221042   1.131   4.330   7.053 -0.0586  1.0452 -0.0580
 3136SOL     OW21043   1.754   3.365   4.618  0.1418 -0.3382 -0.9371
 3136SOL    HW121044   1.796   3.450   4.606 -0.9956  0.3481 -0.0882
 3136SOL    HW221045   1.662   3.392   4.626  1.0308  2.2189  0.7972
 3137SOL     OW21046   2.573   1.111   5.270  0.6013 -0.7791 -0.1253
 3137SOL    HW121047   2.575   1.141   5.361 -1.3232 -0.9609 -0.0395
 3137SOL    HW221048   2.480   1.090   5.266  0.1132  1.1693  0.8049
 3138SOL     OW21049   4.444   1.911  16.163 -0.1993  0.4389  0.4834
 3138SOL    HW121050   4.390   1.870  16.095  0.1845  0.9690 -0.1413
 3138SOL    HW221051   4.524   1.870  16.130 -0.1698  1.1566 -0.3366
 3139SOL     OW21052   1.528   1.622   9.078 -0.0123 -0.3735  0.1294
 3139SOL    HW121053   1.619   1.617   9.104  0.8874  0.2914 -2.8542
 3139SOL    HW221054   1.507   1.714   9.093 -0.7326 -0.8219  1.8534
 3140SOL     OW21055   2.002   3.528  10.178 -0.0451  0.0861  0.4151
 3140SOL    HW121056   2.047   3.479  10.246  0.0492 -1.0119 -0.4330
 3140SOL    HW221057   2.052   3.514  10.098 -1.3409  0.9213 -0.5457
 3141SOL     OW21058   2.856   1.166  17.598  0.2029  0.0451  0.1918
 3141SOL    HW121059   2.874   1.196  17.509 -0.0518  2.1173  0.8219
 3141SOL    HW221060   2.766   1.136  17.598 -0.5110  2.2348 -0.9797
 3142SOL     OW21061   0.704   3.786   6.378  0.4605  0.6888 -0.6952
 3142SOL    HW121062   0.681   3.705   6.332  0.0355  0.7695 -0.6279
 3142SOL    HW221063   0.785   3.799   6.328  0.1165  3.2904 -0.5723
 3143SOL     OW21064   2.215   1.379   6.461 -0.5062 -0.0632 -0.1741
 3143SOL    HW121065   2.263   1.462   6.454  1.0076 -0.7932  1.4499
 3143SOL    HW221066   2.270   1.328   6.521 -1.0487  0.5568  0.8420
 3144SOL     OW21067   0.527   0.546   2.840  0.2488  0.6277 -0.0131
 3144SOL    HW121068   0.574   0.584   2.766  1.0626 -0.0041  0.1708
 3144SOL    HW221069   0.573   0.463   2.853  0.8632  1.2652  1.9191
 3145SOL     OW21070   0.622   1.847  16.264 -0.1909 -0.0817  0.2782
 3145SOL    HW121071   0.544   1.868  16.213  1.8284 -0.6926 -3.0449
 3145SOL    HW221072   0.584   1.823  16.348  1.3838  0.7441  1.2223
 3146SOL     OW21073   4.114   4.386   8.958 -0.3032  0.0835 -0.3704
 3146SOL    HW121074   4.204   4.413   8.979  0.4608  0.2434 -3.9852
 3146SOL    HW221075   4.109   4.310   9.017  1.4528  0.4792  0.3045
 3147SOL     OW21076   2.267   2.651  15.607 -0.0342  0.3502 -0.7837
 3147SOL    HW121077   2.216   2.579  15.645  1.6731 -0.8309 -0.7532
 3147SOL    HW221078   2.269   2.715  15.679 -2.0452  0.5509 -0.8984
 3148SOL     OW21079   1.762   4.428   8.919 -0.1818 -0.0326 -0.0962
 3148SOL    HW121080   1.756   4.347   8.869 -0.4821 -0.0242 -0.0751
 3148SOL    HW221081   1.684   4.419   8.974 -1.1465 -0.4111 -1.5085
 3149SOL     OW21082   0.712   2.977   3.615 -0.1105 -0.2881 -0.4626
 3149SOL    HW121083   0.753   2.891   3.608 -0.2068 -0.3915  0.1933
 3149SOL    HW221084   0.738   2.984   3.707  0.0468 -0.3013 -0.5059
 3150SOL     OW21085   2.964   0.032   7.413  0.5148 -0.4170  0.0614
 3150SOL    HW121086   3.023   4.721   7.471  2.8656  2.2456 -0.0810
 3150SOL    HW221087   3.021   0.050   7.338 -1.3854 -1.7478 -1.6855
 3151SOL     OW21088   4.392   0.138   3.017  0.5183 -0.4122  0.6218
 3151SOL    HW121089   4.455   0.107   2.951  0.3283 -1.1583  0.7873
 3151SOL    HW221090   4.404   0.231   2.999  0.0698 -0.3865  0.4755
 3152SOL     OW21091   3.941   4.679  10.646 -0.3752  0.1091 -0.5159
 3152SOL    HW121092   3.883   0.005  10.604 -0.2856 -0.1977 -1.0967
 3152SOL    HW221093   3.980   4.640  10.569 -0.0184 -1.3120  0.3974
 3153SOL     OW21094   3.228   3.593  15.139 -0.3422  0.0959 -0.0195
 3153SOL    HW121095   3.175   3.629  15.068 -0.1732  0.2916 -0.0480
 3153SOL    HW221096   3.182   3.510  15.152 -1.6493  0.7018 -0.7560
 3154SOL     OW21097   4.228   2.241   0.841 -0.3383  0.1970  0.1396
 3154SOL    HW121098   4.214   2.215   0.932 -2.5974 -1.2482 -0.6112
 3154SOL    HW221099   4.182   2.166   0.803 -1.5207  0.9741  0.0462
 3155SOL     OW21100   0.271   4.049   1.857 -0.1095 -0.1454 -0.2794
 3155SOL    HW121101   0.196   4.003   1.820 -0.8903  0.5748  0.4459
 3155SOL    HW221102   0.341   3.983   1.855  1.9745  2.0705 -0.7060
 3156SOL     OW21103   1.674   3.835   4.364 -0.1527 -0.4258  0.7214
 3156SOL    HW121104   1.658   3.922   4.399 -0.4663 -0.5213  0.8167
 3156SOL    HW221105   1.769   3.829   4.375  0.1544 -1.0420 -2.3618
 3157SOL     OW21106   1.047   0.811   8.316 -0.0312  0.0353 -0.3176
 3157SOL    HW121107   0.964   0.764   8.310 -1.5386  2.4922  1.1473
 3157SOL    HW221108   1.018   0.881   8.375 -0.4863 -0.5684  0.1777
 3158SOL     OW21109   4.596   0.695  12.053 -0.3094 -0.3081  0.2110
 3158SOL    HW121110   4.632   0.607  12.047  0.8244  0.1330  0.4785
 3158SOL    HW221111   4.527   0.688  11.986  1.0726 -0.9667 -1.1431
 3159SOL     OW21112   4.353   0.626   4.376  0.2889  0.3375 -0.6050
 3159SOL    HW121113   4.400   0.710   4.370 -2.5044  2.0775  2.1315
 3159SOL    HW221114   4.294   0.643   4.303  1.3908 -1.0865 -1.8142
 3160SOL     OW21115   2.781   4.021   7.321  0.5525  0.0799 -0.1573
 3160SOL    HW121116   2.691   4.001   7.347  0.8957  1.3631  1.9965
 3160SOL    HW221117   2.814   4.058   7.402  2.1763 -2.8367  0.5309
 3161SOL     OW21118   2.760   4.023   6.861 -0.5343 -0.0683  0.1921
 3161SOL    HW121119   2.700   3.948   6.852 -0.4709  0.1531 -2.1199
 3161SOL    HW221120   2.697   4.080   6.904  0.2314  2.7218 -2.3932
 3162SOL     OW21121   1.971   3.924   3.905 -0.0643 -0.9913 -0.0422
 3162SOL    HW121122   1.999   3.959   3.989 -1.3343  1.3465 -0.5831
 3162SOL    HW221123   1.895   3.875   3.938 -1.5406  0.5212 -1.2165
 3163SOL     OW21124   2.503   3.245   7.042 -0.2706 -0.1982 -0.2083
 3163SOL    HW121125   2.503   3.163   6.991  1.8120 -1.1823  1.3809
 3163SOL    HW221126   2.450   3.231   7.121  0.0717 -0.2401  0.0126
 3164SOL     OW21127   3.831   0.552   2.933 -0.1820  0.2153 -0.0467
 3164SOL    HW121128   3.918   0.592   2.928  0.1348 -0.3313  1.0215
 3164SOL    HW221129   3.802   0.578   3.020 -1.7618 -0.4365 -0.3726
 3165SOL     OW21130   3.584   3.806   7.646 -0.1828 -0.1421  0.1260
 3165SOL    HW121131   3.669   3.832   7.682 -0.7563 -0.0130  1.3801
 3165SOL    HW221132   3.579   3.879   7.585  0.8522 -1.6191 -1.7437
 3166SOL     OW21133   0.803   3.660   8.841  0.1452  0.0384 -0.8103
 3166SOL    HW121134   0.843   3.640   8.756  1.3778  2.0740 -0.7042
 3166SOL    HW221135   0.863   3.728   8.874 -1.9045  1.0351  0.8710
 3167SOL     OW21136   3.954   1.422   9.306 -0.4727  0.1707 -0.1474
 3167SOL    HW121137   3.917   1.506   9.278 -1.7811 -0.4755 -0.3421
 3167SOL    HW221138   3.875   1.389   9.350  0.3064  0.0518  1.1627
 3168SOL     OW21139   4.647   3.196  12.046 -0.5632 -0.7027 -0.5108
 3168SOL    HW121140   4.655   3.158  11.958 -3.7752 -1.0132 -0.6914
 3168SOL    HW221141   0.001   3.193  12.073 -0.0913 -1.3958 -2.1731
 3169SOL     OW21142   2.620   2.499   3.555 -0.4062  0.3758  0.6079
 3169SOL    HW121143   2.555   2.537   3.614 -0.4103  0.2841  0.6612
 3169SOL    HW221144   2.704   2.544   3.563 -0.4176  0.5257 -0.0541
 3170SOL     OW21145   2.331   2.651  10.357 -0.1860  0.8653  0.6642
 3170SOL    HW121146   2.303   2.658  10.449 -3.0061 -2.2417  0.0441
 3170SOL    HW221147   2.422   2.679  10.368  0.6805 -0.6979 -2.5489
 3171SOL     OW21148   2.072   0.448   3.799  0.4023  0.7234  0.2495
 3171SOL    HW121149   2.030   0.364   3.816  0.3045  0.4396 -1.4476
 3171SOL    HW221150   2.144   0.436   3.861 -2.2172  0.3960  3.2319
 3172SOL     OW21151   1.641   2.086   1.329  0.1720  0.1651  0.1148
 3172SOL    HW121152   1.570   2.111   1.268  0.2903  3.1689  1.2046
 3172SOL    HW221153   1.609   2.119   1.413  2.6569  1.8696  0.3698
 3173SOL     OW21154   1.021   4.198  16.005  0.1931  0.2147  0.3004
 3173SOL    HW121155   0.936   4.230  15.976  0.0625  2.2340  2.9621
 3173SOL    HW221156   1.087   4.252  15.961 -2.1978  1.6695 -1.4734
 3174SOL     OW21157   4.308   0.288   4.066  0.6936  0.1582 -0.1571
 3174SOL    HW121158   4.292   0.330   3.981  1.0348  1.2708  0.3279
 3174SOL    HW221159   4.231   0.319   4.115  1.7198  1.3996  0.6697
 3175SOL     OW21160   2.000   4.679   1.755  0.3099  0.6084  0.5471
 3175SOL    HW121161   1.935   4.625   1.800 -0.8404  0.2645 -1.5230
 3175SOL    HW221162   1.954   0.025   1.757 -1.7042 -0.4687 -1.2679
 3176SOL     OW21163   1.752   3.529   6.944 -0.4699  0.0441 -0.5128
 3176SOL    HW121164   1.810   3.493   6.877 -1.0838 -2.0931  0.0934
 3176SOL    HW221165   1.788   3.485   7.021 -0.2815  0.3330 -0.4362
 3177SOL     OW21166   0.247   3.813   6.442  0.1188 -0.1235  0.0327
 3177SOL    HW121167   0.299   3.819   6.362 -0.4875 -2.4403 -0.5492
 3177SOL    HW221168   0.311   3.767   6.496  0.1318  2.5961  2.3326
 3178SOL     OW21169   3.314   2.545   5.813 -0.0962 -0.0108  0.3348
 3178SOL    HW121170   3.298   2.450   5.809  0.0065 -0.0892  1.7650
 3178SOL    HW221171   3.386   2.538   5.876  0.2635 -1.3077 -0.2223
 3179SOL     OW21172   2.617   4.611   3.630 -0.0943  0.4936 -0.7093
 3179SOL    HW121173   2.602   4.683   3.691 -1.2940 -1.1726  0.9742
 3179SOL    HW221174   2.693   4.638   3.578  0.6550 -0.7072 -0.2572
 3180SOL     OW21175   0.816   1.675   4.666 -0.6597 -0.5145 -0.1537
 3180SOL    HW121176   0.835   1.634   4.581  1.7859 -0.9290  0.5738
 3180SOL    HW221177   0.901   1.674   4.710  0.0817  2.4707 -1.5145
 3181SOL     OW21178   2.526   0.811   5.944  0.2452  0.0313 -0.4172
 3181SOL    HW121179   2.576   0.733   5.970  0.5776 -0.1643 -1.6605
 3181SOL    HW221180   2.584   0.887   5.947 -0.0143  0.2221 -0.1127
 3182SOL     OW21181   2.914   4.604   1.968 -0.0085  0.3902  0.0521
 3182SOL    HW121182   2.864   4.685   1.974 -2.3021 -0.8510 -2.2077
 3182SOL    HW221183   3.002   4.621   2.001 -0.0125 -2.0250  1.3297
 3183SOL     OW21184   4.454   2.593   2.360  0.2990 -0.0593 -0.3042
 3183SOL    HW121185   4.482   2.506   2.389  2.1112  0.5094 -0.3482
 3183SOL    HW221186   4.418   2.569   2.274  2.2331  0.7923 -1.3705
 3184SOL     OW21187   3.562   4.499  12.912  0.1444  0.2083  0.7690
 3184SOL    HW121188   3.599   4.587  12.912 -1.0136  0.6982  0.5005
 3184SOL    HW221189   3.637   4.440  12.905 -0.2020 -0.2351  0.7880
 3185SOL     OW21190   2.983   1.876   4.828  0.1441 -0.5294 -0.1155
 3185SOL    HW121191   2.925   1.877   4.752 -3.5464  0.3641  2.7266
 3185SOL    HW221192   3.050   1.936   4.795  0.8537 -0.4477  1.4769
 3186SOL     OW21193   2.832   1.406   5.916 -0.3735  0.1896  0.2027
 3186SOL    HW121194   2.848   1.353   5.838  0.2795  1.5814 -0.6118
 3186SOL    HW221195   2.892   1.479   5.901 -0.5129  0.2114 -0.2354
 3187SOL     OW21196   1.057   4.718   4.408 -0.1281  0.1791 -0.3964
 3187SOL    HW121197   1.131   4.692   4.354  0.3450  2.3682 -0.7984
 3187SOL    HW221198   1.035   4.633   4.445  0.3713 -0.0901 -0.7266
 3188SOL     OW21199   1.289   4.550   7.325  0.0397  0.3083 -0.6809
 3188SOL    HW121200   1.382   4.547   7.306 -0.2986  1.0346 -2.5424
 3188SOL    HW221201   1.266   4.479   7.265 -0.3417 -2.1614  2.3934
 3189SOL     OW21202   2.999   1.138  17.357 -0.1612  0.1118  0.1730
 3189SOL    HW121203   3.061   1.189  17.305 -2.7164 -0.4196 -3.3440
 3189SOL    HW221204   3.058   1.069  17.386  1.2956  1.9058  1.5257
 3190SOL     OW21205   2.990   1.835  10.115  0.5985  0.4879  0.1511
 3190SOL    HW121206   2.922   1.902  10.126 -0.1503 -0.0718 -0.9728
 3190SOL    HW221207   2.952   1.749  10.137 -0.2871  0.3855 -1.7482
 3191SOL     OW21208   3.570   4.307  15.308  0.2085 -0.7385  0.4581
 3191SOL    HW121209   3.512   4.311  15.232 -0.0557 -0.7100  0.6601
 3191SOL    HW221210   3.518   4.256  15.370  1.3504  0.0266  2.0305
 3192SOL     OW21211   0.762   4.618   8.494  0.2416 -0.1124 -0.6365
 3192SOL    HW121212   0.807   4.565   8.560 -1.1969 -0.0060  0.4401
 3192SOL    HW221213   0.680   4.569   8.487  0.7546 -0.7331 -2.0733
 3193SOL     OW21214   3.093   0.346   4.292  0.0400  0.3114 -0.2922
 3193SOL    HW121215   3.046   0.334   4.209  2.3071 -0.3365 -1.4914
 3193SOL    HW221216   3.081   0.255   4.320 -1.0767  0.2101 -1.1060
 3194SOL     OW21217   3.970   0.562   5.458  0.0948 -0.0033 -0.3894
 3194SOL    HW121218   3.983   0.511   5.378  0.1270 -2.2629  1.0471
 3194SOL    HW221219   4.033   0.633   5.446 -0.5756  0.8495  1.1237
 3195SOL     OW21220   3.036   1.587   5.412 -0.1372  0.1314 -0.1864
 3195SOL    HW121221   2.956   1.545   5.441 -0.1161 -0.0380 -0.3786
 3195SOL    HW221222   3.099   1.517   5.396  3.7443  3.1973  1.3927
 3196SOL     OW21223   2.412   1.456   8.957  0.1162 -0.3440  0.2976
 3196SOL    HW121224   2.418   1.541   8.999  0.0604  1.1036 -2.6580
 3196SOL    HW221225   2.459   1.396   9.017  0.0670  0.3601  1.0356
 3197SOL     OW21226   3.536   3.462  10.792  0.1111 -0.0384 -0.1873
 3197SOL    HW121227   3.478   3.513  10.848 -0.1270 -0.8211  0.2789
 3197SOL    HW221228   3.622   3.491  10.822 -1.5449  3.0080  1.6354
 3198SOL     OW21229   3.818   4.466   4.063 -0.1274 -0.2120  0.5733
 3198SOL    HW121230   3.875   4.493   3.991  1.2598  2.7607  2.8044
 3198SOL    HW221231   3.867   4.506   4.135  0.1088 -1.1949  0.9546
 3199SOL     OW21232   4.733   1.492   9.086 -0.2364 -0.4484  0.0975
 3199SOL    HW121233   0.024   1.401   9.091 -1.3401 -0.9066 -2.0994
 3199SOL    HW221234   4.639   1.479   9.088 -0.4228  0.8010 -0.7183
 3200SOL     OW21235   1.912   3.555   4.322  0.0550 -0.0034  0.0188
 3200SOL    HW121236   2.000   3.592   4.316  0.5164 -1.0023  0.6274
 3200SOL    HW221237   1.909   3.548   4.417 -1.5512 -1.1461 -0.1197
 3201SOL     OW21238   2.218   1.392   1.701  0.3261  0.0610  0.1147
 3201SOL    HW121239   2.205   1.327   1.770  0.3268  0.9892  0.9796
 3201SOL    HW221240   2.306   1.428   1.712 -0.3118  1.3268  1.0341
 3202SOL     OW21241   2.804   3.205   8.807 -0.2379  0.1419 -0.4427
 3202SOL    HW121242   2.843   3.122   8.779  1.0064  1.2571 -1.9566
 3202SOL    HW221243   2.754   3.174   8.883 -0.5052  0.5475 -0.4577
 3203SOL     OW21244   1.906   2.858   9.889 -0.2512  1.1601  0.3257
 3203SOL    HW121245   1.823   2.840   9.932 -0.6753  0.8513 -0.6157
 3203SOL    HW221246   1.957   2.801   9.947 -2.4693  0.4724  1.5690
 3204SOL     OW21247   2.665   3.899  15.532  0.1778  0.1896 -0.3368
 3204SOL    HW121248   2.604   3.947  15.587  1.3556  0.4154  0.7679
 3204SOL    HW221249   2.750   3.931  15.564 -0.3328  0.8688  0.3541
 3205SOL     OW21250   2.397   2.288  15.111 -0.3275 -0.1130  0.5455
 3205SOL    HW121251   2.353   2.368  15.140  1.1239  0.6532  0.6315
 3205SOL    HW221252   2.316   2.246  15.082  0.7538  0.7039 -3.6432
 3206SOL     OW21253   1.286   2.938   1.050 -0.0517  0.4374  0.1255
 3206SOL    HW121254   1.208   2.883   1.045  0.6088 -0.2670 -2.7153
 3206SOL    HW221255   1.330   2.895   1.123 -1.8630 -0.8118  0.5010
 3207SOL     OW21256   0.573   2.947  11.834  0.1010  0.1263  0.1975
 3207SOL    HW121257   0.597   3.023  11.782 -0.8567  0.4994  0.2921
 3207SOL    HW221258   0.564   2.877  11.769  1.5739  0.0014  0.1219
 3208SOL     OW21259   2.344   2.979   0.063  0.4074  0.3065  0.4424
 3208SOL    HW121260   2.363   2.977  17.719  0.4712  0.7437  0.4471
 3208SOL    HW221261   2.255   3.013   0.066 -0.0433 -1.1098  3.4457
 3209SOL     OW21262   2.176   3.105   4.754 -0.4488  0.0193  0.2927
 3209SOL    HW121263   2.129   3.048   4.693 -0.0795  0.6497 -0.5878
 3209SOL    HW221264   2.271   3.103   4.737 -0.1143  2.5319  1.7951
 3210SOL     OW21265   1.988   3.950  12.881 -0.1179  0.7080 -0.1961
 3210SOL    HW121266   1.995   4.012  12.808 -1.9228  0.6284 -0.4435
 3210SOL    HW221267   1.912   3.966  12.937  0.6242  0.0785  0.9937
 3211SOL     OW21268   3.964   3.639   7.218  0.2512  1.0913  0.4707
 3211SOL    HW121269   3.903   3.712   7.208 -2.4301 -1.2117 -0.0427
 3211SOL    HW221270   3.895   3.589   7.261  1.3627  0.0575  1.0554
 3212SOL     OW21271   4.627   1.682  16.493  0.3547 -0.4519 -0.1747
 3212SOL    HW121272   4.592   1.770  16.482  2.0293  0.2231  0.0372
 3212SOL    HW221273   4.540   1.644  16.509  0.5038  0.2012  2.0929
 3213SOL     OW21274   2.166   1.672  11.602  0.3561  0.8277  0.4879
 3213SOL    HW121275   2.099   1.658  11.668  1.3650  0.4254  1.4279
 3213SOL    HW221276   2.245   1.663  11.656  0.2512  1.3032  0.7166
 3214SOL     OW21277   3.650   0.856   9.410  0.1223 -0.0014  0.2040
 3214SOL    HW121278   3.731   0.862   9.462  1.3441  0.6352 -1.7794
 3214SOL    HW221279   3.592   0.836   9.483  1.3086 -0.8130  0.9280
 3215SOL     OW21280   4.086   3.368  14.222  0.2754  0.4275  0.2906
 3215SOL    HW121281   4.018   3.357  14.156  0.9830  0.8086 -0.5181
 3215SOL    HW221282   4.092   3.464  14.221 -0.6130  0.4736 -0.8630
 3216SOL     OW21283   3.238   2.453   2.633 -0.2444  0.6066 -0.4264
 3216SOL    HW121284   3.249   2.543   2.665 -2.1854  1.1665 -1.2981
 3216SOL    HW221285   3.150   2.429   2.662 -0.0462  1.2580  0.7371
 3217SOL     OW21286   3.377   0.487   8.413  0.0557 -0.3007 -0.6150
 3217SOL    HW121287   3.466   0.507   8.444  0.2277  1.7955 -2.4427
 3217SOL    HW221288   3.380   0.396   8.385 -0.4128 -0.7019  0.6522
 3218SOL     OW21289   1.024   1.878   8.722  0.1549  0.4998 -0.3331
 3218SOL    HW121290   0.993   1.857   8.634 -2.2350 -0.2732  0.7000
 3218SOL    HW221291   0.942   1.907   8.762 -2.2710 -2.9100 -2.8734
 3219SOL     OW21292   4.713   1.293  14.470  0.0033  0.0357  1.0133
 3219SOL    HW121293   0.008   1.341  14.394 -1.5455 -2.1797 -1.0366
 3219SOL    HW221294   4.737   1.202  14.449  0.3354  0.1319  0.9739
 3220SOL     OW21295   3.913   2.247   1.493 -0.2659 -0.4157  0.5186
 3220SOL    HW121296   3.849   2.303   1.538 -2.4483 -2.6096  0.1764
 3220SOL    HW221297   3.980   2.315   1.491 -0.1339 -0.5262  1.0184
 3221SOL     OW21298   1.419   2.009   7.247  0.4752  0.2791 -0.0421
 3221SOL    HW121299   1.435   1.978   7.158  0.4335  1.6206 -0.5055
 3221SOL    HW221300   1.508   2.002   7.284  0.6555  2.0477 -0.1648
 3222SOL     OW21301   0.589   0.331   0.540  0.4535 -0.4218 -0.5828
 3222SOL    HW121302   0.572   0.297   0.452  1.8233  0.3705 -1.1519
 3222SOL    HW221303   0.619   0.248   0.578 -0.5947 -0.1731  0.8162
 3223SOL     OW21304   2.554   1.140   6.353 -0.2884 -0.0594 -0.0522
 3223SOL    HW121305   2.626   1.190   6.392 -0.7878  1.6212 -1.2961
 3223SOL    HW221306   2.490   1.211   6.350  1.1872  1.2260 -1.6329
 3224SOL     OW21307   3.786   1.907  17.159  0.5234 -0.9592 -0.2516
 3224SOL    HW121308   3.755   1.907  17.069  1.0440  1.9470 -0.4344
 3224SOL    HW221309   3.799   2.002  17.159  0.7420 -0.9892  2.1886
 3225SOL     OW21310   3.433   0.447   5.242  0.0678  0.3296  0.1376
 3225SOL    HW121311   3.387   0.410   5.167  0.6718 -0.4155  0.1429
 3225SOL    HW221312   3.517   0.469   5.203  0.4718 -0.1095  0.7704
 3226SOL     OW21313   0.016   2.356   8.820  0.0836  0.3943  0.5403
 3226SOL    HW121314   0.087   2.385   8.877  0.8974  0.2683 -0.4142
 3226SOL    HW221315   4.680   2.388   8.873 -2.0751 -2.0514 -0.9555
 3227SOL     OW21316   3.461   0.753   2.298 -0.1148 -0.2506 -0.2511
 3227SOL    HW121317   3.366   0.752   2.291  0.0630  0.5240 -2.8601
 3227SOL    HW221318   3.486   0.845   2.303 -1.2004 -0.0448  1.0997
 3228SOL     OW21319   4.241   4.549   5.419 -0.7255  0.0212 -0.1830
 3228SOL    HW121320   4.187   4.543   5.340  0.8838 -1.0012 -1.1970
 3228SOL    HW221321   4.307   4.614   5.398 -0.1430 -0.2003  0.9324
 3229SOL     OW21322   4.439   1.959   4.874 -0.0926 -0.7342 -0.6141
 3229SOL    HW121323   4.369   1.954   4.940  0.4406  0.3800  0.0327
 3229SOL    HW221324   4.455   1.865   4.877  3.2695 -0.2168 -3.0064
 3230SOL     OW21325   0.316   2.235   7.230 -0.1738 -0.4874 -0.0207
 3230SOL    HW121326   0.319   2.235   7.134  0.1122 -0.6014 -0.0112
 3230SOL    HW221327   0.380   2.169   7.257  0.6919  0.8606  1.1832
 3231SOL     OW21328   3.997   2.805   5.840 -0.2381 -0.4546 -0.7684
 3231SOL    HW121329   3.913   2.793   5.885  0.3938  0.9642  0.7882
 3231SOL    HW221330   3.984   2.884   5.788 -1.3412 -0.1132  0.0272
 3232SOL     OW21331   4.655   4.644   3.619  0.2780 -0.0213  0.0236
 3232SOL    HW121332   4.642   4.579   3.688 -0.0650  1.1566  1.0497
 3232SOL    HW221333   4.736   4.607   3.584 -0.9560 -3.0993  0.4151
 3233SOL     OW21334   3.151   1.622   0.289 -0.1271 -0.1543 -0.0893
 3233SOL    HW121335   3.093   1.593   0.218  2.0659 -2.9699 -0.7040
 3233SOL    HW221336   3.154   1.717   0.281  1.9508 -0.0306  2.6758
 3234SOL     OW21337   4.158   1.998   2.156  0.2266  0.0957 -0.5318
 3234SOL    HW121338   4.095   2.006   2.085 -0.2723 -0.0199 -0.1028
 3234SOL    HW221339   4.144   1.903   2.154 -0.7102  0.2428 -0.9630
 3235SOL     OW21340   1.225   4.327   2.652 -0.2078  0.2616  0.4217
 3235SOL    HW121341   1.244   4.421   2.645 -1.6448  0.4586 -0.7579
 3235SOL    HW221342   1.311   4.299   2.684 -2.0160 -0.9557  4.3322
 3236SOL     OW21343   0.364   3.753   9.246  0.4910 -0.3006 -0.2860
 3236SOL    HW121344   0.435   3.772   9.185 -0.4662  0.8945 -1.0349
 3236SOL    HW221345   0.413   3.738   9.327  0.5321 -0.3345 -0.3169
 3237SOL     OW21346   3.837   2.150  10.909 -0.5287 -0.3925 -0.3636
 3237SOL    HW121347   3.767   2.122  10.850 -1.1118 -1.2844  0.7691
 3237SOL    HW221348   3.800   2.130  10.995  0.7216  0.3670  0.3480
 3238SOL     OW21349   2.641   3.325   3.296  0.0985  0.3417  0.0414
 3238SOL    HW121350   2.657   3.232   3.309 -0.7005  0.0667 -0.9896
 3238SOL    HW221351   2.723   3.363   3.327  1.0582 -0.5623 -1.4417
 3239SOL     OW21352   3.559   4.089   2.799 -0.2627  0.3487 -0.2034
 3239SOL    HW121353   3.615   4.083   2.722  1.4873 -0.2344  1.1058
 3239SOL    HW221354   3.499   4.157   2.771 -0.5759 -0.0088 -0.4019
 3240SOL     OW21355   3.700   4.401   1.678 -0.5683 -0.4776 -0.4752
 3240SOL    HW121356   3.729   4.430   1.764  2.6734 -1.5701 -1.2067
 3240SOL    HW221357   3.620   4.355   1.704 -0.4117  0.4318  1.6056
 3241SOL     OW21358   3.994   0.108   1.588  0.1390  0.6590 -0.1315
 3241SOL    HW121359   3.946   0.057   1.653 -1.0622  0.3214 -1.2860
 3241SOL    HW221360   3.943   0.188   1.576 -1.1108  0.2883  2.6586
 3242SOL     OW21361   1.376   3.825   7.257  0.1207 -0.0120 -0.1047
 3242SOL    HW121362   1.449   3.814   7.195  0.7746 -2.1251  1.0669
 3242SOL    HW221363   1.352   3.733   7.259 -1.9211  0.5480  1.5181
 3243SOL     OW21364   0.347   3.702  16.847 -0.2363  0.3709 -0.5793
 3243SOL    HW121365   0.389   3.618  16.828 -1.6194 -0.1492 -1.3214
 3243SOL    HW221366   0.290   3.715  16.771  1.7431  1.7596 -1.8457
 3244SOL     OW21367   2.560   0.372   3.191 -0.0188 -0.6494 -0.2656
 3244SOL    HW121368   2.471   0.400   3.212  0.2139  0.9109 -1.3708
 3244SOL    HW221369   2.608   0.413   3.263  2.2165 -0.8281 -1.6615
 3245SOL     OW21370   2.415   2.627   4.020  0.1265  0.0738 -0.0056
 3245SOL    HW121371   2.354   2.622   4.095  0.6841 -0.8239  0.3943
 3245SOL    HW221372   2.381   2.702   3.973  2.4914 -0.2204 -2.1811
 3246SOL     OW21373   3.333   2.604  14.751 -0.3633 -0.0648 -0.0762
 3246SOL    HW121374   3.383   2.568  14.824 -0.6533  1.5886  0.9393
 3246SOL    HW221375   3.344   2.538  14.683  0.6302 -2.5524  2.4781
 3247SOL     OW21376   0.973   1.443   4.008 -1.0727  0.0661 -0.0625
 3247SOL    HW121377   1.056   1.417   3.967  1.0188 -0.9446  4.7834
 3247SOL    HW221378   0.949   1.373   4.070 -1.4567  1.6073  1.5307
 3248SOL     OW21379   0.575   3.889   5.044  0.5689 -0.2365  0.8248
 3248SOL    HW121380   0.568   3.798   5.015 -1.0219  0.5161 -1.2001
 3248SOL    HW221381   0.505   3.887   5.109 -1.0083 -1.4425 -0.8902
 3249SOL     OW21382   4.255   4.340   1.438 -0.1997 -0.1969  0.7041
 3249SOL    HW121383   4.207   4.377   1.512  1.4042  0.5279  1.3931
 3249SOL    HW221384   4.222   4.395   1.368  0.7607 -0.0292  0.3787
 3250SOL     OW21385   0.765   3.840   2.744 -0.0893 -0.1657 -0.3087
 3250SOL    HW121386   0.745   3.847   2.651  0.9674 -0.0756 -0.5347
 3250SOL    HW221387   0.672   3.830   2.764  0.1622 -2.3370 -0.2707
 3251SOL     OW21388   0.394   4.414   2.482 -0.2243 -0.3064 -0.2561
 3251SOL    HW121389   0.324   4.475   2.460 -2.3103 -1.8438  2.1352
 3251SOL    HW221390   0.380   4.339   2.424  1.7053 -2.8633  2.5570
 3252SOL     OW21391   4.546   4.005   6.588 -1.1179  0.4820  0.3968
 3252SOL    HW121392   4.641   3.998   6.585 -0.9815  2.2242  0.7120
 3252SOL    HW221393   4.532   3.972   6.677 -1.4080  0.9766  0.5369
 3253SOL     OW21394   0.324   3.819   4.868 -0.2722 -0.3611 -0.0215
 3253SOL    HW121395   0.409   3.776   4.862 -0.5102 -0.9130  0.6060
 3253SOL    HW221396   0.275   3.744   4.902 -0.2657 -0.8890 -1.1582
 3254SOL     OW21397   2.665   0.595   6.300 -0.1530 -0.8304 -0.2860
 3254SOL    HW121398   2.666   0.514   6.349  0.8270 -0.7475 -0.1617
 3254SOL    HW221399   2.738   0.641   6.342 -0.4733 -1.5345  1.0137
 3255SOL     OW21400   0.859   0.333   8.347  0.0685  0.3571  0.4792
 3255SOL    HW121401   0.811   0.251   8.359  0.9120 -0.1053  0.7732
 3255SOL    HW221402   0.793   0.398   8.370  1.3903  1.9459 -0.1616
 3256SOL     OW21403   2.117   1.781   2.696  0.0443 -0.0933 -0.1678
 3256SOL    HW121404   2.131   1.873   2.719 -0.8972  0.2407 -0.9197
 3256SOL    HW221405   2.046   1.761   2.756  0.3759 -0.2690  0.1608
 3257SOL     OW21406   0.959   3.380   2.686 -0.3841  0.2220  0.7044
 3257SOL    HW121407   0.966   3.445   2.756 -0.9918  1.4832 -0.4061
 3257SOL    HW221408   0.913   3.428   2.617 -3.4281 -1.2441  1.7176
 3258SOL     OW21409   4.608   3.988   3.611 -0.2629  0.5545 -0.5487
 3258SOL    HW121410   4.523   3.984   3.568 -0.4566 -2.1859  0.1002
 3258SOL    HW221411   4.651   4.068   3.579  0.4641  0.1164 -0.6647
 3259SOL     OW21412   4.727   0.998  10.385 -0.1533  0.3331  0.3120
 3259SOL    HW121413   0.073   0.960  10.359  0.0507 -0.0830  1.5702
 3259SOL    HW221414   4.725   1.073  10.326 -0.1762  1.5494  1.8575
 3260SOL     OW21415   0.354   1.647   7.494  0.0861 -0.5218 -0.2019
 3260SOL    HW121416   0.387   1.614   7.578 -2.6204  1.4172  1.5966
 3260SOL    HW221417   0.406   1.601   7.428  1.0172  0.1736  0.0516
 3261SOL     OW21418   3.396   1.917   3.988 -0.2660 -0.4709  0.3301
 3261SOL    HW121419   3.356   1.938   3.903  2.1314 -0.0203 -0.6759
 3261SOL    HW221420   3.462   1.985   3.999 -0.3975  0.1021 -2.5148
 3262SOL     OW21421   4.193   2.304   4.146 -0.8402  0.6150 -1.2252
 3262SOL    HW121422   4.255   2.238   4.176 -0.8632  1.7334  1.2862
 3262SOL    HW221423   4.125   2.253   4.102  1.4786 -1.1823 -2.7025
 3263SOL     OW21424   4.501   4.500   2.113 -0.5661  0.2839  0.1251
 3263SOL    HW121425   4.452   4.550   2.048  0.8019  0.2335 -0.9428
 3263SOL    HW221426   4.530   4.579   2.160 -0.7492  1.1012 -1.1230
 3264SOL     OW21427   2.378   3.153   6.600 -0.0310  0.1297  0.6992
 3264SOL    HW121428   2.355   3.147   6.507  0.0162  0.7438  0.6466
 3264SOL    HW221429   2.374   3.247   6.620  0.0651  0.1568  0.5907
 3265SOL     OW21430   2.553   3.650   0.460  0.1409 -0.0196  0.1929
 3265SOL    HW121431   2.552   3.742   0.433 -0.1048 -0.5284 -1.5464
 3265SOL    HW221432   2.573   3.654   0.553 -0.4557 -0.2269  0.3299
 3266SOL     OW21433   2.939   0.927   8.970 -0.3228  0.2491  0.0099
 3266SOL    HW121434   2.879   0.918   8.896  1.6600 -1.1046 -1.4349
 3266SOL    HW221435   3.024   0.926   8.927 -0.4350  1.3296 -0.2442
 3267SOL     OW21436   1.652   0.279  14.262 -0.6897 -0.1521 -0.7409
 3267SOL    HW121437   1.727   0.292  14.320 -2.0822 -1.8566  1.4262
 3267SOL    HW221438   1.677   0.315  14.177  3.3269  0.4504  0.7105
 3268SOL     OW21439   0.443   0.898   4.462 -0.0081 -0.2524 -0.4075
 3268SOL    HW121440   0.506   0.843   4.508 -1.0862 -0.5751  0.6738
 3268SOL    HW221441   0.473   0.984   4.492 -3.4073  0.6597  0.3638
 3269SOL     OW21442   1.460   1.702   4.516  0.2542 -0.1994 -0.4991
 3269SOL    HW121443   1.456   1.624   4.572  1.0032  1.9240  2.5604
 3269SOL    HW221444   1.430   1.762   4.584  2.8638  4.4077 -3.4141
 3270SOL     OW21445   0.434   4.659  13.866  0.3444 -0.1902  0.1129
 3270SOL    HW121446   0.393   4.635  13.949 -1.3760 -0.3287 -0.7747
 3270SOL    HW221447   0.394   0.005  13.845 -0.9690 -0.2042  2.5231
 3271SOL     OW21448   3.152   3.779   8.225 -0.6521  0.0487  0.5145
 3271SOL    HW121449   3.149   3.852   8.287  0.5173  0.3524  0.2070
 3271SOL    HW221450   3.212   3.805   8.156 -1.4550 -2.3574 -1.1015
 3272SOL     OW21451   1.269   0.233   3.952  0.6134  0.0855 -0.3288
 3272SOL    HW121452   1.288   0.231   4.046  1.8091 -2.0536 -0.6279
 3272SOL    HW221453   1.337   0.294   3.924 -0.2323  1.2985  0.2138
 3273SOL     OW21454   4.309   0.715   5.699  0.0006  0.4742 -0.4287
 3273SOL    HW121455   4.312   0.660   5.620 -1.7103  0.3804 -0.4313
 3273SOL    HW221456   4.328   0.802   5.665  0.1432  0.4562 -0.3960
 3274SOL     OW21457   3.023   2.621   5.688  0.0605 -0.2060 -0.4374
 3274SOL    HW121458   3.112   2.648   5.712 -0.9177  0.6420  2.2756
 3274SOL    HW221459   3.002   2.653   5.601  0.4285  1.2917  0.0272
 3275SOL     OW21460   3.607   1.218   2.103 -0.1910  0.4013  0.7014
 3275SOL    HW121461   3.680   1.231   2.164 -1.3927  0.7870  2.0414
 3275SOL    HW221462   3.644   1.257   2.024  0.0189 -0.7048  0.2548
 3276SOL     OW21463   3.769   2.894  11.550 -0.1321 -0.2695 -0.0463
 3276SOL    HW121464   3.701   2.943  11.596  0.8401  0.9922  0.0408
 3276SOL    HW221465   3.717   2.829  11.502 -2.6139  0.9739  0.9557
 3277SOL     OW21466   2.497   0.705  17.634 -0.3557 -0.0071  0.2619
 3277SOL    HW121467   2.537   0.656  17.706 -1.4804 -0.9277  0.2501
 3277SOL    HW221468   2.514   0.796  17.657  1.8936 -0.1639 -0.6818
 3278SOL     OW21469   2.572   0.840  11.326 -0.3043 -0.2308  0.0509
 3278SOL    HW121470   2.560   0.928  11.361  1.5487  0.5058 -1.1809
 3278SOL    HW221471   2.598   0.866  11.238 -0.2591  2.0148  0.7259
 3279SOL     OW21472   2.777   4.298  11.062  0.0462  0.1423 -0.1415
 3279SOL    HW121473   2.691   4.294  11.020 -0.2556 -0.4350  0.5162
 3279SOL    HW221474   2.745   4.252  11.140  0.1570  0.6434  0.1961
 3280SOL     OW21475   2.962   0.400  11.182 -0.1915  0.3857 -1.1517
 3280SOL    HW121476   2.899   0.328  11.172  0.8216 -0.6638 -0.0395
 3280SOL    HW221477   2.982   0.427  11.093 -0.2439  2.8042 -0.4285
 3281SOL     OW21478   0.149   1.554   8.049  0.3172 -1.4147 -0.4039
 3281SOL    HW121479   0.102   1.517   7.975 -0.2323  0.1811 -0.8492
 3281SOL    HW221480   0.090   1.624   8.078  0.7770 -0.8629 -0.8098
 3282SOL     OW21481   0.436   4.129   2.520  0.4128  0.3635 -0.3749
 3282SOL    HW121482   0.472   4.204   2.569  2.4263 -1.2330  0.5928
 3282SOL    HW221483   0.391   4.080   2.588 -0.7881  1.4674 -0.3735
 3283SOL     OW21484   1.458   1.944   8.529 -0.1115 -0.4318  0.3335
 3283SOL    HW121485   1.375   1.988   8.510  0.5247  1.7468  2.6860
 3283SOL    HW221486   1.432   1.853   8.514 -2.1265 -0.1115  1.9118
 3284SOL     OW21487   4.660   2.471   8.566  0.0189 -0.1211 -0.2341
 3284SOL    HW121488   0.005   2.510   8.539  0.6741  0.1969  2.2603
 3284SOL    HW221489   4.687   2.424   8.645 -0.6585  1.1982  0.7842
 3285SOL     OW21490   3.339   0.770   0.224  0.1863  0.4434  0.4785
 3285SOL    HW121491   3.407   0.836   0.209  1.4669 -0.8398  0.6651
 3285SOL    HW221492   3.384   0.702   0.274 -1.6629 -1.2682 -0.2181
 3286SOL     OW21493   3.379   0.070  12.752 -0.0232  0.6115 -0.0714
 3286SOL    HW121494   3.353   4.733  12.698  0.9011 -0.1495  0.5448
 3286SOL    HW221495   3.421   0.016  12.819 -0.3185  0.9149  0.3628
 3287SOL     OW21496   2.323   2.094   2.880 -0.1553  0.5788  0.3423
 3287SOL    HW121497   2.364   2.160   2.825 -1.1288  1.0889  0.2223
 3287SOL    HW221498   2.401   2.041   2.892 -1.4147 -1.3001  0.2490
 3288SOL     OW21499   4.501   0.183   1.154 -0.3856  0.4686  0.3902
 3288SOL    HW121500   4.579   0.131   1.136 -0.1367  0.6137  1.0616
 3288SOL    HW221501   4.541   0.266   1.179 -1.4043  0.7917  0.9737
 3289SOL     OW21502   2.915   4.161   7.787 -0.1611 -0.1277 -0.2803
 3289SOL    HW121503   2.936   4.246   7.827  1.7459 -0.0905 -1.3297
 3289SOL    HW221504   2.824   4.181   7.764 -0.3122  0.4459  0.8178
 3290SOL     OW21505   0.103   4.645   7.857 -0.0905  0.6236  0.4439
 3290SOL    HW121506   0.019   4.646   7.904  0.5184  0.1923  1.5282
 3290SOL    HW221507   0.160   4.705   7.905 -0.3968 -0.5076  2.2223
 3291SOL     OW21508   0.607   2.422   8.298  0.4308  0.1068  0.3864
 3291SOL    HW121509   0.683   2.373   8.270  0.3305  0.7703 -1.0429
 3291SOL    HW221510   0.544   2.354   8.324 -0.0534  0.1020 -0.7988
 3292SOL     OW21511   0.076   1.460  11.962  0.1499  0.1306 -0.3463
 3292SOL    HW121512   0.025   1.378  11.957  0.0310  0.0941  1.5693
 3292SOL    HW221513   0.042   1.504  11.884  2.2580  0.6002 -1.0081
 3293SOL     OW21514   2.156   2.800  16.013  0.1518  0.0072 -0.5135
 3293SOL    HW121515   2.205   2.720  15.992  0.2424  0.2377 -1.1853
 3293SOL    HW221516   2.166   2.852  15.934 -0.8537  2.4034  0.9588
 3294SOL     OW21517   3.244   2.025  16.175  0.0888 -0.2214  0.1398
 3294SOL    HW121518   3.159   2.017  16.219  0.0306 -2.3577 -0.3539
 3294SOL    HW221519   3.216   2.018  16.083  0.2882 -1.3908  0.1660
 3295SOL     OW21520   3.009   2.048  12.913 -0.5364 -0.8019 -0.4531
 3295SOL    HW121521   3.065   1.976  12.940 -0.7346  0.1912  2.5856
 3295SOL    HW221522   2.992   2.076  13.003  1.9338 -1.6143  0.2623
 3296SOL     OW21523   4.513   2.078  10.869 -0.2494  0.6540  0.1193
 3296SOL    HW121524   4.547   2.106  10.784  0.5114 -2.5364 -0.6250
 3296SOL    HW221525   4.593   2.048  10.912 -0.7199 -0.6419  0.1070
 3297SOL     OW21526   4.504   2.308   4.440  0.2685 -0.4415 -0.3670
 3297SOL    HW121527   4.559   2.230   4.454 -1.8652 -1.4425  2.3989
 3297SOL    HW221528   4.562   2.374   4.479  1.5577 -2.4087  1.0776
 3298SOL     OW21529   2.667   4.013   3.894  0.1403 -0.0430  0.0954
 3298SOL    HW121530   2.741   3.985   3.840 -0.4469  0.2443 -0.8575
 3298SOL    HW221531   2.631   3.925   3.898 -0.3422  0.0588 -2.1823
 3299SOL     OW21532   0.001   1.863   2.125 -0.2037  0.0166 -0.1429
 3299SOL    HW121533   0.062   1.807   2.078 -0.9228  0.9424 -2.1793
 3299SOL    HW221534   4.680   1.902   2.061 -0.2266  0.6668  0.2726
 3300SOL     OW21535   3.318   0.790  16.613 -0.6979 -0.3562 -0.5963
 3300SOL    HW121536   3.232   0.798  16.654 -0.6456  0.5001 -0.6509
 3300SOL    HW221537   3.374   0.783  16.690  0.4513  0.3810 -1.3631
 3301SOL     OW21538   0.783   4.515   9.328  0.4575  0.0206  0.1026
 3301SOL    HW121539   0.844   4.574   9.372  1.6500 -0.7855 -0.4339
 3301SOL    HW221540   0.697   4.554   9.339 -0.4432 -2.5372  2.0660
 3302SOL     OW21541   4.402   0.254   6.415  0.0068  0.9801  0.7282
 3302SOL    HW121542   4.356   0.337   6.418 -3.4459 -0.9295 -0.1742
 3302SOL    HW221543   4.447   0.267   6.499  1.5267  0.7504 -0.0477
 3303SOL     OW21544   1.089   3.200   2.224 -0.2779 -0.8993 -0.2793
 3303SOL    HW121545   1.020   3.240   2.276 -0.1548  1.6436 -2.0397
 3303SOL    HW221546   1.033   3.143   2.171 -3.8589  1.5444  0.9609
 3304SOL     OW21547   4.304   2.992   6.476 -0.7652  0.5719 -0.1071
 3304SOL    HW121548   4.331   2.905   6.507  1.9059  1.2334 -0.5600
 3304SOL    HW221549   4.371   3.042   6.523  2.4727 -1.4944 -2.5415
 3305SOL     OW21550   2.261   3.054   8.702  0.1771 -0.0976 -0.7044
 3305SOL    HW121551   2.237   3.147   8.702  0.5220 -0.0087 -0.9354
 3305SOL    HW221552   2.355   3.065   8.687 -0.2506  0.5838 -2.8893
 3306SOL     OW21553   3.168   4.467   2.396  0.2739 -0.0712  0.4492
 3306SOL    HW121554   3.245   4.450   2.451 -0.2572 -0.4280  1.0894
 3306SOL    HW221555   3.100   4.410   2.432 -1.2275  0.7325 -1.1285
 3307SOL     OW21556   2.150   2.697   2.882  0.3681 -0.5389  0.2530
 3307SOL    HW121557   2.214   2.762   2.912 -1.1467  1.0050  0.1256
 3307SOL    HW221558   2.195   2.620   2.916 -0.8735 -1.3547  0.0564
 3308SOL     OW21559   3.736   4.336   0.909  0.0202  0.0563  0.0319
 3308SOL    HW121560   3.672   4.392   0.864  0.4743 -1.0497 -1.9573
 3308SOL    HW221561   3.712   4.335   1.002  1.3731 -1.1517  0.3623
 3309SOL     OW21562   0.321   1.447   0.933 -0.4433  0.3398  0.0033
 3309SOL    HW121563   0.303   1.508   1.004  3.9326  0.7036  0.8114
 3309SOL    HW221564   0.326   1.509   0.861 -3.4754  0.0811 -0.4161
 3310SOL     OW21565   4.189   0.861  17.452  0.6008  0.2069  0.1859
 3310SOL    HW121566   4.279   0.887  17.431 -0.3707  1.5761 -2.3403
 3310SOL    HW221567   4.173   0.814  17.370  1.2165  2.0030 -0.9802
 3311SOL     OW21568   2.498   0.973   5.556  0.0813 -0.4301  0.1219
 3311SOL    HW121569   2.506   0.977   5.652  0.3278 -0.3657  0.1006
 3311SOL    HW221570   2.412   1.015   5.555  1.1137  1.7164 -0.4827
 3312SOL     OW21571   2.401   3.599   8.996 -0.1548 -0.0127 -0.0715
 3312SOL    HW121572   2.359   3.514   9.009 -0.1250  0.2051  1.4114
 3312SOL    HW221573   2.442   3.612   9.081  0.1945  0.0042 -0.2416
 3313SOL     OW21574   0.096   3.653   1.920  0.1446 -0.3020 -0.2131
 3313SOL    HW121575   0.120   3.673   2.010  0.4648 -2.8858  0.2877
 3313SOL    HW221576   0.085   3.733   1.869 -1.7007 -0.0244  0.6339
 3314SOL     OW21577   4.592   1.735   8.108  0.5121 -0.0713 -0.5381
 3314SOL    HW121578   4.579   1.810   8.050 -2.1964 -1.5764 -1.8783
 3314SOL    HW221579   4.619   1.779   8.188 -0.5600  1.5080 -1.0436
 3315SOL     OW21580   1.885   0.660  13.964  0.2854 -0.0880 -0.0448
 3315SOL    HW121581   1.865   0.742  14.010  1.3680  0.2212 -0.1201
 3315SOL    HW221582   1.978   0.646  13.948  0.2972 -0.5220  0.3865
 3316SOL     OW21583   4.309   3.852   6.352  0.4612  0.2605 -0.0735
 3316SOL    HW121584   4.404   3.839   6.348  0.5237  0.2967  1.3913
 3316SOL    HW221585   4.294   3.783   6.416 -1.1551  1.7981  1.2044
 3317SOL     OW21586   3.774   3.463   7.343 -0.3140  0.1893 -0.0899
 3317SOL    HW121587   3.798   3.491   7.431 -1.0844 -0.2498  0.2533
 3317SOL    HW221588   3.844   3.400   7.326  1.2051  1.5024  1.3087
 3318SOL     OW21589   2.451   1.717   6.615  0.2777 -0.6305  0.1284
 3318SOL    HW121590   2.540   1.707   6.581  0.4071  1.8040 -0.2111
 3318SOL    HW221591   2.411   1.689   6.533 -1.4529  1.6786  0.2059
 3319SOL     OW21592   0.418   0.931  12.534  0.3421 -0.0532 -0.2395
 3319SOL    HW121593   0.443   0.921  12.626  0.7887 -1.0581 -0.4712
 3319SOL    HW221594   0.469   0.865  12.488  2.7071  1.7991 -0.2281
 3320SOL     OW21595   2.898   2.873  11.805  0.1746  0.1699  0.4817
 3320SOL    HW121596   2.992   2.894  11.798  0.3796 -0.4597  1.4633
 3320SOL    HW221597   2.854   2.958  11.805 -0.3587 -0.0759 -3.9647
 3321SOL     OW21598   2.059   3.275   4.456 -0.3214 -0.0855  0.7711
 3321SOL    HW121599   2.072   3.180   4.453 -2.9135 -0.4270  0.3059
 3321SOL    HW221600   2.153   3.293   4.460 -0.3378  0.0610  0.4178
 3322SOL     OW21601   2.833   3.536   4.250  0.3518 -0.0473 -0.2283
 3322SOL    HW121602   2.796   3.582   4.175 -0.8819  0.9291  0.9927
 3322SOL    HW221603   2.905   3.491   4.205  0.9281 -1.6244  2.2761
 3323SOL     OW21604   4.558   1.193   8.689  0.0280  0.5541  0.1440
 3323SOL    HW121605   4.554   1.196   8.593  1.2535 -0.2237  0.0634
 3323SOL    HW221606   4.525   1.105   8.710 -1.7022  0.4600 -2.8704
 3324SOL     OW21607   2.218   1.013   4.222  0.1028  0.3484 -0.2597
 3324SOL    HW121608   2.223   1.108   4.209  0.6395  0.1850 -1.2242
 3324SOL    HW221609   2.128   0.997   4.194 -0.3092  1.9962  0.0944
 3325SOL     OW21610   1.779   4.183   0.251  0.0190  0.3599 -0.1931
 3325SOL    HW121611   1.837   4.108   0.264 -0.6622 -0.3204 -1.1214
 3325SOL    HW221612   1.830   4.252   0.293  0.7015 -1.1095  1.4010
 3326SOL     OW21613   2.360   4.667  13.300  0.1197 -0.0906  0.2999
 3326SOL    HW121614   2.334   4.691  13.211 -2.6414 -1.3522  0.7753
 3326SOL    HW221615   2.382   4.575  13.295 -1.2733 -0.3076 -1.9466
 3327SOL     OW21616   1.242   4.071   7.245 -0.5090 -0.3178  0.2218
 3327SOL    HW121617   1.151   4.043   7.255 -0.7010  0.4035  0.4555
 3327SOL    HW221618   1.285   3.986   7.231  2.1006  0.8607  1.0780
 3328SOL     OW21619   2.898   0.484  12.281  0.1569 -0.1358 -0.0001
 3328SOL    HW121620   2.938   0.571  12.288 -0.1881  0.1625 -1.7696
 3328SOL    HW221621   2.970   0.437  12.239 -0.7891 -1.3246 -0.2912
 3329SOL     OW21622   0.988   4.493   7.244 -0.0608  0.2703  0.1165
 3329SOL    HW121623   0.992   4.585   7.220 -0.1029  0.6046  1.3687
 3329SOL    HW221624   0.903   4.502   7.288  0.1653  1.3837  0.3207
 3330SOL     OW21625   2.851   4.156   2.020  0.2001  0.3402 -0.6678
 3330SOL    HW121626   2.786   4.224   2.031 -1.5345 -1.0019 -2.4857
 3330SOL    HW221627   2.890   4.164   2.107  0.7605  0.6553 -0.9436
 3331SOL     OW21628   3.450   3.482   5.296  0.2233  0.0383 -0.1584
 3331SOL    HW121629   3.433   3.570   5.261  0.2467  0.9828  2.1989
 3331SOL    HW221630   3.398   3.423   5.243 -0.0601  0.9914 -0.9490
 3332SOL     OW21631   3.380   3.109   1.944 -0.2287  0.0444 -0.4305
 3332SOL    HW121632   3.421   3.161   2.013 -0.3255  0.5079 -0.7240
 3332SOL    HW221633   3.320   3.050   1.990  2.6063 -1.3201  1.5175
 3333SOL     OW21634   3.106   0.322  11.404 -0.5415  0.6254  0.0103
 3333SOL    HW121635   3.081   0.364  11.321  3.3177  0.8822 -1.0341
 3333SOL    HW221636   3.168   0.254  11.380 -0.4329  0.5078  0.6308
 3334SOL     OW21637   0.291   3.042   7.398 -0.1905 -0.1324  0.3994
 3334SOL    HW121638   0.365   3.091   7.434 -0.3887  0.6012 -0.1788
 3334SOL    HW221639   0.300   3.054   7.304  1.6776 -1.0639  0.4639
 3335SOL     OW21640   0.108   1.620   1.299  0.4556 -0.0544  0.2682
 3335SOL    HW121641   0.170   1.634   1.227 -1.1809  2.4450 -0.6121
 3335SOL    HW221642   0.066   1.704   1.314 -1.6160 -0.8752 -0.8838
 3336SOL     OW21643   4.026   2.149   3.985 -0.2351  0.1185 -0.0769
 3336SOL    HW121644   4.081   2.095   3.928 -0.0547  0.2827 -0.0590
 3336SOL    HW221645   3.977   2.201   3.922 -0.5305  0.5925  0.5489
 3337SOL     OW21646   4.358   3.725   7.814 -0.3238  0.3717  0.3058
 3337SOL    HW121647   4.264   3.742   7.812 -0.4264 -0.1514  0.8346
 3337SOL    HW221648   4.377   3.737   7.721 -1.4563  1.8120  0.2624
 3338SOL     OW21649   4.289   3.070   4.779 -0.2456  0.6210  0.3613
 3338SOL    HW121650   4.340   2.989   4.788 -2.0576 -0.5443  0.1722
 3338SOL    HW221651   4.200   3.034   4.780 -0.4551  1.1913  1.8368
 3339SOL     OW21652   0.872   4.297   8.885  0.1088  0.0290 -0.1192
 3339SOL    HW121653   0.949   4.307   8.942 -0.3037 -0.0651  0.4466
 3339SOL    HW221654   0.845   4.206   8.897  0.6128  0.0254  1.0469
 3340SOL     OW21655   1.403   0.715   0.013  0.2908 -0.3485 -0.6116
 3340SOL    HW121656   1.453   0.685   0.089 -0.2024 -1.3585 -0.6778
 3340SOL    HW221657   1.455   0.792  17.738 -1.4998  0.9782 -0.2128
 3341SOL     OW21658   3.231   1.344   4.253 -0.1407  0.3747 -0.1909
 3341SOL    HW121659   3.325   1.334   4.237  0.2837  0.8978  2.0877
 3341SOL    HW221660   3.227   1.433   4.287  0.3112  0.6025 -0.7295
 3342SOL     OW21661   4.569   2.708   1.411 -0.2786 -0.3273 -0.1556
 3342SOL    HW121662   4.568   2.624   1.366  0.3260 -2.5141  3.8857
 3342SOL    HW221663   4.637   2.683   1.474 -0.9367 -0.1857  0.6113
 3343SOL     OW21664   2.549   1.020   1.645  0.0190 -0.3749  0.0497
 3343SOL    HW121665   2.641   1.001   1.662 -0.0528  0.4070  1.3337
 3343SOL    HW221666   2.551   1.116   1.650  0.3135 -0.3968  0.3430
 3344SOL     OW21667   3.889   1.183   3.125 -0.0099  0.2318  0.5290
 3344SOL    HW121668   3.917   1.273   3.144 -0.0178  0.2310  0.5446
 3344SOL    HW221669   3.965   1.152   3.076 -0.1582  0.5080  0.1281
 3345SOL     OW21670   4.627   2.280   3.255 -0.5771 -0.0200  0.8095
 3345SOL    HW121671   4.661   2.367   3.277  1.5009 -0.9061  1.1124
 3345SOL    HW221672   4.697   2.255   3.196 -1.6025 -2.9415  0.8143
 3346SOL     OW21673   1.020   4.617   4.101  0.1649  0.2071 -0.2424
 3346SOL    HW121674   1.039   4.707   4.128  2.7924 -0.2446 -0.5750
 3346SOL    HW221675   0.963   4.588   4.172  0.3534  0.1973 -0.0964
 3347SOL     OW21676   0.313   0.686   4.289  0.1620 -0.0267 -0.6194
 3347SOL    HW121677   0.238   0.732   4.328 -0.3015 -0.1945 -1.3045
 3347SOL    HW221678   0.342   0.634   4.364  0.8203  0.6353 -0.4207
 3348SOL     OW21679   3.903   3.515   2.519  0.5874 -0.3842 -0.0003
 3348SOL    HW121680   3.884   3.608   2.503 -0.4551 -0.4386  0.9244
 3348SOL    HW221681   3.874   3.493   2.608 -0.5369  1.0345 -0.0214
 3349SOL     OW21682   4.602   3.211   6.843  0.1915  0.4467  0.2306
 3349SOL    HW121683   4.599   3.251   6.930  1.4466  3.1805 -1.0061
 3349SOL    HW221684   4.523   3.238   6.796  0.0792 -0.9604 -0.4042
 3350SOL     OW21685   2.133   4.217  12.864 -0.0060 -0.6964 -0.6391
 3350SOL    HW121686   2.213   4.235  12.814 -0.4132  1.1222 -0.6682
 3350SOL    HW221687   2.176   4.156  12.923 -2.7482 -0.9276  1.1227
 3351SOL     OW21688   3.055   4.587  10.988  0.1387 -0.4450  0.1051
 3351SOL    HW121689   3.106   4.592  10.907 -0.0239 -2.6252 -0.1230
 3351SOL    HW221690   3.077   4.503  11.028  0.2080  0.5486  2.1578
 3352SOL     OW21691   2.106   1.702   4.259  0.5105 -0.2708 -0.2624
 3352SOL    HW121692   2.131   1.633   4.320  0.7160  0.1175  0.0911
 3352SOL    HW221693   2.057   1.769   4.305 -1.2244 -1.3268 -0.5761
 3353SOL     OW21694   0.784   1.389   4.778 -0.6921 -0.3296 -0.0069
 3353SOL    HW121695   0.827   1.360   4.697 -2.0222  0.2449 -0.9183
 3353SOL    HW221696   0.807   1.482   4.770  0.8951 -0.5108  2.3671
 3354SOL     OW21697   0.626   0.548  12.028  0.2009 -0.2499 -0.3427
 3354SOL    HW121698   0.640   0.455  12.008  1.8024 -0.3286  1.1821
 3354SOL    HW221699   0.633   0.546  12.123 -3.0790 -1.4703 -0.1119
 3355SOL     OW21700   1.854   3.278   4.067 -0.9503 -0.6615  0.5533
 3355SOL    HW121701   1.797   3.271   4.143 -1.0928 -0.8892  0.4261
 3355SOL    HW221702   1.863   3.373   4.055 -1.3827 -0.5613  1.0231
 3356SOL     OW21703   1.849   4.640   6.420 -0.0322 -0.8150 -0.8257
 3356SOL    HW121704   1.814   4.631   6.509  1.4536  0.4967 -0.1118
 3356SOL    HW221705   1.871   4.733   6.417 -0.7313 -0.6025  0.9814
 3357SOL     OW21706   3.522   4.063   6.547 -0.5157 -0.2726 -0.3227
 3357SOL    HW121707   3.581   4.085   6.475  0.2840 -0.5632  0.2503
 3357SOL    HW221708   3.432   4.076   6.517  0.5746  3.3335 -2.1067
 3358SOL     OW21709   2.219   0.654  13.606  0.5192 -0.2639  0.0132
 3358SOL    HW121710   2.177   0.588  13.552  0.3327  0.3729 -0.6245
 3358SOL    HW221711   2.282   0.692  13.545  1.7250 -1.2691  0.6396
 3359SOL     OW21712   3.193   2.199   7.201 -0.1286 -0.5104 -0.2147
 3359SOL    HW121713   3.261   2.135   7.222  0.3254 -0.5800 -1.8893
 3359SOL    HW221714   3.215   2.272   7.259 -0.6571 -0.6854  0.2082
 3360SOL     OW21715   3.492   0.009   8.103 -0.6173 -0.2072  0.4064
 3360SOL    HW121716   3.584   0.031   8.096 -1.1231  1.3774 -1.3687
 3360SOL    HW221717   3.499   4.652   8.114  0.8519 -0.0063  1.0857
 3361SOL     OW21718   3.151   1.292   8.439  0.3813 -0.1038  0.4839
 3361SOL    HW121719   3.162   1.199   8.418  3.2487 -0.0508  1.6574
 3361SOL    HW221720   3.185   1.334   8.360 -0.3641 -1.6702 -0.6628
 3362SOL     OW21721   1.883   3.073   5.298 -0.3346 -0.4060  0.3076
 3362SOL    HW121722   1.850   3.147   5.247  1.9747  0.8679  0.6743
 3362SOL    HW221723   1.809   3.012   5.296 -1.1538  0.6263 -0.7629
 3363SOL     OW21724   3.973   4.448  16.057 -0.0997  0.0926 -0.1232
 3363SOL    HW121725   3.970   4.470  16.151  1.3349  1.3381 -0.3654
 3363SOL    HW221726   3.892   4.493  16.030 -0.6689 -0.6396  0.3826
 3364SOL     OW21727   2.023   1.372  11.146  0.5215  0.1446 -0.6561
 3364SOL    HW121728   2.010   1.449  11.201  1.0815 -2.5159  3.2067
 3364SOL    HW221729   1.953   1.316  11.179 -0.1979  0.1783 -2.1374
 3365SOL     OW21730   1.504   1.628   6.027  0.2765 -0.8537 -0.3436
 3365SOL    HW121731   1.587   1.579   6.021  0.7562  0.1934 -2.3533
 3365SOL    HW221732   1.459   1.578   5.959  1.8537 -1.1552 -1.1900
 3366SOL     OW21733   3.091   4.572   4.354 -0.0921  0.0790 -0.0438
 3366SOL    HW121734   3.088   4.557   4.448 -3.9508 -0.8323 -0.2826
 3366SOL    HW221735   3.120   4.489   4.317  0.4606 -0.4735  1.6614
 3367SOL     OW21736   3.153   4.025   6.804 -0.1841  0.3462  0.2379
 3367SOL    HW121737   3.112   3.939   6.793  2.3093 -0.7817 -0.4028
 3367SOL    HW221738   3.154   4.057   6.714 -3.4181  0.2438  0.1788
 3368SOL     OW21739   2.787   2.525   1.853 -0.0591  0.4928 -0.2746
 3368SOL    HW121740   2.861   2.521   1.914 -0.8357 -1.6048  0.5418
 3368SOL    HW221741   2.836   2.541   1.772  1.9991  0.7306  1.0025
 3369SOL     OW21742   4.425   4.690   1.941 -0.5119  0.1226 -0.5383
 3369SOL    HW121743   4.493   4.660   1.881  1.2371 -2.3453  2.6098
 3369SOL    HW221744   4.359   4.725   1.882 -0.1425  0.4112 -0.7781
 3370SOL     OW21745   1.913   0.226   3.865  0.3028  0.4947 -0.2420
 3370SOL    HW121746   1.838   0.169   3.879 -0.1553  1.5043  1.3917
 3370SOL    HW221747   1.989   0.169   3.876  0.4374  0.3479 -1.8554
 3371SOL     OW21748   4.352   2.142  17.303  0.4225 -1.0906 -0.4257
 3371SOL    HW121749   4.339   2.057  17.345 -1.5100 -0.7325 -0.3361
 3371SOL    HW221750   4.401   2.129  17.222 -0.2149  0.0190 -0.9888
 3372SOL     OW21751   4.070   3.268   5.211  0.9256 -0.2257  0.4981
 3372SOL    HW121752   4.095   3.296   5.123  0.3153  0.6498  0.6038
 3372SOL    HW221753   3.975   3.281   5.210  0.9575 -0.0305 -0.1077
 3373SOL     OW21754   3.506   3.550   9.141 -0.2004  0.0369 -0.1071
 3373SOL    HW121755   3.417   3.564   9.107 -0.3640 -1.2534 -0.2037
 3373SOL    HW221756   3.522   3.458   9.118 -3.0077 -0.4635 -0.1298
 3374SOL     OW21757   0.222   4.339   8.764 -0.3000  0.1618  0.3504
 3374SOL    HW121758   0.129   4.348   8.784 -0.4413  1.2871 -0.7839
 3374SOL    HW221759   0.245   4.282   8.838  2.3993 -1.0222 -1.4117
 3375SOL     OW21760   0.717   2.720   4.603  0.6692 -0.3914 -0.0962
 3375SOL    HW121761   0.705   2.792   4.665 -0.0953 -0.4445 -0.1745
 3375SOL    HW221762   0.640   2.664   4.619  0.3336 -0.2717 -1.2873
 3376SOL     OW21763   4.200   1.536   5.133 -0.0368  0.3586 -0.2628
 3376SOL    HW121764   4.141   1.610   5.149 -1.0986 -0.6002  0.2479
 3376SOL    HW221765   4.141   1.465   5.109 -0.4778  1.1098 -1.4051
 3377SOL     OW21766   0.096   2.962  11.307  0.3614  0.3988 -0.4904
 3377SOL    HW121767   0.074   3.028  11.373 -0.4106  1.6929 -2.0472
 3377SOL    HW221768   0.188   2.979  11.290  1.3212 -1.2126  3.1817
 3378SOL     OW21769   2.731   4.392   2.037  0.8347 -0.2763 -0.4194
 3378SOL    HW121770   2.798   4.453   2.007  0.6158 -0.5070 -1.3788
 3378SOL    HW221771   2.658   4.400   1.976 -2.5863  0.5742  3.7798
 3379SOL     OW21772   1.700   2.094   2.803 -0.3353 -0.1375  0.4194
 3379SOL    HW121773   1.774   2.118   2.747  0.3831  0.7871  1.7884
 3379SOL    HW221774   1.751   2.080   2.882  0.5197 -1.2255 -0.3295
 3380SOL     OW21775   4.469   0.080   8.233 -0.4092 -0.0571 -0.1778
 3380SOL    HW121776   4.527   0.143   8.276 -1.5696 -0.2703  1.7099
 3380SOL    HW221777   4.427   0.039   8.309 -1.7787 -0.6115 -1.2278
 3381SOL     OW21778   2.184   0.690   6.949  0.3795  0.2231  0.0456
 3381SOL    HW121779   2.130   0.616   6.922  0.0752  1.1780 -1.9439
 3381SOL    HW221780   2.118   0.759   6.949 -0.2526 -0.3885 -1.0812
 3382SOL     OW21781   1.845   2.669   0.040  0.4631 -0.0914 -0.1304
 3382SOL    HW121782   1.811   2.740   0.094  1.8716  0.1245  0.4645
 3382SOL    HW221783   1.860   2.721  17.711  1.2825  2.6727  1.8546
 3383SOL     OW21784   3.956   4.696   2.276 -0.1463  0.6047  0.7179
 3383SOL    HW121785   3.965   4.679   2.182  1.8106  1.6796  0.6905
 3383SOL    HW221786   3.979   0.051   2.284 -1.6956  1.1090 -0.7557
 3384SOL     OW21787   3.803   3.418  16.489 -0.1146  0.1082 -0.4468
 3384SOL    HW121788   3.776   3.326  16.490  1.2641 -0.2724  1.2251
 3384SOL    HW221789   3.714   3.455  16.490 -0.7221 -1.2619 -2.8938
 3385SOL     OW21790   2.453   3.124   0.275 -0.5117  0.6363 -0.0975
 3385SOL    HW121791   2.416   3.080   0.198  1.4982 -0.5613 -0.3756
 3385SOL    HW221792   2.504   3.051   0.311 -1.7582 -0.9362 -1.5036
 3386SOL     OW21793   1.490   4.024   8.958  0.1080  0.4349 -1.0683
 3386SOL    HW121794   1.559   3.959   8.954 -0.5122 -0.3686  1.3686
 3386SOL    HW221795   1.504   4.076   8.879  0.5270  1.1752 -0.5061
 3387SOL     OW21796   1.637   3.210   1.135  0.3545 -0.5271  0.5438
 3387SOL    HW121797   1.623   3.252   1.220 -0.4752 -0.6093  0.4452
 3387SOL    HW221798   1.632   3.118   1.161 -0.2697  0.0364  2.4474
 3388SOL     OW21799   4.051   3.785   8.634 -0.6397 -0.1230  0.2335
 3388SOL    HW121800   4.054   3.870   8.589 -1.3693  1.6142  3.4849
 3388SOL    HW221801   4.133   3.749   8.600  0.5720  1.1439  1.8241
 3389SOL     OW21802   4.607   2.553   0.071 -0.3132 -0.2853  0.7840
 3389SOL    HW121803   4.678   2.606   0.109 -0.1285  0.0489 -0.0356
 3389SOL    HW221804   4.658   2.473   0.055 -0.8563 -0.8679  1.9270
 3390SOL     OW21805   0.513   3.285   1.286 -0.7625 -0.5354  0.0854
 3390SOL    HW121806   0.482   3.243   1.206  0.3796 -3.7647  1.3609
 3390SOL    HW221807   0.430   3.305   1.331 -1.1572 -2.0123  0.0236
 3391SOL     OW21808   3.707   0.945   2.055  0.2284 -0.0969 -1.4538
 3391SOL    HW121809   3.665   1.026   2.084 -0.5219 -1.4997  1.3087
 3391SOL    HW221810   3.727   0.891   2.131  2.1082  1.1928 -1.0230
 3392SOL     OW21811   1.542   1.285  10.724 -0.0873 -0.1592 -0.0668
 3392SOL    HW121812   1.454   1.317  10.741 -0.1858  0.1644 -1.1870
 3392SOL    HW221813   1.565   1.349  10.656 -1.3526  1.2718  0.8609
 3393SOL     OW21814   1.857   1.058  12.983 -0.2711  0.1052 -0.5782
 3393SOL    HW121815   1.805   0.981  13.008  1.6324 -1.1791 -0.6002
 3393SOL    HW221816   1.786   1.121  12.966  0.2498  0.8730  0.0834
 3394SOL     OW21817   3.158   4.565  16.812  0.6538  0.1765 -0.3087
 3394SOL    HW121818   3.237   4.606  16.846  0.2745 -0.6090  1.5065
 3394SOL    HW221819   3.187   4.493  16.755  1.3496  0.5187 -0.3904
 3395SOL     OW21820   1.232   2.327   6.843 -0.1769 -0.0098 -0.1838
 3395SOL    HW121821   1.191   2.328   6.756 -1.6690 -1.2954  0.4976
 3395SOL    HW221822   1.187   2.398   6.890 -1.2583  0.5583 -2.0838
 3396SOL     OW21823   2.527   2.312   3.061 -0.0475  0.2239 -0.4208
 3396SOL    HW121824   2.457   2.320   3.125 -0.5534  2.6014 -1.2391
 3396SOL    HW221825   2.597   2.294   3.124  1.2283  1.9666 -1.3438
 3397SOL     OW21826   3.130   2.967   6.991  0.7997  0.1624 -0.2582
 3397SOL    HW121827   3.174   3.028   7.050 -0.7644 -1.6176  2.7623
 3397SOL    HW221828   3.204   2.934   6.941  0.7431 -3.6112  2.1201
 3398SOL     OW21829   1.271   3.207   3.732  0.5511  0.5371 -0.2386
 3398SOL    HW121830   1.339   3.140   3.732  0.6466  0.6400 -1.7908
 3398SOL    HW221831   1.292   3.256   3.812 -0.4855  0.1591  0.2812
 3399SOL     OW21832   3.453   3.514   2.933 -0.0834 -0.2958  0.3518
 3399SOL    HW121833   3.396   3.563   2.993 -1.3472 -0.4763 -0.7065
 3399SOL    HW221834   3.523   3.469   2.980  1.3048  1.4346 -0.0523
 3400SOL     OW21835   1.385   4.077   5.792 -0.4444  0.6212  0.0625
 3400SOL    HW121836   1.356   4.167   5.779 -0.5600  0.3039 -1.8439
 3400SOL    HW221837   1.312   4.037   5.745 -0.7553  1.1072  0.1372
 3401SOL     OW21838   0.575   1.754   4.755 -0.3537  0.0330  0.6681
 3401SOL    HW121839   0.665   1.745   4.723  0.0001  0.3392  1.5532
 3401SOL    HW221840   0.538   1.678   4.710  0.1318  1.1144 -1.5549
 3402SOL     OW21841   3.617   2.454   2.206 -0.2668 -0.0016  0.1833
 3402SOL    HW121842   3.612   2.387   2.138  1.9701 -0.5532  0.5795
 3402SOL    HW221843   3.566   2.517   2.154 -0.5613  0.2095  0.7347
 3403SOL     OW21844   1.055   0.512  13.125  0.8945  0.4211  0.3333
 3403SOL    HW121845   1.016   0.551  13.047  1.4073 -2.6330 -1.4654
 3403SOL    HW221846   1.144   0.501  13.093  0.3511  1.6230 -1.5510
 3404SOL     OW21847   2.094   0.176   2.191 -0.4955 -0.1099  0.1457
 3404SOL    HW121848   2.055   0.092   2.217 -2.1044  0.8749  0.9045
 3404SOL    HW221849   2.023   0.228   2.229  0.9024 -0.3756  3.0942
 3405SOL     OW21850   2.943   4.474   5.887 -0.0102 -0.3262  0.0450
 3405SOL    HW121851   2.954   4.379   5.883  2.5770 -0.0076 -0.2670
 3405SOL    HW221852   2.979   4.503   5.803  2.6373  0.1798  1.3796
 3406SOL     OW21853   0.774   0.845   2.352  0.3590 -0.2508  0.8641
 3406SOL    HW121854   0.765   0.755   2.319 -1.5517  0.3948 -0.3409
 3406SOL    HW221855   0.865   0.841   2.382  0.8676  0.8377 -0.5161
 3407SOL     OW21856   2.770   4.563   5.695  0.1644  0.1881  0.4239
 3407SOL    HW121857   2.687   4.611   5.689 -0.1155 -0.1599  1.3772
 3407SOL    HW221858   2.772   4.548   5.790  1.7660  0.3140  0.4053
 3408SOL     OW21859   3.248   1.484   9.440  0.3754  0.1789  0.0066
 3408SOL    HW121860   3.267   1.578   9.440  1.8252 -0.1150 -0.5202
 3408SOL    HW221861   3.169   1.489   9.386 -0.9900 -3.1533  1.6861
 3409SOL     OW21862   2.235   2.757   1.493  0.4979 -0.0056 -0.2861
 3409SOL    HW121863   2.238   2.840   1.541  0.2563  0.3228 -0.8489
 3409SOL    HW221864   2.195   2.702   1.561  2.6654 -0.3361  0.7327
 3410SOL     OW21865   0.524   1.891   3.666 -0.5724 -0.4033 -0.3225
 3410SOL    HW121866   0.438   1.928   3.649  0.1866  1.3191 -0.3911
 3410SOL    HW221867   0.514   1.796   3.656 -0.7043 -0.4255 -0.0020
 3411SOL     OW21868   2.266   2.927   7.001  0.7118 -0.1323  0.1879
 3411SOL    HW121869   2.331   2.857   6.995 -2.0552 -2.6129 -0.6927
 3411SOL    HW221870   2.217   2.907   7.081  0.5226 -1.6323 -0.3062
 3412SOL     OW21871   0.240   0.921  16.827  0.3127 -0.5842 -0.4690
 3412SOL    HW121872   0.271   1.011  16.819 -2.4780  0.2245 -1.8721
 3412SOL    HW221873   0.267   0.900  16.916 -1.2467  3.3763  0.9383
 3413SOL     OW21874   1.589   1.222   0.980  0.9042 -0.0714  0.1121
 3413SOL    HW121875   1.583   1.238   1.075  0.0718 -2.4941  0.4628
 3413SOL    HW221876   1.624   1.307   0.951 -0.4376  0.1175 -0.9297
 3414SOL     OW21877   4.542   0.302   4.428 -0.1214 -0.4415  0.4362
 3414SOL    HW121878   4.556   0.237   4.359 -1.6407  0.8250 -1.0786
 3414SOL    HW221879   4.619   0.318   4.483 -0.8629 -2.7565  2.1431
 3415SOL     OW21880   4.430   1.773   1.583 -0.0830  0.4418  0.5837
 3415SOL    HW121881   4.416   1.749   1.491  1.3192 -1.6455  0.9327
 3415SOL    HW221882   4.514   1.818   1.574 -0.4643  1.0467  0.0652
 3416SOL     OW21883   4.108   4.011   1.959  0.4794 -0.8967  0.1040
 3416SOL    HW121884   4.095   3.939   1.897 -0.5829 -0.6765  0.0669
 3416SOL    HW221885   4.093   3.962   2.040 -0.5229 -0.2038  0.3307
 3417SOL     OW21886   1.281   0.260   4.534 -0.4364  0.6748  0.7713
 3417SOL    HW121887   1.341   0.306   4.475  0.3022  0.0205  0.9986
 3417SOL    HW221888   1.232   0.200   4.479  1.9868  0.7963 -1.5201
 3418SOL     OW21889   4.213   2.737   1.499 -0.2273  0.0399 -0.0875
 3418SOL    HW121890   4.230   2.831   1.494  1.0013 -0.1437  0.8129
 3418SOL    HW221891   4.253   2.707   1.418  0.7958  0.7033  0.1629
 3419SOL     OW21892   0.961   1.757   2.600 -0.5340  0.3485 -0.4003
 3419SOL    HW121893   1.010   1.721   2.674 -1.4144  0.2870  0.1440
 3419SOL    HW221894   1.005   1.842   2.597 -0.6647  0.4296  0.1064
 3420SOL     OW21895   4.311   0.822   4.712 -0.0398 -0.3032 -0.4142
 3420SOL    HW121896   4.274   0.854   4.630 -0.7623 -1.1957 -0.4311
 3420SOL    HW221897   4.299   0.728   4.699 -1.2115 -0.3661  1.1880
 3421SOL     OW21898   1.809   1.010  10.439  0.5921  0.2564 -0.5954
 3421SOL    HW121899   1.831   0.964  10.520  2.0816  0.6663 -0.7599
 3421SOL    HW221900   1.894   1.021  10.396  0.9784  1.4725  0.4597
 3422SOL     OW21901   1.619   3.896  13.719  0.0188 -0.0361  0.2839
 3422SOL    HW121902   1.650   3.980  13.685 -2.1146  1.2723  1.5713
 3422SOL    HW221903   1.524   3.891  13.721 -0.0312  0.5348 -1.1520
 3423SOL     OW21904   0.879   3.553   8.568 -0.2764 -0.0081  0.2456
 3423SOL    HW121905   0.951   3.617   8.561 -0.5180 -0.1291 -3.3449
 3423SOL    HW221906   0.810   3.601   8.522 -2.8235 -1.5627  2.4569
 3424SOL     OW21907   2.568   4.016   5.923  0.1497 -0.4203 -0.2134
 3424SOL    HW121908   2.619   4.079   5.872  0.0801  0.5611  0.9375
 3424SOL    HW221909   2.603   4.044   6.008  2.4266  1.2979 -1.6976
 3425SOL     OW21910   3.962   1.373   3.802 -0.3728 -0.3502  0.1660
 3425SOL    HW121911   4.032   1.438   3.810 -2.3281  1.7368  0.3991
 3425SOL    HW221912   4.010   1.290   3.810 -0.7017 -0.5832 -0.3171
 3426SOL     OW21913   1.675   3.041   7.963  0.5757  0.0861 -0.1292
 3426SOL    HW121914   1.611   3.112   7.961  1.6701  0.9886 -3.3438
 3426SOL    HW221915   1.746   3.085   7.917 -1.0626  2.6352 -0.2078
 3427SOL     OW21916   1.058   3.860   9.269  0.3511 -0.0799 -0.0412
 3427SOL    HW121917   1.005   3.928   9.228 -0.7301  0.2170  1.8445
 3427SOL    HW221918   1.030   3.877   9.359  1.3550  0.5050  0.1548
 3428SOL     OW21919   3.186   0.302   3.660 -0.3467 -0.4129  0.1867
 3428SOL    HW121920   3.138   0.282   3.741 -1.8906  0.1758 -0.5794
 3428SOL    HW221921   3.258   0.357   3.692 -0.2554 -0.8808  0.7887
 3429SOL     OW21922   1.210   0.485  12.279 -0.0778 -0.3205  0.9424
 3429SOL    HW121923   1.139   0.511  12.338  0.0540  1.0669  0.5030
 3429SOL    HW221924   1.280   0.534  12.322 -0.1730  1.8877 -1.3818
 3430SOL     OW21925   2.292   0.361   6.637  0.4856 -0.5923 -0.2120
 3430SOL    HW121926   2.384   0.358   6.612  0.8456 -1.3092  1.2155
 3430SOL    HW221927   2.292   0.435   6.697 -0.4905 -0.4790 -0.3436
 3431SOL     OW21928   4.371   0.515  16.546 -0.4077 -0.9123 -0.0326
 3431SOL    HW121929   4.407   0.439  16.500  0.4446  0.4132 -1.5281
 3431SOL    HW221930   4.293   0.536  16.495 -0.5434  1.4251  1.1502
 3432SOL     OW21931   2.766   4.204   6.480 -0.0289 -0.4422 -0.2332
 3432SOL    HW121932   2.678   4.167   6.484 -0.2848  0.0898 -0.8459
 3432SOL    HW221933   2.772   4.251   6.397 -3.5912 -0.9922 -0.7853
 3433SOL     OW21934   0.174   3.160   6.539  0.4738 -0.1831  0.0364
 3433SOL    HW121935   0.173   3.140   6.446  1.7331 -3.7870  0.7802
 3433SOL    HW221936   0.198   3.252   6.525  0.2432 -0.0431  0.5538
 3434SOL     OW21937   2.992   3.669   5.698 -0.1883  0.0459  0.0538
 3434SOL    HW121938   2.919   3.609   5.684  1.2352 -1.5294 -0.6409
 3434SOL    HW221939   2.978   3.719   5.617  1.9222 -3.8258 -2.7093
 3435SOL     OW21940   3.162   1.248   3.869  0.6122 -0.3573 -0.5172
 3435SOL    HW121941   3.072   1.271   3.891  1.1444  0.2247  1.0671
 3435SOL    HW221942   3.156   1.160   3.833  1.0907  0.0170 -1.5022
 3436SOL     OW21943   4.574   1.454   8.143  0.4602  0.0671 -0.0272
 3436SOL    HW121944   4.582   1.544   8.112  1.0950 -0.5174 -1.5975
 3436SOL    HW221945   4.597   1.463   8.235 -1.8158 -3.0804  0.8226
 3437SOL     OW21946   2.790   2.603  14.098  0.0011  0.1957 -0.2643
 3437SOL    HW121947   2.751   2.689  14.108 -0.9801 -0.3596  0.7246
 3437SOL    HW221948   2.883   2.622  14.109 -0.4433  1.7722  0.8538
 3438SOL     OW21949   4.646   1.091   0.447 -1.0095 -0.3348  0.0787
 3438SOL    HW121950   4.705   1.017   0.456 -0.2016  0.2659 -0.2734
 3438SOL    HW221951   4.580   1.049   0.503 -0.7193 -0.4479  0.3364
 3439SOL     OW21952   1.955   0.022   1.351 -0.2011  0.0239  0.2588
 3439SOL    HW121953   1.886   0.044   1.413  1.2827  1.1582  1.5306
 3439SOL    HW221954   1.985   0.109   1.324  0.6116 -0.4223 -0.2791
 3440SOL     OW21955   3.684   2.909   9.029 -0.5781  0.2816  0.6961
 3440SOL    HW121956   3.775   2.934   9.016 -0.2646  0.0622  2.3816
 3440SOL    HW221957   3.659   2.961   9.106  1.5151  1.8203  0.3336
 3441SOL     OW21958   1.548   3.555   6.501 -0.0220  0.1701  0.2465
 3441SOL    HW121959   1.595   3.606   6.435 -1.4818  0.5289 -0.5345
 3441SOL    HW221960   1.619   3.500   6.535 -0.4641 -0.5146  0.0724
 3442SOL     OW21961   4.156   2.320   1.584 -0.1406  0.0938 -0.1405
 3442SOL    HW121962   4.227   2.269   1.621 -0.7364  0.1969  1.1194
 3442SOL    HW221963   4.081   2.269   1.613  0.7359 -0.9689  0.2263
 3443SOL     OW21964   3.313   1.350  13.550  0.5535 -0.1518  0.4175
 3443SOL    HW121965   3.285   1.439  13.526  0.0265 -0.3190  0.4092
 3443SOL    HW221966   3.400   1.341  13.512  0.3301  1.7690 -0.6009
 3444SOL     OW21967   3.002   3.248  11.590  0.5327 -0.6943 -0.0465
 3444SOL    HW121968   2.955   3.194  11.653 -0.5158  2.1972  1.6624
 3444SOL    HW221969   3.053   3.180  11.546 -0.1921 -1.8482  0.8862
 3445SOL     OW21970   0.296   3.293   5.462 -0.6311  0.1623  0.5350
 3445SOL    HW121971   0.271   3.234   5.534  0.0024 -0.6744  0.0765
 3445SOL    HW221972   0.392   3.287   5.464 -0.6120  0.0619 -0.6811
 3446SOL     OW21973   3.934   0.349  10.838  1.1653 -0.5175 -0.5755
 3446SOL    HW121974   3.946   0.335  10.744  1.4036  1.5850 -0.8561
 3446SOL    HW221975   3.913   0.442  10.843 -2.5398 -1.4854  2.3970
 3447SOL     OW21976   1.769   4.733   0.509 -0.6405  0.2779  0.4396
 3447SOL    HW121977   1.744   4.670   0.576  0.0509 -0.2782  0.1807
 3447SOL    HW221978   1.814   0.056   0.568  0.1663  0.9190 -0.8331
 3448SOL     OW21979   3.434   3.754   5.296  0.3351  0.5143  0.5107
 3448SOL    HW121980   3.397   3.735   5.382  1.7259 -0.6521  0.8584
 3448SOL    HW221981   3.490   3.828   5.320 -1.9654  2.5831 -0.6123
 3449SOL     OW21982   1.049   0.320   3.403 -0.4181 -0.2087  0.4593
 3449SOL    HW121983   1.058   0.414   3.391 -0.3086 -0.2278  0.3982
 3449SOL    HW221984   0.974   0.313   3.463  0.3330 -4.3166  0.9508
 3450SOL     OW21985   2.256   3.538   6.371 -0.1219 -0.0919 -0.1126
 3450SOL    HW121986   2.324   3.492   6.323 -1.6153 -2.0564 -0.3180
 3450SOL    HW221987   2.212   3.463   6.411 -1.5316  0.7824  0.0106
 3451SOL     OW21988   1.712   2.642  11.032 -0.5316  0.6666  0.0519
 3451SOL    HW121989   1.757   2.709  10.981  1.0900 -0.9986 -0.6938
 3451SOL    HW221990   1.699   2.584  10.956  2.7080 -0.3124  0.2651
 3452SOL     OW21991   4.092   4.246  17.705 -0.0476 -0.1279  0.4219
 3452SOL    HW121992   4.123   4.261   0.045 -2.6556 -0.6805  1.4130
 3452SOL    HW221993   4.140   4.312  17.655  0.2198 -1.3455 -0.9575
 3453SOL     OW21994   1.893   2.588   6.601 -0.8272  0.8500 -0.2747
 3453SOL    HW121995   1.832   2.528   6.557 -1.2562  1.0026  0.1202
 3453SOL    HW221996   1.922   2.645   6.530 -1.9291  1.3184 -0.3320
 3454SOL     OW21997   2.417   3.408   6.202  0.3470 -0.5690 -0.3777
 3454SOL    HW121998   2.393   3.376   6.115 -2.9925 -0.9752  0.6828
 3454SOL    HW221999   2.508   3.381   6.210  0.7570  0.4666 -1.5876
 3455SOL     OW22000   1.606   0.723  12.232  0.0262 -0.3373 -0.1098
 3455SOL    HW122001   1.573   0.642  12.271 -2.2271  0.8491  0.4136
 3455SOL    HW222002   1.695   0.691  12.215 -0.0298 -1.5408  1.8497
 3456SOL     OW22003   2.250   0.785  14.803 -0.3830  0.2359  0.2367
 3456SOL    HW122004   2.286   0.864  14.843 -1.2626  0.1483  1.1716
 3456SOL    HW222005   2.212   0.745  14.881 -2.0911 -0.5539 -0.9905
 3457SOL     OW22006   1.760   3.871  14.390  0.2247 -0.2900 -0.0795
 3457SOL    HW122007   1.771   3.791  14.338  1.1657 -0.6862  0.7279
 3457SOL    HW222008   1.665   3.873  14.399 -0.0921 -0.1302 -3.5422
 3458SOL     OW22009   0.341   3.812   8.466  0.1001 -0.3255  0.5151
 3458SOL    HW122010   0.422   3.863   8.477  0.1732  0.1046 -2.0864
 3458SOL    HW222011   0.384   3.727   8.475  1.1354 -0.0852 -2.0568
 3459SOL     OW22012   1.886   1.147  12.235  0.3729  0.4137  0.2000
 3459SOL    HW122013   1.837   1.070  12.263  2.6030 -1.5869 -1.4230
 3459SOL    HW222014   1.899   1.197  12.316 -0.8897  1.7340 -0.4137
 3460SOL     OW22015   3.937   4.522   6.374 -0.0270 -0.0495 -0.5738
 3460SOL    HW122016   4.027   4.492   6.375 -0.7770 -2.1724  1.9661
 3460SOL    HW222017   3.906   4.440   6.337 -1.4151 -1.2655  3.3261
 3461SOL     OW22018   2.749   2.813   7.938 -0.5131  0.5049  0.0080
 3461SOL    HW122019   2.720   2.725   7.915  0.8374 -0.0478  0.4417
 3461SOL    HW222020   2.667   2.850   7.972 -0.0519  0.6519  0.9468
 3462SOL     OW22021   3.203   3.933  12.476 -0.0874 -0.5918  0.2617
 3462SOL    HW122022   3.253   3.975  12.406 -0.5983  0.0533  0.2932
 3462SOL    HW222023   3.255   3.952  12.554 -1.1374 -0.1254  0.8539
 3463SOL     OW22024   3.583   0.078  17.339  0.0604  0.1704 -0.3642
 3463SOL    HW122025   3.641   0.152  17.356 -0.4926 -0.0920  2.7850
 3463SOL    HW222026   3.643   0.020  17.387  0.5657  0.9994  0.0030
 3464SOL     OW22027   1.636   1.051  10.786 -0.2884 -0.5406  0.2546
 3464SOL    HW122028   1.582   1.130  10.779 -0.1101 -0.3863  0.6200
 3464SOL    HW222029   1.692   1.072  10.711  0.1807  0.0028  0.7536
 3465SOL     OW22030   1.076   2.989   4.845  0.0515 -0.5498  0.5587
 3465SOL    HW122031   1.000   3.042   4.821  2.0703  2.2167  0.1717
 3465SOL    HW222032   1.123   2.996   4.762 -2.1337  0.4819 -0.5751
 3466SOL     OW22033   2.817   1.134   5.770 -0.4432 -0.1844 -0.0998
 3466SOL    HW122034   2.904   1.120   5.808  0.0620  1.4749 -0.6484
 3466SOL    HW222035   2.832   1.134   5.676  0.2717 -0.2434  0.0115
 3467SOL     OW22036   0.001   1.343   1.297 -0.1314  0.0787  0.6506
 3467SOL    HW122037   0.031   1.434   1.294  0.9307 -0.2875  0.1788
 3467SOL    HW222038   4.669   1.340   1.362  1.4316 -0.5742  2.2879
 3468SOL     OW22039   0.029   1.019   2.339 -0.2855 -0.8328 -0.4607
 3468SOL    HW122040   0.022   1.045   2.247  1.4077  1.2375 -0.0182
 3468SOL    HW222041   4.729   0.931   2.336 -1.1869 -0.4764  0.8411
 3469SOL     OW22042   1.671   3.429   6.222  0.0252 -0.0727  0.3934
 3469SOL    HW122043   1.731   3.487   6.268  1.2925 -1.1240  0.0635
 3469SOL    HW222044   1.648   3.475   6.142  1.4979 -0.2444 -0.1265
 3470SOL     OW22045   4.577   3.277   1.684  0.3981  0.1103 -0.2733
 3470SOL    HW122046   4.517   3.283   1.610  0.1438 -2.1675 -0.2503
 3470SOL    HW222047   4.577   3.371   1.706 -0.0854  0.1845 -0.5969
 3471SOL     OW22048   1.379   0.800   1.987 -0.0494 -0.3855  0.0852
 3471SOL    HW122049   1.410   0.867   1.926 -2.1458 -0.3603 -0.9312
 3471SOL    HW222050   1.294   0.784   1.946  1.4863 -0.9664 -2.8903
 3472SOL     OW22051   1.383   2.960   4.661  0.0869  0.0839 -0.3157
 3472SOL    HW122052   1.445   2.892   4.690 -0.2944 -1.1971 -2.4818
 3472SOL    HW222053   1.364   2.924   4.574  1.6790 -1.6092  0.0189
 3473SOL     OW22054   0.572   0.902   3.336 -0.3516 -0.2621 -0.2024
 3473SOL    HW122055   0.634   0.847   3.289  0.5428 -0.8606  1.6504
 3473SOL    HW222056   0.585   0.862   3.422 -0.2539  0.2201  0.0038
 3474SOL     OW22057   2.740   3.892   3.669  0.3102  0.2823  0.3610
 3474SOL    HW122058   2.801   3.818   3.677  2.2433  2.1573  3.1476
 3474SOL    HW222059   2.757   3.936   3.585  1.0624 -1.9448 -0.6491
 3475SOL     OW22060   2.150   0.460   4.156 -0.4697 -0.0120 -0.3685
 3475SOL    HW122061   2.063   0.419   4.149  0.2521 -1.7348  0.8435
 3475SOL    HW222062   2.183   0.414   4.233  0.0391  0.7854 -0.1101
 3476SOL     OW22063   2.094   3.230   8.397 -0.2405 -0.2026 -0.1463
 3476SOL    HW122064   2.171   3.263   8.351  0.3913 -3.9933 -1.8239
 3476SOL    HW222065   2.133   3.197   8.478  0.0831  1.0879  0.2312
 3477SOL     OW22066   1.181   0.404   9.253  0.1347  0.1110  0.2990
 3477SOL    HW122067   1.266   0.419   9.294  0.9457 -0.6261 -1.1230
 3477SOL    HW222068   1.146   0.493   9.251  2.8184  1.0913 -3.5151
 3478SOL     OW22069   2.299   3.973  14.869 -0.1076 -0.2628 -0.1872
 3478SOL    HW122070   2.238   3.964  14.795  0.9781  1.2769 -1.2728
 3478SOL    HW222071   2.274   4.050  14.919  1.4591 -1.0708  1.8159
 3479SOL     OW22072   4.052   0.954   5.680  0.2031 -0.4276 -0.3491
 3479SOL    HW122073   4.075   1.028   5.625 -0.1452  1.1875  1.6786
 3479SOL    HW222074   4.083   0.985   5.765  1.0896 -1.3982 -0.3202
 3480SOL     OW22075   1.498   1.727   6.701 -0.4250  0.1432 -0.2349
 3480SOL    HW122076   1.467   1.644   6.665  1.5686 -0.7703  0.1576
 3480SOL    HW222077   1.531   1.701   6.787  0.5509  2.5913  0.1355
 3481SOL     OW22078   0.631   4.224   7.308  0.2197  0.0548  0.2250
 3481SOL    HW122079   0.656   4.216   7.216 -0.7915 -0.2920 -0.0157
 3481SOL    HW222080   0.544   4.185   7.302 -0.9453  2.6028  0.4728
 3482SOL     OW22081   0.172   2.013  16.090 -0.2717 -0.3416  0.2149
 3482SOL    HW122082   0.107   2.065  16.043  0.1856 -2.0317 -2.3061
 3482SOL    HW222083   0.152   2.034  16.181 -0.2614  2.4955 -0.4670
 3483SOL     OW22084   3.933   3.398   0.257  0.4342 -0.4041  0.0548
 3483SOL    HW122085   4.022   3.366   0.242  0.7091  0.9677 -1.3460
 3483SOL    HW222086   3.936   3.428   0.348  1.8390  1.7106 -0.6801
 3484SOL     OW22087   1.650   1.935   2.105  0.1807 -0.4083  0.0332
 3484SOL    HW122088   1.744   1.920   2.106  0.2189 -0.2876 -0.9083
 3484SOL    HW222089   1.624   1.847   2.076 -1.3283  0.1294 -0.2713
 3485SOL     OW22090   0.574   2.638   0.959  0.0677 -0.5282  0.7061
 3485SOL    HW122091   0.625   2.620   0.880 -1.3525 -0.4926 -0.2205
 3485SOL    HW222092   0.588   2.561   1.014 -0.7366  0.1122  1.8216
 3486SOL     OW22093   2.223   0.645  12.296  0.0191 -0.4669  0.2907
 3486SOL    HW122094   2.165   0.716  12.270  0.6440 -0.8284 -2.1185
 3486SOL    HW222095   2.293   0.662  12.233 -1.3666  0.6817 -0.9410
 3487SOL     OW22096   1.248   1.360   3.030  0.4201  0.6253  0.1664
 3487SOL    HW122097   1.153   1.360   3.014  0.8340 -2.1843 -2.4482
 3487SOL    HW222098   1.282   1.402   2.951 -0.5122  1.2818  0.1179
 3488SOL     OW22099   2.979   0.510   6.686  0.2340  0.0878  0.4519
 3488SOL    HW122100   2.893   0.468   6.683  0.6502 -0.8367  1.6827
 3488SOL    HW222101   3.029   0.429   6.676 -0.9867 -0.3727 -1.7776
 3489SOL     OW22102   1.381   2.337   8.891 -0.1143  0.2961 -0.2620
 3489SOL    HW122103   1.365   2.431   8.892  1.6985  0.6255 -1.0944
 3489SOL    HW222104   1.476   2.328   8.879 -0.2896 -0.0160 -1.4450
 3490SOL     OW22105   4.596   4.190   4.682  0.8104 -0.2222  0.3750
 3490SOL    HW122106   4.580   4.263   4.742 -0.4423 -0.7131  0.6430
 3490SOL    HW222107   4.529   4.208   4.616  0.6421  0.7059  0.8056
 3491SOL     OW22108   3.030   0.881   6.864 -0.1602  0.0421 -0.0456
 3491SOL    HW122109   3.068   0.806   6.908 -0.6721 -0.1932  0.0019
 3491SOL    HW222110   3.051   0.845   6.778  0.8204  2.4727 -0.8186
 3492SOL     OW22111   0.942   1.747   5.208 -0.2370  0.1573  0.1106
 3492SOL    HW122112   0.905   1.827   5.172 -0.2712  0.2687  0.3954
 3492SOL    HW222113   0.866   1.690   5.194  0.6717 -0.7259 -1.2484
 3493SOL     OW22114   2.191   3.545  13.343  0.2392  0.3866 -0.3004
 3493SOL    HW122115   2.109   3.536  13.391 -0.5941  3.2252 -1.1818
 3493SOL    HW222116   2.189   3.470  13.284  2.2562 -1.4775  1.9876
 3494SOL     OW22117   0.390   3.677   4.493 -0.2985  0.5472  0.6858
 3494SOL    HW122118   0.336   3.756   4.493 -2.2731 -0.7907  0.3376
 3494SOL    HW222119   0.329   3.607   4.515 -1.0642  0.4446 -1.8049
 3495SOL     OW22120   3.510   2.595   6.935 -0.1870 -0.5673  0.3972
 3495SOL    HW122121   3.546   2.591   6.847  0.9857  2.8991  0.7239
 3495SOL    HW222122   3.484   2.504   6.950  1.9867 -1.3187 -0.3552
 3496SOL     OW22123   1.377   4.470   5.749 -0.2093  0.0034 -0.2241
 3496SOL    HW122124   1.294   4.437   5.785  0.5471 -1.3607  0.2967
 3496SOL    HW222125   1.376   4.556   5.790 -1.5221 -0.9904  1.8096
 3497SOL     OW22126   4.525   1.684   2.583  0.3759 -0.1302  0.4941
 3497SOL    HW122127   4.450   1.638   2.546  1.9904 -2.3937  0.0773
 3497SOL    HW222128   4.550   1.751   2.518  1.9719 -1.4428 -0.2381
 3498SOL     OW22129   2.821   0.335   5.111 -0.4006  0.2050 -0.0437
 3498SOL    HW122130   2.838   0.429   5.111 -2.0723  0.4975 -2.1445
 3498SOL    HW222131   2.729   0.333   5.088 -0.0428  0.8272 -1.4992
 3499SOL     OW22132   4.720   1.279  12.549  0.1537 -0.6113  0.7363
 3499SOL    HW122133   0.042   1.204  12.555  0.5512 -0.2239  1.5958
 3499SOL    HW222134   0.044   1.351  12.550  0.3826 -0.7986  0.1367
 3500SOL     OW22135   1.973   0.571   2.611  0.6648  0.8207 -0.5056
 3500SOL    HW122136   2.062   0.587   2.580  0.9343  1.8266  0.7717
 3500SOL    HW222137   1.990   0.595   2.702  0.4496 -1.2489  0.0663
 3501SOL     OW22138   2.031   3.287   2.957 -0.3883  0.7234  0.4984
 3501SOL    HW122139   2.020   3.192   2.948  3.3580  0.3321  0.1494
 3501SOL    HW222140   2.087   3.284   3.034 -0.2697  0.4879  0.4039
 3502SOL     OW22141   2.837   2.878   9.368 -0.3385  0.3724  0.2557
 3502SOL    HW122142   2.781   2.810   9.405  1.1281  0.0156  1.8492
 3502SOL    HW222143   2.768   2.931   9.329 -1.0387 -0.7945 -0.1084
 3503SOL     OW22144   1.090   0.156  17.674 -0.2513  0.4641  0.1975
 3503SOL    HW122145   1.045   0.233  17.639 -0.9273  0.2559  0.6174
 3503SOL    HW222146   1.162   0.204  17.715 -2.2217  1.9079  1.9506
 3504SOL     OW22147   0.419   0.563   5.846  0.2069 -0.7288 -0.1094
 3504SOL    HW122148   0.514   0.567   5.838  0.3136  0.8789  1.8421
 3504SOL    HW222149   0.393   0.645   5.889  1.1510 -1.1259  1.2012
 3505SOL     OW22150   1.926   3.572   8.011 -0.0157  0.4261  0.1992
 3505SOL    HW122151   1.961   3.578   8.100 -0.2780 -0.2376  0.3444
 3505SOL    HW222152   2.007   3.603   7.970  0.3161 -1.1852 -0.3624
 3506SOL     OW22153   2.224   1.489  13.457  0.6775 -0.5470  0.0454
 3506SOL    HW122154   2.288   1.467  13.524 -0.8125 -0.5495  1.4710
 3506SOL    HW222155   2.170   1.542  13.516 -0.2959  1.0912 -2.3371
 3507SOL     OW22156   0.681   2.191   6.242 -0.0694 -0.4375  0.2639
 3507SOL    HW122157   0.703   2.107   6.283 -0.9187 -0.7561  0.0731
 3507SOL    HW222158   0.684   2.174   6.148  0.0369  0.2618  0.1449
 3508SOL     OW22159   3.332   4.618   2.933  0.2478 -0.1338 -0.0315
 3508SOL    HW122160   3.239   4.597   2.939  0.2736 -0.3941 -0.5541
 3508SOL    HW222161   3.329   4.714   2.934  1.8392 -0.0498 -1.9722
 3509SOL     OW22162   0.187   0.762   7.168 -0.4884 -0.0167 -0.5770
 3509SOL    HW122163   0.110   0.802   7.208 -1.1148 -1.3276 -0.4622
 3509SOL    HW222164   0.248   0.835   7.166 -0.6857  0.1532 -0.3610
 3510SOL     OW22165   4.650   3.573   8.266  0.3066  0.4173  0.9090
 3510SOL    HW122166   4.668   3.660   8.302 -1.5692  1.2165 -0.0509
 3510SOL    HW222167   4.605   3.610   8.190  2.0825  2.2358  0.7288
 3511SOL     OW22168   4.155   1.691   1.261  0.0930  0.4945  0.1148
 3511SOL    HW122169   4.190   1.753   1.198  0.1607 -1.1459 -1.4743
 3511SOL    HW222170   4.128   1.619   1.203 -0.6144 -0.1919  1.2921
 3512SOL     OW22171   1.291   1.729   7.189 -0.1212  0.1026  0.1837
 3512SOL    HW122172   1.370   1.777   7.216 -0.3587  0.8167 -0.3886
 3512SOL    HW222173   1.254   1.693   7.269 -0.3215 -0.2290 -0.0580
 3513SOL     OW22174   3.264   2.768   6.500 -0.1942  0.0826  0.4516
 3513SOL    HW122175   3.233   2.684   6.466 -0.3603  0.1238  0.4985
 3513SOL    HW222176   3.220   2.765   6.585 -2.3210 -4.2289 -0.7573
 3514SOL     OW22177   3.982   3.479   3.863  0.1132 -0.5072 -0.7129
 3514SOL    HW122178   3.947   3.547   3.920  0.4998 -0.6271 -0.3199
 3514SOL    HW222179   4.018   3.529   3.790  0.2972 -1.7977 -1.5184
 3515SOL     OW22180   0.464   3.125  10.135  0.0123 -0.0762  0.0482
 3515SOL    HW122181   0.445   3.171  10.053  1.0497  2.0863  1.0293
 3515SOL    HW222182   0.402   3.053  10.122 -1.0421  1.1419 -1.7447
 3516SOL     OW22183   3.833   4.657  16.183  0.4965 -0.1056  0.2771
 3516SOL    HW122184   3.748   4.701  16.189 -0.5351 -1.9741 -0.4365
 3516SOL    HW222185   3.840   4.630  16.274 -1.9075 -3.0989 -0.3872
 3517SOL     OW22186   0.569   4.505   0.792 -0.3857  0.3177 -0.1547
 3517SOL    HW122187   0.553   4.573   0.858  0.6549 -0.5908  1.0504
 3517SOL    HW222188   0.638   4.544   0.738 -0.2393  2.1230  1.3167
 3518SOL     OW22189   4.273   3.919   7.203  0.2356 -0.8078 -0.2662
 3518SOL    HW122190   4.324   3.969   7.139  0.9779 -1.8200 -0.4520
 3518SOL    HW222191   4.288   3.829   7.174 -2.9218 -2.0489  1.9522
 3519SOL     OW22192   0.650   0.270   8.879 -0.2309  0.7811  0.0931
 3519SOL    HW122193   0.582   0.243   8.940  0.9177  0.7132  1.3610
 3519SOL    HW222194   0.724   0.223   8.919 -0.8921 -0.3627 -0.0242
 3520SOL     OW22195   0.554   3.739   1.630  0.6142  0.3114  0.2444
 3520SOL    HW122196   0.607   3.791   1.570  1.8642 -0.9017  0.3083
 3520SOL    HW222197   0.606   3.725   1.709  0.8702 -1.4654 -0.2384
 3521SOL     OW22198   4.136   0.843   2.419  0.1656  0.3607 -0.3706
 3521SOL    HW122199   4.099   0.908   2.478 -0.4810  1.3697 -1.8897
 3521SOL    HW222200   4.099   0.870   2.335 -0.6884  0.3551 -0.0012
 3522SOL     OW22201   0.684   0.898   5.786  0.2223 -0.0673 -0.7211
 3522SOL    HW122202   0.629   0.955   5.840 -3.4551 -2.1862 -2.3106
 3522SOL    HW222203   0.630   0.855   5.721  0.4209 -2.6427  0.8176
 3523SOL     OW22204   0.870   1.045   8.827  0.1360  0.3645 -0.1230
 3523SOL    HW122205   0.785   1.083   8.802 -0.0283 -1.1496 -1.8558
 3523SOL    HW222206   0.932   1.108   8.790  0.2469 -0.9979 -2.2479
 3524SOL     OW22207   1.786   1.586   5.466 -0.7096  0.2016  0.2250
 3524SOL    HW122208   1.805   1.534   5.387  2.0197  3.4393 -1.2268
 3524SOL    HW222209   1.756   1.514   5.521  0.3220 -0.4899 -0.1136
 3525SOL     OW22210   4.705   1.166  11.031  0.0305  0.5388 -0.5918
 3525SOL    HW122211   0.033   1.182  11.099  1.2281  3.2055 -2.3970
 3525SOL    HW222212   4.723   1.239  10.973  2.6746 -0.2481 -0.7509
 3526SOL     OW22213   4.738   3.272   4.998 -0.3429 -0.4094 -0.0142
 3526SOL    HW122214   0.012   3.323   4.918  0.0898 -0.6711 -0.1126
 3526SOL    HW222215   4.710   3.341   5.059  1.1825 -0.1402  0.3719
 3527SOL     OW22216   4.036   3.180  12.847  0.4277 -0.0114 -0.6160
 3527SOL    HW122217   4.074   3.204  12.932  0.5119 -0.5713 -0.4977
 3527SOL    HW222218   3.969   3.249  12.848 -0.8140 -1.1887 -2.3517
 3528SOL     OW22219   0.146   0.297   4.502 -0.2314 -0.6009  0.2963
 3528SOL    HW122220   0.102   0.348   4.570  0.3668  3.0498 -2.0495
 3528SOL    HW222221   0.098   0.217   4.482 -0.7266 -0.2244 -0.0252
 3529SOL     OW22222   1.445   2.559   5.880  0.1280  0.2754  0.5353
 3529SOL    HW122223   1.465   2.652   5.886 -1.3740  0.6242  0.2473
 3529SOL    HW222224   1.468   2.536   5.790  1.4251 -2.1953  1.4879
 3530SOL     OW22225   0.081   2.002  15.500  0.6914  0.0808  0.2292
 3530SOL    HW122226   4.726   2.024  15.506  1.0926  1.4809  1.3578
 3530SOL    HW222227   0.125   2.085  15.516  2.1163 -0.7089  0.4272
 3531SOL     OW22228   4.565   2.009   3.782 -0.2315  0.3083 -0.4182
 3531SOL    HW122229   4.648   1.965   3.762  1.6867  2.7401  2.3534
 3531SOL    HW222230   4.591   2.073   3.848  2.9873  0.5919 -1.9580
 3532SOL     OW22231   2.875   4.554   3.676 -0.2413 -0.1791  0.0939
 3532SOL    HW122232   2.784   4.529   3.696 -1.3013  1.9380 -1.9910
 3532SOL    HW222233   2.919   4.470   3.691  0.4188 -0.3776 -2.8712
 3533SOL     OW22234   2.397   0.673   3.468  0.3755 -0.6130 -0.3880
 3533SOL    HW122235   2.419   0.765   3.452 -1.3715  0.1011  1.3761
 3533SOL    HW222236   2.386   0.678   3.563 -1.2697 -1.5312 -0.5346
 3534SOL     OW22237   2.602   3.747   2.608  0.5061  0.1483 -0.2092
 3534SOL    HW122238   2.652   3.766   2.528 -2.7788 -2.0710 -2.7955
 3534SOL    HW222239   2.561   3.663   2.589  3.0761 -1.0517 -0.5620
 3535SOL     OW22240   1.301   4.112   6.616  0.4351  0.4431  0.2080
 3535SOL    HW122241   1.376   4.055   6.600 -0.9012 -1.1232 -0.4509
 3535SOL    HW222242   1.305   4.114   6.712  0.3236 -0.7155  0.2373
 3536SOL     OW22243   0.704   3.809   7.258  0.0862  0.2382 -0.0127
 3536SOL    HW122244   0.641   3.850   7.318  2.4897  2.4264  1.0037
 3536SOL    HW222245   0.778   3.790   7.316  1.1478 -0.1494 -1.4915
 3537SOL     OW22246   4.678   2.438   4.996 -0.0974 -0.4166  0.7219
 3537SOL    HW122247   0.008   2.404   5.055  0.0373 -1.5464 -0.0899
 3537SOL    HW222248   4.610   2.374   5.013 -1.0113  0.5425  0.7165
 3538SOL     OW22249   1.915   2.062   4.668 -0.1241 -0.1487  0.1314
 3538SOL    HW122250   1.908   2.117   4.746 -2.0029  2.0108 -1.5441
 3538SOL    HW222251   1.871   2.111   4.599 -1.5434 -1.0437  0.4106
 3539SOL     OW22252   0.820   1.947   5.555  0.7102 -0.3255  0.0227
 3539SOL    HW122253   0.814   1.855   5.528  0.4853 -0.8200  1.7527
 3539SOL    HW222254   0.908   1.951   5.592 -1.1018  2.0250  4.0901
 3540SOL     OW22255   4.434   1.915   7.845  0.4495  0.2059  0.1161
 3540SOL    HW122256   4.370   1.846   7.862  0.9700 -0.7245 -1.7412
 3540SOL    HW222257   4.381   1.980   7.799  0.9765  0.6625  0.1555
 3541SOL     OW22258   1.938   0.113  12.072 -0.3074  0.1216  0.3404
 3541SOL    HW122259   1.943   0.208  12.079 -2.4359  0.2837 -0.3065
 3541SOL    HW222260   1.871   0.104  12.005 -0.4035  1.8003  0.2060
 3542SOL     OW22261   4.150   2.079   8.314  0.1585 -0.2692 -0.2047
 3542SOL    HW122262   4.198   1.996   8.317 -0.3494 -0.5807 -0.7405
 3542SOL    HW222263   4.150   2.094   8.408  1.2653  1.5800 -0.4969
 3543SOL     OW22264   2.991   4.411   9.896 -0.7619 -0.3293 -0.2000
 3543SOL    HW122265   2.909   4.363   9.895 -0.0032 -1.6174  0.0741
 3543SOL    HW222266   3.016   4.405   9.804 -2.1455  1.4062 -0.6915
 3544SOL     OW22267   4.543   3.620   8.015  0.2613 -0.3474  0.1872
 3544SOL    HW122268   4.485   3.556   8.056 -1.9355  1.0370 -0.7565
 3544SOL    HW222269   4.505   3.637   7.929  1.8093  0.2016 -0.3964
 3545SOL     OW22270   1.240   2.681   3.092 -0.2283 -0.0967  0.3753
 3545SOL    HW122271   1.291   2.759   3.071  1.4719 -0.4947  3.0543
 3545SOL    HW222272   1.304   2.618   3.122  1.0660  0.1859 -1.7930
 3546SOL     OW22273   3.615   0.335   1.111 -0.0590 -0.3188  0.0732
 3546SOL    HW122274   3.646   0.411   1.160 -3.2607  1.9845 -1.5022
 3546SOL    HW222275   3.520   0.347   1.109 -0.0787 -0.2006  1.3540
 3547SOL     OW22276   1.739   2.112   3.702 -0.3752 -0.2095  0.5385
 3547SOL    HW122277   1.730   2.155   3.616  1.0537 -0.4492  0.2817
 3547SOL    HW222278   1.726   2.024   3.667  1.4501 -0.2381 -0.0525
 3548SOL     OW22279   3.175   3.592   5.873 -0.3164  0.5687 -0.0766
 3548SOL    HW122280   3.104   3.548   5.919  1.6956 -2.4823  0.0882
 3548SOL    HW222281   3.135   3.617   5.789  0.2711  0.0159 -0.5172
 3549SOL     OW22282   0.973   3.804   3.210  0.5736  0.2667 -0.1489
 3549SOL    HW122283   0.971   3.805   3.306  0.0981 -1.9146 -0.1412
 3549SOL    HW222284   0.902   3.862   3.183 -0.8417 -0.6282  1.6725
 3550SOL     OW22285   1.805   2.670  10.729 -0.0871  0.7218 -0.1359
 3550SOL    HW122286   1.860   2.595  10.751 -0.8384 -0.1780 -1.3329
 3550SOL    HW222287   1.768   2.636  10.648 -0.8604  1.6706 -0.1805
 3551SOL     OW22288   1.385   3.986   4.537  0.5255 -0.4937  0.2296
 3551SOL    HW122289   1.356   4.034   4.615  0.2491  0.1058 -0.2456
 3551SOL    HW222290   1.476   4.015   4.533  0.2497  0.2719 -0.4918
 3552SOL     OW22291   3.661   2.059   2.167 -1.0386  0.1361  0.1108
 3552SOL    HW122292   3.740   2.102   2.200 -1.9883  1.2894  0.8829
 3552SOL    HW222293   3.645   2.101   2.083  1.2728 -0.6826 -0.7353
 3553SOL     OW22294   3.782   2.768   5.589  0.8420  0.6790  0.7601
 3553SOL    HW122295   3.709   2.734   5.538  1.3887  0.3735  0.1904
 3553SOL    HW222296   3.838   2.690   5.589  1.8613  1.4149  0.1842
 3554SOL     OW22297   2.062   2.758  14.644  0.2797  0.2256 -0.4889
 3554SOL    HW122298   2.102   2.779  14.559 -0.1618 -1.0292 -1.0186
 3554SOL    HW222299   2.031   2.670  14.623 -0.6332  0.1827  1.0590
 3555SOL     OW22300   1.491   1.902   9.056  0.5967  0.0827  0.0585
 3555SOL    HW122301   1.432   1.947   8.996  0.9272  0.7922  0.2649
 3555SOL    HW222302   1.450   1.925   9.139  0.4711 -1.9705  0.5729
 3556SOL     OW22303   2.613   1.730   4.990 -0.1946  0.4681 -0.2851
 3556SOL    HW122304   2.579   1.645   4.961 -0.0131  0.4711 -0.5142
 3556SOL    HW222305   2.537   1.787   4.976 -1.4339 -0.9027  0.9184
 3557SOL     OW22306   1.288   3.013   5.630  0.8672  0.1705 -0.0773
 3557SOL    HW122307   1.222   3.056   5.576 -0.1908 -1.4089 -0.0348
 3557SOL    HW222308   1.349   3.084   5.649  1.8407 -0.9788  1.1125
 3558SOL     OW22309   2.141   1.458   9.015  0.1258 -0.1930  0.2134
 3558SOL    HW122310   2.230   1.423   9.006 -0.3622 -1.6799  1.1576
 3558SOL    HW222311   2.163   1.542   8.976  0.2694  0.0416  0.7968
 3559SOL     OW22312   0.241   3.723   5.908  0.4533  0.1783  0.3988
 3559SOL    HW122313   0.241   3.656   5.977 -2.7960  2.2855  2.4783
 3559SOL    HW222314   0.234   3.665   5.833  0.7564  0.7837 -0.0942
 3560SOL     OW22315   1.838   3.131  14.732  0.2408 -0.5797  0.0819
 3560SOL    HW122316   1.804   3.220  14.728 -0.6714 -1.1458 -4.1721
 3560SOL    HW222317   1.761   3.076  14.723  2.1735 -3.0172 -1.5653
 3561SOL     OW22318   4.433   2.807   7.841 -0.0773  0.5730 -0.5132
 3561SOL    HW122319   4.460   2.740   7.779  0.1567 -2.0329  2.3769
 3561SOL    HW222320   4.508   2.866   7.836  1.3775 -1.0440  2.0384
 3562SOL     OW22321   0.008   0.757  12.913 -0.1720 -0.3159 -0.0602
 3562SOL    HW122322   4.704   0.831  12.868 -1.3521 -1.9292 -1.6038
 3562SOL    HW222323   0.033   0.799  12.995  0.1794 -2.1706  0.7876
 3563SOL     OW22324   2.646   4.696   5.198  0.7219 -0.4186  0.7092
 3563SOL    HW122325   2.726   0.008   5.211 -0.2771  1.3701  0.0098
 3563SOL    HW222326   2.578   0.004   5.249  0.5445 -2.0816  1.9712
 3564SOL     OW22327   2.846   2.609   9.726 -0.2559 -0.2641  0.0586
 3564SOL    HW122328   2.828   2.695   9.762  1.3372 -0.5895  1.6701
 3564SOL    HW222329   2.788   2.622   9.651  1.1085  1.7032 -0.6537
 3565SOL     OW22330   4.175   2.548  16.433  0.5543 -0.3182  0.2702
 3565SOL    HW122331   4.264   2.515  16.427  0.7898  0.3399  0.1931
 3565SOL    HW222332   4.194   2.618  16.496 -1.2246  0.2590  0.1860
 3566SOL     OW22333   0.650   0.983   6.476 -0.5633  0.1164  0.0255
 3566SOL    HW122334   0.603   1.067   6.478 -0.7275 -0.0099  1.3210
 3566SOL    HW222335   0.596   0.937   6.540  0.9345 -2.8314 -0.8363
 3567SOL     OW22336   0.095   3.845  10.704 -0.0753 -0.2757  0.3198
 3567SOL    HW122337   0.187   3.819  10.704  0.1548  0.5502 -0.8677
 3567SOL    HW222338   0.054   3.769  10.661 -2.1825  1.3931 -0.6522
 3568SOL     OW22339   1.356   3.675   2.307  0.0814 -0.2877  0.3146
 3568SOL    HW122340   1.358   3.584   2.337 -6.4040 -0.6514 -0.3614
 3568SOL    HW222341   1.262   3.674   2.287 -0.1840 -3.3534  1.7401
 3569SOL     OW22342   1.800   4.243   4.835 -0.6077  0.5629  0.0244
 3569SOL    HW122343   1.789   4.202   4.921  1.3896  0.9551  0.4829
 3569SOL    HW222344   1.781   4.170   4.777 -0.6883  0.6484 -0.0579
 3570SOL     OW22345   4.043   3.342  17.083 -0.4049 -0.6076  0.5768
 3570SOL    HW122346   4.123   3.392  17.065 -1.4805  1.2153  0.8917
 3570SOL    HW222347   4.051   3.307  17.171  0.1688 -0.9541  0.3858
 3571SOL     OW22348   0.081   3.579   3.547 -0.4506 -0.0717  0.0566
 3571SOL    HW122349   0.062   3.488   3.569  0.0804 -0.0561  0.5824
 3571SOL    HW222350   0.042   3.582   3.460  0.5806  1.2261 -0.3631
 3572SOL     OW22351   0.944   1.726   7.686 -0.6569  0.1043  0.5463
 3572SOL    HW122352   1.036   1.746   7.707 -0.8732  2.5277 -0.7645
 3572SOL    HW222353   0.900   1.776   7.755  1.9470  1.0500  1.5439
 3573SOL     OW22354   4.138   4.272   3.912  0.3011  0.0514 -0.0911
 3573SOL    HW122355   4.170   4.330   3.981 -0.7751  0.3083  0.1910
 3573SOL    HW222356   4.162   4.331   3.841  2.0008 -0.6874 -0.1358
 3574SOL     OW22357   0.369   1.872   3.012  0.0252 -0.4604 -0.2041
 3574SOL    HW122358   0.422   1.919   3.076 -1.0778  2.3882 -1.4094
 3574SOL    HW222359   0.299   1.843   3.071 -0.0410  1.6086  0.7339
 3575SOL     OW22360   1.284   4.642  15.921  0.5901  0.0898  0.0265
 3575SOL    HW122361   1.349   4.639  15.850  0.2943 -0.9068 -0.2039
 3575SOL    HW222362   1.306   4.731  15.948  2.4751  0.1312 -1.6309
 3576SOL     OW22363   2.088   4.185   9.734 -0.1671 -0.0690 -0.3886
 3576SOL    HW122364   2.047   4.099   9.741  0.5204 -0.2882  0.9319
 3576SOL    HW222365   2.080   4.197   9.639  2.1225 -0.4237 -0.6265
 3577SOL     OW22366   4.061   3.316   7.578 -0.3364  0.0870  0.1460
 3577SOL    HW122367   4.074   3.282   7.489  1.5395  0.5984  0.2270
 3577SOL    HW222368   4.151   3.314   7.612 -0.6803  1.2008  1.0989
 3578SOL     OW22369   0.249   4.474   9.804 -0.3810 -0.5212  0.2440
 3578SOL    HW122370   0.338   4.453   9.832  0.1877  1.3796 -0.1424
 3578SOL    HW222371   0.203   4.504   9.882  0.2691  2.6985 -0.5911
 3579SOL     OW22372   1.647   1.305  10.987 -0.2778  0.1207 -0.3008
 3579SOL    HW122373   1.682   1.275  10.903 -1.6569 -0.6184 -0.6117
 3579SOL    HW222374   1.556   1.276  10.991 -0.3948  0.6401  0.7908
 3580SOL     OW22375   2.953   0.675   6.122 -0.2840 -0.6702  0.5194
 3580SOL    HW122376   3.029   0.710   6.169 -0.3124  0.2517 -0.1185
 3580SOL    HW222377   2.919   0.755   6.082 -0.4255 -0.4760  1.0288
 3581SOL     OW22378   3.176   0.518   9.522  0.2415  0.4086 -0.0727
 3581SOL    HW122379   3.153   0.607   9.495  2.4077  1.0047  0.0825
 3581SOL    HW222380   3.129   0.508   9.605 -0.3746  0.3815 -0.4226
 3582SOL     OW22381   4.341   0.508   5.446  0.3735  0.3756  0.3500
 3582SOL    HW122382   4.292   0.431   5.419 -1.3466  0.4368  3.3460
 3582SOL    HW222383   4.322   0.573   5.380 -3.5847 -0.1486  0.9890
 3583SOL     OW22384   1.603   2.476   5.378  0.2272  0.0309  0.4053
 3583SOL    HW122385   1.682   2.427   5.358  0.7578  1.3227 -0.6864
 3583SOL    HW222386   1.538   2.451   5.313 -0.1348 -4.0437  2.3340
 3584SOL     OW22387   2.270   1.344   5.575 -0.2485  0.4086  0.2836
 3584SOL    HW122388   2.185   1.308   5.549 -0.3202 -0.8647  2.2654
 3584SOL    HW222389   2.258   1.328   5.668  1.9372 -2.7016  0.0239
 3585SOL     OW22390   0.931   0.250   7.465 -0.2004 -0.1341  0.0359
 3585SOL    HW122391   0.918   0.289   7.552 -0.7320 -0.4973  0.1219
 3585SOL    HW222392   0.979   0.169   7.484 -0.0763 -0.5588 -2.1757
 3586SOL     OW22393   2.521   2.697   4.607 -0.2535 -0.2546 -0.0691
 3586SOL    HW122394   2.575   2.726   4.534  0.2686  1.1850  0.8902
 3586SOL    HW222395   2.449   2.655   4.559  0.1846 -0.1677 -0.7996
 3587SOL     OW22396   0.870   1.664  13.426 -0.3873  0.0374  0.0071
 3587SOL    HW122397   0.896   1.745  13.469 -0.4027 -1.5298  2.9324
 3587SOL    HW222398   0.931   1.602  13.464  1.4712  2.6988  1.3879
 3588SOL     OW22399   3.758   1.835   1.830 -0.0406 -0.0639  0.1013
 3588SOL    HW122400   3.840   1.837   1.781  0.8053 -2.4363  1.4099
 3588SOL    HW222401   3.690   1.809   1.768 -0.3624  1.3739 -0.1503
 3589SOL     OW22402   4.028   2.974   4.559  0.2603  0.4314 -0.8115
 3589SOL    HW122403   4.069   2.905   4.611 -0.3447 -1.1189 -2.3816
 3589SOL    HW222404   3.937   2.949   4.579  0.8502 -0.8756  0.2629
 3590SOL     OW22405   0.451   2.315  12.805 -0.2659  0.8299 -0.1024
 3590SOL    HW122406   0.412   2.255  12.869  0.9453 -0.9217 -1.0019
 3590SOL    HW222407   0.497   2.376  12.863 -0.2123  0.7982 -0.1117
 3591SOL     OW22408   1.381   1.116   8.178  0.0143 -0.0709 -0.0315
 3591SOL    HW122409   1.462   1.099   8.131  0.8397  1.3468  0.8889
 3591SOL    HW222410   1.327   1.038   8.165  0.2549 -0.3790  0.8143
 3592SOL     OW22411   0.905   1.201   1.521  0.3137  0.2217 -0.1709
 3592SOL    HW122412   0.852   1.279   1.504 -1.1212 -0.7478 -0.1472
 3592SOL    HW222413   0.936   1.185   1.432 -2.1776  0.9976 -1.1958
 3593SOL     OW22414   2.474   0.273  13.811  0.0035 -0.2263 -0.3233
 3593SOL    HW122415   2.521   0.350  13.779  0.6773 -1.0856 -1.4033
 3593SOL    HW222416   2.533   0.253  13.883 -0.0282  1.9828  0.3177
 3594SOL     OW22417   4.484   0.060  13.823  0.3559 -0.1947  0.6457
 3594SOL    HW122418   4.558   0.103  13.865  1.2140  1.3297 -2.3978
 3594SOL    HW222419   4.523   4.717  13.790 -2.3343 -1.0010 -0.5892
 3595SOL     OW22420   4.720   3.316  16.936 -0.0982  0.6686 -0.2293
 3595SOL    HW122421   0.007   3.389  16.879  0.4052 -0.1789 -1.0991
 3595SOL    HW222422   0.032   3.246  16.894 -0.1323  1.0751 -0.9636
 3596SOL     OW22423   2.036   3.575   8.953 -0.5457 -0.2888  0.7849
 3596SOL    HW122424   2.010   3.661   8.920 -0.3980 -0.7569 -0.5457
 3596SOL    HW222425   2.051   3.599   9.044 -2.2462 -1.1424  1.2914
 3597SOL     OW22426   2.445   0.991  13.527  0.2352 -0.4417 -0.1086
 3597SOL    HW122427   2.402   1.074  13.506 -1.6199 -0.9768  1.6272
 3597SOL    HW222428   2.536   1.021  13.537  0.1596  0.4490 -2.1091
 3598SOL     OW22429   1.281   3.536   5.494 -0.5675  0.3176 -0.0879
 3598SOL    HW122430   1.332   3.616   5.476  1.1746 -0.2338  2.3332
 3598SOL    HW222431   1.348   3.471   5.472 -0.7225  0.0149  0.3460
 3599SOL     OW22432   4.215   4.582   5.764  0.6672 -0.9545 -0.0977
 3599SOL    HW122433   4.235   4.571   5.857  0.9642  0.9510  0.0672
 3599SOL    HW222434   4.129   4.623   5.772  2.0757  2.1248 -0.7195
 3600SOL     OW22435   2.838   3.215  15.121 -0.0761  0.1203  0.0295
 3600SOL    HW122436   2.879   3.160  15.187 -1.2738  2.2957  2.5914
 3600SOL    HW222437   2.748   3.193  15.146  0.2969  0.3681  1.5588
 3601SOL     OW22438   2.752   1.678   9.942  0.6913  0.8496 -0.3164
 3601SOL    HW122439   2.834   1.694   9.896  0.6335  0.1817 -0.6633
 3601SOL    HW222440   2.704   1.629   9.875  0.1634 -0.3667  0.9435
 3602SOL     OW22441   2.213   3.378   9.721  0.0369  0.2966 -1.0335
 3602SOL    HW122442   2.125   3.386   9.686 -0.9841  0.8458  1.6417
 3602SOL    HW222443   2.194   3.406   9.811  0.9116 -0.3292 -0.6491
 3603SOL     OW22444   3.587   0.606   7.603  0.3624  0.4358  0.0860
 3603SOL    HW122445   3.669   0.561   7.625 -0.2336 -0.5804  0.2580
 3603SOL    HW222446   3.614   0.676   7.544  0.3373 -0.5032 -1.0238
 3604SOL     OW22447   1.038   4.672   5.482  0.4000 -0.4879 -0.0810
 3604SOL    HW122448   1.127   4.660   5.450  1.2201  2.9238  0.9387
 3604SOL    HW222449   1.023   4.602   5.545  2.8954 -1.2072 -0.3203
 3605SOL     OW22450   4.398   1.820   5.510  0.3686  0.3459  0.0385
 3605SOL    HW122451   4.324   1.870   5.476  0.1209 -0.7104 -0.9768
 3605SOL    HW222452   4.386   1.732   5.474  0.9109  0.3632 -0.1821
 3606SOL     OW22453   1.744   1.524   7.370  0.1821  0.5981 -0.0460
 3606SOL    HW122454   1.664   1.478   7.395  1.5120 -0.6743  1.8536
 3606SOL    HW222455   1.697   1.596   7.327  1.0029  0.1230 -1.7331
 3607SOL     OW22456   1.534   3.004   9.830  1.0367 -0.4955  0.0048
 3607SOL    HW122457   1.593   2.979   9.901 -0.6320  0.5988  1.7959
 3607SOL    HW222458   1.499   2.922   9.795  0.8253 -0.0884 -0.7195
 3608SOL     OW22459   1.971   2.962   2.946 -0.2191 -0.0007  0.4864
 3608SOL    HW122460   2.040   2.896   2.951  0.6763  0.8719 -0.1539
 3608SOL    HW222461   1.922   2.923   2.874  0.3790  0.5775 -0.2367
 3609SOL     OW22462   2.713   1.193   6.692  0.4049  0.0502  0.0127
 3609SOL    HW122463   2.684   1.244   6.768  1.0910  0.4899 -0.0228
 3609SOL    HW222464   2.672   1.110   6.715  0.7252  0.5856  2.5487
 3610SOL     OW22465   2.396   3.439  10.306  0.1137  0.3312 -0.4493
 3610SOL    HW122466   2.418   3.409  10.218  1.9157 -2.9599  1.1163
 3610SOL    HW222467   2.316   3.387  10.308  0.6097 -0.4276 -0.3419
 3611SOL     OW22468   1.183   3.180   3.456  0.5394 -0.0280  0.5828
 3611SOL    HW122469   1.279   3.181   3.463  0.5242  1.4812  0.6285
 3611SOL    HW222470   1.165   3.167   3.549  0.3350  2.4072  0.8889
 3612SOL     OW22471   0.670   2.429   4.557 -0.0907  0.0143 -0.6767
 3612SOL    HW122472   0.676   2.394   4.646  1.4191 -2.3731 -1.7335
 3612SOL    HW222473   0.588   2.478   4.556 -0.5682 -0.7687 -0.1575
 3613SOL     OW22474   1.138   4.439   3.055 -0.3595 -0.2008 -0.0128
 3613SOL    HW122475   1.071   4.378   3.085  0.9388 -1.2924  0.6867
 3613SOL    HW222476   1.086   4.497   3.000  1.6856  1.1619 -0.5440
 3614SOL     OW22477   0.032   2.959  15.295  0.6350  0.2763  0.0518
 3614SOL    HW122478   4.698   2.900  15.316 -0.8134  1.0746 -2.5600
 3614SOL    HW222479   0.100   2.935  15.357 -1.5955 -1.9309  1.6478
 3615SOL     OW22480   4.091   1.363   4.254  0.0528 -0.0941  0.8392
 3615SOL    HW122481   4.021   1.385   4.192  0.1755 -0.9836  0.3794
 3615SOL    HW222482   4.155   1.429   4.229 -0.1419 -1.1227 -2.4723
 3616SOL     OW22483   2.722   0.428   6.631 -0.2002  0.1863  0.7485
 3616SOL    HW122484   2.685   0.346   6.663 -0.9460  0.6029  0.9725
 3616SOL    HW222485   2.774   0.403   6.554 -0.1802 -0.2888  0.9195
 3617SOL     OW22486   4.441   3.547  12.241  0.3640  0.5381  0.1907
 3617SOL    HW122487   4.464   3.502  12.160  3.1381 -1.0115  1.8493
 3617SOL    HW222488   4.469   3.479  12.302  2.9976  1.2277 -0.2830
 3618SOL     OW22489   2.368   1.419  10.227 -0.0410 -0.3711 -0.2657
 3618SOL    HW122490   2.429   1.446  10.158 -0.0338 -0.6209 -0.3570
 3618SOL    HW222491   2.289   1.450  10.182 -1.3463 -1.4265  1.2954
 3619SOL     OW22492   0.549   1.316   5.974  0.2217 -0.0382  0.3574
 3619SOL    HW122493   0.551   1.412   5.968  1.0007 -0.1356 -0.9789
 3619SOL    HW222494   0.610   1.306   6.047  1.0873  0.6628 -0.2718
 3620SOL     OW22495   4.657   1.627   5.612  0.1709 -0.7083 -0.6265
 3620SOL    HW122496   4.667   1.560   5.679  0.5701 -0.6494 -0.6325
 3620SOL    HW222497   0.001   1.676   5.611  0.1706 -0.7096 -0.7748
 3621SOL     OW22498   3.146   2.624   3.017  0.0952 -0.8034  0.0378
 3621SOL    HW122499   3.239   2.639   3.002  0.4075 -2.5190  0.3099
 3621SOL    HW222500   3.116   2.631   2.926  1.1702 -0.2658 -0.2758
 3622SOL     OW22501   0.790   4.188   2.468 -0.2460 -0.0441 -0.0085
 3622SOL    HW122502   0.780   4.282   2.457 -1.3115 -0.0872  0.6040
 3622SOL    HW222503   0.848   4.187   2.544 -0.5902  0.6207  0.2650
 3623SOL     OW22504   0.823   3.486  16.161  0.0836 -0.2220  0.1351
 3623SOL    HW122505   0.839   3.562  16.106  0.0497 -0.1356  0.2439
 3623SOL    HW222506   0.729   3.498  16.167  0.1143 -0.5069  1.2083
 3624SOL     OW22507   4.216   0.695  17.208  0.7696 -0.2962 -0.4844
 3624SOL    HW122508   4.291   0.645  17.174 -0.5422 -2.4894 -0.1227
 3624SOL    HW222509   4.159   0.687  17.131 -0.7836 -1.1144  0.7633
 3625SOL     OW22510   3.908   3.348   6.883 -0.0137  0.2819  0.1231
 3625SOL    HW122511   3.917   3.312   6.795 -0.0009 -1.3002  0.7698
 3625SOL    HW222512   3.925   3.442   6.881 -0.9131  0.4340 -0.7039
 3626SOL     OW22513   3.614   4.254   4.554  0.3639 -0.0203  0.5911
 3626SOL    HW122514   3.530   4.230   4.515  0.9645 -1.0063 -0.1254
 3626SOL    HW222515   3.585   4.329   4.605 -2.8254 -1.3708  0.7524
 3627SOL     OW22516   1.949   1.438   6.488  0.2146 -0.5279 -0.0559
 3627SOL    HW122517   1.965   1.492   6.566  1.7265 -3.3872  1.6040
 3627SOL    HW222518   2.039   1.409   6.474 -0.2465 -1.6224 -0.7278
 3628SOL     OW22519   1.246   3.884   6.239 -0.2622 -0.0091  0.4696
 3628SOL    HW122520   1.274   3.813   6.296  0.0067  0.6795  1.1927
 3628SOL    HW222521   1.317   3.883   6.175 -0.2711  2.3831  0.4331
 3629SOL     OW22522   1.152   3.271   4.175  0.5204 -0.5747  0.0688
 3629SOL    HW122523   1.141   3.366   4.167  1.7648 -0.3385  1.1041
 3629SOL    HW222524   1.222   3.277   4.240  0.2832  0.4061  0.2292
 3630SOL     OW22525   0.824   4.172   3.619  0.3789 -0.4164 -0.3234
 3630SOL    HW122526   0.790   4.249   3.664  0.5241  0.0920 -1.0862
 3630SOL    HW222527   0.908   4.202   3.584 -0.1881  0.8882 -0.5671
 3631SOL     OW22528   1.881   3.741  12.665  0.0235 -0.3927  0.0549
 3631SOL    HW122529   1.935   3.820  12.667  0.8357 -0.9271 -0.6650
 3631SOL    HW222530   1.884   3.698  12.579  2.0705  0.8326 -0.5053
 3632SOL     OW22531   3.725   1.565   2.028  0.5704  0.4319 -0.0886
 3632SOL    HW122532   3.802   1.617   2.005 -0.3156  1.9693  0.4159
 3632SOL    HW222533   3.648   1.611   1.995  0.7125  0.2752 -0.6310
 3633SOL     OW22534   3.716   2.736  12.935  0.6766  0.1964  0.3006
 3633SOL    HW122535   3.776   2.791  12.884  1.9252  1.4230  3.0965
 3633SOL    HW222536   3.629   2.775  12.933  0.8409  0.5923  1.2878
 3634SOL     OW22537   4.414   0.461  11.256  0.0753  0.0573  0.2323
 3634SOL    HW122538   4.431   0.372  11.287  3.8296  1.3149  1.7677
 3634SOL    HW222539   4.502   0.498  11.267 -0.0899  0.7544 -0.7494
 3635SOL     OW22540   2.639   1.790   9.386  0.5272  0.5542 -0.4147
 3635SOL    HW122541   2.732   1.780   9.409  0.4764 -2.4380 -1.4920
 3635SOL    HW222542   2.617   1.866   9.441 -0.3497  1.5454 -2.1549
 3636SOL     OW22543   3.791   4.529   8.277  0.3826  0.1814 -0.4698
 3636SOL    HW122544   3.741   4.539   8.358 -1.7043 -1.5600 -1.5116
 3636SOL    HW222545   3.720   4.532   8.212  0.5801 -0.9448 -0.7361
 3637SOL     OW22546   1.218   0.264  12.628  0.7014  0.2001  0.3208
 3637SOL    HW122547   1.178   0.177  12.633 -3.0156  1.9323 -0.0879
 3637SOL    HW222548   1.202   0.290  12.719 -3.0980 -0.3769 -0.1885
 3638SOL     OW22549   0.331   2.507   7.260  0.0180 -0.5082  0.4076
 3638SOL    HW122550   0.321   2.416   7.230  1.5925 -0.8043  0.7953
 3638SOL    HW222551   0.337   2.490   7.354  2.0696 -1.5799  0.0684
 3639SOL     OW22552   2.965   1.857   1.099 -0.0269  0.0393 -0.3031
 3639SOL    HW122553   2.900   1.803   1.054  0.4941 -1.1298  0.3370
 3639SOL    HW222554   2.939   1.850   1.191  1.9852  1.8409  0.3883
 3640SOL     OW22555   0.451   4.071   0.669 -0.1928  0.2136  0.0057
 3640SOL    HW122556   0.455   4.006   0.739 -0.4919  1.9256  1.6017
 3640SOL    HW222557   0.501   4.027   0.600  2.4830  0.3856  1.8437
 3641SOL     OW22558   4.165   3.121   6.270 -0.3117 -0.0752 -0.1082
 3641SOL    HW122559   4.228   3.191   6.254 -1.5769  1.1804  0.5181
 3641SOL    HW222560   4.207   3.073   6.341 -0.6947 -1.5702 -0.8798
 3642SOL     OW22561   1.164   1.519  17.185 -0.2796 -0.3080 -0.1735
 3642SOL    HW122562   1.106   1.564  17.247  0.9786  0.2695  0.6020
 3642SOL    HW222563   1.221   1.586  17.146 -0.5207 -0.2492 -0.4197
 3643SOL     OW22564   0.305   2.063   9.126  0.6539 -0.2030 -0.5333
 3643SOL    HW122565   0.319   2.035   9.036  0.1516 -0.2421 -0.6017
 3643SOL    HW222566   0.315   1.982   9.176 -2.0456  0.6235  1.3392
 3644SOL     OW22567   3.033   3.907   1.745 -0.0522  0.0960 -0.0308
 3644SOL    HW122568   3.027   3.811   1.742  1.7679 -0.0604  1.8729
 3644SOL    HW222569   3.001   3.930   1.658  2.4625  0.0796 -0.9598
 3645SOL     OW22570   2.295   1.335  13.228 -0.2507 -0.0371  0.0329
 3645SOL    HW122571   2.231   1.276  13.188 -0.9071  0.2364  0.6896
 3645SOL    HW222572   2.248   1.394  13.286  0.2440  1.5990 -1.2492
 3646SOL     OW22573   4.198   0.856   6.254  0.3043 -0.4186 -0.4245
 3646SOL    HW122574   4.135   0.822   6.317  1.5614 -1.3574  0.3358
 3646SOL    HW222575   4.155   0.904   6.184  1.1307 -0.8093 -1.1993
 3647SOL     OW22576   0.370   3.280   4.084 -0.5931  0.0984 -0.0135
 3647SOL    HW122577   0.348   3.372   4.100  0.5964  0.3123  0.4603
 3647SOL    HW222578   0.413   3.303   4.002  0.9626  0.2367  0.8288
 3648SOL     OW22579   1.516   0.779   1.496 -0.1228  0.6624  0.5706
 3648SOL    HW122580   1.561   0.695   1.497 -0.3493  0.4820 -2.5679
 3648SOL    HW222581   1.436   0.746   1.536  1.0789  0.6713  2.9514
 3649SOL     OW22582   2.598   3.924  16.273 -0.1865  0.4556  0.0817
 3649SOL    HW122583   2.505   3.946  16.267 -0.0278  1.2319  0.4317
 3649SOL    HW222584   2.640   4.010  16.280  0.1277  0.2463  0.7060
 3650SOL     OW22585   4.702   1.750   6.285 -0.2915 -0.1347 -0.1648
 3650SOL    HW122586   4.654   1.710   6.213 -1.8403  2.3003 -0.4722
 3650SOL    HW222587   4.711   1.841   6.256  4.3860 -0.2801  0.8724
 3651SOL     OW22588   4.183   0.716   3.544 -0.0844  0.2077  0.1019
 3651SOL    HW122589   4.146   0.660   3.476 -0.9601 -1.3146  1.8026
 3651SOL    HW222590   4.125   0.679   3.611 -0.1515  1.4368  0.7147
 3652SOL     OW22591   1.733   1.143   6.547 -0.2000 -0.7206 -0.3097
 3652SOL    HW122592   1.751   1.231   6.514 -2.1897 -0.1404  0.1113
 3652SOL    HW222593   1.642   1.151   6.578  0.1031  0.4378  0.2968
 3653SOL     OW22594   1.499   0.321   4.385 -0.1326 -0.0664  0.7953
 3653SOL    HW122595   1.520   0.409   4.416 -0.1490 -0.1772  1.1160
 3653SOL    HW222596   1.579   0.272   4.404 -1.1450 -1.4060  1.5609
 3654SOL     OW22597   4.211   0.175   7.722  0.0203 -0.1980 -0.4730
 3654SOL    HW122598   4.218   0.082   7.746  1.4838  0.0629  0.0929
 3654SOL    HW222599   4.299   0.203   7.745  0.2779  0.6706 -2.5030
 3655SOL     OW22600   2.428   4.599  14.946 -0.2014 -0.2442  0.9568
 3655SOL    HW122601   2.424   4.538  15.019 -0.4083 -0.7346  0.5394
 3655SOL    HW222602   2.430   4.684  14.990  0.0709  0.2050  0.0728
 3656SOL     OW22603   2.877   0.443   4.679  0.0166 -0.2046 -0.1876
 3656SOL    HW122604   2.905   0.372   4.738  1.6209  1.9894  1.7293
 3656SOL    HW222605   2.846   0.394   4.603 -0.1666 -0.0894 -0.1850
 3657SOL     OW22606   1.662   4.631   3.239  0.3507 -0.1421  0.5940
 3657SOL    HW122607   1.611   4.551   3.229  3.9188 -1.9754 -2.7637
 3657SOL    HW222608   1.746   4.600   3.272  0.5762 -0.6077 -0.4009
 3658SOL     OW22609   0.844   2.955   5.175 -0.2108  0.4404  0.4512
 3658SOL    HW122610   0.858   2.896   5.249  0.3426 -1.2251 -0.9783
 3658SOL    HW222611   0.914   2.922   5.118  1.6173  2.1730  1.6784
 3659SOL     OW22612   4.012   3.595   6.915  0.4774  0.0922 -0.2968
 3659SOL    HW122613   3.957   3.652   6.862 -0.0640  0.8866  1.1196
 3659SOL    HW222614   4.013   3.643   6.998  0.8445 -1.5422  0.6489
 3660SOL     OW22615   3.891   4.735   3.345  0.3164 -0.4975 -0.1314
 3660SOL    HW122616   3.845   0.047   3.278  1.3473  1.1215  0.3471
 3660SOL    HW222617   3.817   4.702   3.396  1.7596 -1.3228  1.4449
 3661SOL     OW22618   2.034   4.085   3.632  0.2722  0.3488 -0.0168
 3661SOL    HW122619   2.079   4.128   3.559  1.8704 -2.1757 -0.4948
 3661SOL    HW222620   2.103   4.025   3.661 -1.0465  0.1805  2.7653
 3662SOL     OW22621   0.766   4.551   6.268  0.2040 -0.1222  0.1618
 3662SOL    HW122622   0.762   4.564   6.174 -0.6906  0.4641  0.2772
 3662SOL    HW222623   0.687   4.497   6.267 -1.2872  1.9498  4.1995
 3663SOL     OW22624   3.275   1.434   3.042  0.5259  0.2908 -0.1074
 3663SOL    HW122625   3.240   1.517   3.074 -1.5716 -1.2142  1.4936
 3663SOL    HW222626   3.200   1.402   2.993  1.6529 -1.0030 -0.9941
 3664SOL     OW22627   1.545   1.358   8.121 -0.2160 -0.3615  0.6921
 3664SOL    HW122628   1.545   1.267   8.092  0.7431 -0.4943  1.1206
 3664SOL    HW222629   1.603   1.355   8.196  0.2586 -1.4347  0.2842
 3665SOL     OW22630   2.289   2.913   6.017  0.0086  0.1232  0.3020
 3665SOL    HW122631   2.371   2.947   6.051  0.3123  0.0240 -0.3319
 3665SOL    HW222632   2.306   2.958   5.934  1.2345  0.2897  0.6440
 3666SOL     OW22633   4.242   3.617   7.196 -0.0465  0.3379 -0.1877
 3666SOL    HW122634   4.274   3.533   7.231  1.5547  0.2279 -1.9006
 3666SOL    HW222635   4.149   3.604   7.214  0.2590 -0.6101  0.7493
 3667SOL     OW22636   1.124   1.360   0.288 -0.5154  0.1354  0.7403
 3667SOL    HW122637   1.155   1.398   0.205 -3.8619 -2.1080 -1.5115
 3667SOL    HW222638   1.152   1.270   0.274 -0.4939  0.1753  0.5127
 3668SOL     OW22639   2.995   2.298   2.222 -0.0626 -0.3426  0.6499
 3668SOL    HW122640   2.912   2.254   2.203 -0.3579  0.3643  0.2941
 3668SOL    HW222641   3.016   2.269   2.311 -1.7104 -2.5645  0.3273
 3669SOL     OW22642   2.093   0.151   9.181 -0.4390  0.3106  0.3289
 3669SOL    HW122643   1.997   0.146   9.182 -0.3462 -1.7255 -1.0234
 3669SOL    HW222644   2.112   0.126   9.272 -0.2497 -1.4711 -0.1903
 3670SOL     OW22645   0.113   0.262   5.061  0.4140 -0.0191  0.5748
 3670SOL    HW122646   0.066   0.341   5.088 -0.3598  0.2882 -1.6333
 3670SOL    HW222647   0.166   0.297   4.989  0.6291 -1.8863 -0.1801
 3671SOL     OW22648   0.238   0.245   6.759  0.6251 -0.2443 -0.2159
 3671SOL    HW122649   0.330   0.271   6.765  0.6105 -0.4113  0.7426
 3671SOL    HW222650   0.236   0.150   6.772 -2.1701 -0.0807  0.5881
 3672SOL     OW22651   2.502   1.570   7.099  0.2056 -0.4091  0.1165
 3672SOL    HW122652   2.473   1.642   7.156 -0.4777 -0.1398 -0.5768
 3672SOL    HW222653   2.411   1.545   7.082 -0.3303  0.0527  2.2728
 3673SOL     OW22654   2.689   1.744   7.584  0.3881  0.5125  0.4905
 3673SOL    HW122655   2.597   1.718   7.575  0.7336 -0.0039 -1.5491
 3673SOL    HW222656   2.676   1.776   7.673 -0.0335 -0.6005  0.8286
 3674SOL     OW22657   1.636   2.962   3.256 -0.7027  0.0552  0.1234
 3674SOL    HW122658   1.726   2.994   3.252 -0.7850  0.4307  1.3562
 3674SOL    HW222659   1.589   3.041   3.231 -1.1243 -0.3637 -0.4243
 3675SOL     OW22660   3.931   2.192  14.829 -0.2464 -0.1230  0.0791
 3675SOL    HW122661   3.920   2.123  14.895  3.0490 -0.4835  0.2833
 3675SOL    HW222662   3.844   2.229  14.841  0.3329  0.8850  1.2021
 3676SOL     OW22663   0.634   1.531   8.479  0.1621 -0.3189 -0.0277
 3676SOL    HW122664   0.728   1.512   8.473  0.1249 -0.4773 -0.1291
 3676SOL    HW222665   0.622   1.533   8.574  1.2445 -0.9357  0.1231
 3677SOL     OW22666   2.427   1.446  13.655 -0.8042  0.4571  0.1144
 3677SOL    HW122667   2.512   1.488  13.672 -1.8650  2.2587  0.9944
 3677SOL    HW222668   2.421   1.394  13.734 -3.3313 -0.3523 -0.6144
 3678SOL     OW22669   3.254   0.275  12.593  0.1165  0.2434 -0.2452
 3678SOL    HW122670   3.263   0.196  12.647 -0.3860  1.0129  0.9499
 3678SOL    HW222671   3.249   0.337  12.666 -1.2784 -0.6979  0.4545
 3679SOL     OW22672   2.336   2.141   4.217 -0.5779  0.5036  0.2216
 3679SOL    HW122673   2.427   2.149   4.187 -0.3201 -2.5300  0.2020
 3679SOL    HW222674   2.284   2.175   4.144 -1.0280  0.5783  0.5788
 3680SOL     OW22675   3.719   1.159   9.880  0.1194 -0.1739 -0.3545
 3680SOL    HW122676   3.787   1.100   9.849  2.5510  1.9044  1.0910
 3680SOL    HW222677   3.775   1.229   9.914 -1.7326  0.4500  1.4392
 3681SOL     OW22678   2.217   4.588   2.874  0.3333  0.6824  0.0853
 3681SOL    HW122679   2.180   4.668   2.911 -0.2753  2.3428 -4.1066
 3681SOL    HW222680   2.184   4.538   2.948 -0.0990  0.3604 -0.3293
 3682SOL     OW22681   1.331   4.551   9.825 -0.5586 -0.7533 -0.0761
 3682SOL    HW122682   1.314   4.579   9.915 -1.7773 -3.1708  0.4377
 3682SOL    HW222683   1.401   4.486   9.832  1.2459  1.2759  0.7503
 3683SOL     OW22684   1.050   4.298  16.610 -0.3751 -0.0404  0.0105
 3683SOL    HW122685   0.978   4.345  16.651  1.5948  1.3195  1.9235
 3683SOL    HW222686   1.034   4.312  16.517 -1.2820 -1.5578 -0.0582
 3684SOL     OW22687   1.327   1.007   0.599 -0.2189  0.1599 -0.0341
 3684SOL    HW122688   1.275   0.951   0.657  0.9346  0.6098  1.4215
 3684SOL    HW222689   1.390   1.056   0.651  0.7908  0.7763 -1.8137
 3685SOL     OW22690   0.259   2.745   7.510 -0.0869 -0.0046 -0.3224
 3685SOL    HW122691   0.291   2.658   7.533 -3.3866 -0.0665  3.7849
 3685SOL    HW222692   0.299   2.771   7.426 -0.2842 -0.3478 -0.5233
 3686SOL     OW22693   0.150   0.094  13.136 -0.1028 -0.3247 -0.4665
 3686SOL    HW122694   0.154   0.190  13.135 -0.4345 -0.3081 -0.1617
 3686SOL    HW222695   0.168   0.080  13.043  1.1819  0.3297 -0.3261
 3687SOL     OW22696   2.587   3.133  15.229  0.6954 -0.5367  0.7390
 3687SOL    HW122697   2.563   3.139  15.321 -0.8331 -0.8607  0.3555
 3687SOL    HW222698   2.566   3.043  15.206 -2.0588  0.2785  0.0552
 3688SOL     OW22699   1.641   1.655  15.217 -0.1117 -0.0358  0.0625
 3688SOL    HW122700   1.642   1.591  15.146  1.0312 -1.1687  1.0874
 3688SOL    HW222701   1.703   1.722  15.186  0.1249 -0.4702 -0.4085
 3689SOL     OW22702   2.978   1.915   4.092  0.4140 -0.1875  0.2701
 3689SOL    HW122703   2.909   1.949   4.036  0.1198 -0.0233  0.7308
 3689SOL    HW222704   3.017   1.989   4.140  2.2117  1.1463 -3.2635
 3690SOL     OW22705   1.882   0.730   8.188  0.4697  0.2057  0.0328
 3690SOL    HW122706   1.842   0.684   8.261  1.6233 -2.1721 -0.8214
 3690SOL    HW222707   1.973   0.707   8.205  0.5108  0.6599  0.4123
 3691SOL     OW22708   1.374   4.129   4.752 -0.2645 -0.3843 -0.6225
 3691SOL    HW122709   1.417   4.111   4.836  0.0810  1.4565 -0.3972
 3691SOL    HW222710   1.296   4.078   4.775 -0.1169  0.8722  2.7005
 3692SOL     OW22711   4.348   4.601   4.035 -0.5063  0.6710 -0.0885
 3692SOL    HW122712   4.427   4.558   4.003  0.7690  4.2195 -1.7467
 3692SOL    HW222713   4.367   4.611   4.129  0.2592  0.3254 -0.2120
 3693SOL     OW22714   0.667   2.554   9.518 -0.3078 -0.7382  0.1404
 3693SOL    HW122715   0.726   2.522   9.449  2.5607  0.5955  1.9688
 3693SOL    HW222716   0.718   2.536   9.597 -0.7449  3.5044  1.3785
 3694SOL     OW22717   4.244   4.037  11.294 -0.7836 -0.3888 -0.3423
 3694SOL    HW122718   4.319   4.085  11.326  0.1211 -0.6806 -2.0003
 3694SOL    HW222719   4.194   4.014  11.372  0.5302 -3.0090 -0.2562
 3695SOL     OW22720   4.525   2.994   8.483 -0.2514  0.4401  0.6759
 3695SOL    HW122721   4.451   3.046   8.451 -0.7355 -0.0810  0.9610
 3695SOL    HW222722   4.539   3.041   8.565 -0.9486 -0.5824  1.3718
 3696SOL     OW22723   1.460   1.051   7.827 -0.1483 -0.4923  0.5488
 3696SOL    HW122724   1.375   1.062   7.785  0.9666 -0.3934 -1.6418
 3696SOL    HW222725   1.515   1.014   7.759  0.1713  0.4780  0.2750
 3697SOL     OW22726   3.529   1.850   6.753  0.0200  0.6310  0.1260
 3697SOL    HW122727   3.574   1.928   6.722 -2.0518  0.6893 -2.7557
 3697SOL    HW222728   3.439   1.857   6.722  0.2334 -0.7228 -0.7764
 3698SOL     OW22729   0.381   1.281   7.339  0.2434 -0.4490 -0.0755
 3698SOL    HW122730   0.409   1.287   7.431 -0.7897  1.0758  0.1386
 3698SOL    HW222731   0.301   1.332   7.331  0.3174 -0.1443  1.0879
 3699SOL     OW22732   2.417   2.509   2.228  0.0498 -0.0734  0.2449
 3699SOL    HW122733   2.458   2.507   2.142 -1.7741  0.1457 -0.6230
 3699SOL    HW222734   2.339   2.555   2.197 -1.2571 -2.3655  0.0737
 3700SOL     OW22735   0.736   3.738  10.486  0.1918  0.4768 -0.0175
 3700SOL    HW122736   0.795   3.803  10.524  0.8863  0.5420 -1.2103
 3700SOL    HW222737   0.744   3.747  10.391  0.3394  1.1279  0.0548
 3701SOL     OW22738   4.027   4.711   4.895  0.3026  0.0707  0.0648
 3701SOL    HW122739   4.042   4.680   4.806  1.0160 -2.1948  0.9921
 3701SOL    HW222740   3.985   0.056   4.872  0.8045  0.4926  0.6370
 3702SOL     OW22741   4.249   2.820  16.896 -0.2355 -0.1174  0.0239
 3702SOL    HW122742   4.166   2.868  16.901 -1.2328 -1.5805 -2.3722
 3702SOL    HW222743   4.206   2.735  16.908 -1.7498  0.7202  0.4780
 3703SOL     OW22744   2.788   1.722   0.941  0.5345 -0.1602 -0.2608
 3703SOL    HW122745   2.796   1.651   0.877  0.4770  0.0527 -0.5059
 3703SOL    HW222746   2.696   1.748   0.937 -0.1649 -2.5195  0.8208
 3704SOL     OW22747   2.320   3.732   4.704  0.0798 -0.0204  0.6778
 3704SOL    HW122748   2.328   3.655   4.647  0.6663  1.0017 -0.6005
 3704SOL    HW222749   2.412   3.736   4.730  0.6900 -1.0351 -1.3449
 3705SOL     OW22750   2.666   1.830   6.471 -0.1998 -0.5440  0.6474
 3705SOL    HW122751   2.634   1.882   6.397 -4.3450 -0.7317  2.2935
 3705SOL    HW222752   2.666   1.891   6.545  0.1288  1.9735 -1.4168
 3706SOL     OW22753   2.955   1.311  12.578 -0.4637 -0.7503 -0.2431
 3706SOL    HW122754   2.976   1.352  12.663 -0.5873 -2.9278  0.8339
 3706SOL    HW222755   2.892   1.241  12.595  1.0928 -2.6443 -2.2726
 3707SOL     OW22756   1.031   0.161   4.114 -0.5824  0.0905 -0.0620
 3707SOL    HW122757   0.990   0.235   4.070 -0.1967 -0.2279 -0.9549
 3707SOL    HW222758   1.109   0.205   4.147 -0.5809  1.4203 -1.8361
 3708SOL     OW22759   4.540   1.033  16.715 -0.7359 -0.0080 -0.4608
 3708SOL    HW122760   4.587   0.950  16.724 -1.0581 -0.0474  0.8303
 3708SOL    HW222761   4.580   1.048  16.629  0.3810 -1.3977 -0.1934
 3709SOL     OW22762   3.781   4.212   4.155 -0.1901  0.5911  0.0408
 3709SOL    HW122763   3.866   4.222   4.198  0.4768 -1.9882 -0.6659
 3709SOL    HW222764   3.764   4.302   4.128 -0.4733  1.1275  2.0246
 3710SOL     OW22765   0.435   1.407   5.405 -0.3779  0.2312  0.0003
 3710SOL    HW122766   0.507   1.352   5.437  1.6456  1.9475 -1.5842
 3710SOL    HW222767   0.362   1.356   5.438  1.4803 -2.3025  0.1992
 3711SOL     OW22768   0.804   2.589   3.074 -0.2654 -0.5996  0.2416
 3711SOL    HW122769   0.863   2.602   3.147 -0.7216 -1.8895  0.8430
 3711SOL    HW222770   0.738   2.655   3.098  1.4538  1.4202 -0.5915
 3712SOL     OW22771   4.374   0.233   8.050  0.2487  0.1475 -0.4612
 3712SOL    HW122772   4.350   0.287   8.125  1.0450  0.9135 -0.7503
 3712SOL    HW222773   4.419   0.165   8.101  0.4149  2.1350  2.0540
 3713SOL     OW22774   3.704   0.491   0.072 -0.2326 -0.4058  0.1103
 3713SOL    HW122775   3.694   0.422   0.006  0.7430  0.1342 -0.6047
 3713SOL    HW222776   3.799   0.503   0.075 -0.2402 -0.2076 -0.4122
 3714SOL     OW22777   4.036   4.405   5.959  0.2031 -0.4428 -0.3976
 3714SOL    HW122778   3.992   4.460   5.895 -0.4886  1.3299  1.5923
 3714SOL    HW222779   4.087   4.473   6.002  0.4114 -0.7570 -0.1449
 3715SOL     OW22780   0.699   4.662   6.539  0.5911  0.0612  0.2539
 3715SOL    HW122781   0.708   4.637   6.447 -1.5030  1.4729 -0.3277
 3715SOL    HW222782   0.715   4.578   6.580  0.6454  0.4746  1.0770
 3716SOL     OW22783   2.934   2.153   0.438 -0.0945 -0.4442 -0.0995
 3716SOL    HW122784   3.016   2.193   0.411  0.2532 -1.4479 -0.5313
 3716SOL    HW222785   2.900   2.216   0.502  0.5602 -0.9884  0.7783
 3717SOL     OW22786   3.236   1.019  17.431 -0.3543 -1.1456  0.0918
 3717SOL    HW122787   3.302   1.085  17.407 -0.0448 -1.5431 -0.1548
 3717SOL    HW222788   3.293   0.948  17.461  1.4578  0.1945 -0.1021
 3718SOL     OW22789   4.489   4.393   6.040  0.5877 -0.7428 -0.3428
 3718SOL    HW122790   4.431   4.413   6.114 -2.2843 -2.4517 -2.1313
 3718SOL    HW222791   4.420   4.384   5.974  0.6916  1.7565 -0.8127
 3719SOL     OW22792   2.688   3.071   6.329 -0.2665  0.6833 -0.3730
 3719SOL    HW122793   2.768   3.018   6.327 -0.9139 -0.3930  1.6436
 3719SOL    HW222794   2.636   3.026   6.264 -0.3975 -1.5072  1.2410
 3720SOL     OW22795   2.099   1.758   9.304 -0.1566  0.2459  0.3266
 3720SOL    HW122796   2.122   1.665   9.317 -2.3420 -0.2877  0.3151
 3720SOL    HW222797   2.141   1.767   9.218 -1.8531  1.1370 -0.3912
 3721SOL     OW22798   0.653   3.856   2.114  0.2568  0.0086 -0.7495
 3721SOL    HW122799   0.640   3.864   2.209  0.7544 -2.6275 -0.4613
 3721SOL    HW222800   0.714   3.782   2.111  1.6002  1.0513  0.8263
 3722SOL     OW22801   0.476   2.986   3.918 -0.3042 -0.4031  0.7991
 3722SOL    HW122802   0.543   3.045   3.886 -1.8933  0.5468 -0.7670
 3722SOL    HW222803   0.444   2.930   3.847 -0.1703  0.7563 -0.1610
 3723SOL     OW22804   2.366   3.389   2.765 -0.0482  0.1157  0.1391
 3723SOL    HW122805   2.441   3.331   2.754 -1.2979 -1.0534 -2.2199
 3723SOL    HW222806   2.306   3.353   2.700  0.4297  0.5359 -0.5276
 3724SOL     OW22807   1.181   0.556  17.712  0.0610  0.9980 -0.4101
 3724SOL    HW122808   1.188   0.565  17.617  0.9543 -1.5359 -0.5849
 3724SOL    HW222809   1.246   0.620  17.739 -0.4240  1.5441 -0.5417
 3725SOL     OW22810   3.732   3.713   1.639  0.5830  0.0793  0.0463
 3725SOL    HW122811   3.800   3.645   1.635  0.3016 -0.1161 -1.6183
 3725SOL    HW222812   3.780   3.780   1.687 -2.1081  1.2595  1.0906
 3726SOL     OW22813   0.674   3.331   1.722  0.0645  0.0575 -0.4299
 3726SOL    HW122814   0.700   3.362   1.635 -1.4288 -1.4678 -1.4218
 3726SOL    HW222815   0.593   3.285   1.703 -0.3689  0.2696  0.9251
 3727SOL     OW22816   3.520   3.573   7.504 -0.6946 -0.4452 -0.0264
 3727SOL    HW122817   3.593   3.528   7.460  1.7166  1.7366  1.7832
 3727SOL    HW222818   3.562   3.640   7.557  0.3078 -1.1609  0.0865
 3728SOL     OW22819   0.223   2.973   4.010  0.2345 -0.0162 -0.1138
 3728SOL    HW122820   0.316   2.976   3.990  0.6036 -2.3536  1.3285
 3728SOL    HW222821   0.206   3.067   4.008  0.1129 -0.0367 -0.0900
 3729SOL     OW22822   1.286   2.492   2.366 -0.7173 -0.1403 -0.0913
 3729SOL    HW122823   1.279   2.428   2.295  1.8807 -1.4412  0.8246
 3729SOL    HW222824   1.196   2.523   2.359 -0.4265  0.3833 -1.6618
 3730SOL     OW22825   1.474   3.500  13.160  0.1017 -0.1500  0.2966
 3730SOL    HW122826   1.387   3.538  13.143  0.6708  1.5977  1.3056
 3730SOL    HW222827   1.464   3.407  13.140  0.9267 -0.0309 -0.6195
 3731SOL     OW22828   2.570   2.772  10.361  0.1428 -0.2778  0.0620
 3731SOL    HW122829   2.614   2.763  10.277  0.6306  1.7118  0.1191
 3731SOL    HW222830   2.626   2.837  10.403 -1.7283  0.8489  0.8165
 3732SOL     OW22831   4.278   2.580  14.837 -0.1444  0.3048  0.1497
 3732SOL    HW122832   4.317   2.574  14.750  0.2205 -0.2260  0.3499
 3732SOL    HW222833   4.252   2.672  14.836 -1.2910 -0.0180  0.9488
 3733SOL     OW22834   2.636   4.024  13.209  0.4996 -0.1730 -0.1862
 3733SOL    HW122835   2.573   4.071  13.264  0.6732  1.4235 -1.3533
 3733SOL    HW222836   2.706   4.088  13.217  1.9044 -1.7070 -0.2712
 3734SOL     OW22837   1.776   0.423  14.526 -0.6475  0.1025 -0.2524
 3734SOL    HW122838   1.745   0.488  14.589  0.9708 -0.0487  0.6866
 3734SOL    HW222839   1.828   0.478  14.467  0.5771 -1.3302 -0.5134
 3735SOL     OW22840   3.021   2.545   8.201  0.1717 -0.2533 -0.0011
 3735SOL    HW122841   3.007   2.640   8.200 -0.9267 -0.4117  0.4502
 3735SOL    HW222842   3.061   2.542   8.288 -2.6341  0.3247  1.3209
 3736SOL     OW22843   3.318   0.176   7.266  0.3432  0.8240 -0.0953
 3736SOL    HW122844   3.279   0.105   7.216 -2.2074  0.7413  2.0161
 3736SOL    HW222845   3.411   0.162   7.248  0.1797  0.3592 -0.5855
 3737SOL     OW22846   3.987   0.535   3.429  0.2723  0.1665  0.9306
 3737SOL    HW122847   3.960   0.484   3.505 -0.8838 -2.2449 -1.0987
 3737SOL    HW222848   3.913   0.594   3.413  1.1515  1.4490  1.5549
 3738SOL     OW22849   2.002   1.204   4.644 -0.2762 -0.4658  0.2809
 3738SOL    HW122850   2.001   1.221   4.738 -1.7201  1.4043 -0.0744
 3738SOL    HW222851   2.093   1.230   4.625 -0.5668  1.4451  1.5415
 3739SOL     OW22852   0.570   0.193   7.572  0.3221  0.3955  0.5493
 3739SOL    HW122853   0.562   0.267   7.511 -0.2388  0.6268  0.8995
 3739SOL    HW222854   0.661   0.212   7.594  0.1223  0.8920  0.9409
 3740SOL     OW22855   2.537   0.051  11.820  0.4114  0.2749  0.2498
 3740SOL    HW122856   2.491   4.715  11.778 -0.0599 -0.5314  2.1843
 3740SOL    HW222857   2.606   0.015  11.875  0.1194 -2.1074 -0.9132
 3741SOL     OW22858   1.057   0.072   4.850 -0.4797 -0.3566  0.0214
 3741SOL    HW122859   1.032   0.148   4.797  0.1421  0.4192  0.8554
 3741SOL    HW222860   1.150   0.071   4.828 -0.3435  1.0595  0.5035
 3742SOL     OW22861   0.163   4.233   7.958 -0.8232  0.3766 -0.7877
 3742SOL    HW122862   0.245   4.282   7.967 -0.1906 -0.8467  0.0938
 3742SOL    HW222863   0.190   4.142   7.966 -0.1094  0.6788  0.1798
 3743SOL     OW22864   2.514   3.999  17.022 -0.0237 -0.3444 -0.1393
 3743SOL    HW122865   2.578   3.998  16.950  1.3126  0.0147  1.0334
 3743SOL    HW222866   2.512   4.091  17.047 -0.8473 -0.4844  0.2991
 3744SOL     OW22867   1.952   4.315  10.906 -0.5799 -0.0540  0.4329
 3744SOL    HW122868   1.876   4.300  10.849 -1.4755 -0.1808  1.6679
 3744SOL    HW222869   1.910   4.298  10.990 -2.0075  2.0899  0.1615
 3745SOL     OW22870   0.967   3.957   2.914 -0.2610 -0.1717 -0.2099
 3745SOL    HW122871   0.983   4.032   2.857  0.3678 -0.9837 -1.0995
 3745SOL    HW222872   0.918   3.900   2.855 -0.0138 -2.6180  1.9831
 3746SOL     OW22873   2.520   3.241  12.059 -0.1254 -0.9654  0.4915
 3746SOL    HW122874   2.537   3.324  12.105  1.8215 -2.2845  2.1610
 3746SOL    HW222875   2.428   3.235  12.085 -1.1424 -3.2841 -3.6833
 3747SOL     OW22876   2.786   0.887   6.052 -0.8137  0.1630 -0.2011
 3747SOL    HW122877   2.741   0.961   6.012 -0.6920  0.7137  0.6798
 3747SOL    HW222878   2.800   0.932   6.136 -1.6832  0.7530 -0.3667
 3748SOL     OW22879   3.340   2.748   7.604  0.4313 -0.0022 -0.1792
 3748SOL    HW122880   3.290   2.780   7.679 -0.7853  1.1438 -1.4830
 3748SOL    HW222881   3.427   2.745   7.645  1.1366  0.2112 -1.6297
 3749SOL     OW22882   0.727   2.238   7.989  0.2790  0.0497  0.2535
 3749SOL    HW122883   0.753   2.279   8.071  0.6045  0.2124  0.0727
 3749SOL    HW222884   0.805   2.259   7.937 -0.3273 -0.2320 -0.7826
 3750SOL     OW22885   2.110   1.052  13.390  0.2067 -0.3804 -0.0328
 3750SOL    HW122886   2.177   1.109  13.427  0.6681 -0.9229 -0.0367
 3750SOL    HW222887   2.092   1.094  13.305 -3.0613 -2.5305 -0.4163
 3751SOL     OW22888   1.714   3.519   5.959  0.0085 -0.2668  0.1816
 3751SOL    HW122889   1.645   3.578   5.990  2.5720  3.2232 -0.7866
 3751SOL    HW222890   1.780   3.588   5.952 -0.9241  0.4041 -1.8988
 3752SOL     OW22891   1.181   1.870   7.767  0.3389  0.2095  0.0801
 3752SOL    HW122892   1.185   1.952   7.816 -0.5076  0.7771 -0.7898
 3752SOL    HW222893   1.268   1.834   7.786 -0.0195 -0.6445  0.0962
 3753SOL     OW22894   1.439   4.447  15.595 -0.3941  0.1278 -0.4990
 3753SOL    HW122895   1.417   4.412  15.682  1.6831  0.0472 -0.0269
 3753SOL    HW222896   1.429   4.538  15.622 -1.5487 -0.1260 -0.0420
 3754SOL     OW22897   4.405   3.486  12.868  0.0919 -0.4427 -0.4318
 3754SOL    HW122898   4.493   3.447  12.865 -0.0073 -0.6044 -1.1856
 3754SOL    HW222899   4.362   3.430  12.803  1.0013 -0.4465 -1.0384
 3755SOL     OW22900   3.615   2.695   8.760 -0.3093  0.2575  0.6627
 3755SOL    HW122901   3.552   2.758   8.795  0.5494  1.6429 -0.2898
 3755SOL    HW222902   3.701   2.737   8.763  0.1488 -0.7220  1.3275
 3756SOL     OW22903   1.788   3.988   8.470 -0.3095  0.4233 -0.2170
 3756SOL    HW122904   1.863   4.047   8.463  0.3905 -0.4275  0.0283
 3756SOL    HW222905   1.740   4.008   8.390  1.2565  1.0017 -1.0172
 3757SOL     OW22906   3.860   3.186   4.200  0.0123  0.6265  0.6222
 3757SOL    HW122907   3.951   3.214   4.196 -0.2988  1.7140  1.2250
 3757SOL    HW222908   3.833   3.191   4.109  0.6012  2.9165  0.5823
 3758SOL     OW22909   0.090   4.085   6.348  0.2507  0.0962 -0.1046
 3758SOL    HW122910   0.129   4.000   6.368 -0.4741 -0.2310 -0.0877
 3758SOL    HW222911   0.148   4.135   6.406  0.1013  2.0306 -1.6358
 3759SOL     OW22912   2.038   3.327   5.877  0.1599 -0.5489 -0.2045
 3759SOL    HW122913   2.032   3.235   5.853  0.2829 -0.3728 -0.8964
 3759SOL    HW222914   2.079   3.364   5.799 -3.5687  1.5554 -1.1783
 3760SOL     OW22915   0.338   2.921  14.928 -0.0181  0.5379 -0.4083
 3760SOL    HW122916   0.366   2.881  15.010 -1.9001  0.8103  0.3636
 3760SOL    HW222917   0.312   3.008  14.958  2.3665 -0.1903  3.7456
 3761SOL     OW22918   1.542   3.749   7.039 -1.1283 -0.2690 -0.0865
 3761SOL    HW122919   1.523   3.710   6.954 -2.0452  0.7318 -0.3476
 3761SOL    HW222920   1.629   3.710   7.048  0.7318  3.4210 -1.8014
 3762SOL     OW22921   4.000   0.609   5.724  0.1059 -0.1278  0.3390
 3762SOL    HW122922   3.993   0.597   5.629 -2.6342  2.7634  0.1789
 3762SOL    HW222923   4.054   0.688   5.720  1.3340 -0.9991 -0.1268
 3763SOL     OW22924   3.692   3.437   5.412  0.6765  0.6485  0.5454
 3763SOL    HW122925   3.607   3.469   5.383  0.2048 -1.3563 -0.2687
 3763SOL    HW222926   3.680   3.367   5.476  0.9122 -0.3077 -0.4570
 3764SOL     OW22927   3.993   4.684   5.326  0.2041 -0.1086 -0.4193
 3764SOL    HW122928   3.938   4.608   5.342 -0.1649  0.2933  0.2374
 3764SOL    HW222929   4.026   4.708   5.412  0.6671  1.3745 -1.0000
 3765SOL     OW22930   0.814   0.855   7.987  0.1702 -0.0298 -0.0953
 3765SOL    HW122931   0.860   0.772   7.973 -0.9177 -0.5111 -0.7933
 3765SOL    HW222932   0.823   0.893   7.899  2.5570 -2.2849 -0.8346
 3766SOL     OW22933   3.116   0.820   9.497  0.5757  0.1168 -0.1896
 3766SOL    HW122934   3.057   0.887   9.462  1.1338  1.9809  2.4349
 3766SOL    HW222935   3.177   0.812   9.424  2.1970  1.1354  1.0665
 3767SOL     OW22936   4.133   0.240  16.898  0.0086  0.5934  0.1925
 3767SOL    HW122937   4.186   0.163  16.919 -1.9756 -1.0010 -0.6833
 3767SOL    HW222938   4.053   0.192  16.917 -0.3482  1.1908  0.1833
 3768SOL     OW22939   2.284   1.251   4.683 -0.2911 -0.3897  0.0160
 3768SOL    HW122940   2.325   1.336   4.669 -1.0942 -0.7464 -4.4956
 3768SOL    HW222941   2.355   1.198   4.645  0.9876  2.2039 -1.1943
 3769SOL     OW22942   1.273   1.985   4.111  0.0136  0.0317 -0.2231
 3769SOL    HW122943   1.312   1.902   4.140  1.2456 -0.5053 -3.4271
 3769SOL    HW222944   1.320   1.997   4.029  1.4563 -0.4579  0.5400
 3770SOL     OW22945   0.706   3.589   1.831  0.1883  0.3422  0.3498
 3770SOL    HW122946   0.621   3.592   1.875  0.1975  1.9503  0.2702
 3770SOL    HW222947   0.705   3.499   1.799  1.2764 -0.9643  3.9489
 3771SOL     OW22948   4.720   0.019   2.671 -0.0284 -0.4960  0.0122
 3771SOL    HW122949   0.020   0.056   2.590 -1.7495  0.4717 -0.3548
 3771SOL    HW222950   4.729   4.662   2.661  0.0702 -0.6345  1.4599
 3772SOL     OW22951   3.263   3.394   5.481  0.3435 -0.6398  0.0893
 3772SOL    HW122952   3.334   3.444   5.440 -1.8728  3.1994  0.9496
 3772SOL    HW222953   3.184   3.422   5.435  1.7111 -0.3822 -2.1253
 3773SOL     OW22954   1.625   0.840   5.331  0.1413 -0.5566 -0.0072
 3773SOL    HW122955   1.541   0.850   5.375 -0.2902  2.0996 -1.4496
 3773SOL    HW222956   1.601   0.820   5.240 -1.7703  0.8374  0.1951
 3774SOL     OW22957   1.410   2.269   8.621 -0.2415  0.3940 -0.1906
 3774SOL    HW122958   1.395   2.182   8.584  0.9953  0.0372  0.1365
 3774SOL    HW222959   1.364   2.269   8.705 -2.3239  2.8287 -1.3328
 3775SOL     OW22960   4.591   0.669   6.243 -0.5896 -0.3737  0.0302
 3775SOL    HW122961   4.574   0.580   6.211  0.0089 -1.1814  2.0195
 3775SOL    HW222962   4.600   0.656   6.337  1.1153  0.2371 -0.0489
 3776SOL     OW22963   0.661   1.899   6.147 -0.1165 -0.0249 -0.0330
 3776SOL    HW122964   0.714   1.873   6.072 -0.8791  0.5465 -0.7699
 3776SOL    HW222965   0.603   1.824   6.155 -0.3421  0.2466  0.8571
 3777SOL     OW22966   2.210   0.176   4.782 -0.1051 -0.5263  0.7758
 3777SOL    HW122967   2.174   0.263   4.765  0.2958 -0.0632  2.3649
 3777SOL    HW222968   2.203   0.128   4.699  0.0624  0.4231  0.2100
 3778SOL     OW22969   2.118   4.133   8.567  0.3184 -0.7723 -0.2501
 3778SOL    HW122970   2.042   4.104   8.617  0.5684  1.2379  1.2766
 3778SOL    HW222971   2.149   4.048   8.536  0.2458 -0.6486 -0.6606
 3779SOL     OW22972   2.632   2.905   7.082  0.4702  0.5413  0.7192
 3779SOL    HW122973   2.717   2.867   7.060  0.1973  0.4037 -0.1129
 3779SOL    HW222974   2.576   2.882   7.008 -0.1352  1.9949  0.7246
 3780SOL     OW22975   4.547   2.574   7.739  0.4612  0.0484 -0.0504
 3780SOL    HW122976   4.613   2.589   7.671 -0.3663  1.3530 -0.5605
 3780SOL    HW222977   4.513   2.489   7.711  0.2904 -0.3925  1.4840
 3781SOL     OW22978   2.578   3.824   7.856  0.2014 -0.5547  0.8111
 3781SOL    HW122979   2.660   3.871   7.839  0.8269 -0.7469  3.3661
 3781SOL    HW222980   2.610   3.742   7.893  0.5999 -0.5453  0.4987
 3782SOL     OW22981   2.338   3.472  13.579 -0.1030 -0.1346 -0.4282
 3782SOL    HW122982   2.300   3.517  13.504  2.7356  1.5400 -0.8985
 3782SOL    HW222983   2.318   3.546  13.636 -1.0964  0.2240 -1.2629
 3783SOL     OW22984   2.101   3.845   8.782  0.0885  0.0889 -0.3643
 3783SOL    HW122985   2.032   3.911   8.775 -1.0240 -0.9085  1.1599
 3783SOL    HW222986   2.134   3.842   8.692  2.1942  2.6947  0.3491
 3784SOL     OW22987   4.065   0.403   7.118  0.6589 -0.3194 -0.5749
 3784SOL    HW122988   4.147   0.353   7.125 -0.5511 -2.1947  0.3895
 3784SOL    HW222989   4.054   0.432   7.208 -1.3386 -1.7104 -0.3588
 3785SOL     OW22990   0.029   4.055   4.542  0.2670  0.3623 -0.1699
 3785SOL    HW122991   4.698   4.106   4.587  0.8038  0.1234  0.9241
 3785SOL    HW222992   0.018   4.100   4.459  0.6019 -0.7502 -0.8185
 3786SOL     OW22993   1.575   2.385   2.701 -0.0389  0.1100  0.3096
 3786SOL    HW122994   1.630   2.363   2.776 -0.3100 -1.4856  0.0426
 3786SOL    HW222995   1.499   2.330   2.721  0.5477 -0.9535 -0.4019
 3787SOL     OW22996   4.231   0.654   9.122  0.3686 -0.2030 -0.1832
 3787SOL    HW122997   4.200   0.622   9.037  1.0616 -1.1689 -0.0680
 3787SOL    HW222998   4.202   0.585   9.182 -1.2325  1.1078  0.5586
 3788SOL     OW22999   4.106   2.593  12.620 -0.7284 -0.4327  0.2502
 3788SOL    HW123000   4.039   2.576  12.686  2.5980 -4.0696  2.6837
 3788SOL    HW223001   4.185   2.551  12.655 -2.3076 -3.2323  0.4872
 3789SOL     OW23002   1.132   0.798   5.809  0.4995  0.3627  0.2086
 3789SOL    HW123003   1.175   0.713   5.802  0.1170  0.2305 -0.6233
 3789SOL    HW223004   1.048   0.775   5.849  1.4293  0.7364  2.3329
 3790SOL     OW23005   0.149   2.768   1.713 -0.0810 -0.2199  0.2702
 3790SOL    HW123006   0.152   2.848   1.765 -2.5578  0.0582  0.0234
 3790SOL    HW223007   0.181   2.796   1.627  0.3839  0.3033  0.6214
 3791SOL     OW23008   4.169   1.262   5.048  0.2648 -0.1295 -0.0465
 3791SOL    HW123009   4.171   1.317   4.970  0.1101  1.1830  0.8789
 3791SOL    HW223010   4.091   1.209   5.030  0.5745 -0.5679 -0.1083
 3792SOL     OW23011   0.016   0.191   8.948  0.4912  0.0466  0.0603
 3792SOL    HW123012   4.698   0.189   9.026 -0.2426 -1.5278 -0.5051
 3792SOL    HW223013   0.103   0.188   8.988  0.6561 -0.3547 -0.3275
 3793SOL     OW23014   2.019   1.754  16.969 -0.5872  0.2442  0.1801
 3793SOL    HW123015   1.983   1.668  16.946  0.6590  0.0964 -1.2295
 3793SOL    HW223016   1.966   1.778  17.045  1.4980  1.4033  1.2487
 3794SOL     OW23017   0.040   1.806   8.644 -0.1835 -0.5167 -0.3807
 3794SOL    HW123018   0.053   1.893   8.682 -1.2928 -0.4329 -0.1869
 3794SOL    HW223019   0.006   1.756   8.718 -1.3283  1.3227  0.3398
 3795SOL     OW23020   4.660   0.327   5.498 -0.3765 -0.0585 -0.3302
 3795SOL    HW123021   4.583   0.290   5.455 -0.2268 -0.1769 -0.4956
 3795SOL    HW223022   4.628   0.387   5.566  3.4939 -0.0900  1.4901
 3796SOL     OW23023   3.781   3.130  16.518  0.0063  0.6027  0.2721
 3796SOL    HW123024   3.714   3.139  16.586  0.9862 -1.2728  1.4734
 3796SOL    HW223025   3.779   3.037  16.493  0.1335  0.2304  1.6613
 3797SOL     OW23026   0.468   2.259   8.997 -0.0187 -0.1166  0.7187
 3797SOL    HW123027   0.524   2.316   9.050  0.5304  0.6076 -0.6547
 3797SOL    HW223028   0.419   2.212   9.065  0.3861 -0.5505  0.7086
 3798SOL     OW23029   1.164   3.627   2.837 -0.9030 -0.4666 -0.0716
 3798SOL    HW123030   1.170   3.696   2.903 -2.3861  0.8709 -1.3022
 3798SOL    HW223031   1.070   3.607   2.843 -0.9251 -0.6560 -1.0328
 3799SOL     OW23032   2.177   2.307   8.127  0.0333  0.0892  0.2555
 3799SOL    HW123033   2.246   2.366   8.097  0.7222 -0.4403  0.7836
 3799SOL    HW223034   2.205   2.294   8.218 -0.7977 -0.2124  0.4668
 3800SOL     OW23035   0.405   2.844   6.291  0.2165  0.6358  0.2336
 3800SOL    HW123036   0.453   2.764   6.266 -0.3511  0.4783 -0.3428
 3800SOL    HW223037   0.334   2.811   6.346 -0.8123  1.6308 -0.5076
 3801SOL     OW23038   0.781   0.765   3.234 -0.0021 -0.6651 -0.1943
 3801SOL    HW123039   0.866   0.751   3.275  0.1162  1.8024  0.3913
 3801SOL    HW223040   0.770   0.682   3.187  0.8755 -0.3079 -1.0171
 3802SOL     OW23041   4.501   1.101   9.136  0.3337 -0.2541 -0.5217
 3802SOL    HW123042   4.428   1.130   9.081 -1.4768  1.9677  3.0659
 3802SOL    HW223043   4.476   1.009   9.144  0.6805 -0.4248 -1.4549
 3803SOL     OW23044   3.012   2.889   3.691  0.1085 -0.2090 -0.0355
 3803SOL    HW123045   3.059   2.963   3.653  0.6240 -0.6225 -0.2016
 3803SOL    HW223046   3.078   2.866   3.756  1.1764 -0.9427 -1.3534
 3804SOL     OW23047   3.115   1.988   6.022 -0.5082  0.0382 -0.2784
 3804SOL    HW123048   3.176   2.043   5.972  0.2019 -0.6377 -0.1496
 3804SOL    HW223049   3.096   1.928   5.949 -1.3328  0.0624 -0.0918
 3805SOL     OW23050   4.628   3.307  12.896  0.4809  0.1851 -0.5241
 3805SOL    HW123051   4.685   3.306  12.973 -0.3485 -1.5425  0.0648
 3805SOL    HW223052   4.596   3.217  12.903 -1.5604  1.0640  1.3427
 3806SOL     OW23053   2.984   4.069   7.553 -0.4573 -0.6689 -0.2902
 3806SOL    HW123054   2.952   4.094   7.640 -1.1709 -1.0375 -0.4464
 3806SOL    HW223055   3.074   4.042   7.569  0.4462  1.8710 -1.1708
 3807SOL     OW23056   1.459   2.336   6.518 -0.1470 -0.3002 -0.0835
 3807SOL    HW123057   1.384   2.383   6.556 -0.6674 -0.5994 -0.7370
 3807SOL    HW223058   1.425   2.268   6.460  1.0336 -2.6020  1.9163
 3808SOL     OW23059   3.376   1.574  12.931 -0.3388  0.2585  0.1730
 3808SOL    HW123060   3.403   1.554  12.841  2.4230  3.1306  0.3700
 3808SOL    HW223061   3.304   1.512  12.945  0.8920 -0.8122  1.6985
 3809SOL     OW23062   4.039   2.909  11.566  0.2795 -0.0281  0.8264
 3809SOL    HW123063   3.945   2.923  11.553 -0.0353 -2.5013  0.5689
 3809SOL    HW223064   4.079   2.967  11.501 -0.3542  1.3991  1.7021
 3810SOL     OW23065   2.851   2.492   2.433  0.1325  0.1057 -0.0076
 3810SOL    HW123066   2.882   2.414   2.388  1.2924 -0.9520  2.6544
 3810SOL    HW223067   2.860   2.563   2.369 -1.3742 -1.2922 -1.7752
 3811SOL     OW23068   3.141   1.053   5.701  0.1400  0.1469  0.4010
 3811SOL    HW123069   3.143   1.134   5.752 -1.5244  0.0586  0.6082
 3811SOL    HW223070   3.142   1.077   5.608  0.5763  0.8644  0.5872
 3812SOL     OW23071   3.742   1.886   9.466 -0.5484 -0.2790  0.1473
 3812SOL    HW123072   3.680   1.855   9.532 -0.4721 -0.9957 -0.1160
 3812SOL    HW223073   3.749   1.980   9.484  0.8828 -0.2969 -0.2892
 3813SOL     OW23074   3.654   4.426   6.511  0.7788  0.4428  0.5326
 3813SOL    HW123075   3.726   4.484   6.536  0.2136  1.1260  0.5720
 3813SOL    HW223076   3.641   4.473   6.429  0.8086  1.3478  1.0418
 3814SOL     OW23077   3.428   0.289   5.455  0.1567  0.0401  0.3654
 3814SOL    HW123078   3.352   0.324   5.502 -0.2647  0.3110 -0.5243
 3814SOL    HW223079   3.436   0.355   5.386 -0.2054 -0.6752 -0.3619
 3815SOL     OW23080   0.832   2.531   9.780 -0.1390 -0.0304 -0.9164
 3815SOL    HW123081   0.762   2.522   9.845  0.9507 -0.2015  0.2408
 3815SOL    HW223082   0.843   2.438   9.759 -0.5693 -0.4484  0.6867
 3816SOL     OW23083   2.704   0.008   8.012 -0.3328  0.2172 -0.1389
 3816SOL    HW123084   2.712   0.093   8.056 -0.7968 -0.4253  1.1942
 3816SOL    HW223085   2.630   4.713   8.063  0.2667  1.5328  1.5928
 3817SOL     OW23086   0.237   0.990   5.416 -0.1038  0.2493 -0.2178
 3817SOL    HW123087   0.241   0.948   5.502 -0.5495  0.6405 -0.0085
 3817SOL    HW223088   0.165   1.050   5.434  0.7419  0.6329  1.8818
 3818SOL     OW23089   4.588   1.391   5.806  0.4699  0.1055  0.1681
 3818SOL    HW123090   4.493   1.393   5.821  0.0743 -1.4540 -2.0332
 3818SOL    HW223091   4.593   1.308   5.758  1.4145  1.7186 -2.5516
 3819SOL     OW23092   2.990   0.431   3.174  0.8654 -0.1988 -0.4786
 3819SOL    HW123093   3.052   0.503   3.177  1.5416 -0.7401 -1.5136
 3819SOL    HW223094   2.921   0.472   3.122  2.0894  2.1195 -0.2672
 3820SOL     OW23095   4.730   1.257   6.913  0.2856 -0.0974  0.0978
 3820SOL    HW123096   4.663   1.228   6.976  1.0622 -0.6004  0.6945
 3820SOL    HW223097   4.687   1.335   6.878 -0.0908 -0.2007  0.3298
 3821SOL     OW23098   4.643   1.564   6.048  0.4958 -0.5265  0.2031
 3821SOL    HW123099   4.703   1.605   5.985  1.4117 -0.8785  0.8532
 3821SOL    HW223100   4.562   1.571   5.998 -0.0627  2.1097  1.5211
 3822SOL     OW23101   0.593   1.895  16.935 -0.6154  0.2040 -0.2195
 3822SOL    HW123102   0.675   1.881  16.982  0.3488  2.0226 -1.3648
 3822SOL    HW223103   0.617   1.851  16.853  0.3133 -0.7776  0.5661
 3823SOL     OW23104   2.171   2.455  15.421 -0.6325 -0.1041  0.0294
 3823SOL    HW123105   2.199   2.526  15.478 -1.0711  0.9153 -1.0249
 3823SOL    HW223106   2.225   2.466  15.343 -1.3667 -1.1655 -0.6297
 3824SOL     OW23107   0.702   1.912   2.246 -0.3791  0.3530  0.3172
 3824SOL    HW123108   0.691   1.875   2.333  3.7880  1.2322  1.1802
 3824SOL    HW223109   0.727   2.001   2.271 -1.1774  0.1728  1.7459
 3825SOL     OW23110   2.149   4.447   7.532  0.2731 -0.3389 -0.4945
 3825SOL    HW123111   2.097   4.372   7.560 -0.7006 -0.5780 -2.9701
 3825SOL    HW223112   2.085   4.517   7.540  0.1154 -0.4299 -0.9501
 3826SOL     OW23113   1.120   2.247   9.646 -0.4774 -0.3539 -0.4496
 3826SOL    HW123114   1.027   2.258   9.666  0.1466  1.5691  1.3266
 3826SOL    HW223115   1.155   2.320   9.697 -1.0047 -0.6190  0.2924
 3827SOL     OW23116   2.592   1.798   5.361  0.3145 -0.3263 -0.6982
 3827SOL    HW123117   2.502   1.807   5.329  0.5344 -2.2525 -1.9026
 3827SOL    HW223118   2.609   1.708   5.333 -0.2007 -1.0768  1.3961
 3828SOL     OW23119   2.596   3.440   4.860  0.1880  0.6848  0.0573
 3828SOL    HW123120   2.502   3.457   4.864  0.1566  0.4384  0.4111
 3828SOL    HW223121   2.598   3.350   4.827  1.8748  1.0518 -0.8471
 3829SOL     OW23122   2.351   3.525   4.534  0.2409 -0.1360  0.3316
 3829SOL    HW123123   2.419   3.543   4.469 -0.2251 -0.3944 -0.2272
 3829SOL    HW223124   2.359   3.430   4.548  0.6716  0.0026  1.0340
 3830SOL     OW23125   0.452   3.009   1.514  0.4929 -0.2847 -0.4429
 3830SOL    HW123126   0.439   3.064   1.591  0.6153 -2.6100  1.2334
 3830SOL    HW223127   0.466   3.078   1.449  2.4082  2.2385  2.6862
 3831SOL     OW23128   2.978   4.197   0.728  0.0140  0.8532 -0.2832
 3831SOL    HW123129   2.914   4.174   0.795  0.2083 -0.3955 -0.5288
 3831SOL    HW223130   3.019   4.113   0.706 -1.3605  0.2180 -0.4056
 3832SOL     OW23131   1.537   2.484   2.438 -0.5126 -0.4752 -0.1938
 3832SOL    HW123132   1.443   2.501   2.432 -0.5837 -0.9358 -0.3718
 3832SOL    HW223133   1.540   2.456   2.530 -2.7206  0.1834  0.0814
 3833SOL     OW23134   1.055   3.321   8.152  0.3784 -0.3823 -0.2082
 3833SOL    HW123135   0.981   3.322   8.213  1.0491 -0.5203  0.6119
 3833SOL    HW223136   1.011   3.270   8.084  1.7632 -2.5697  0.5322
 3834SOL     OW23137   0.559   2.712   8.944 -0.2583 -0.6650  0.0983
 3834SOL    HW123138   0.550   2.730   8.850  0.2303  0.8424  0.3411
 3834SOL    HW223139   0.651   2.685   8.943  0.0152  0.2909 -2.9869
 3835SOL     OW23140   4.200   1.441   2.061 -0.9957 -0.4807 -0.2103
 3835SOL    HW123141   4.185   1.535   2.071  0.4770 -0.3173  0.5047
 3835SOL    HW223142   4.109   1.412   2.069 -1.3970  0.9670  0.4856
 3836SOL     OW23143   4.400   3.971  12.847  0.3376  0.5094 -0.2941
 3836SOL    HW123144   4.403   3.935  12.936  0.9687  1.1461 -0.0504
 3836SOL    HW223145   4.453   3.905  12.804  2.6423  2.6138 -0.6629
 3837SOL     OW23146   4.465   4.006   5.700 -0.2060  0.7385  0.3749
 3837SOL    HW123147   4.505   3.962   5.625 -0.9650  0.8363 -0.0880
 3837SOL    HW223148   4.389   3.947   5.704  1.7569 -1.8539 -0.1084
 3838SOL     OW23149   2.272   0.783  14.260  0.4743 -0.6478  0.9288
 3838SOL    HW123150   2.252   0.858  14.204  0.6937 -0.6341  0.8664
 3838SOL    HW223151   2.294   0.825  14.343 -0.7393  0.5042  0.6611
 3839SOL     OW23152   1.314   3.333   4.395  0.8863  0.1527  0.3200
 3839SOL    HW123153   1.394   3.281   4.400  0.5686 -0.2741  0.9674
 3839SOL    HW223154   1.346   3.417   4.426 -1.7430  0.2928  2.6771
 3840SOL     OW23155   0.061   1.340   3.674  0.0714 -0.4594 -0.2050
 3840SOL    HW123156   4.711   1.323   3.640  0.5255 -2.1615 -0.5229
 3840SOL    HW223157   0.085   1.251   3.698 -2.3521 -0.9388  0.5210
 3841SOL     OW23158   2.920   3.334   3.256 -0.0833 -0.2523  0.1609
 3841SOL    HW123159   2.886   3.265   3.199  2.0445 -2.1833  1.2020
 3841SOL    HW223160   2.982   3.381   3.200  0.8594 -2.5437 -0.7090
 3842SOL     OW23161   0.905   1.126   0.360  0.1452  0.0785  0.1619
 3842SOL    HW123162   0.958   1.075   0.422  0.8528  1.3193  0.5730
 3842SOL    HW223163   0.968   1.135   0.289 -1.3238 -2.6918 -1.4647
 3843SOL     OW23164   1.809   4.375  16.687 -0.0846 -0.2312  0.5284
 3843SOL    HW123165   1.738   4.363  16.624  2.0988 -1.1591 -1.7643
 3843SOL    HW223166   1.831   4.283  16.704  0.4484 -0.4579 -1.3030
 3844SOL     OW23167   0.682   1.785   7.047  0.8908  0.6710 -0.6256
 3844SOL    HW123168   0.687   1.879   7.029  1.9125  0.6424 -0.5278
 3844SOL    HW223169   0.649   1.759   6.961 -2.6415  4.0814 -0.2932
 3845SOL     OW23170   1.572   2.119   9.885 -0.5884 -0.6833  0.2947
 3845SOL    HW123171   1.541   2.201   9.846  2.8261  0.0042 -0.9561
 3845SOL    HW223172   1.628   2.155   9.954  0.3580 -0.1218 -0.7630
 3846SOL     OW23173   3.083   2.434   4.525  0.7032  0.2937  0.6455
 3846SOL    HW123174   2.997   2.475   4.528  0.3383 -0.3417 -1.1867
 3846SOL    HW223175   3.115   2.515   4.485 -0.2624 -0.1108 -0.8934
 3847SOL     OW23176   1.775   2.438   5.798 -0.2868  0.0883  0.0413
 3847SOL    HW123177   1.713   2.495   5.753  0.9242  1.3297 -0.0287
 3847SOL    HW223178   1.828   2.503   5.844  0.0347 -0.8439  1.0003
 3848SOL     OW23179   4.213   1.472   3.972 -0.3096 -0.0601 -0.3446
 3848SOL    HW123180   4.253   1.432   4.050  1.5179  3.9258  0.7520
 3848SOL    HW223181   4.263   1.435   3.899  0.4937 -3.2877  1.8180
 3849SOL     OW23182   0.581   3.819   7.002 -0.0573 -0.6226  0.2715
 3849SOL    HW123183   0.600   3.906   6.968  0.7270 -0.9521 -0.1400
 3849SOL    HW223184   0.628   3.818   7.085  1.3650  1.2865 -0.5308
 3850SOL     OW23185   2.312   1.823   5.248 -0.0099  0.0148  0.0135
 3850SOL    HW123186   2.263   1.905   5.252  0.1020 -0.0146  1.8546
 3850SOL    HW223187   2.286   1.783   5.330  0.2718  0.4362  0.3074
 3851SOL     OW23188   2.924   3.070   2.376 -0.1495 -0.4938 -0.1667
 3851SOL    HW123189   2.858   3.047   2.310  2.4605 -1.4007 -2.4348
 3851SOL    HW223190   3.004   3.040   2.334  0.9088  0.8085  0.9284
 3852SOL     OW23191   0.391   3.554   5.458 -0.0788  0.0614  0.4320
 3852SOL    HW123192   0.314   3.498   5.454 -0.4675  0.4484  2.3158
 3852SOL    HW223193   0.412   3.549   5.365  1.6343  0.0243  0.8078
 3853SOL     OW23194   2.354   0.737   3.775  0.9810  0.0170 -0.2111
 3853SOL    HW123195   2.348   0.798   3.848  0.8862  1.8622 -1.7625
 3853SOL    HW223196   2.352   0.651   3.818 -1.1135  1.1584  1.9386
 3854SOL     OW23197   2.281   4.389   0.173  0.2352 -0.4636  0.0078
 3854SOL    HW123198   2.261   4.297   0.158  1.7810 -1.1783  2.3740
 3854SOL    HW223199   2.290   4.425   0.084  0.0288 -1.0962 -0.2685
 3855SOL     OW23200   0.193   0.876   6.877  0.1295  0.1833 -0.5323
 3855SOL    HW123201   0.161   0.928   6.804  0.1798 -0.4645 -1.0175
 3855SOL    HW223202   0.284   0.853   6.859 -0.5731 -2.5281 -0.5822
 3856SOL     OW23203   2.310   3.383   2.175 -0.2038  0.3209  0.6548
 3856SOL    HW123204   2.271   3.439   2.243 -0.1680 -0.3289  1.2142
 3856SOL    HW223205   2.259   3.395   2.095 -0.5377 -1.0858  0.6589
 3857SOL     OW23206   1.190   3.963   4.869  0.5059  0.3396  0.1891
 3857SOL    HW123207   1.173   3.873   4.843  1.0837 -0.1452  1.5101
 3857SOL    HW223208   1.122   3.986   4.932 -0.4910  0.2693 -0.8555
 3858SOL     OW23209   3.602   0.522   6.161  0.1416 -0.1564 -0.5733
 3858SOL    HW123210   3.633   0.433   6.142 -1.4885 -0.8506  0.0103
 3858SOL    HW223211   3.682   0.574   6.160  0.5682 -0.8206 -1.2654
 3859SOL     OW23212   4.185   4.340   2.201 -0.7981  0.1239 -0.8046
 3859SOL    HW123213   4.163   4.413   2.259  2.3275 -1.7852  2.7427
 3859SOL    HW223214   4.244   4.377   2.135 -0.7590  0.5918 -0.5056
 3860SOL     OW23215   2.972   0.622  11.334  0.4524 -0.1390  0.1905
 3860SOL    HW123216   2.889   0.613  11.381  0.4652 -2.1425 -0.1676
 3860SOL    HW223217   2.983   0.533  11.301 -0.9160  0.1001 -0.8940
 3861SOL     OW23218   2.346   0.848   1.691 -0.0143  0.7551  0.2675
 3861SOL    HW123219   2.417   0.910   1.681  0.8101  0.0492  1.7223
 3861SOL    HW223220   2.271   0.896   1.657  0.0087  0.0761 -0.7426
 3862SOL     OW23221   1.175   0.029   6.106  0.2412 -0.0632  0.0625
 3862SOL    HW123222   1.106   0.038   6.171 -0.5183 -1.0182 -0.6286
 3862SOL    HW223223   1.250   0.024   6.166 -0.9106 -0.8792  1.4077
 3863SOL     OW23224   3.387   0.593   3.091 -0.0907 -0.0495 -0.2508
 3863SOL    HW123225   3.305   0.641   3.080  0.2111  0.8013  1.3207
 3863SOL    HW223226   3.411   0.578   2.999  0.1649 -1.2642  0.0137
 3864SOL     OW23227   2.185   1.498   7.546 -0.3601  0.4067  0.0875
 3864SOL    HW123228   2.132   1.519   7.469 -1.3019 -0.4430  0.4950
 3864SOL    HW223229   2.131   1.550   7.605  0.7216  0.0823  1.3599
 3865SOL     OW23230   2.274   0.379   1.387  0.2349  0.0975  0.5015
 3865SOL    HW123231   2.333   0.358   1.459 -0.1360  0.3367  0.8761
 3865SOL    HW223232   2.242   0.467   1.407  2.5373  0.7511  1.2774
 3866SOL     OW23233   3.853   0.504   9.933  0.9050  0.2682  0.0081
 3866SOL    HW123234   3.834   0.490   9.840 -1.1931  0.0776  0.4575
 3866SOL    HW223235   3.927   0.445   9.945  0.3057 -1.0301 -2.6620
 3867SOL     OW23236   2.154   2.902  14.093  0.2859  0.4665  0.0868
 3867SOL    HW123237   2.214   2.933  14.160  0.4730 -1.7886  0.9864
 3867SOL    HW223238   2.207   2.919  14.016  1.1888 -2.2086  0.1139
 3868SOL     OW23239   2.345   1.258   2.183 -0.3756 -0.2500  0.1716
 3868SOL    HW123240   2.258   1.291   2.160  0.5080  1.3023 -0.9253
 3868SOL    HW223241   2.342   1.173   2.139 -2.4183 -0.8730  1.5560
 3869SOL     OW23242   3.668   0.642   5.925  0.1797  0.3112  0.3882
 3869SOL    HW123243   3.629   0.586   5.993  0.6076  0.2861  0.6133
 3869SOL    HW223244   3.623   0.724   5.946 -0.0589  0.3115 -0.1309
 3870SOL     OW23245   2.724   3.603   8.234  0.0081  0.4377 -0.0368
 3870SOL    HW123246   2.790   3.617   8.166 -0.8985  0.2814 -0.9466
 3870SOL    HW223247   2.780   3.590   8.311 -1.1183 -1.6167  0.4546
 3871SOL     OW23248   3.920   2.276   2.016 -0.2260  0.8736  0.1374
 3871SOL    HW123249   3.909   2.364   1.980  1.8404  1.7840  1.7256
 3871SOL    HW223250   3.884   2.280   2.105 -1.0220 -3.5291  0.0163
 3872SOL     OW23251   0.159   2.587   9.459 -0.1020  0.2176 -0.4887
 3872SOL    HW123252   0.115   2.666   9.489  1.0256 -0.1559  2.1377
 3872SOL    HW223253   0.221   2.587   9.532 -0.8117  1.2171  0.1046
 3873SOL     OW23254   0.899   0.995   7.749  0.3368 -0.8065 -0.4782
 3873SOL    HW123255   0.985   0.990   7.790  1.0419  0.6792 -1.7541
 3873SOL    HW223256   0.910   0.945   7.668 -0.3779 -0.7783 -0.5928
 3874SOL     OW23257   2.891   1.968   2.011 -0.2547  0.0728 -0.0685
 3874SOL    HW123258   2.986   1.962   2.009 -0.2524 -0.4158  1.9748
 3874SOL    HW223259   2.875   1.911   2.086  2.6738  0.1649  0.6282
 3875SOL     OW23260   3.971   2.663   1.792 -0.1120 -0.0398  0.5192
 3875SOL    HW123261   3.976   2.747   1.746 -2.5125  0.8919  1.9256
 3875SOL    HW223262   4.027   2.611   1.735  0.9573  0.0381  1.5224
 3876SOL     OW23263   1.391   3.283  11.596 -0.0814 -0.8861  0.3315
 3876SOL    HW123264   1.470   3.290  11.649 -0.0255  1.3723 -0.0529
 3876SOL    HW223265   1.371   3.190  11.590 -1.4086 -0.7057  2.1320
 3877SOL     OW23266   1.754   1.945   7.255 -0.0187  0.3713 -0.2537
 3877SOL    HW123267   1.838   1.929   7.213  0.8377  3.1896  0.3627
 3877SOL    HW223268   1.730   2.030   7.219  1.3271  0.5388 -0.7399
 3878SOL     OW23269   1.921   0.936   4.589  0.3679 -0.2660  0.0737
 3878SOL    HW123270   2.013   0.921   4.569  0.1675  0.0713 -1.0865
 3878SOL    HW223271   1.919   1.032   4.594  1.5647 -0.2584  0.4666
 3879SOL     OW23272   3.034   1.775  16.172  0.8104 -0.3141  0.5895
 3879SOL    HW123273   3.047   1.824  16.254 -0.2086  1.4387 -0.2865
 3879SOL    HW223274   2.957   1.723  16.196  0.9656 -0.8136  0.0054
 3880SOL     OW23275   0.791   0.496  10.786 -0.1839 -0.2378 -0.4050
 3880SOL    HW123276   0.799   0.531  10.874  0.0953 -0.7506 -0.2332
 3880SOL    HW223277   0.700   0.522  10.768  0.0884  1.0628  0.0638
 3881SOL     OW23278   0.339   1.786  15.843  0.3485  0.6541 -0.6511
 3881SOL    HW123279   0.247   1.804  15.824  0.0675 -1.8780 -1.7226
 3881SOL    HW223280   0.339   1.806  15.937  3.1266 -1.6490 -0.1636
 3882SOL     OW23281   4.033   0.337   9.529 -0.0883  0.0202  0.8865
 3882SOL    HW123282   4.020   0.408   9.465  1.7017 -2.4552 -2.2237
 3882SOL    HW223283   4.053   0.257   9.480  2.7111  1.3794 -0.1971
 3883SOL     OW23284   0.876   1.372   6.825  0.1971 -0.1033 -0.1061
 3883SOL    HW123285   0.803   1.410   6.776 -1.0083 -1.9004  0.2893
 3883SOL    HW223286   0.826   1.315   6.884 -0.9647  0.1504 -0.8590
 3884SOL     OW23287   1.533   0.463   1.725 -0.3999 -0.1830  0.1051
 3884SOL    HW123288   1.455   0.519   1.725 -1.7082 -2.0384  1.1663
 3884SOL    HW223289   1.549   0.444   1.632  1.1497  1.5147  0.0286
 3885SOL     OW23290   1.845   2.417   1.522 -0.1260  0.3096 -0.2379
 3885SOL    HW123291   1.888   2.343   1.479 -0.6127 -0.1622  0.0700
 3885SOL    HW223292   1.893   2.420   1.605  0.3232 -0.3127 -0.4739
 3886SOL     OW23293   0.834   3.987   7.707 -1.0316  0.1497  0.6220
 3886SOL    HW123294   0.900   3.932   7.664 -1.4568  0.2502 -0.1505
 3886SOL    HW223295   0.834   4.073   7.666 -1.7372 -0.2766 -0.2512
 3887SOL     OW23296   4.581   0.494   8.199 -0.3534 -0.1980 -0.0759
 3887SOL    HW123297   4.610   0.407   8.229 -0.0838  0.2049  0.8340
 3887SOL    HW223298   4.625   0.491   8.114  1.3809 -1.6573  0.8505
 3888SOL     OW23299   1.559   4.683  14.579 -0.1206  0.3593  0.1129
 3888SOL    HW123300   1.576   0.029  14.535 -1.8827 -0.2257 -1.7059
 3888SOL    HW223301   1.614   4.623  14.528  0.8760  0.3524  1.2042
 3889SOL     OW23302   4.438   2.303   2.303  0.6430 -0.7202 -0.2662
 3889SOL    HW123303   4.426   2.208   2.300  1.8408 -0.8907  0.0781
 3889SOL    HW223304   4.345   2.325   2.296  0.0683 -2.7524  0.9293
 3890SOL     OW23305   0.617   4.341  13.790  0.3610  0.3929 -0.3836
 3890SOL    HW123306   0.621   4.344  13.886 -0.6668  1.9965 -0.4004
 3890SOL    HW223307   0.606   4.248  13.772 -0.9374  0.2562  1.1146
 3891SOL     OW23308   4.494   0.986   3.670  0.1605  0.1806  0.6128
 3891SOL    HW123309   4.589   0.996   3.663  0.1369 -1.1796 -1.6203
 3891SOL    HW223310   4.491   0.986   3.765 -0.4084 -0.5423  0.5916
 3892SOL     OW23311   1.826   2.366   6.238 -0.3918 -0.3158  0.4956
 3892SOL    HW123312   1.799   2.329   6.153 -0.5408  1.5041 -0.2565
 3892SOL    HW223313   1.913   2.392   6.209 -1.1737  0.1257 -1.4532
 3893SOL     OW23314   4.126   2.491   5.657 -0.3012  0.0873  0.2550
 3893SOL    HW123315   4.210   2.491   5.702  0.3106  1.3871 -0.8969
 3893SOL    HW223316   4.152   2.545   5.582 -0.2572  0.0148  0.2178
 3894SOL     OW23317   2.078   1.414   9.671  0.1765  0.5260  0.1905
 3894SOL    HW123318   2.064   1.405   9.577 -0.5975 -2.3405  0.5913
 3894SOL    HW223319   2.151   1.355   9.687  0.8299  1.4531  0.6737
 3895SOL     OW23320   1.733   1.244  15.278  0.0602 -0.0414 -0.3824
 3895SOL    HW123321   1.654   1.297  15.287  0.9151  1.6470 -2.8230
 3895SOL    HW223322   1.715   1.199  15.195 -0.7016  0.1635 -0.3236
 3896SOL     OW23323   2.957   0.612   7.967 -0.2192 -0.2956  0.3279
 3896SOL    HW123324   2.967   0.549   7.896 -1.7996  1.2781 -1.2921
 3896SOL    HW223325   3.046   0.604   8.000 -0.0231  1.7215  0.3198
 3897SOL     OW23326   0.645   2.099   1.879 -0.8722 -0.5117 -0.2116
 3897SOL    HW123327   0.638   2.159   1.953 -1.8675 -0.5564 -0.2663
 3897SOL    HW223328   0.648   2.151   1.799 -0.5579 -0.9843 -0.5032
 3898SOL     OW23329   3.306   0.752   8.457 -0.2916 -0.6819  0.1037
 3898SOL    HW123330   3.367   0.751   8.531 -0.3395 -0.8201  0.1418
 3898SOL    HW223331   3.344   0.675   8.413 -0.1104 -0.2910 -0.4249
 3899SOL     OW23332   3.437   4.423  13.388  0.3397 -0.6060  0.2032
 3899SOL    HW123333   3.348   4.429  13.421 -0.1200 -1.2298 -0.9076
 3899SOL    HW223334   3.424   4.398  13.296  0.1907 -0.1490  0.0996
 3900SOL     OW23335   3.057   4.097   4.067  0.7284 -0.4413 -0.0195
 3900SOL    HW123336   3.053   4.004   4.086 -1.3319 -0.0463  1.4661
 3900SOL    HW223337   3.089   4.096   3.977  0.8734 -0.6254  0.0358
 3901SOL     OW23338   4.057   0.175  14.054 -0.3154 -0.7645 -0.0134
 3901SOL    HW123339   4.126   0.164  13.989 -0.2135 -0.0139 -0.0232
 3901SOL    HW223340   3.991   0.229  14.012 -0.1014 -0.3227  0.2243
 3902SOL     OW23341   0.154   3.925   3.060  0.1646 -0.3515  0.2622
 3902SOL    HW123342   0.114   3.848   3.019  2.5585 -1.1218 -0.6667
 3902SOL    HW223343   0.153   3.987   2.988  2.0584 -0.1993  0.3584
 3903SOL     OW23344   2.219   3.864   7.273  0.2553 -0.2523 -0.2318
 3903SOL    HW123345   2.236   3.923   7.199  2.2993 -0.6192 -0.0547
 3903SOL    HW223346   2.144   3.817   7.237  1.2130 -0.3528 -2.0810
 3904SOL     OW23347   1.967   4.176   9.001  0.0986 -0.0415 -0.1177
 3904SOL    HW123348   2.045   4.222   9.031  0.7634 -1.8904  1.0392
 3904SOL    HW223349   1.968   4.103   9.063  0.2596  1.9998  2.2605
 3905SOL     OW23350   0.056   3.659   3.017 -0.6833 -0.2103  0.0443
 3905SOL    HW123351   0.050   3.564   3.002  2.2414 -0.4858  0.6397
 3905SOL    HW223352   0.106   3.669   3.098 -2.4775  3.9769  0.6268
 3906SOL     OW23353   1.875   0.138   5.815  0.1390 -0.4127 -0.1846
 3906SOL    HW123354   1.874   0.043   5.804 -0.9817 -0.5041  0.7197
 3906SOL    HW223355   1.966   0.158   5.792 -0.0599 -1.8058 -2.2533
 3907SOL     OW23356   0.815   3.989   4.134 -0.5613 -0.2659 -0.7536
 3907SOL    HW123357   0.908   3.969   4.132 -0.3912  0.3717  1.0828
 3907SOL    HW223358   0.810   4.037   4.216 -1.0265  2.5804 -2.4542
 3908SOL     OW23359   0.416   4.567   0.346  0.6592  0.8504  0.3323
 3908SOL    HW123360   0.443   4.644   0.397  2.6453 -0.2868  0.9925
 3908SOL    HW223361   0.328   4.537   0.364  1.0392  0.1453  1.0021
 3909SOL     OW23362   0.893   2.356   1.017 -0.0674  0.3750 -0.6305
 3909SOL    HW123363   0.907   2.345   1.112  0.1791  1.6968 -0.5022
 3909SOL    HW223364   0.966   2.414   0.996  0.6183  0.0093  0.7137
 3910SOL     OW23365   1.489   2.955   1.531 -0.0549  0.6679  0.4605
 3910SOL    HW123366   1.518   3.002   1.609  0.4291  1.3708 -0.1456
 3910SOL    HW223367   1.496   2.862   1.551 -1.3257  0.5257  0.2889
 3911SOL     OW23368   3.269   4.607   7.392 -0.2997 -0.9387  0.7798
 3911SOL    HW123369   3.361   4.597   7.415  0.3294  1.8214 -0.4995
 3911SOL    HW223370   3.273   4.596   7.297 -0.7851 -3.4706  1.0558
 3912SOL     OW23371   2.859   2.818   8.497 -0.6267 -0.2323 -0.0547
 3912SOL    HW123372   2.814   2.801   8.414 -0.8138 -3.5242  0.6894
 3912SOL    HW223373   2.845   2.731   8.534  1.5022  0.1896  1.7423
 3913SOL     OW23374   0.793   4.551   5.676  0.3540 -0.3931  0.1301
 3913SOL    HW123375   0.701   4.541   5.701  0.3051 -0.4947 -0.0922
 3913SOL    HW223376   0.779   4.559   5.582  2.3563  0.6288 -0.0854
 3914SOL     OW23377   2.180   1.932   6.453 -0.1290  0.5213 -0.2016
 3914SOL    HW123378   2.243   1.977   6.509  0.9984 -2.7698  1.1813
 3914SOL    HW223379   2.099   1.948   6.503 -0.3921 -1.1804 -0.0770
 3915SOL     OW23380   3.768   3.267   3.947  0.3711  0.3368  0.0443
 3915SOL    HW123381   3.860   3.294   3.946  0.2581  0.6297 -1.6269
 3915SOL    HW223382   3.739   3.319   3.873 -0.4214 -0.1374  0.0199
 3916SOL     OW23383   0.288   4.564  11.323 -0.0570 -0.1533  0.2330
 3916SOL    HW123384   0.329   4.542  11.239  0.8043  1.0818  0.3397
 3916SOL    HW223385   0.271   4.479  11.363  1.9540 -0.4133  0.5263
 3917SOL     OW23386   2.906   4.225   3.433  0.3927  0.5721  0.9016
 3917SOL    HW123387   2.878   4.288   3.366  3.7249 -0.4504 -1.4384
 3917SOL    HW223388   2.995   4.200   3.410  0.3744 -0.5891  2.1188
 3918SOL     OW23389   2.353   4.502   4.562 -0.7252  0.7241  0.1191
 3918SOL    HW123390   2.281   4.518   4.500 -0.9560 -1.8231 -0.2417
 3918SOL    HW223391   2.412   4.563   4.518  0.4726  0.4307  1.3146
 3919SOL     OW23392   1.023   3.628  12.184  0.2858  0.2982  0.0727
 3919SOL    HW123393   1.013   3.616  12.279  1.9032 -0.7893  0.1171
 3919SOL    HW223394   1.015   3.723  12.181 -1.6346  0.1619  1.1115
 3920SOL     OW23395   3.666   3.923  16.046 -0.0867  0.2488 -0.5464
 3920SOL    HW123396   3.643   3.912  15.954 -2.8037  1.8723 -0.0727
 3920SOL    HW223397   3.708   3.840  16.066 -0.0802  0.2071 -0.7324
 3921SOL     OW23398   3.082   2.744  14.673 -0.5530  0.1763  0.6989
 3921SOL    HW123399   3.158   2.686  14.662 -0.4142  0.5967 -0.5093
 3921SOL    HW223400   3.118   2.814  14.727  0.5051  0.8632 -0.9127
 3922SOL     OW23401   0.290   3.159  14.592  0.7033  0.5095 -0.6691
 3922SOL    HW123402   0.367   3.112  14.623 -0.0226 -0.0265  0.3230
 3922SOL    HW223403   0.214   3.110  14.625  1.4553 -0.9786 -1.1543
 3923SOL     OW23404   3.031   3.016   9.473  0.3414  0.0768 -0.6156
 3923SOL    HW123405   3.021   2.976   9.560 -0.3125  2.2970  0.3279
 3923SOL    HW223406   2.962   2.963   9.433  0.8792 -0.7376 -0.4532
 3924SOL     OW23407   4.502   0.521   8.466 -0.4914 -0.5315  0.4040
 3924SOL    HW123408   4.525   0.485   8.380 -0.3289 -0.2646  0.3364
 3924SOL    HW223409   4.476   0.609   8.441 -0.3708 -0.6549 -0.1488
 3925SOL     OW23410   1.875   3.238  17.712  0.2173 -0.1609 -0.0239
 3925SOL    HW123411   1.846   3.265   0.050  0.1316 -1.3202  0.2956
 3925SOL    HW223412   1.967   3.223  17.736 -0.0560  0.2957  1.3116
 3926SOL     OW23413   2.541   0.258   7.640 -0.2217 -0.1119 -0.3156
 3926SOL    HW123414   2.631   0.255   7.673  0.3162 -1.8198 -1.9106
 3926SOL    HW223415   2.562   0.266   7.547 -0.7555  1.7539 -0.2641
 3927SOL     OW23416   2.627   4.019   8.173  0.0695 -0.5692  0.2557
 3927SOL    HW123417   2.722   4.011   8.164 -0.1362 -0.3588 -1.9699
 3927SOL    HW223418   2.597   4.030   8.083  0.8572 -0.0562  0.0599
 3928SOL     OW23419   2.578   1.758  12.953  0.7143 -0.1817  0.0537
 3928SOL    HW123420   2.502   1.750  12.894  1.7055  4.2219 -1.8117
 3928SOL    HW223421   2.581   1.854  12.958  1.1169 -0.1087 -1.3619
 3929SOL     OW23422   4.153   1.255   2.356 -0.2159 -0.3705  0.2464
 3929SOL    HW123423   4.184   1.315   2.287  1.0206 -0.7399  0.4745
 3929SOL    HW223424   4.217   1.263   2.427  1.6901 -1.3349 -1.3455
 3930SOL     OW23425   1.777   3.802  17.094  0.0154  0.0168  0.4817
 3930SOL    HW123426   1.724   3.783  17.171 -3.9679  0.3014 -2.1910
 3930SOL    HW223427   1.810   3.891  17.112 -1.0487  0.2959  1.0706
 3931SOL     OW23428   0.228   4.443   6.155  0.0903 -0.1865  0.0855
 3931SOL    HW123429   0.167   4.373   6.176 -0.3886 -0.6301 -2.8019
 3931SOL    HW223430   0.172   4.517   6.179  1.0030  0.2108  0.9838
 3932SOL     OW23431   4.479   0.614   9.699 -0.1330  0.0720  0.1152
 3932SOL    HW123432   4.479   0.558   9.621  0.9714  0.8294 -0.4254
 3932SOL    HW223433   4.494   0.550   9.768 -1.9015  0.8653  1.2303
 3933SOL     OW23434   2.424   3.563   4.132 -0.1901 -0.1822 -0.3689
 3933SOL    HW123435   2.365   3.636   4.153 -0.6132 -1.3084  2.3229
 3933SOL    HW223436   2.464   3.552   4.218  1.2445  0.3406 -0.9857
 3934SOL     OW23437   0.519   2.011   8.492 -0.2680 -0.0511 -0.4167
 3934SOL    HW123438   0.559   1.952   8.429  0.3321 -0.2763  0.1783
 3934SOL    HW223439   0.491   1.953   8.564  0.5113  2.7507  2.1388
 3935SOL     OW23440   2.787   0.827  12.722 -0.0081 -0.6241 -0.5646
 3935SOL    HW123441   2.740   0.744  12.709 -0.7021 -0.2975 -0.1116
 3935SOL    HW223442   2.863   0.803  12.668 -2.0611  1.2283 -4.2616
 3936SOL     OW23443   3.832   1.496   6.640  0.5101  0.5626 -0.3001
 3936SOL    HW123444   3.744   1.526   6.663  0.9932  0.3877  1.7623
 3936SOL    HW223445   3.890   1.538   6.703 -0.5359  1.2299  0.2218
 3937SOL     OW23446   1.469   3.898   6.554  0.1167 -0.3042  0.4982
 3937SOL    HW123447   1.473   3.838   6.628 -0.8830 -2.4272 -1.1572
 3937SOL    HW223448   1.423   3.848   6.486 -0.0637 -0.0029  0.3973
 3938SOL     OW23449   3.990   4.194   6.819 -0.4237  0.1420 -0.2197
 3938SOL    HW123450   3.959   4.197   6.729  1.4969 -1.1312 -0.9302
 3938SOL    HW223451   3.904   4.189   6.860  0.1527  0.8041  1.0766
 3939SOL     OW23452   4.321   0.973   5.570 -1.0643 -0.2995  0.5117
 3939SOL    HW123453   4.292   1.042   5.511  1.6402 -2.3966 -3.2757
 3939SOL    HW223454   4.411   1.003   5.585  0.0698 -3.4384  0.1177
 3940SOL     OW23455   4.243   0.631   8.299  0.2048 -0.0859 -0.0211
 3940SOL    HW123456   4.266   0.724   8.301  0.4779 -0.1014 -2.0728
 3940SOL    HW223457   4.316   0.599   8.246  1.8276  2.1053  0.8875
 3941SOL     OW23458   2.170   2.542   5.622 -0.2220 -0.2236 -0.0960
 3941SOL    HW123459   2.082   2.563   5.592 -0.5472 -2.3588 -0.6430
 3941SOL    HW223460   2.223   2.606   5.574  0.3420 -0.7694 -0.2035
 3942SOL     OW23461   3.605   0.449  15.942  0.4854 -0.0508  0.2530
 3942SOL    HW123462   3.551   0.391  15.888 -0.2360 -0.2056  1.1445
 3942SOL    HW223463   3.683   0.457  15.887  0.8578 -1.0402  0.6207
 3943SOL     OW23464   3.413   1.006   8.911  0.4449 -0.8745 -0.6154
 3943SOL    HW123465   3.507   0.999   8.901  0.4045 -2.4725  0.1693
 3943SOL    HW223466   3.403   1.100   8.925 -0.6283 -1.1361  0.4043
 3944SOL     OW23467   2.502   1.086  11.388  0.3280  0.2934 -0.0620
 3944SOL    HW123468   2.413   1.095  11.423  0.1257  0.7712 -0.6932
 3944SOL    HW223469   2.543   1.172  11.390 -0.6408  0.7599 -0.0703
 3945SOL     OW23470   4.607   1.469   3.895 -0.0310 -0.5242 -0.1365
 3945SOL    HW123471   4.591   1.375   3.884  2.3548 -0.8015 -1.3567
 3945SOL    HW223472   4.595   1.501   3.806  0.0805  2.7158  1.0025
 3946SOL     OW23473   3.476   4.202   5.298 -0.1051 -0.1291  0.8256
 3946SOL    HW123474   3.565   4.205   5.261 -1.1281  1.0846 -1.5701
 3946SOL    HW223475   3.489   4.125   5.353 -1.4103 -0.0546  1.2378
 3947SOL     OW23476   4.243   4.119   6.860 -0.1004  0.2362  0.2273
 3947SOL    HW123477   4.157   4.158   6.845  1.5520  3.0154 -2.0782
 3947SOL    HW223478   4.230   4.035   6.815  1.2334 -0.2429  0.7456
 3948SOL     OW23479   1.811   4.530   2.524  0.1302  0.1394 -0.0085
 3948SOL    HW123480   1.806   4.494   2.436 -1.0592 -0.3889  0.2811
 3948SOL    HW223481   1.732   4.492   2.562 -0.3797  1.4835  0.2867
 3949SOL     OW23482   3.952   0.101  13.793  0.1873 -0.1455 -0.3625
 3949SOL    HW123483   4.039   0.063  13.807 -0.9363 -2.3231  0.6416
 3949SOL    HW223484   3.974   0.189  13.826  0.1611 -0.4893  0.5811
 3950SOL     OW23485   3.210   1.470  15.809 -0.1263 -0.1360 -0.7726
 3950SOL    HW123486   3.262   1.550  15.809  0.6154 -0.6175  0.8741
 3950SOL    HW223487   3.141   1.471  15.875  4.9697 -3.4118  4.5498
 3951SOL     OW23488   1.445   2.015   4.976 -0.0837  0.3830  0.0413
 3951SOL    HW123489   1.540   2.009   4.982 -0.3062 -3.0698  0.1014
 3951SOL    HW223490   1.427   2.109   4.973  0.0374  0.4169  0.4197
 3952SOL     OW23491   4.108   3.607   7.618  0.0031 -0.5210  0.9012
 3952SOL    HW123492   4.097   3.598   7.713  0.6811  0.7315  1.0909
 3952SOL    HW223493   4.052   3.533   7.591  0.7521 -0.8071  0.1206
 3953SOL     OW23494   2.865   0.078  17.365 -0.2444  0.0461 -0.8084
 3953SOL    HW123495   2.949   0.073  17.410  0.1516  1.2439 -1.4216
 3953SOL    HW223496   2.878   0.024  17.287 -1.4779  1.0113 -1.6688
 3954SOL     OW23497   4.007   2.607   2.553 -0.7531 -0.5483  0.0122
 3954SOL    HW123498   3.992   2.561   2.635 -2.1238  0.7895  0.5116
 3954SOL    HW223499   3.938   2.673   2.553 -0.1562  0.0736  0.9265
 3955SOL     OW23500   2.139   3.140   1.872  0.3242 -0.0826 -0.2499
 3955SOL    HW123501   2.180   3.100   1.949  0.5548 -0.5530 -0.6181
 3955SOL    HW223502   2.142   3.232   1.900 -0.7455 -0.1844  0.2166
 3956SOL     OW23503   0.255   4.477   2.899 -0.3488 -0.4406 -0.1959
 3956SOL    HW123504   0.197   4.464   2.974 -1.0206  2.6111 -0.1762
 3956SOL    HW223505   0.186   4.490   2.834 -0.9741  2.3192  1.0010
 3957SOL     OW23506   3.656   0.795   7.415  0.2458 -0.0989  0.2339
 3957SOL    HW123507   3.689   0.815   7.328 -1.7159  0.5870 -0.3336
 3957SOL    HW223508   3.591   0.863   7.431  0.7825  0.3082  0.6670
 3958SOL     OW23509   4.701   3.523   5.708 -0.8520  0.3434 -0.5007
 3958SOL    HW123510   4.684   3.544   5.800  1.0017  0.9902 -0.3085
 3958SOL    HW223511   0.047   3.566   5.694 -0.6934 -0.3326 -1.5901
 3959SOL     OW23512   0.922   1.957   1.599 -0.1134 -0.6704  0.1825
 3959SOL    HW123513   0.942   1.995   1.685  2.8581 -1.6383 -0.0832
 3959SOL    HW223514   1.005   1.910   1.586 -0.9229 -1.4653 -2.0094
 3960SOL     OW23515   1.150   1.028  11.345 -0.0183 -0.2342  0.9476
 3960SOL    HW123516   1.135   1.020  11.439  0.8683  3.1224  1.3786
 3960SOL    HW223517   1.243   1.005  11.352 -0.1788  0.0268  3.6780
 3961SOL     OW23518   4.380   3.676  10.160  0.1665  0.9448  0.0192
 3961SOL    HW123519   4.384   3.599  10.104 -1.6639 -0.4454  1.7836
 3961SOL    HW223520   4.375   3.745  10.093  2.5036  0.5644 -0.5197
 3962SOL     OW23521   1.838   2.540  14.342  0.1602  0.4311  0.0074
 3962SOL    HW123522   1.866   2.541  14.434  2.1493  2.1249 -0.6171
 3962SOL    HW223523   1.809   2.450  14.328 -0.8831  1.0524 -1.7959
 3963SOL     OW23524   4.287   2.017   6.091 -0.1015 -0.0900 -0.1831
 3963SOL    HW123525   4.253   1.990   6.005  3.1095 -0.6525 -1.2594
 3963SOL    HW223526   4.324   1.941   6.135 -1.2106  1.3624  3.2689
 3964SOL     OW23527   1.810   0.697   0.369  0.1633 -0.3991 -0.4784
 3964SOL    HW123528   1.796   0.661   0.457  0.8982  0.9337  0.1788
 3964SOL    HW223529   1.889   0.651   0.342  0.2522  0.5917 -1.9189
 3965SOL     OW23530   1.404   0.681   4.162 -0.3598 -0.0674  0.3681
 3965SOL    HW123531   1.395   0.727   4.246 -1.4958  0.7373 -0.1957
 3965SOL    HW223532   1.352   0.740   4.107  0.4518 -0.6746 -1.0409
 3966SOL     OW23533   2.753   1.439   2.910  0.2255  0.4166  0.1337
 3966SOL    HW123534   2.665   1.464   2.881 -0.0620  0.8426  1.3652
 3966SOL    HW223535   2.812   1.464   2.839 -0.3506  2.2100  0.2973
 3967SOL     OW23536   3.292   1.833   6.665 -0.7121  0.1860 -0.3555
 3967SOL    HW123537   3.246   1.870   6.740  0.4182 -0.7861  0.8062
 3967SOL    HW223538   3.267   1.897   6.597 -2.4918 -0.9358 -0.7583
 3968SOL     OW23539   4.435   3.572  13.945 -0.0057  0.1980  0.4277
 3968SOL    HW123540   4.523   3.608  13.960  0.0373  0.2453  0.0462
 3968SOL    HW223541   4.407   3.577  14.037 -0.5014 -1.2020  0.3503
 3969SOL     OW23542   3.677   4.647   9.376 -0.1023 -0.6522 -0.7795
 3969SOL    HW123543   3.757   4.643   9.430 -0.6492 -0.0372  0.0801
 3969SOL    HW223544   3.657   0.002   9.382  0.4783 -0.5480 -0.4497
 3970SOL     OW23545   2.477   2.271   2.750 -0.4199 -0.2509 -0.7051
 3970SOL    HW123546   2.529   2.265   2.831 -0.1800  0.2607 -0.8181
 3970SOL    HW223547   2.539   2.321   2.697  0.0283 -0.2851 -0.2167
 3971SOL     OW23548   1.247   2.945   7.304 -0.0111  0.1158 -0.0966
 3971SOL    HW123549   1.251   2.867   7.359  0.1210  0.4643  0.3921
 3971SOL    HW223550   1.166   2.928   7.256 -0.3445 -2.7425  1.4764
 3972SOL     OW23551   4.647   2.046  17.441  0.1582  0.4036 -0.2579
 3972SOL    HW123552   4.701   2.027  17.365  2.5848  2.2370  0.9943
 3972SOL    HW223553   4.563   2.015  17.408  1.3129 -2.1258 -0.7430
 3973SOL     OW23554   2.386   3.130   8.385 -0.1091 -0.0096  0.4181
 3973SOL    HW123555   2.431   3.210   8.358  0.6888 -0.2926  0.8853
 3973SOL    HW223556   2.462   3.078   8.412  0.1259  0.6153  0.9669
 3974SOL     OW23557   1.452   3.146   3.495 -0.1649  0.1590  0.0845
 3974SOL    HW123558   1.477   3.083   3.563 -2.0133  0.3638  0.9497
 3974SOL    HW223559   1.486   3.226   3.537  2.6209  0.1280 -2.1352
 3975SOL     OW23560   3.695   3.289   2.010 -0.2197 -0.0358  0.3493
 3975SOL    HW123561   3.623   3.342   2.045  0.5676  1.6586 -0.6048
 3975SOL    HW223562   3.754   3.306   2.083  1.5422  0.0110 -1.0739
 3976SOL     OW23563   1.982   2.278   4.198 -0.1025 -0.1113 -0.5739
 3976SOL    HW123564   1.949   2.363   4.167 -1.5193 -0.6238 -0.4639
 3976SOL    HW223565   2.056   2.260   4.139 -0.5294 -0.1598 -1.0978
 3977SOL     OW23566   0.842   0.157   8.071 -0.0499 -0.0826  0.2616
 3977SOL    HW123567   0.833   0.099   7.996 -1.9451  1.3930 -0.6408
 3977SOL    HW223568   0.848   0.092   8.142  4.5666 -0.0918 -0.1310
 3978SOL     OW23569   3.675   2.874   3.181 -0.6298  0.2206 -0.2423
 3978SOL    HW123570   3.639   2.917   3.103 -0.9807 -0.9316 -0.7162
 3978SOL    HW223571   3.751   2.829   3.145 -1.4565 -0.7544 -0.7590
 3979SOL     OW23572   2.269   2.480   6.999 -0.3153 -0.5740 -0.6816
 3979SOL    HW123573   2.291   2.423   6.926  0.2906 -0.2738 -0.7325
 3979SOL    HW223574   2.218   2.548   6.955  0.8361  0.7919  0.0670
 3980SOL     OW23575   1.308   2.742   5.079  0.2883  0.0768  0.2916
 3980SOL    HW123576   1.367   2.816   5.095  0.0227  0.3369  0.0616
 3980SOL    HW223577   1.272   2.729   5.167  2.6396 -0.3954  1.1804
 3981SOL     OW23578   0.882   4.371   2.833  0.0563  0.0598  0.3294
 3981SOL    HW123579   0.832   4.388   2.913 -0.0507  1.4090 -0.0210
 3981SOL    HW223580   0.935   4.451   2.825 -2.4799  1.5960 -1.0301
 3982SOL     OW23581   3.343   1.406   7.067  0.2271  0.5137 -0.3164
 3982SOL    HW123582   3.312   1.316   7.068 -1.0100  0.9325 -0.5288
 3982SOL    HW223583   3.437   1.399   7.082  0.2925  0.7780 -0.5876
 3983SOL     OW23584   1.099   3.465  16.226  0.0213 -0.4605 -0.3786
 3983SOL    HW123585   1.004   3.469  16.219 -0.1078  0.0909  1.9141
 3983SOL    HW223586   1.108   3.539  16.285  1.1970 -0.3639 -0.6794
 3984SOL     OW23587   2.418   2.417   9.435 -0.0564  0.0053 -0.3457
 3984SOL    HW123588   2.373   2.343   9.475 -0.7936 -0.6677 -2.4684
 3984SOL    HW223589   2.430   2.385   9.346  1.9399  0.9471 -0.4283
 3985SOL     OW23590   1.713   2.407   6.473  0.2992  0.2370  0.2236
 3985SOL    HW123591   1.743   2.398   6.382 -0.3851 -0.7908  0.0987
 3985SOL    HW223592   1.632   2.357   6.470 -0.1000  0.8762  0.6303
 3986SOL     OW23593   0.356   3.128   6.331 -0.1170  0.2294  0.0739
 3986SOL    HW123594   0.376   3.034   6.335 -0.6403  0.0169 -2.2805
 3986SOL    HW223595   0.400   3.152   6.412  0.9668  0.5556 -0.6071
 3987SOL     OW23596   3.356   4.643   9.022 -0.2943 -0.2834  0.3746
 3987SOL    HW123597   3.417   4.666   8.952  0.9847 -0.4725  1.4334
 3987SOL    HW223598   3.334   4.729   9.059 -1.1396 -0.6943  0.8356
 3988SOL     OW23599   0.569   0.788   7.585  0.1967 -0.4588  0.4849
 3988SOL    HW123600   0.542   0.870   7.544  0.9556 -0.0579  0.8012
 3988SOL    HW223601   0.529   0.805   7.670 -0.6849 -0.0736  0.0029
 3989SOL     OW23602   3.067   0.794   9.786  0.0427  0.3079 -0.8980
 3989SOL    HW123603   3.044   0.886   9.799  0.1715  0.2302 -0.0746
 3989SOL    HW223604   3.085   0.801   9.693  0.4423 -0.2120 -0.8619
 3990SOL     OW23605   1.047   3.592  14.455 -0.4622 -0.5602 -0.1188
 3990SOL    HW123606   1.053   3.499  14.476 -1.9144 -0.6425 -0.0419
 3990SOL    HW223607   1.057   3.583  14.360  2.0999  0.6092  0.0553
 3991SOL     OW23608   3.945   1.923   8.195 -0.3364 -0.1171  0.3680
 3991SOL    HW123609   3.974   1.958   8.110 -0.0398  0.0875  0.5504
 3991SOL    HW223610   3.984   1.985   8.257  0.5183  1.0940 -1.3592
 3992SOL     OW23611   3.062   4.064  16.487  0.0418 -0.1162  0.1999
 3992SOL    HW123612   3.137   4.119  16.465  0.7273 -1.5266 -0.9562
 3992SOL    HW223613   3.023   4.044  16.402  2.8310  2.1139 -1.6379
 3993SOL     OW23614   3.911   4.397   2.732 -0.1960 -0.2283 -0.2021
 3993SOL    HW123615   3.953   4.316   2.704  0.5283  0.2543 -0.4999
 3993SOL    HW223616   3.831   4.393   2.678  0.9131 -1.5013 -1.7609
 3994SOL     OW23617   4.443   0.206   5.385  0.3535  0.6034 -0.0080
 3994SOL    HW123618   4.427   0.123   5.341 -0.9885  0.0033  1.6033
 3994SOL    HW223619   4.353   0.238   5.397  0.7805  0.5210  3.3399
 3995SOL     OW23620   1.714   2.219   3.299 -0.1568 -0.3267 -0.2318
 3995SOL    HW123621   1.696   2.262   3.383 -2.3177  0.6286 -1.1859
 3995SOL    HW223622   1.701   2.126   3.315  0.2557 -0.1743  1.0026
 3996SOL     OW23623   2.689   1.154   9.322 -0.3042 -0.0729  0.1052
 3996SOL    HW123624   2.727   1.177   9.237 -0.9168 -0.5660 -0.3020
 3996SOL    HW223625   2.626   1.088   9.292 -1.9323  1.6817 -0.3453
 3997SOL     OW23626   4.402   2.335  11.659  0.7175  0.4495  0.8844
 3997SOL    HW123627   4.356   2.275  11.718  0.1575 -0.1967 -0.2199
 3997SOL    HW223628   4.335   2.399  11.637  1.5584  1.1207  0.2685
 3998SOL     OW23629   4.322   2.866   2.399  0.3333 -0.1357  0.4157
 3998SOL    HW123630   4.314   2.837   2.490 -1.4159  0.8896  0.5769
 3998SOL    HW223631   4.283   2.789   2.357  2.3720 -0.4005 -1.0290
 3999SOL     OW23632   3.553   2.388   9.119  0.6348 -0.3053  0.3071
 3999SOL    HW123633   3.642   2.369   9.147  0.3363 -2.0425  0.1197
 3999SOL    HW223634   3.565   2.469   9.071 -3.9295  0.3370  0.2326
 4000SOL     OW23635   2.025   2.699   7.698 -0.5362  0.7888  0.4464
 4000SOL    HW123636   1.980   2.721   7.780 -2.7234 -2.1611  0.0593
 4000SOL    HW223637   1.948   2.671   7.649  1.2007 -1.0083 -1.2150
 4001SOL     OW23638   1.299   1.843  10.385  0.7966  0.7023  0.1385
 4001SOL    HW123639   1.252   1.851  10.468 -0.0705 -1.5697 -0.1342
 4001SOL    HW223640   1.274   1.754  10.361 -0.6349  1.3674 -0.8423
 4002SOL     OW23641   1.441   4.318   2.103 -0.1489  0.5135  0.4671
 4002SOL    HW123642   1.416   4.369   2.180  1.2234  0.9141  0.6513
 4002SOL    HW223643   1.450   4.233   2.145  0.2408  0.1426 -0.3640
 4003SOL     OW23644   3.635   3.990   2.529  0.2109 -0.3766 -0.0971
 4003SOL    HW123645   3.695   3.998   2.455  1.3728 -0.0392  0.8886
 4003SOL    HW223646   3.550   3.979   2.486 -0.3507  0.3394  0.8305
 4004SOL     OW23647   1.293   3.664  11.248 -0.1343 -0.0135  0.4889
 4004SOL    HW123648   1.312   3.576  11.215 -0.7762 -0.1695  0.5388
 4004SOL    HW223649   1.257   3.652  11.336 -1.1718  0.3801  0.1131
 4005SOL     OW23650   1.540   1.617   1.312 -0.0382 -0.0460 -0.0467
 4005SOL    HW123651   1.524   1.708   1.337 -0.5821 -0.7368  2.1209
 4005SOL    HW223652   1.479   1.568   1.367 -0.7701 -0.4611 -1.2253
 4006SOL     OW23653   3.395   2.027   7.251  0.0514  0.4179 -0.0129
 4006SOL    HW123654   3.377   1.946   7.204  2.4074 -0.3306  0.3633
 4006SOL    HW223655   3.480   2.009   7.291 -0.2809 -0.7878  0.1355
 4007SOL     OW23656   3.864   2.196  13.005  0.0724  0.4216 -0.1438
 4007SOL    HW123657   3.959   2.198  12.992 -0.2552 -2.6091 -2.9757
 4007SOL    HW223658   3.834   2.267  12.948  0.3979 -0.4564 -1.3955
 4008SOL     OW23659   2.034   1.238   3.001  0.2638  0.4317  0.3798
 4008SOL    HW123660   2.090   1.247   2.924  0.4739 -0.3083  0.4489
 4008SOL    HW223661   2.071   1.158   3.038  2.5378  2.4700  2.5176
 4009SOL     OW23662   1.472   4.001   8.536 -0.2960  0.5041  0.4423
 4009SOL    HW123663   1.458   3.928   8.597  1.9581 -0.4547 -0.1917
 4009SOL    HW223664   1.553   3.974   8.493 -0.9330 -1.1935  0.2929
 4010SOL     OW23665   1.347   0.789   5.507  0.2392  0.2222 -0.1216
 4010SOL    HW123666   1.358   0.713   5.564  2.4609  0.7876  0.2140
 4010SOL    HW223667   1.307   0.847   5.572 -0.2342 -0.2534  0.0053
 4011SOL     OW23668   0.209   1.980   0.149 -0.3755  0.1345 -0.3498
 4011SOL    HW123669   0.300   1.950   0.156 -1.0969 -1.6394  1.2888
 4011SOL    HW223670   0.164   1.896   0.140  0.4806 -0.3306 -0.3009
 4012SOL     OW23671   4.617   4.097   0.721 -0.1448 -0.2115  0.1479
 4012SOL    HW123672   4.543   4.082   0.663 -0.5096  0.3161  0.4781
 4012SOL    HW223673   4.590   4.172   0.774 -0.2152 -0.6517  0.7351
 4013SOL     OW23674   0.703   0.180   2.067  0.2227  0.3428 -0.1093
 4013SOL    HW123675   0.671   0.245   2.005 -2.9791 -1.5557 -0.4611
 4013SOL    HW223676   0.623   0.131   2.088  0.3872  0.2519  0.2914
 4014SOL     OW23677   0.203   2.267   8.554  0.0871 -0.3731 -0.4383
 4014SOL    HW123678   0.225   2.314   8.634 -0.6641 -0.4622 -0.1808
 4014SOL    HW223679   0.144   2.195   8.579 -0.5181  0.3126  0.1143
 4015SOL     OW23680   3.783   2.120  11.180  0.2381  0.0469 -0.2044
 4015SOL    HW123681   3.784   2.185  11.251  0.1138  0.4975 -0.6205
 4015SOL    HW223682   3.813   2.043  11.229 -0.6436 -0.5609 -0.6132
 4016SOL     OW23683   0.428   2.849   4.422 -0.3917  0.1904 -0.0042
 4016SOL    HW123684   0.481   2.929   4.420 -0.3159  0.1271 -0.4891
 4016SOL    HW223685   0.403   2.840   4.330 -0.1874 -0.9732  0.0539
 4017SOL     OW23686   3.576   0.244  12.818 -0.5871  0.0896  0.0749
 4017SOL    HW123687   3.648   0.183  12.801 -0.5960  0.4442 -1.2278
 4017SOL    HW223688   3.502   0.197  12.781  0.9727 -0.1985 -2.6511
 4018SOL     OW23689   4.108   0.636   7.741 -0.4451  0.0711  0.2143
 4018SOL    HW123690   4.173   0.657   7.673 -0.6124 -1.3128 -0.3669
 4018SOL    HW223691   4.166   0.593   7.803  2.2774  0.9684 -1.6628
 4019SOL     OW23692   3.853   2.320   3.847  0.2728  0.5809 -0.5738
 4019SOL    HW123693   3.847   2.389   3.913  1.5750  1.3620 -1.2779
 4019SOL    HW223694   3.764   2.283   3.847  0.4956  0.0472  0.0069
 4020SOL     OW23695   0.568   4.103   3.071 -0.4013 -0.7468 -0.2742
 4020SOL    HW123696   0.530   4.136   2.989 -2.4339 -0.9424  0.5904
 4020SOL    HW223697   0.504   4.043   3.110  1.1434  0.3212  3.8485
 4021SOL     OW23698   4.558   1.491   2.773  0.7825  0.2511  0.1197
 4021SOL    HW123699   4.554   1.562   2.708  0.9151 -0.2687 -0.4505
 4021SOL    HW223700   4.586   1.415   2.723  0.7578  0.9493 -0.9704
 4022SOL     OW23701   3.418   3.227   2.545 -0.7336 -0.1181  0.0842
 4022SOL    HW123702   3.348   3.272   2.497 -0.7859 -1.2730 -0.9471
 4022SOL    HW223703   3.378   3.233   2.631  1.4228 -3.1751  1.2946
 4023SOL     OW23704   2.929   0.798  10.828  0.3371 -1.0276  0.3906
 4023SOL    HW123705   2.924   0.703  10.815 -2.0690 -0.7756 -0.6088
 4023SOL    HW223706   2.967   0.800  10.915  2.1738 -1.8588 -0.4023
 4024SOL     OW23707   2.993   3.466   5.378 -0.2010  0.2446 -0.2879
 4024SOL    HW123708   2.944   3.397   5.422  0.2564 -1.6271 -2.6643
 4024SOL    HW223709   2.925   3.493   5.315 -1.4125 -0.3345  0.7800
 4025SOL     OW23710   2.705   3.030  10.088  0.3607  0.2932  0.3280
 4025SOL    HW123711   2.658   3.067  10.162 -0.4020 -0.8256  0.4010
 4025SOL    HW223712   2.637   3.011  10.024  2.4667 -0.9558 -1.5635
 4026SOL     OW23713   3.782   0.184  11.569  0.2430 -0.0482  0.1820
 4026SOL    HW123714   3.789   0.199  11.663  1.5047  0.5350 -0.0030
 4026SOL    HW223715   3.819   0.263  11.530 -2.0372  1.6299  1.3989
 4027SOL     OW23716   2.827   3.166   0.463 -0.5951 -0.0947  0.1679
 4027SOL    HW123717   2.884   3.228   0.418  0.3389 -0.6331  0.5910
 4027SOL    HW223718   2.893   3.121   0.517  2.9484  3.0412 -1.5214
 4028SOL     OW23719   0.873   1.388   8.927  0.1059  0.1060  0.5226
 4028SOL    HW123720   0.890   1.294   8.931 -0.6520 -0.0234  0.7327
 4028SOL    HW223721   0.891   1.420   9.016 -0.3087 -0.2001  0.7207
 4029SOL     OW23722   3.173   2.186   3.887 -0.5941 -0.1049 -0.1693
 4029SOL    HW123723   3.186   2.274   3.851 -1.2189 -0.7750 -2.0168
 4029SOL    HW223724   3.223   2.135   3.823 -0.0267 -0.9036  0.9137
 4030SOL     OW23725   3.735   3.429   4.871  0.3911 -0.5779  0.3176
 4030SOL    HW123726   3.645   3.425   4.903  0.3523  0.4629  0.3470
 4030SOL    HW223727   3.770   3.491   4.936 -2.0254  0.8921  0.1998
 4031SOL     OW23728   0.989   4.487   4.478  0.3702  0.0041 -0.1033
 4031SOL    HW123729   1.011   4.450   4.563  0.3008  0.2512  0.0233
 4031SOL    HW223730   0.927   4.424   4.442  0.9484  0.9045 -2.6855
 4032SOL     OW23731   1.523   4.737   5.972 -0.3360  0.6590 -0.3932
 4032SOL    HW123732   1.526   0.031   5.881  0.7068  3.3313  0.5963
 4032SOL    HW223733   1.529   0.083   6.018  0.2181 -0.5194  1.6486
 4033SOL     OW23734   2.284   1.327   4.351  0.4921  0.9982 -0.2669
 4033SOL    HW123735   2.273   1.352   4.259  1.7829 -2.7066 -1.4072
 4033SOL    HW223736   2.363   1.273   4.353 -0.7612 -0.7795  1.1966
 4034SOL     OW23737   3.983   3.585  16.379  0.6062  0.1788  0.8009
 4034SOL    HW123738   3.922   3.524  16.420  1.1948  0.5688  2.2252
 4034SOL    HW223739   3.927   3.662  16.364 -2.8699 -2.6194 -0.5600
 4035SOL     OW23740   2.518   1.309  12.810  0.3299  1.0009  0.4349
 4035SOL    HW123741   2.443   1.261  12.844  0.6366  0.4280  0.2951
 4035SOL    HW223742   2.596   1.264  12.841  0.0219  0.4073  0.3492
 4036SOL     OW23743   0.806   0.083   6.873  0.8592  0.5634 -0.3494
 4036SOL    HW123744   0.792   4.733   6.909  1.5918  0.7530  0.3824
 4036SOL    HW223745   0.887   0.070   6.822  0.3571 -1.5578 -0.6169
 4037SOL     OW23746   2.723   2.031   4.240 -0.4172 -0.2444 -0.1028
 4037SOL    HW123747   2.786   2.048   4.310 -2.1657 -1.1698  1.6800
 4037SOL    HW223748   2.652   1.987   4.287 -0.6875  0.5651  0.2417
 4038SOL     OW23749   1.540   3.735  13.361 -0.5663 -0.6979  0.1732
 4038SOL    HW123750   1.624   3.752  13.318  0.4475 -1.4465  1.8233
 4038SOL    HW223751   1.483   3.743  13.285 -0.1200  2.1184  0.1326
 4039SOL     OW23752   4.053   4.362   5.619  0.2205  0.1255 -0.0299
 4039SOL    HW123753   4.028   4.277   5.655  1.7991 -0.2962  0.0724
 4039SOL    HW223754   3.970   4.387   5.578 -0.8262 -5.3371 -1.2364
 4040SOL     OW23755   1.117   3.627  17.596  0.2482  0.2807 -0.5935
 4040SOL    HW123756   1.142   3.581  17.515  0.2594  1.0615 -1.0308
 4040SOL    HW223757   1.022   3.619  17.600  0.2825  0.5835  0.6274
 4041SOL     OW23758   2.100   4.289   4.483  0.4640 -0.2048 -0.2807
 4041SOL    HW123759   2.019   4.331   4.512  0.2452 -0.0460 -1.1204
 4041SOL    HW223760   2.144   4.371   4.460  0.3673 -0.4863 -1.4904
 4042SOL     OW23761   2.534   2.776   9.316 -0.2668 -0.3116  0.0805
 4042SOL    HW123762   2.447   2.737   9.326 -0.7136  1.5702  3.3331
 4042SOL    HW223763   2.550   2.759   9.223  1.1279 -0.0084  0.2654
 4043SOL     OW23764   3.380   2.586   3.232 -0.4145 -0.1989 -0.0006
 4043SOL    HW123765   3.320   2.515   3.213 -0.5999 -0.6158  2.1122
 4043SOL    HW223766   3.458   2.530   3.236 -1.1739 -1.2017  0.7947
 4044SOL     OW23767   2.896   2.138   5.428  0.8663 -0.3506  0.9231
 4044SOL    HW123768   2.963   2.069   5.431  0.1960 -0.8833  3.4471
 4044SOL    HW223769   2.888   2.155   5.521 -2.8523  1.3008  0.2858
 4045SOL     OW23770   2.519   1.431   2.756  0.1626  0.0743 -0.3194
 4045SOL    HW123771   2.474   1.355   2.717 -1.0637  0.3656  0.5111
 4045SOL    HW223772   2.477   1.509   2.720 -2.0986 -1.4002 -0.9463
 4046SOL     OW23773   3.742   2.214   6.240  0.3582 -0.5068 -0.0632
 4046SOL    HW123774   3.756   2.275   6.168  0.2982  0.4006  0.7007
 4046SOL    HW223775   3.726   2.271   6.315  0.8603  0.1093 -0.4243
 4047SOL     OW23776   1.711   0.934   2.391 -0.1750  0.7560  0.0138
 4047SOL    HW123777   1.662   0.880   2.329  1.7978 -0.9254 -0.0821
 4047SOL    HW223778   1.659   0.928   2.472 -1.4051  1.1966 -0.7382
 4048SOL     OW23779   0.057   0.933   4.196  0.2613 -0.1861 -0.4407
 4048SOL    HW123780   0.047   0.860   4.257 -0.9768 -0.1067 -0.5499
 4048SOL    HW223781   0.032   1.009   4.249 -1.1095 -0.9644  0.0324
 4049SOL     OW23782   1.048   3.632   4.367 -0.4198  0.0455  0.2023
 4049SOL    HW123783   1.042   3.574   4.442  3.4019  2.1292  2.1481
 4049SOL    HW223784   1.101   3.707   4.395 -0.1866 -0.0041 -0.0984
 4050SOL     OW23785   1.706   4.589   6.632  0.3654 -0.1227  0.2463
 4050SOL    HW123786   1.688   4.628   6.718 -0.2784 -2.6231  1.2716
 4050SOL    HW223787   1.695   4.497   6.656 -1.6802 -0.0603 -0.5165
 4051SOL     OW23788   2.397   1.564   5.142 -0.4250 -0.6607  0.5791
 4051SOL    HW123789   2.365   1.642   5.186  1.3320 -0.6733  1.8870
 4051SOL    HW223790   2.454   1.541   5.215 -1.0636 -0.2411  1.2066
 4052SOL     OW23791   3.133   3.253   7.780 -0.0777  0.0334  0.1936
 4052SOL    HW123792   3.152   3.204   7.860 -1.9409 -1.5141 -0.3325
 4052SOL    HW223793   3.217   3.255   7.733  0.6340 -1.9132  1.4224
 4053SOL     OW23794   3.017   3.681   4.958  0.2389 -0.3756  0.1952
 4053SOL    HW123795   2.988   3.597   4.994  1.0402 -0.9225 -0.4175
 4053SOL    HW223796   3.047   3.727   5.036 -1.1885  1.6035 -0.4346
 4054SOL     OW23797   3.246   3.753   1.530 -0.3536 -0.0076  0.4863
 4054SOL    HW123798   3.341   3.744   1.518 -0.6547 -0.7198 -1.2423
 4054SOL    HW223799   3.215   3.777   1.443 -0.7061  0.7576  0.8160
 4055SOL     OW23800   0.024   0.731   3.723  0.3982 -0.0681  0.5769
 4055SOL    HW123801   0.081   0.769   3.791  2.5051  0.1729 -1.3212
 4055SOL    HW223802   0.024   0.795   3.652 -2.9920  0.2239  0.8517
 4056SOL     OW23803   3.758   3.952   4.103  0.1083  0.1428 -0.0683
 4056SOL    HW123804   3.667   3.975   4.085 -0.0859  1.6046  2.8045
 4056SOL    HW223805   3.797   4.037   4.124  0.2462 -0.0508  0.4357
 4057SOL     OW23806   1.785   1.859   7.570  0.3527  0.4146 -0.0532
 4057SOL    HW123807   1.810   1.898   7.487  1.7595 -0.5124 -0.0616
 4057SOL    HW223808   1.756   1.932   7.626 -0.2010  0.1699 -0.0310
 4058SOL     OW23809   2.549   1.904   8.132 -0.1704  0.0465 -0.1901
 4058SOL    HW123810   2.456   1.921   8.117 -0.0336  1.3236  0.3908
 4058SOL    HW223811   2.554   1.824   8.186  3.1791 -0.4029 -1.1694
 4059SOL     OW23812   2.641   0.559   4.365  0.2155  0.0257  0.8009
 4059SOL    HW123813   2.678   0.643   4.338  0.6292 -0.5172 -0.3310
 4059SOL    HW223814   2.651   0.567   4.460 -1.2288  1.5592  0.8083
 4060SOL     OW23815   0.358   3.956   2.719 -0.6926 -0.6058  0.9001
 4060SOL    HW123816   0.356   4.006   2.800 -1.5922  1.4552 -0.3816
 4060SOL    HW223817   0.277   3.906   2.727 -1.7059  1.2420  2.1656
 4061SOL     OW23818   3.871   2.936  12.802  0.2136  0.5220 -0.0822
 4061SOL    HW123819   3.936   3.005  12.814 -0.3763  0.6644  2.4952
 4061SOL    HW223820   3.787   2.982  12.794  0.5926  1.2903  0.4066
 4062SOL     OW23821   3.954   2.376  16.444  0.0947 -0.6082  0.6255
 4062SOL    HW123822   3.911   2.461  16.455  0.9979  0.0611 -1.1478
 4062SOL    HW223823   4.038   2.396  16.403 -0.6375  1.9626  0.3853
 4063SOL     OW23824   1.880   4.270  10.561  0.2478  0.1219 -0.3884
 4063SOL    HW123825   1.843   4.225  10.485 -0.3479  1.3222 -0.8005
 4063SOL    HW223826   1.837   4.234  10.638 -0.5766  1.8842 -0.0474
 4064SOL     OW23827   0.211   3.840   5.560 -0.1932  0.4707  0.1645
 4064SOL    HW123828   0.187   3.931   5.575  1.1802  0.5083  2.1439
 4064SOL    HW223829   0.299   3.850   5.522 -0.1458 -0.8973 -0.0854
 4065SOL     OW23830   2.538   2.014  17.537 -0.5174 -0.4486  0.0398
 4065SOL    HW123831   2.534   2.065  17.456  2.6495  2.0880  1.4475
 4065SOL    HW223832   2.612   1.955  17.523  0.4780  1.1849 -1.6658
 4066SOL     OW23833   2.061   4.392   8.592 -0.0730  0.1103  0.2937
 4066SOL    HW123834   2.085   4.429   8.677  0.5116  1.5126 -0.4800
 4066SOL    HW223835   2.105   4.307   8.596  1.6907  1.0664  1.2787
 4067SOL     OW23836   4.713   1.287   2.676 -0.2386  0.3535  0.1294
 4067SOL    HW123837   4.672   1.233   2.609 -0.9390 -0.3982  1.1560
 4067SOL    HW223838   0.044   1.323   2.621 -1.3024  2.3331  0.0903
 4068SOL     OW23839   3.310   4.386   9.028 -0.3677 -0.3983 -0.3052
 4068SOL    HW123840   3.335   4.478   9.017 -0.7818 -0.0174  1.8220
 4068SOL    HW223841   3.291   4.373   9.121 -0.5948  2.8942  0.1202
 4069SOL     OW23842   3.599   1.556   6.754  0.0461 -0.2018 -0.6796
 4069SOL    HW123843   3.515   1.513   6.741  0.3559 -0.5301 -1.5921
 4069SOL    HW223844   3.575   1.645   6.779 -2.4104 -0.6806 -1.3283
 4070SOL     OW23845   2.166   3.466  12.077 -0.3247 -0.2171  0.0288
 4070SOL    HW123846   2.134   3.522  12.148  1.0237 -0.4383  0.8101
 4070SOL    HW223847   2.234   3.517  12.032 -0.5816  0.9416  0.9534
 4071SOL     OW23848   0.336   3.229   0.682  0.0327  0.5048  0.2508
 4071SOL    HW123849   0.315   3.309   0.634 -0.7338 -1.2546 -2.3357
 4071SOL    HW223850   0.296   3.262   0.763 -0.4705  0.9722 -0.1844
 4072SOL     OW23851   1.210   0.580   7.887  0.0707 -0.2016 -0.2827
 4072SOL    HW123852   1.297   0.603   7.854 -0.7997 -0.0987 -2.4974
 4072SOL    HW223853   1.232   0.540   7.972 -1.9733  1.9066  1.2459
 4073SOL     OW23854   2.101   3.010   4.453  0.1841 -0.0653 -0.2276
 4073SOL    HW123855   2.116   2.942   4.519 -1.6935  0.1508  0.4256
 4073SOL    HW223856   2.042   2.976   4.386  1.3432  1.8720 -2.2419
 4074SOL     OW23857   4.697   2.386  11.498 -0.1078  0.0841 -0.0150
 4074SOL    HW123858   4.672   2.417  11.411  0.4071  0.4845 -0.0232
 4074SOL    HW223859   0.026   2.318  11.488  0.2291  0.5277 -0.7275
 4075SOL     OW23860   1.644   4.101   3.946  0.0213  0.6214  0.1625
 4075SOL    HW123861   1.571   4.054   3.905 -2.2982  3.0857  1.4416
 4075SOL    HW223862   1.684   4.149   3.874  1.9065 -1.1380  0.0404
 4076SOL     OW23863   1.139   2.610  15.487 -0.2939  0.5501 -0.2142
 4076SOL    HW123864   1.100   2.694  15.511 -0.0829  0.7354 -0.5166
 4076SOL    HW223865   1.204   2.598  15.556 -1.9197 -0.3666  1.1633
 4077SOL     OW23866   0.575   2.848   1.966  0.1241 -0.0963  0.1472
 4077SOL    HW123867   0.656   2.846   1.914 -0.4208 -0.3321 -0.6852
 4077SOL    HW223868   0.567   2.942   1.980 -1.6660 -0.0350 -1.2342
 4078SOL     OW23869   2.389   3.316   3.367 -0.3435  0.3080 -0.2625
 4078SOL    HW123870   2.376   3.227   3.401 -1.0962 -1.1355 -4.3577
 4078SOL    HW223871   2.484   3.315   3.366 -0.3510 -1.6498  1.2528
 4079SOL     OW23872   2.298   4.423  17.161 -0.4862  0.2415 -0.2825
 4079SOL    HW123873   2.224   4.477  17.134 -0.2794 -0.5042 -2.3265
 4079SOL    HW223874   2.364   4.482  17.197  1.0377  0.2501 -3.1217
 4080SOL     OW23875   1.716   0.743   2.842  0.8358 -0.0723  0.1771
 4080SOL    HW123876   1.656   0.764   2.914  0.0062 -1.2734 -0.1792
 4080SOL    HW223877   1.761   0.827   2.839 -1.0954  0.9744  0.2484
 4081SOL     OW23878   2.779   2.826   9.094  0.3864 -0.0111 -0.6347
 4081SOL    HW123879   2.745   2.743   9.060  0.1198 -0.7535  1.4493
 4081SOL    HW223880   2.858   2.800   9.141 -0.1797 -0.4137  0.0866
 4082SOL     OW23881   0.220   4.590  12.920  0.3603 -0.0912  0.3607
 4082SOL    HW123882   0.268   4.563  12.998 -2.3437  1.4901  2.5506
 4082SOL    HW223883   0.289   4.615  12.859  0.8309  0.1650  0.9951
 4083SOL     OW23884   1.227   2.264   0.151  0.1432  0.0565 -0.3534
 4083SOL    HW123885   1.197   2.316   0.226  0.6866  0.2955 -0.2942
 4083SOL    HW223886   1.198   2.179   0.182 -0.7816  0.9398  1.1846
 4084SOL     OW23887   3.925   3.844   7.458  0.2242  0.0215 -0.4202
 4084SOL    HW123888   3.953   3.757   7.488  1.0112  0.3244 -0.2962
 4084SOL    HW223889   3.863   3.818   7.390 -0.9575  2.4031 -0.2329
 4085SOL     OW23890   0.794   3.453   7.041  0.2148  0.4370  0.4015
 4085SOL    HW123891   0.701   3.433   7.052 -0.0333  0.8136 -1.0638
 4085SOL    HW223892   0.802   3.541   7.005 -1.4144  0.4562  0.1101
 4086SOL     OW23893   3.753   0.654   6.650  0.6217  0.0284  0.5233
 4086SOL    HW123894   3.697   0.731   6.664  1.6245  1.0075 -0.8260
 4086SOL    HW223895   3.692   0.604   6.597  2.0613 -1.9729  0.7674
 4087SOL     OW23896   1.815   0.572   2.401 -0.0769 -0.2431  0.7081
 4087SOL    HW123897   1.749   0.567   2.470 -1.5463 -0.2693 -0.7015
 4087SOL    HW223898   1.886   0.592   2.462  1.0436  0.3896 -0.8012
 4088SOL     OW23899   4.056   4.524  14.148 -0.1150 -0.1303  0.0164
 4088SOL    HW123900   4.121   4.574  14.097  1.2362 -0.6623  1.2267
 4088SOL    HW223901   4.029   4.460  14.082  1.9537  0.4364 -1.3934
 4089SOL     OW23902   0.117   1.150  16.063  0.6130  0.0152  0.5700
 4089SOL    HW123903   0.205   1.181  16.038  0.5396 -0.7420 -0.6049
 4089SOL    HW223904   0.095   1.121  15.975 -0.5526  0.8527  0.5943
 4090SOL     OW23905   1.613   3.443   8.600  0.9360 -0.3559  0.8340
 4090SOL    HW123906   1.690   3.406   8.556  0.5046  1.3898 -1.3842
 4090SOL    HW223907   1.542   3.418   8.540 -1.7305  1.2431  3.3151
 4091SOL     OW23908   1.010   0.894   1.455  0.0981 -0.2806  0.1981
 4091SOL    HW123909   0.993   0.963   1.391  0.4948  0.6766  1.1396
 4091SOL    HW223910   0.952   0.920   1.527  1.1043  1.8308  0.2441
 4092SOL     OW23911   2.523   2.398   8.935 -0.2319 -0.3893  0.0832
 4092SOL    HW123912   2.439   2.378   8.977 -0.4664  0.0996 -0.1530
 4092SOL    HW223913   2.535   2.316   8.887 -0.7252 -1.1344  1.2214
 4093SOL     OW23914   3.385   2.520   5.522  0.4324 -0.1263 -0.0292
 4093SOL    HW123915   3.317   2.513   5.456  1.3869  0.1094 -1.0296
 4093SOL    HW223916   3.348   2.588   5.578  2.3233 -0.0974  1.1857
 4094SOL     OW23917   1.239   3.130  15.449  0.8116 -0.1285 -0.3186
 4094SOL    HW123918   1.197   3.044  15.443  2.2326 -0.7407 -1.3873
 4094SOL    HW223919   1.164   3.181  15.481  0.3391 -1.5152  0.7644
 4095SOL     OW23920   0.101   2.768  16.625 -0.9756 -0.0248  0.1004
 4095SOL    HW123921   0.118   2.826  16.699  1.4809  1.7107 -1.8334
 4095SOL    HW223922   0.130   2.818  16.548 -0.4017 -2.1502 -1.0536
 4096SOL     OW23923   2.559   2.966   7.360  0.6273 -0.3716  0.3961
 4096SOL    HW123924   2.537   2.879   7.393  2.9354 -1.0045  0.2242
 4096SOL    HW223925   2.569   2.948   7.267 -0.4473  1.5001 -0.0844
 4097SOL     OW23926   2.796   0.305  13.894 -0.1983  0.6158  0.0857
 4097SOL    HW123927   2.753   0.367  13.835  0.1394 -0.3998 -1.2065
 4097SOL    HW223928   2.746   0.310  13.975 -3.1329  0.1432 -1.7183
 4098SOL     OW23929   1.620   0.785   5.932  0.1217  0.4504 -0.3559
 4098SOL    HW123930   1.540   0.794   5.879 -1.1130 -1.7146  1.1454
 4098SOL    HW223931   1.603   0.861   5.988  1.8162 -0.4314  1.3556
 4099SOL     OW23932   4.161   3.267   1.541 -0.2727 -0.3318 -0.0575
 4099SOL    HW123933   4.174   3.278   1.636  0.6003  1.1039 -0.3414
 4099SOL    HW223934   4.226   3.331   1.512 -1.3306  0.4839 -0.6361
 4100SOL     OW23935   3.929   2.280  14.032 -0.2581  0.1861 -0.0019
 4100SOL    HW123936   3.876   2.344  14.081  0.9243 -0.3168  1.9557
 4100SOL    HW223937   4.007   2.311  14.077 -0.6849  0.7845  0.3359
 4101SOL     OW23938   0.581   3.330   2.803  0.0952 -0.3151  0.2971
 4101SOL    HW123939   0.670   3.296   2.794  0.9727  2.7018 -2.3992
 4101SOL    HW223940   0.539   3.246   2.821 -2.5669  1.4084  2.0536
 4102SOL     OW23941   0.697   2.136   7.701 -0.1269 -0.7253  0.3790
 4102SOL    HW123942   0.784   2.096   7.697 -0.6011 -1.8295  1.0851
 4102SOL    HW223943   0.666   2.136   7.610  0.5016  0.8271  0.1636
 4103SOL     OW23944   2.193   4.442  10.950  0.6253 -0.2043  0.2062
 4103SOL    HW123945   2.277   4.398  10.963  0.2438 -0.6437  1.2118
 4103SOL    HW223946   2.135   4.366  10.944  0.1936 -0.0844  2.7231
 4104SOL     OW23947   1.560   0.947   2.632  0.1298 -0.3128  0.1964
 4104SOL    HW123948   1.585   0.936   2.723  0.5504  0.4301  0.1743
 4104SOL    HW223949   1.498   1.020   2.635  0.9334  0.3701  0.1394
 4105SOL     OW23950   0.420   0.003   8.697  0.6097  0.2541 -0.2193
 4105SOL    HW123951   0.365   0.078   8.721  1.2952  1.2552 -1.7134
 4105SOL    HW223952   0.446   4.715   8.785  0.9762  5.8611  1.3243
 4106SOL     OW23953   1.808   3.906   2.973 -0.3161 -0.3288  0.0118
 4106SOL    HW123954   1.863   3.827   2.975 -0.3568 -0.4080 -2.0992
 4106SOL    HW223955   1.746   3.909   2.901 -0.4529 -0.8991  0.1010
 4107SOL     OW23956   3.737   2.758  13.725 -0.0269  0.2648  0.0293
 4107SOL    HW123957   3.729   2.845  13.686 -0.4115  0.4263  0.4753
 4107SOL    HW223958   3.706   2.772  13.814 -2.8423 -0.1399 -0.9009
 4108SOL     OW23959   1.343   0.660   5.259 -0.4370 -0.6731 -0.6757
 4108SOL    HW123960   1.333   0.704   5.343  1.6539 -1.1761 -0.1633
 4108SOL    HW223961   1.258   0.617   5.250 -0.9766 -0.3310  2.8219
 4109SOL     OW23962   0.795   0.421  16.992  0.7917 -0.0277 -0.2280
 4109SOL    HW123963   0.741   0.492  17.027  0.0188 -0.5719 -0.3298
 4109SOL    HW223964   0.739   0.345  17.007  0.2992  0.3546 -0.1145
 4110SOL     OW23965   4.443   0.610  15.438  0.1500 -0.5627 -0.5609
 4110SOL    HW123966   4.390   0.582  15.363 -2.1802  0.9691  0.5064
 4110SOL    HW223967   4.475   0.693  15.403 -0.7903 -0.4505 -1.1788
 4111SOL     OW23968   2.000   3.152  17.027 -0.3983  0.6989  0.0656
 4111SOL    HW123969   1.914   3.125  16.994 -0.4928 -1.8357  2.4361
 4111SOL    HW223970   1.982   3.244  17.045 -1.0125  0.4130  0.9013
 4112SOL     OW23971   3.462   4.578  12.563 -0.0307  0.5750  0.7113
 4112SOL    HW123972   3.541   4.567  12.616 -0.6445 -1.6425  1.1859
 4112SOL    HW223973   3.422   4.492  12.574  2.6897 -0.5890  1.5826
 4113SOL     OW23974   3.694   2.712   7.617  0.0468 -0.6788 -0.1238
 4113SOL    HW123975   3.742   2.779   7.666 -0.8463 -0.0779 -0.0555
 4113SOL    HW223976   3.710   2.633   7.669  0.1432  0.7266  2.0001
 4114SOL     OW23977   2.330   1.200  12.370 -0.1599 -0.2912  0.5002
 4114SOL    HW123978   2.394   1.251  12.420 -0.4999 -0.5049  1.1670
 4114SOL    HW223979   2.306   1.131  12.432  1.0835 -0.5745  0.6492
 4115SOL     OW23980   2.912   0.389   6.098 -0.3373  0.1424 -0.4708
 4115SOL    HW123981   2.917   0.485   6.096  0.9570  0.0400 -1.7766
 4115SOL    HW223982   2.860   0.376   6.019 -0.2118  1.1639 -0.7256
 4116SOL     OW23983   1.440   3.095  12.966 -0.4807 -0.4012  0.9489
 4116SOL    HW123984   1.536   3.088  12.962 -0.5715 -1.5117  0.7255
 4116SOL    HW223985   1.423   3.116  13.058  2.5788  2.6327  0.8201
 4117SOL     OW23986   0.413   4.725  14.589 -0.3751  0.1417 -0.1684
 4117SOL    HW123987   0.452   0.067  14.554 -0.2086  0.7572  1.4415
 4117SOL    HW223988   0.324   0.019  14.603 -0.8210 -0.6957 -1.0402
 4118SOL     OW23989   1.611   4.344   5.875 -0.1237  0.0505  0.2172
 4118SOL    HW123990   1.529   4.381   5.843 -1.3997 -2.0719  1.0182
 4118SOL    HW223991   1.661   4.425   5.887  1.2634 -1.1214  2.5514
 4119SOL     OW23992   2.500   4.045   0.496 -0.6004  0.4315  0.7915
 4119SOL    HW123993   2.430   4.009   0.442  0.7399 -1.7809  0.5490
 4119SOL    HW223994   2.578   4.054   0.441 -0.1490  0.5513  1.4447
 4120SOL     OW23995   0.671   1.742  16.708 -0.3987 -0.4018 -0.3170
 4120SOL    HW123996   0.756   1.783  16.719 -0.6627  0.6103 -1.9209
 4120SOL    HW223997   0.677   1.716  16.616  0.3564 -1.2830 -0.0167
 4121SOL     OW23998   4.161   4.583   7.599  0.0734  0.0223  0.1504
 4121SOL    HW123999   4.101   4.525   7.552  0.3951 -0.0163 -0.2204
 4121SOL    HW224000   4.229   4.522   7.629 -1.7334 -1.8174  0.4685
 4122SOL     OW24001   1.172   4.395   7.927 -0.0448 -0.2238  0.0346
 4122SOL    HW124002   1.198   4.462   7.990 -1.2637  0.3002 -0.0186
 4122SOL    HW224003   1.249   4.394   7.871  0.9359 -2.5565  1.4210
 4123SOL     OW24004   1.587   0.621  14.927 -0.1534  0.0434  0.1221
 4123SOL    HW124005   1.613   0.688  14.990  1.6201  1.1867 -1.8501
 4123SOL    HW224006   1.529   0.562  14.976  1.2481 -2.5435 -1.3357
 4124SOL     OW24007   4.478   0.805  11.106 -0.3264 -0.8770 -0.2498
 4124SOL    HW124008   4.429   0.868  11.159  0.3185 -1.5481  1.1459
 4124SOL    HW224009   4.531   0.761  11.172  3.0583 -0.6221 -2.8008
 4125SOL     OW24010   1.089   3.079   1.689 -0.4563  0.6751 -0.4189
 4125SOL    HW124011   1.083   3.160   1.739  0.0646 -0.0533  0.8380
 4125SOL    HW224012   1.112   3.007   1.748  3.2275  1.0868 -1.3257
 4126SOL     OW24013   3.008   1.999   7.447 -0.2273 -0.1143  0.2519
 4126SOL    HW124014   2.992   1.964   7.359  0.2369  0.8791 -0.2292
 4126SOL    HW224015   3.092   1.964   7.477 -0.4100  0.4191  1.3927
 4127SOL     OW24016   0.366   3.224   9.840  0.1035  0.2540  0.3797
 4127SOL    HW124017   0.343   3.242   9.749 -3.9180 -0.8075  1.1604
 4127SOL    HW224018   0.457   3.251   9.828  0.5332 -1.5115 -0.3333
 4128SOL     OW24019   1.346   2.031  10.064 -0.2177  0.1369 -0.6160
 4128SOL    HW124020   1.393   2.051   9.983  0.7167 -1.1111 -0.3747
 4128SOL    HW224021   1.289   2.108  10.064  0.1039  0.3714  1.2784
 4129SOL     OW24022   1.527   2.679   2.759  0.2260 -0.5801  0.2902
 4129SOL    HW124023   1.439   2.680   2.721  0.0608 -0.8236  0.6663
 4129SOL    HW224024   1.540   2.584   2.763  0.7272 -0.4560  1.4991
 4130SOL     OW24025   3.175   2.307   6.107 -0.1189 -0.3657 -0.1177
 4130SOL    HW124026   3.173   2.302   6.012 -2.2352  0.4311 -0.1191
 4130SOL    HW224027   3.245   2.371   6.124 -0.2517 -0.6088  1.3883
 4131SOL     OW24028   1.116   1.672   2.963 -0.1916 -0.0408 -0.5548
 4131SOL    HW124029   1.179   1.697   3.030  0.5833  1.6078 -1.8951
 4131SOL    HW224030   1.150   1.735   2.900 -0.2913  1.8723  1.3268
 4132SOL     OW24031   1.559   0.579   5.567  0.0014  0.1059 -0.0063
 4132SOL    HW124032   1.631   0.529   5.605 -0.3422 -1.6084 -1.6350
 4132SOL    HW224033   1.601   0.635   5.502 -1.8020  2.3030  0.7184
 4133SOL     OW24034   2.442   2.920   3.131  0.2137 -0.1529  0.1326
 4133SOL    HW124035   2.519   2.959   3.090  1.8539 -1.0245  2.4091
 4133SOL    HW224036   2.481   2.886   3.211  0.2308 -1.8262 -0.5765
 4134SOL     OW24037   0.654   2.081   1.050  0.6065 -0.6024 -0.1557
 4134SOL    HW124038   0.732   2.034   1.077  0.8649 -0.8683 -1.3512
 4134SOL    HW224039   0.628   2.126   1.131 -2.0538  2.4582 -2.6937
 4135SOL     OW24040   0.560   2.062   4.263 -0.2997 -0.0352 -0.7746
 4135SOL    HW124041   0.630   2.017   4.216 -0.3242  0.8020 -1.6156
 4135SOL    HW224042   0.607   2.108   4.332  1.8748 -1.9881 -0.9552
 4136SOL     OW24043   2.760   0.728  12.422 -0.0241 -0.1191  0.2461
 4136SOL    HW124044   2.671   0.712  12.453 -0.2954  0.0857 -0.4204
 4136SOL    HW224045   2.803   0.652  12.461  0.2998 -0.8516 -1.5460
 4137SOL     OW24046   2.958   0.614   5.051 -0.0646 -0.1626 -0.0716
 4137SOL    HW124047   2.997   0.532   5.020 -1.1289 -0.7817  0.2145
 4137SOL    HW224048   2.984   0.660   4.972  0.7489  0.1998  0.4051
 4138SOL     OW24049   3.714   2.159   9.517 -0.4319  0.3356  0.4206
 4138SOL    HW124050   3.658   2.198   9.584  1.1060  0.6957  1.4803
 4138SOL    HW224051   3.781   2.226   9.525 -0.3038  0.3409 -0.6677
 4139SOL     OW24052   1.134   2.227   2.913  0.0287 -0.0606  0.3220
 4139SOL    HW124053   1.128   2.312   2.958  0.4005  0.5866 -0.8737
 4139SOL    HW224054   1.064   2.230   2.847 -0.8903  0.7603  1.3106
 4140SOL     OW24055   4.639   3.068   5.985  0.2939 -0.2438 -0.2430
 4140SOL    HW124056   4.699   3.047   5.914 -0.1206 -0.3782 -0.5534
 4140SOL    HW224057   4.562   3.012   5.974 -1.2257  1.1888  3.1268
 4141SOL     OW24058   0.401   1.709  16.438  0.2711 -0.1527 -0.0064
 4141SOL    HW124059   0.385   1.678  16.527  3.4849  1.8257  1.2543
 4141SOL    HW224060   0.388   1.631  16.384 -1.4608  0.1297 -0.0066
 4142SOL     OW24061   1.740   1.208   5.265 -0.1552  0.1573 -0.1991
 4142SOL    HW124062   1.741   1.208   5.170 -1.2876 -1.0548 -0.2166
 4142SOL    HW224063   1.810   1.146   5.286 -0.9718 -1.0699 -1.0837
 4143SOL     OW24064   1.844   4.393   8.377  0.2912  0.1236 -0.7035
 4143SOL    HW124065   1.893   4.316   8.348  0.7599 -1.3069  3.9375
 4143SOL    HW224066   1.917   4.454   8.384 -0.1419  0.3384  1.6863
 4144SOL     OW24067   1.255   3.059  10.347  0.4116 -0.3403  0.2725
 4144SOL    HW124068   1.177   3.104  10.379  0.3753 -1.5573  1.8674
 4144SOL    HW224069   1.221   3.025  10.264 -0.9988  1.0412  0.2791
 4145SOL     OW24070   4.691   4.439  17.471  0.3249  0.0146 -0.2331
 4145SOL    HW124071   4.611   4.405  17.514  1.2081 -0.2916  1.1782
 4145SOL    HW224072   4.707   4.366  17.411  1.7570  1.0453 -1.0797
 4146SOL     OW24073   2.552   0.555   2.066  0.2223  0.1881  0.2842
 4146SOL    HW124074   2.520   0.637   2.028 -1.0512  0.7582  2.5710
 4146SOL    HW224075   2.504   0.550   2.149  2.8258 -1.1089  1.7069
 4147SOL     OW24076   2.067   2.688  10.077 -0.0642  0.3908 -0.1178
 4147SOL    HW124077   2.060   2.651  10.165  3.6676  1.3686  0.5776
 4147SOL    HW224078   2.091   2.611  10.026 -1.2482 -0.9930  1.3954
 4148SOL     OW24079   2.767   0.036   3.426  0.0811  0.0896  0.3821
 4148SOL    HW124080   2.682   0.057   3.387  0.0492  1.6314  1.2764
 4148SOL    HW224081   2.830   0.093   3.383  1.3724 -0.3925  1.6283
 4149SOL     OW24082   4.130   2.815   6.294 -0.5554 -0.1373 -0.3112
 4149SOL    HW124083   4.207   2.862   6.326 -0.8439 -1.5706  2.4865
 4149SOL    HW224084   4.088   2.882   6.241 -0.2243  0.2182 -0.1242
 4150SOL     OW24085   0.645   1.184   8.759 -0.4199 -0.0642  0.1255
 4150SOL    HW124086   0.632   1.278   8.754 -0.0463 -0.1005 -1.6355
 4150SOL    HW224087   0.570   1.168   8.817 -0.6119  0.3086 -0.0235
 4151SOL     OW24088   2.997   3.359   3.598  0.3326 -0.1218 -0.4737
 4151SOL    HW124089   3.085   3.322   3.589 -0.6660 -2.4073 -1.0026
 4151SOL    HW224090   2.992   3.408   3.516  2.1082 -2.6861 -2.1246
 4152SOL     OW24091   0.384   1.321  15.423 -0.1438 -0.0905 -0.3316
 4152SOL    HW124092   0.352   1.330  15.334  0.3697 -0.9147 -0.5976
 4152SOL    HW224093   0.311   1.328  15.485 -1.1774 -0.4962 -1.5017
 4153SOL     OW24094   2.375   3.606  17.127 -0.6725  0.6690  0.0341
 4153SOL    HW124095   2.318   3.684  17.129  0.2349  1.4022 -2.7483
 4153SOL    HW224096   2.391   3.587  17.219  0.4632 -0.5044 -0.4038
 4154SOL     OW24097   0.889   0.975   1.692 -0.2942 -0.1926  0.4155
 4154SOL    HW124098   0.909   1.065   1.667 -0.2528 -0.6915 -1.3970
 4154SOL    HW224099   0.939   0.957   1.771  3.2190 -3.3490 -2.5359
 4155SOL     OW24100   0.035   2.929   5.784 -0.0196  0.4745  0.1095
 4155SOL    HW124101   4.713   2.865   5.823 -0.8335  1.1480 -0.0160
 4155SOL    HW224102   0.075   2.883   5.710  1.3962 -1.3569  2.0235
 4156SOL     OW24103   0.855   1.746   7.432  0.0850  0.8906 -0.6241
 4156SOL    HW124104   0.888   1.730   7.521 -0.0281 -0.1321 -0.7688
 4156SOL    HW224105   0.934   1.719   7.385  0.2682  0.6171 -0.1645
 4157SOL     OW24106   3.472   1.548   9.763  0.2626  0.1793 -0.1562
 4157SOL    HW124107   3.389   1.581   9.796  0.5832  0.3063  0.5363
 4157SOL    HW224108   3.460   1.454   9.779  0.3715  0.0410 -0.9155
 4158SOL     OW24109   1.691   2.478   6.839 -0.2465 -0.2005  0.4638
 4158SOL    HW124110   1.770   2.473   6.893 -0.3905  2.2676  0.9029
 4158SOL    HW224111   1.719   2.414   6.773  1.4963 -0.1148  1.1036
 4159SOL     OW24112   4.482   1.906  16.462  0.2263 -0.1775 -0.7451
 4159SOL    HW124113   4.492   1.943  16.375  3.2008  2.0005  0.5299
 4159SOL    HW224114   4.388   1.891  16.462  0.3475 -0.9838 -1.8692
 4160SOL     OW24115   2.924   0.518   8.287 -0.1997  0.0973 -0.2271
 4160SOL    HW124116   2.999   0.555   8.241  1.4930  0.5851  2.9504
 4160SOL    HW224117   2.970   0.454   8.342 -0.1985 -0.7869 -1.2342
 4161SOL     OW24118   3.190   1.435   3.554 -0.3221  0.1089  0.0520
 4161SOL    HW124119   3.143   1.517   3.568 -1.3842 -0.1626 -1.8170
 4161SOL    HW224120   3.228   1.444   3.467  0.1509 -0.6509  0.1760
 4162SOL     OW24121   3.192   1.507  10.947 -0.6283 -0.1010  1.0242
 4162SOL    HW124122   3.113   1.453  10.952  0.3711 -1.6704  0.0859
 4162SOL    HW224123   3.216   1.535  11.035  4.1838 -1.2702  0.0869
 4163SOL     OW24124   0.179   0.777   7.467  0.3559  0.3316  0.6918
 4163SOL    HW124125   0.256   0.725   7.489  1.2239  2.0437  1.6308
 4163SOL    HW224126   0.106   0.719   7.488  0.0801  0.5816  0.4368
 4164SOL     OW24127   4.240   3.943  12.496 -0.2653 -0.3344  0.3745
 4164SOL    HW124128   4.317   3.899  12.533  0.0362  0.4900  0.7267
 4164SOL    HW224129   4.263   4.035  12.509  2.4702 -1.0706  0.8287
 4165SOL     OW24130   4.268   2.856   7.230  0.1363  0.4083 -0.1797
 4165SOL    HW124131   4.211   2.779   7.222  0.0312  0.5045 -0.3602
 4165SOL    HW224132   4.306   2.847   7.317 -0.0233  3.2978  0.1787
 4166SOL     OW24133   2.309   4.331  12.686 -0.9495 -0.0156  0.0787
 4166SOL    HW124134   2.370   4.278  12.634  0.1073  0.3674  0.9242
 4166SOL    HW224135   2.370   4.351  12.757  0.0608 -0.3257 -0.7154
 4167SOL     OW24136   2.272   1.207   9.672  0.4969 -0.3152  0.2388
 4167SOL    HW124137   2.294   1.119   9.640 -0.0484 -0.4764  0.3164
 4167SOL    HW224138   2.360   1.230   9.704  1.3729 -0.8727 -1.7356
 4168SOL     OW24139   0.480   0.702   4.064  0.3886  0.0270 -0.1412
 4168SOL    HW124140   0.405   0.716   4.122  1.2694  0.2024  0.9658
 4168SOL    HW224141   0.554   0.708   4.125  0.8569 -1.0952 -0.5870
 4169SOL     OW24142   2.126   2.187   3.233  0.3810 -0.6595 -0.5122
 4169SOL    HW124143   2.083   2.139   3.303  0.5875 -1.5997 -1.0274
 4169SOL    HW224144   2.123   2.117   3.168  0.0114 -0.0137 -1.2029
 4170SOL     OW24145   1.321   0.969  13.687 -0.6020 -0.1315  0.3910
 4170SOL    HW124146   1.350   0.981  13.778 -0.2768 -1.8527  0.5101
 4170SOL    HW224147   1.245   1.025  13.671 -0.5045  0.4344  1.8878
 4171SOL     OW24148   1.807   1.054   6.993 -0.3295  0.3523 -0.1533
 4171SOL    HW124149   1.718   1.075   6.963 -0.1486  0.1592 -0.8434
 4171SOL    HW224150   1.856   1.118   6.943  1.0873  1.1183  2.2753
 4172SOL     OW24151   2.108   4.400   2.288 -0.1687 -0.2297  0.2543
 4172SOL    HW124152   2.133   4.343   2.360  1.0373 -0.1140 -0.0847
 4172SOL    HW224153   2.120   4.344   2.211  1.4356  0.2266  0.1727
 4173SOL     OW24154   0.534   1.325   2.238 -0.2802  0.0440  0.2340
 4173SOL    HW124155   0.533   1.321   2.333  1.4754 -0.0034  0.2560
 4173SOL    HW224156   0.476   1.401   2.228  0.1559  0.7204  3.0212
 4174SOL     OW24157   2.395   0.055  10.449 -0.2275  0.7206  0.1258
 4174SOL    HW124158   2.465   0.066  10.386 -0.2849  0.2580 -0.0217
 4174SOL    HW224159   2.311   0.059  10.402  1.9262  0.8247 -3.6797
 4175SOL     OW24160   4.322   0.830  15.175  0.0438  0.5288  0.1722
 4175SOL    HW124161   4.332   0.875  15.259  1.0645 -0.0608  0.3595
 4175SOL    HW224162   4.243   0.868  15.136 -1.7231 -0.8942  2.3581
 4176SOL     OW24163   4.633   3.837  12.753  0.0068  0.3671  0.1097
 4176SOL    HW124164   4.652   3.917  12.802  0.4979  0.8332 -0.8475
 4176SOL    HW224165   4.695   3.777  12.794 -2.2386 -1.2550  1.1292
 4177SOL     OW24166   3.499   3.460   4.386 -0.1593  0.5215  0.1656
 4177SOL    HW124167   3.415   3.492   4.353  0.1153  1.2326  0.1429
 4177SOL    HW224168   3.469   3.433   4.473  1.0153  2.3641  1.1555
 4178SOL     OW24169   3.123   0.090   3.471  0.3014 -0.0066 -0.4494
 4178SOL    HW124170   3.064   0.131   3.408  1.1839  2.5205  0.3643
 4178SOL    HW224171   3.142   0.158   3.536  0.6065  0.8920 -1.4617
 4179SOL     OW24172   1.456   1.910   3.175  0.1196 -0.6259  0.0322
 4179SOL    HW124173   1.458   1.824   3.133  1.7320 -0.0543 -1.0740
 4179SOL    HW224174   1.493   1.974   3.114 -1.1611 -0.0919 -0.1915
 4180SOL     OW24175   0.684   4.184  13.479  0.0395 -0.3104 -0.3677
 4180SOL    HW124176   0.738   4.139  13.545 -0.4099 -1.1384 -0.5645
 4180SOL    HW224177   0.753   4.227  13.429 -0.2602 -2.4631 -2.6348
 4181SOL     OW24178   1.850   2.385   7.801  0.5437 -0.1553  0.0271
 4181SOL    HW124179   1.926   2.386   7.859  0.1854  0.5285  0.4856
 4181SOL    HW224180   1.803   2.465   7.825  0.5488 -0.3382  0.6373
 4182SOL     OW24181   2.936   1.587   3.725 -0.2796  0.3442 -0.1649
 4182SOL    HW124182   2.922   1.513   3.784  0.6625  0.2322 -0.0815
 4182SOL    HW224183   2.863   1.572   3.665  0.6808 -1.3438 -0.9057
 4183SOL     OW24184   0.255   1.469  16.153 -0.4160  0.2575 -0.2190
 4183SOL    HW124185   0.244   1.547  16.099  2.7016  0.2215 -0.9226
 4183SOL    HW224186   0.257   1.406  16.080  1.8502  1.7397 -1.4667
 4184SOL     OW24187   4.322   1.685   1.841 -0.0416 -0.2618 -0.2389
 4184SOL    HW124188   4.404   1.648   1.875 -0.0352  0.9889  1.0900
 4184SOL    HW224189   4.348   1.686   1.749 -0.1982 -0.3416 -0.2850
 4185SOL     OW24190   3.450   4.574   3.730 -0.1680  0.1407 -0.0573
 4185SOL    HW124191   3.518   4.561   3.796 -0.6738 -0.5904  0.3226
 4185SOL    HW224192   3.511   4.607   3.664 -0.0493 -0.1685 -0.1017
 4186SOL     OW24193   2.381   4.231   2.989  0.1881 -0.0764  0.0536
 4186SOL    HW124194   2.379   4.167   3.060  1.1708  0.1430  0.2908
 4186SOL    HW224195   2.428   4.301   3.036 -1.2691  0.2264  1.0550
 4187SOL     OW24196   3.240   2.285   8.110 -0.1573  0.3598 -0.1154
 4187SOL    HW124197   3.169   2.249   8.057 -2.3749  1.9019  1.7611
 4187SOL    HW224198   3.202   2.249   8.191  1.9974 -0.2519  0.6306
 4188SOL     OW24199   1.674   4.099  10.463 -0.3136  0.1301  0.6517
 4188SOL    HW124200   1.705   4.141  10.383 -1.0531 -1.0357 -0.2447
 4188SOL    HW224201   1.663   4.009  10.433  1.8695  0.8359 -2.2226
 4189SOL     OW24202   0.459   4.379   9.285  0.6988  0.4697  0.1218
 4189SOL    HW124203   0.537   4.406   9.334 -0.0777 -0.5565  1.9356
 4189SOL    HW224204   0.440   4.289   9.309 -2.2554  0.9704 -0.3454
 4190SOL     OW24205   3.860   0.794   7.594  0.0003  0.2728  0.3550
 4190SOL    HW124206   3.947   0.782   7.555 -0.7110 -0.7399 -0.9032
 4190SOL    HW224207   3.803   0.803   7.518  0.9429 -0.3249 -0.4175
 4191SOL     OW24208   1.776   2.001   0.860 -0.4836  0.3486 -0.0032
 4191SOL    HW124209   1.854   1.947   0.849  0.2447  1.0405  1.7334
 4191SOL    HW224210   1.762   1.983   0.953  0.8633 -0.9449 -0.0458
 4192SOL     OW24211   2.374   3.565  17.389  0.0762 -0.1940  0.5424
 4192SOL    HW124212   2.313   3.591  17.458  0.5302  2.8856 -0.2119
 4192SOL    HW224213   2.351   3.472  17.394  1.0631 -0.3885  1.4405
 4193SOL     OW24214   1.136   2.403   4.975  0.2827  0.2171 -0.0086
 4193SOL    HW124215   1.093   2.374   4.894 -0.0610  0.4392  0.0973
 4193SOL    HW224216   1.060   2.428   5.028  0.0700  1.6419 -0.9820
 4194SOL     OW24217   4.686   0.963  12.766 -0.3410 -0.0820 -0.2325
 4194SOL    HW124218   4.647   0.961  12.678 -0.4321  0.1421 -0.1957
 4194SOL    HW224219   0.008   1.037  12.753 -1.2341  0.2254 -2.6517
 4195SOL     OW24220   1.091   3.513   6.147  0.0557 -0.1717  0.9273
 4195SOL    HW124221   1.133   3.427   6.156  2.0218  0.6191 -0.7756
 4195SOL    HW224222   1.102   3.559   6.230 -1.3361 -0.7009  1.4069
 4196SOL     OW24223   1.017   0.018   7.193  0.4116 -0.3570 -0.3147
 4196SOL    HW124224   1.060   0.039   7.110 -0.1066  1.1936 -0.1890
 4196SOL    HW224225   1.077   0.052   7.259  1.4371  0.3582 -1.6235
 4197SOL     OW24226   0.037   4.004   4.001 -0.4765  0.0599 -0.5478
 4197SOL    HW124227   0.007   3.941   3.935  3.8159 -0.6063 -1.8730
 4197SOL    HW224228   4.705   4.007   4.067  0.0061  0.4385 -0.0518
 4198SOL     OW24229   1.256   1.680  16.947 -0.2047 -0.2028  0.0621
 4198SOL    HW124230   1.285   1.603  16.898 -0.2127 -0.4701  0.4734
 4198SOL    HW224231   1.317   1.751  16.928 -0.8295  0.4913  0.6447
 4199SOL     OW24232   3.129   2.106   3.040 -0.4214 -0.0454 -0.0948
 4199SOL    HW124233   3.078   2.172   2.993 -0.9365 -1.0172 -0.9247
 4199SOL    HW224234   3.101   2.024   2.998 -1.7282 -0.6482  1.9337
 4200SOL     OW24235   4.692   0.269   9.703  0.0016 -0.5970 -0.1031
 4200SOL    HW124236   4.696   0.174   9.706  1.3375 -0.5815 -1.2273
 4200SOL    HW224237   4.653   0.283   9.789  2.1618  0.9246  0.6328
 4201SOL     OW24238   3.298   3.161   8.949  0.0928  0.0488  0.2355
 4201SOL    HW124239   3.308   3.256   8.937  1.7991  0.0626  1.8664
 4201SOL    HW224240   3.285   3.148   9.043 -0.0628 -0.2063  0.1777
 4202SOL     OW24241   2.157   1.676   8.316  0.7534 -0.1052 -0.3565
 4202SOL    HW124242   2.087   1.738   8.335  1.6032  1.1860 -1.4054
 4202SOL    HW224243   2.121   1.604   8.367  0.5579 -1.8933 -3.0012
 4203SOL     OW24244   0.169   2.668   3.475 -0.2628  0.3322  0.8475
 4203SOL    HW124245   0.074   2.657   3.478 -0.3254  0.0247 -2.6890
 4203SOL    HW224246   0.191   2.616   3.552 -0.0502 -1.1394 -0.2104
 4204SOL     OW24247   0.148   3.527   5.230 -0.4895  0.2613 -0.4569
 4204SOL    HW124248   0.080   3.587   5.199  0.9057  0.9325 -2.2207
 4204SOL    HW224249   0.105   3.453   5.274 -1.6079  1.0544 -0.2234
 4205SOL     OW24250   0.835   2.517   9.306 -0.1894  0.0205  0.4524
 4205SOL    HW124251   0.913   2.537   9.357 -0.1296  1.7692 -0.3130
 4205SOL    HW224252   0.866   2.548   9.221 -2.6374  1.7810  0.1931
 4206SOL     OW24253   4.007   2.117   6.512  0.0535  0.3590 -0.4269
 4206SOL    HW124254   4.071   2.060   6.554 -0.4818 -1.6427 -2.3169
 4206SOL    HW224255   4.032   2.105   6.421 -1.7918 -3.0272 -0.4978
 4207SOL     OW24256   0.127   3.948   5.295 -0.0367 -0.4923  0.3500
 4207SOL    HW124257   0.086   4.006   5.231 -0.7699 -0.8066  0.5345
 4207SOL    HW224258   0.092   3.861   5.277  1.0995 -0.8323 -0.2100
 4208SOL     OW24259   2.733   3.998   5.267 -0.5806  0.1734 -0.0757
 4208SOL    HW124260   2.699   4.065   5.326 -0.8443  0.0343 -0.0710
 4208SOL    HW224261   2.673   4.010   5.194 -0.5008  4.5906  0.5677
 4209SOL     OW24262   3.410   2.058   4.463  0.1573 -0.2030 -0.4480
 4209SOL    HW124263   3.427   2.006   4.541  0.3297  1.6699  0.7720
 4209SOL    HW224264   3.496   2.053   4.422  0.2643 -1.0023 -0.1190
 4210SOL     OW24265   4.723   3.418   3.887 -0.1001  0.0002 -0.3736
 4210SOL    HW124266   4.713   3.498   3.938  0.7294  0.3092 -0.7001
 4210SOL    HW224267   4.682   3.356   3.947  1.0446  1.3915  1.8503
 4211SOL     OW24268   4.290   2.435   8.906 -0.4547 -0.2487 -0.6384
 4211SOL    HW124269   4.303   2.485   8.825 -2.1011  0.8878 -0.1944
 4211SOL    HW224270   4.378   2.397   8.914 -0.5482  0.0435  1.6869
 4212SOL     OW24271   3.898   3.195  15.280 -0.4133  0.3295  0.0614
 4212SOL    HW124272   3.896   3.287  15.307  0.0903  0.7082 -1.1597
 4212SOL    HW224273   3.969   3.166  15.337 -0.3683 -0.5261 -0.4303
 4213SOL     OW24274   1.275   0.482   2.341  0.1542  0.2602  0.0942
 4213SOL    HW124275   1.300   0.545   2.408  0.1395  0.8715 -0.4790
 4213SOL    HW224276   1.318   0.508   2.260  0.3327 -0.9565 -0.2072
 4214SOL     OW24277   0.172   2.410   9.011  0.1805 -0.0989  0.3233
 4214SOL    HW124278   0.232   2.458   9.067  1.4386 -2.6358  1.1654
 4214SOL    HW224279   0.130   2.356   9.078 -0.2599 -0.5741 -0.3259
 4215SOL     OW24280   3.735   2.312   2.682 -0.4762  0.0705  0.2973
 4215SOL    HW124281   3.684   2.351   2.611  0.1465 -1.2703 -0.8932
 4215SOL    HW224282   3.742   2.220   2.654 -2.9358  0.3583 -1.2404
 4216SOL     OW24283   4.170   3.452   3.152  0.1445  0.0132 -0.6468
 4216SOL    HW124284   4.171   3.357   3.168 -0.0645 -0.0157 -0.8152
 4216SOL    HW224285   4.250   3.458   3.101  0.4220  1.1341 -0.0855
 4217SOL     OW24286   0.164   1.190   1.143 -0.1148  0.0173 -0.1529
 4217SOL    HW124287   0.133   1.203   1.054 -1.5133  0.8083  0.4692
 4217SOL    HW224288   0.101   1.231   1.202  0.3698 -0.4063  0.6670
 4218SOL     OW24289   3.317   0.042   5.076 -0.2655 -0.2726  0.0166
 4218SOL    HW124290   3.225   0.027   5.098  0.0193  0.4861  1.7312
 4218SOL    HW224291   3.351   0.010   5.160 -1.1630 -3.0807 -0.6716
 4219SOL     OW24292   1.759   3.076  16.890  0.2902  0.0364  0.9347
 4219SOL    HW124293   1.749   3.071  16.795 -0.3714  0.4435  0.9798
 4219SOL    HW224294   1.690   3.140  16.909  0.5404 -0.0662  2.1815
 4220SOL     OW24295   2.183   4.216   4.722  0.2628  0.3374 -0.1172
 4220SOL    HW124296   2.131   4.141   4.751  1.2924 -0.0451  0.7352
 4220SOL    HW224297   2.168   4.228   4.628  0.8524 -2.1898 -0.5497
 4221SOL     OW24298   3.686   1.139   5.931  0.0215  0.4967  0.5016
 4221SOL    HW124299   3.682   1.199   5.857 -1.1535  0.1116  0.2540
 4221SOL    HW224300   3.671   1.190   6.010  1.0055  0.7663  0.5220
 4222SOL     OW24301   4.273   1.236   1.540 -0.0757 -0.0282 -0.1369
 4222SOL    HW124302   4.236   1.310   1.589 -1.6852 -0.9527  0.0378
 4222SOL    HW224303   4.266   1.176   1.614  0.6844 -0.6203 -0.5559
 4223SOL     OW24304   3.272   3.385   3.543 -0.0039  0.0579 -0.8064
 4223SOL    HW124305   3.362   3.382   3.576 -0.6366 -0.7686  0.8567
 4223SOL    HW224306   3.284   3.332   3.464 -1.2992  0.0778 -1.0103
 4224SOL     OW24307   2.658   0.571   6.031 -0.4764 -0.1625  0.3614
 4224SOL    HW124308   2.749   0.592   6.008 -0.9123  1.9182  0.6021
 4224SOL    HW224309   2.682   0.576   6.123 -0.4584  0.7575  0.3038
 4225SOL     OW24310   4.603   4.533   3.952 -0.0292  0.2069  0.6327
 4225SOL    HW124311   4.680   4.586   3.975  1.2838 -1.5956  0.4454
 4225SOL    HW224312   4.647   4.467   3.897  0.5623  0.3268  0.9643
 4226SOL     OW24313   1.168   3.211   7.743 -0.5161  0.1829 -0.3117
 4226SOL    HW124314   1.091   3.186   7.691  0.5826 -2.4352 -0.6705
 4226SOL    HW224315   1.221   3.132   7.748 -0.9830 -0.1129  0.0515
 4227SOL     OW24316   1.190   1.982   8.494 -0.0012  0.0816  0.7860
 4227SOL    HW124317   1.168   1.981   8.587  2.1818  0.6135  1.3085
 4227SOL    HW224318   1.114   1.936   8.459 -0.7087  1.9815 -0.1654
 4228SOL     OW24319   1.607   4.588   0.681 -0.1573 -0.0737  0.3353
 4228SOL    HW124320   1.567   4.672   0.657 -0.7997 -0.6744 -0.7333
 4228SOL    HW224321   1.571   4.576   0.768 -0.9958  1.4032  0.1953
 4229SOL     OW24322   4.115   3.905   1.358 -0.1501  0.0052  0.0485
 4229SOL    HW124323   4.182   3.919   1.292  0.0950  1.3454  0.5905
 4229SOL    HW224324   4.120   3.810   1.373  1.4070  0.6169  3.3772
 4230SOL     OW24325   0.650   4.522  12.833  0.0843  0.0793 -0.4115
 4230SOL    HW124326   0.599   4.442  12.822 -0.9751  0.8183 -0.9428
 4230SOL    HW224327   0.701   4.500  12.911 -1.4365 -1.1822  0.2159
 4231SOL     OW24328   3.646   0.879   3.308  0.1185 -0.0470 -0.3040
 4231SOL    HW124329   3.738   0.877   3.333  0.9545  0.3648 -3.3055
 4231SOL    HW224330   3.613   0.913   3.391  0.8711  1.1419 -0.4965
 4232SOL     OW24331   1.260   2.020   9.555  0.0607 -0.3834 -0.4012
 4232SOL    HW124332   1.199   2.091   9.578  2.9367  2.4217 -1.5092
 4232SOL    HW224333   1.222   1.944   9.598 -0.2250  0.6944  1.2568
 4233SOL     OW24334   0.963   4.472   0.580  0.4141  0.1296  0.2649
 4233SOL    HW124335   0.898   4.414   0.621 -1.0003 -0.5849 -2.9516
 4233SOL    HW224336   1.038   4.457   0.636 -0.7814 -2.3174  1.2108
 4234SOL     OW24337   4.343   4.280   7.182  0.6321 -0.0141  0.2681
 4234SOL    HW124338   4.250   4.284   7.157  1.1310 -1.7523 -1.8757
 4234SOL    HW224339   4.383   4.206   7.137  0.5062 -0.8840  1.5797
 4235SOL     OW24340   1.563   2.825   2.522  0.0448  0.0625 -0.1415
 4235SOL    HW124341   1.590   2.748   2.571  2.4471  0.2319 -1.1948
 4235SOL    HW224342   1.516   2.869   2.593  2.1501  0.8305  0.7643
 4236SOL     OW24343   3.849   0.893   8.463 -0.0899 -0.5251  0.0514
 4236SOL    HW124344   3.802   0.820   8.423 -0.4566 -0.7824  0.9585
 4236SOL    HW224345   3.920   0.844   8.504  1.1360  1.1695 -0.0268
 4237SOL     OW24346   1.609   1.290   1.929 -0.0698 -0.1234 -0.0501
 4237SOL    HW124347   1.596   1.214   1.985 -0.9930 -0.7419 -1.1232
 4237SOL    HW224348   1.552   1.278   1.853 -1.9425 -0.4930  1.4067
 4238SOL     OW24349   3.425   1.735   0.428 -0.0993  0.1475  0.5672
 4238SOL    HW124350   3.375   1.791   0.369  2.0127 -1.1587 -2.4830
 4238SOL    HW224351   3.438   1.799   0.498 -1.3280  0.3647  0.5833
 4239SOL     OW24352   2.350   3.573   9.435  0.5074  0.4909 -0.1831
 4239SOL    HW124353   2.355   3.478   9.434  0.4382  0.5002 -1.2575
 4239SOL    HW224354   2.437   3.584   9.396  1.2304 -1.9647  0.7999
 4240SOL     OW24355   3.424   1.406  10.182  0.0062 -0.0514 -0.2064
 4240SOL    HW124356   3.377   1.488  10.198  0.3836  0.0317  0.5060
 4240SOL    HW224357   3.357   1.342  10.159 -0.7044  0.8158 -0.5675
 4241SOL     OW24358   0.881   4.708   8.259 -0.1769 -0.8788 -0.0276
 4241SOL    HW124359   0.816   4.672   8.320  0.0171  0.3960  0.9316
 4241SOL    HW224360   0.954   4.675   8.312 -0.5137  0.9922  1.5797
 4242SOL     OW24361   2.332   3.735   9.775 -0.3554  0.0454 -0.8436
 4242SOL    HW124362   2.391   3.780   9.836 -0.7869  1.3367 -1.3707
 4242SOL    HW224363   2.374   3.651   9.757 -3.3591 -1.7694  0.7052
 4243SOL     OW24364   4.671   3.675  14.075 -0.0270  0.4508  0.0290
 4243SOL    HW124365   4.691   3.684  14.168 -3.5988 -0.1660  0.8643
 4243SOL    HW224366   4.734   3.735  14.034  0.8421 -1.3317 -1.1998
 4244SOL     OW24367   0.814   1.466  16.676 -0.0215 -0.0212  0.2033
 4244SOL    HW124368   0.887   1.486  16.734  0.0736 -2.5155  0.9534
 4244SOL    HW224369   0.738   1.469  16.734 -1.5938 -0.7472 -1.8448
 4245SOL     OW24370   0.499   4.416   8.868 -0.2018 -0.1006  0.7362
 4245SOL    HW124371   0.521   4.326   8.894 -1.8394 -0.9827 -0.8786
 4245SOL    HW224372   0.484   4.420   8.773  1.7869 -1.3360  0.3597
 4246SOL     OW24373   1.607   3.289  16.956 -0.6169 -0.3176  0.3563
 4246SOL    HW124374   1.521   3.330  16.960 -0.2222  0.6875 -1.0869
 4246SOL    HW224375   1.667   3.352  16.995 -1.4605 -1.8724  4.1138
 4247SOL     OW24376   0.121   1.695   7.617 -0.4533 -0.1413  0.3006
 4247SOL    HW124377   0.211   1.688   7.586 -0.2981 -1.9347  1.1368
 4247SOL    HW224378   0.143   1.757   7.686  0.3317  0.0561 -0.1312
 4248SOL     OW24379   3.036   0.098   4.360 -0.2111 -0.2769  0.0058
 4248SOL    HW124380   3.070   0.013   4.333 -0.7790 -0.7449  0.7619
 4248SOL    HW224381   2.945   0.081   4.336  0.2735 -2.0393 -0.5345
 4249SOL     OW24382   0.450   1.844   8.680  0.1726 -0.6476 -0.9667
 4249SOL    HW124383   0.395   1.766   8.677 -1.4145  0.5669 -3.5295
 4249SOL    HW224384   0.532   1.802   8.706 -1.5879 -3.9924 -0.8786
 4250SOL     OW24385   3.090   4.043   5.566 -0.0160  0.2095  0.2999
 4250SOL    HW124386   3.078   4.073   5.476 -0.5801 -2.7654 -0.6139
 4250SOL    HW224387   3.027   3.972   5.552 -1.6054  1.5001  0.8317
 4251SOL     OW24388   1.422   3.791  14.011  0.0576 -0.0134 -0.0359
 4251SOL    HW124389   1.386   3.744  13.936 -0.3357 -1.0725  0.8179
 4251SOL    HW224390   1.374   3.873  14.003 -1.4179 -1.1588 -3.0952
 4252SOL     OW24391   2.859   3.266   7.371  0.6830  0.6457  0.4264
 4252SOL    HW124392   2.838   3.246   7.280 -1.1365  0.2405  0.9464
 4252SOL    HW224393   2.955   3.259   7.366  0.5924 -0.4021  0.2397
 4253SOL     OW24394   1.644   3.997   8.253 -0.5539  0.1493  0.1975
 4253SOL    HW124395   1.694   4.001   8.171  0.3507  0.0098  0.7508
 4253SOL    HW224396   1.574   3.935   8.235 -1.5788  1.5580 -0.6714
 4254SOL     OW24397   1.486   2.942   0.843 -0.8733  0.0378  0.5081
 4254SOL    HW124398   1.491   2.926   0.938 -0.2050  2.4498  0.8879
 4254SOL    HW224399   1.396   2.970   0.824 -0.4652  0.7159 -0.4285
 4255SOL     OW24400   0.490   2.464   3.280  0.9612  0.0843 -0.0167
 4255SOL    HW124401   0.469   2.471   3.187 -0.2403 -3.6275 -0.0449
 4255SOL    HW224402   0.546   2.541   3.285  1.1596 -0.1283  1.1805
 4256SOL     OW24403   1.306   2.678   2.595  0.0736 -0.0494  0.7603
 4256SOL    HW124404   1.233   2.618   2.610 -1.2127  1.4814  0.6322
 4256SOL    HW224405   1.311   2.667   2.500  0.6587  0.8952  0.6886
 4257SOL     OW24406   3.054   0.440  10.941  0.3890  0.0807  0.2658
 4257SOL    HW124407   3.011   0.488  10.871 -1.1564 -0.5705  0.7822
 4257SOL    HW224408   3.039   0.347  10.924 -2.1516  0.4697  0.4060
 4258SOL     OW24409   4.641   1.875   8.374  0.5363  0.1514  0.7878
 4258SOL    HW124410   4.633   1.970   8.382  0.8873  0.2259  0.2628
 4258SOL    HW224411   4.610   1.858   8.463  0.0039  1.5872  0.8716
 4259SOL     OW24412   3.067   1.707   9.010 -0.1076  0.2733 -0.0155
 4259SOL    HW124413   2.994   1.738   9.063  0.4259 -0.3957  1.1275
 4259SOL    HW224414   3.138   1.738   9.067  0.9280 -0.3774 -0.9587
 4260SOL     OW24415   0.602   4.103   4.851  0.0221  0.1659  0.2279
 4260SOL    HW124416   0.561   4.064   4.773  2.2972 -1.6068 -0.0834
 4260SOL    HW224417   0.589   4.028   4.909  1.5771 -1.1943 -1.1585
 4261SOL     OW24418   2.584   3.611   7.227  0.1370 -0.1379  0.5174
 4261SOL    HW124419   2.661   3.588   7.279  1.4453  2.3991 -0.3229
 4261SOL    HW224420   2.562   3.700   7.253 -1.9602 -0.3362 -0.6201
 4262SOL     OW24421   4.705   4.202   3.448  0.1965  0.2369 -0.7935
 4262SOL    HW124422   4.717   4.133   3.382  0.1048 -2.8251  2.4385
 4262SOL    HW224423   4.630   4.247   3.409 -0.2132  1.9781  2.0120
 4263SOL     OW24424   2.647   0.744   5.081 -0.5302 -0.2032 -0.5136
 4263SOL    HW124425   2.734   0.706   5.093  1.3662  3.8160 -1.3467
 4263SOL    HW224426   2.633   0.775   5.170 -0.2786 -0.0994 -0.5097
 4264SOL     OW24427   2.454   3.244  11.430  0.2133 -0.1612  0.4011
 4264SOL    HW124428   2.443   3.258  11.336  1.3601  0.9526  0.4372
 4264SOL    HW224429   2.544   3.213  11.439  0.1691 -0.9351 -1.8968
 4265SOL     OW24430   4.596   1.877   5.360 -0.0370 -0.1912  0.0481
 4265SOL    HW124431   4.527   1.872   5.294  1.4337  2.7140 -1.7161
 4265SOL    HW224432   4.547   1.857   5.440  0.1420  0.6403  0.3635
 4266SOL     OW24433   1.976   2.692  14.153 -0.6805 -0.1754  0.4496
 4266SOL    HW124434   2.055   2.746  14.155 -0.0331 -1.2432  3.2435
 4266SOL    HW224435   1.962   2.657  14.241  1.4762 -0.8450  0.5243
 4267SOL     OW24436   3.664   4.080   1.627 -0.2449 -0.6505 -0.4129
 4267SOL    HW124437   3.657   4.085   1.531  0.0367 -0.8810 -0.4466
 4267SOL    HW224438   3.752   4.118   1.634 -0.9018  0.8291 -0.2316
 4268SOL     OW24439   3.870   3.485   3.481 -0.3512 -0.3101  0.0419
 4268SOL    HW124440   3.938   3.535   3.528 -0.1549  0.6021 -1.2132
 4268SOL    HW224441   3.857   3.525   3.395  3.3660 -1.6621 -1.1532
 4269SOL     OW24442   1.485   0.095   3.244 -0.4936 -0.1427  0.4445
 4269SOL    HW124443   1.530   0.012   3.229 -1.6991 -1.1212  2.2709
 4269SOL    HW224444   1.414   0.085   3.180 -0.2743  1.5119 -0.0530
 4270SOL     OW24445   1.685   0.494   3.005 -0.4246 -0.6126 -0.3229
 4270SOL    HW124446   1.655   0.461   2.920 -0.2136 -0.7197 -0.3565
 4270SOL    HW224447   1.721   0.578   2.978 -0.7147 -0.4974 -0.3485
 4271SOL     OW24448   0.667   2.035   6.918 -0.2661 -0.0563 -0.0020
 4271SOL    HW124449   0.616   1.996   6.847  2.2083 -2.4969 -0.3965
 4271SOL    HW224450   0.631   2.123   6.905  0.4370  0.2850  0.3879
 4272SOL     OW24451   3.336   0.182   9.039 -0.0292  0.1821 -0.4515
 4272SOL    HW124452   3.363   0.220   8.955 -0.6928 -0.3150 -0.8869
 4272SOL    HW224453   3.417   0.186   9.089  0.2150 -1.2515 -0.7295
 4273SOL     OW24454   2.832   4.587   4.919 -0.1692 -0.2231  0.6837
 4273SOL    HW124455   2.753   4.636   4.944  0.2972  0.1969  1.3491
 4273SOL    HW224456   2.790   4.502   4.922 -1.1952  0.2497 -0.1347
 4274SOL     OW24457   2.161   2.781   2.402  0.2226  0.1290 -0.1474
 4274SOL    HW124458   2.099   2.792   2.475 -0.5804 -0.1738 -0.7888
 4274SOL    HW224459   2.236   2.805   2.457  1.3670  0.5775 -1.9334
 4275SOL     OW24460   2.120   3.504   3.175 -0.3411 -0.2234  0.1274
 4275SOL    HW124461   2.151   3.422   3.213  2.2516  1.3306  1.4202
 4275SOL    HW224462   2.078   3.547   3.249  1.3620 -0.2075  1.0979
 4276SOL     OW24463   3.165   1.312   2.261  0.8429 -0.0672 -0.0275
 4276SOL    HW124464   3.158   1.218   2.246 -0.5627  0.4161 -2.3736
 4276SOL    HW224465   3.098   1.342   2.199  0.9312  0.0897 -0.0452
 4277SOL     OW24466   4.336   2.455   4.799 -0.0197  0.2704 -0.1064
 4277SOL    HW124467   4.391   2.507   4.741 -1.3192  1.3161 -0.4202
 4277SOL    HW224468   4.396   2.401   4.851  0.5300  0.1642 -0.8618
 4278SOL     OW24469   1.783   4.068   5.114  0.2461  0.1283 -0.1956
 4278SOL    HW124470   1.798   4.092   5.206  1.7235 -0.1656 -0.3609
 4278SOL    HW224471   1.837   3.990   5.104  0.2698 -0.1790  2.3327
 4279SOL     OW24472   3.901   2.194  12.463 -0.2229 -0.0018  0.1289
 4279SOL    HW124473   3.983   2.207  12.510  0.3712 -5.1263  0.4546
 4279SOL    HW224474   3.838   2.227  12.527 -1.6172  1.4014 -1.9943
 4280SOL     OW24475   4.218   1.354   4.807  0.3026 -0.0327 -0.5042
 4280SOL    HW124476   4.279   1.375   4.736 -0.9466  2.1173 -0.9622
 4280SOL    HW224477   4.135   1.365   4.761 -0.0652  2.8849  0.8332
 4281SOL     OW24478   4.032   2.997   4.900  0.0103 -0.5722  0.0744
 4281SOL    HW124479   3.966   2.963   4.839 -0.4663  0.2061  0.1498
 4281SOL    HW224480   4.012   3.089   4.883 -1.0753 -0.3420  2.6730
 4282SOL     OW24481   2.738   3.565   5.649  0.0900  0.3304  0.4195
 4282SOL    HW124482   2.695   3.596   5.570  0.2483 -1.2297 -0.2868
 4282SOL    HW224483   2.666   3.587   5.708  1.3468 -0.9666  2.4580
 4283SOL     OW24484   4.728   2.906   6.383  0.1552  0.1140  0.3146
 4283SOL    HW124485   4.651   2.849   6.377 -0.3330  0.6576  1.4574
 4283SOL    HW224486   4.696   2.969   6.448  2.1496  0.4363  0.9781
 4284SOL     OW24487   3.603   2.880  16.357 -0.6598 -0.1732 -0.0138
 4284SOL    HW124488   3.555   2.802  16.383  0.0922 -1.1902 -1.6585
 4284SOL    HW224489   3.532   2.943  16.345  1.2686  1.8206 -0.9262
 4285SOL     OW24490   4.449   1.413   3.012  0.7857 -0.4613  0.2952
 4285SOL    HW124491   4.397   1.486   3.044  0.7234 -0.3578 -0.0422
 4285SOL    HW224492   4.506   1.451   2.945 -1.4294 -1.2831 -2.0592
 4286SOL     OW24493   2.963   3.305   8.509 -0.3523  0.4710  0.1513
 4286SOL    HW124494   3.021   3.329   8.437 -2.2344 -1.5613 -2.0374
 4286SOL    HW224495   3.031   3.270   8.566  0.1493  1.2680  0.0395
 4287SOL     OW24496   1.524   4.579   6.181 -0.3407 -0.1344  0.5427
 4287SOL    HW124497   1.512   4.625   6.098 -0.1792 -0.4199  0.3599
 4287SOL    HW224498   1.476   4.631   6.245  0.1734 -1.3640  1.9351
 4288SOL     OW24499   3.520   1.376  17.101 -0.0817  0.3105  0.6409
 4288SOL    HW124500   3.561   1.462  17.115  0.2767 -0.0647  1.9568
 4288SOL    HW224501   3.588   1.321  17.062  0.7089  1.5717  0.2376
 4289SOL     OW24502   3.653   1.283   4.481 -0.3094  0.2258  0.0580
 4289SOL    HW124503   3.611   1.201   4.509 -0.0740 -0.3121 -1.1942
 4289SOL    HW224504   3.721   1.254   4.421 -2.4836 -1.8579 -1.4128
 4290SOL     OW24505   0.043   4.096   4.874  0.9706  0.5510  0.1824
 4290SOL    HW124506   4.701   4.094   4.821  0.1664 -1.0973  1.4460
 4290SOL    HW224507   0.012   4.151   4.946 -1.3813  0.7921 -1.0202
 4291SOL     OW24508   2.939   4.382   9.159  0.7143 -0.0880  0.0100
 4291SOL    HW124509   2.897   4.464   9.183 -2.8888 -2.0159  0.2790
 4291SOL    HW224510   2.991   4.356   9.235  0.3718 -2.2515 -0.4985
 4292SOL     OW24511   0.710   0.497   5.184 -0.0272  0.1544 -0.0682
 4292SOL    HW124512   0.753   0.411   5.188  1.2145  0.7662 -0.2356
 4292SOL    HW224513   0.735   0.534   5.099  0.8635 -0.0903  0.0861
 4293SOL     OW24514   3.288   4.416   0.221 -0.1715  0.1079  0.2207
 4293SOL    HW124515   3.220   4.454   0.165 -0.5799 -0.2602  0.4608
 4293SOL    HW224516   3.235   4.360   0.278  0.7860  0.1931  1.1908
 4294SOL     OW24517   1.995   3.451  16.922  0.2779  0.0847  0.7002
 4294SOL    HW124518   1.910   3.494  16.909  0.2275  0.0154  0.7914
 4294SOL    HW224519   2.025   3.481  17.008 -0.2450 -1.1484  1.3285
 4295SOL     OW24520   4.321   1.284   1.256  0.3497 -0.3424 -0.1947
 4295SOL    HW124521   4.298   1.200   1.217 -0.7649 -0.3219  0.4171
 4295SOL    HW224522   4.307   1.257   1.347  2.0077  0.8357  0.4102
 4296SOL     OW24523   2.510   3.398   5.143 -0.1073  0.3052 -0.0177
 4296SOL    HW124524   2.529   3.421   5.234  0.2955 -1.1639  0.2611
 4296SOL    HW224525   2.418   3.420   5.130 -0.7305 -1.7924  0.9396
 4297SOL     OW24526   4.174   0.396   6.241  0.3093  0.2678 -0.3230
 4297SOL    HW124527   4.224   0.447   6.304 -1.9569  0.9891  0.8886
 4297SOL    HW224528   4.147   0.467   6.183 -2.4082 -1.6723 -1.4281
 4298SOL     OW24529   1.998   1.431   8.526 -0.0053  0.4373 -0.5617
 4298SOL    HW124530   2.089   1.430   8.496  0.4056  1.6592  0.6267
 4298SOL    HW224531   1.958   1.347   8.504 -2.1897  1.3116  0.1229
 4299SOL     OW24532   1.982   0.794   2.326 -0.2030  0.1190 -0.1795
 4299SOL    HW124533   1.908   0.850   2.348 -0.1507 -0.1780  0.7612
 4299SOL    HW224534   1.937   0.709   2.324 -0.9537  0.5417 -1.0779
 4300SOL     OW24535   4.550   2.676   8.853  0.5841  0.7386 -0.5167
 4300SOL    HW124536   4.517   2.647   8.938 -1.7262  2.4983 -0.8386
 4300SOL    HW224537   4.503   2.615   8.796 -1.4280  1.5362  0.3103
 4301SOL     OW24538   1.961   0.134   7.863 -0.0884  0.1617  0.5824
 4301SOL    HW124539   1.919   0.063   7.815  0.4977  0.4088 -0.3069
 4301SOL    HW224540   1.902   0.148   7.936 -0.3939  1.3519  0.1195
 4302SOL     OW24541   2.743   4.634   7.781 -0.4295  0.1607 -0.2948
 4302SOL    HW124542   2.837   4.628   7.762 -0.4171 -0.0887 -0.1589
 4302SOL    HW224543   2.734   4.681   7.864  0.1955 -0.4884  0.1410
 4303SOL     OW24544   1.669   0.577   2.624 -0.1188 -0.0543  0.3872
 4303SOL    HW124545   1.713   0.621   2.697 -0.5956 -0.5630  0.9843
 4303SOL    HW224546   1.613   0.525   2.682 -2.8980  1.7364 -0.6618
 4304SOL     OW24547   3.766   0.021  16.681  0.2506 -0.1004  0.4346
 4304SOL    HW124548   3.802   0.036  16.593 -3.3422 -3.2855 -1.5720
 4304SOL    HW224549   3.814   4.686  16.721 -0.0956 -0.3848  0.3254
 4305SOL     OW24550   2.593   4.206   7.037  0.0086 -0.3967 -0.1678
 4305SOL    HW124551   2.533   4.270   7.076  0.5582  0.0195  0.0020
 4305SOL    HW224552   2.557   4.130   7.083  2.1658 -1.9767 -1.1109
 4306SOL     OW24553   3.646   1.792   5.727 -0.0764  0.4429  0.4046
 4306SOL    HW124554   3.607   1.876   5.701  1.4883  0.6536 -1.2394
 4306SOL    HW224555   3.601   1.784   5.811 -1.7623  1.4261 -0.3905
 4307SOL     OW24556   4.708   3.800   4.335  0.0557 -0.6642 -0.7128
 4307SOL    HW124557   4.712   3.878   4.392  2.6828  0.3269 -2.2566
 4307SOL    HW224558   4.615   3.780   4.327 -0.1808 -0.9719  2.7939
 4308SOL     OW24559   2.450   3.168  15.530 -0.2615 -0.4698  0.1186
 4308SOL    HW124560   2.488   3.100  15.585 -0.6975 -1.9423 -1.3840
 4308SOL    HW224561   2.458   3.253  15.574 -1.3653 -0.6797  0.7493
 4309SOL     OW24562   1.169   3.499   7.622  0.2233 -0.0420 -0.3765
 4309SOL    HW124563   1.206   3.442   7.689 -2.1019 -1.4999 -0.3071
 4309SOL    HW224564   1.209   3.583   7.645  0.2952 -0.6383  1.6639
 4310SOL     OW24565   3.212   1.894   4.363 -0.1251 -0.2944 -0.6904
 4310SOL    HW124566   3.277   1.939   4.417 -0.4020 -0.8365  0.1101
 4310SOL    HW224567   3.194   1.961   4.298  1.7657  0.4213 -0.4935
 4311SOL     OW24568   0.874   3.032   5.622 -0.3349  0.1841 -0.1510
 4311SOL    HW124569   0.790   3.078   5.632 -0.4406 -0.6539  2.7469
 4311SOL    HW224570   0.907   3.063   5.706 -3.9929 -1.9691  2.0871
 4312SOL     OW24571   4.630   3.893   6.271  0.1004 -0.1965  0.1154
 4312SOL    HW124572   4.588   3.979   6.279  0.2604 -0.0772 -0.3021
 4312SOL    HW224573   4.692   3.908   6.199  0.2218  0.8691  0.4433
 4313SOL     OW24574   1.095   1.462   3.272  0.2423 -0.4096 -0.2915
 4313SOL    HW124575   1.161   1.530   3.253  1.5139 -1.2756  1.0997
 4313SOL    HW224576   1.059   1.456   3.183  0.5818  1.0012 -0.5342
 4314SOL     OW24577   3.721   2.278   3.518 -0.1932 -0.9574  1.0042
 4314SOL    HW124578   3.724   2.228   3.437  0.0344 -0.1132  0.4966
 4314SOL    HW224579   3.815   2.294   3.521 -0.2332 -0.6081  0.3866
 4315SOL     OW24580   2.292   3.309  17.315 -0.2224  0.2839 -0.2611
 4315SOL    HW124581   2.214   3.277  17.360 -1.3333  1.0357 -1.6452
 4315SOL    HW224582   2.313   3.234  17.258  2.2795 -0.3997  1.5906
 4316SOL     OW24583   0.102   2.055  16.343 -0.2760 -0.1151  0.3868
 4316SOL    HW124584   0.010   2.054  16.370 -0.2860 -1.5603  0.3097
 4316SOL    HW224585   0.131   2.134  16.389  0.4379  1.0219 -1.9856
 4317SOL     OW24586   1.665   2.940   8.756 -0.2386 -0.6511 -0.0046
 4317SOL    HW124587   1.622   2.974   8.678 -0.6932 -1.0044  0.0893
 4317SOL    HW224588   1.698   3.019   8.799 -1.3252 -0.2501  0.0977
 4318SOL     OW24589   0.091   2.815   9.608 -1.0236 -1.1487  0.6199
 4318SOL    HW124590   0.078   2.908   9.595 -0.3218 -1.3275 -1.4043
 4318SOL    HW224591   0.060   2.813   9.698  1.7175 -0.8910  1.5600
 4319SOL     OW24592   2.315   1.563   3.722  0.2123  0.0922 -0.0684
 4319SOL    HW124593   2.247   1.551   3.788  1.7605  0.6739  1.6272
 4319SOL    HW224594   2.338   1.656   3.727 -3.6049  1.0010  0.7349
 4320SOL     OW24595   0.532   4.153   9.011 -0.4242  0.0899  0.2947
 4320SOL    HW124596   0.531   4.165   9.106 -1.0755 -0.0229  0.2995
 4320SOL    HW224597   0.439   4.170   8.997 -1.1351 -0.8426  3.8592
 4321SOL     OW24598   2.314   2.964   5.045  0.0163 -0.3453 -0.0182
 4321SOL    HW124599   2.250   3.005   5.103  1.6596  0.9933  0.8466
 4321SOL    HW224600   2.330   2.877   5.083 -1.6363 -0.6436 -0.0209
 4322SOL     OW24601   2.002   3.465   9.419  0.2194  0.0546  0.7441
 4322SOL    HW124602   1.983   3.460   9.513 -0.7066 -1.8982  0.4537
 4322SOL    HW224603   1.915   3.450   9.382  1.3768 -2.6775 -0.8403
 4323SOL     OW24604   3.053   0.922   3.267 -0.2201  0.0472  0.0968
 4323SOL    HW124605   3.109   0.910   3.344 -1.1897  0.8977  0.9241
 4323SOL    HW224606   3.059   1.017   3.255 -0.5363  0.0734  0.1470
 4324SOL     OW24607   1.885   4.706   3.048  0.3199  0.2717  0.0651
 4324SOL    HW124608   1.963   0.017   3.074  0.3756  0.0995  0.2142
 4324SOL    HW224609   1.854   4.687   3.137 -0.4617 -0.3241 -0.3390
 4325SOL     OW24610   0.594   3.970   8.829  0.3232  0.3024  0.2243
 4325SOL    HW124611   0.606   4.053   8.782  0.1348 -0.9247 -2.0289
 4325SOL    HW224612   0.578   4.009   8.915 -0.3178 -2.4075  1.3205
 4326SOL     OW24613   0.304   1.806  11.036  0.2547  0.0833 -0.0247
 4326SOL    HW124614   0.312   1.712  11.017 -0.2172  0.3549 -1.5201
 4326SOL    HW224615   0.279   1.794  11.128  0.5459 -0.4082 -0.0092
 4327SOL     OW24616   2.014   1.389   5.638  0.1147  0.2807  0.3995
 4327SOL    HW124617   1.973   1.461   5.590  0.2568 -0.8404 -1.3857
 4327SOL    HW224618   1.959   1.312   5.621  0.1138  0.8943 -2.2979
 4328SOL     OW24619   0.083   1.596   8.837 -0.1340 -0.3499 -0.0164
 4328SOL    HW124620   0.078   1.565   8.927  1.0880  1.5309  0.6974
 4328SOL    HW224621   4.737   1.555   8.813  0.4493 -1.9251  0.6300
 4329SOL     OW24622   3.166   4.121   9.012  0.2138 -0.0000 -0.0430
 4329SOL    HW124623   3.136   4.112   8.922 -0.5848  0.0994  0.2128
 4329SOL    HW224624   3.181   4.215   9.009  3.3776 -0.5573 -1.9170
 4330SOL     OW24625   2.697   1.989   6.695  0.4968 -0.2942 -0.7414
 4330SOL    HW124626   2.679   2.033   6.778 -1.0655 -1.3171 -0.5168
 4330SOL    HW224627   2.692   2.069   6.643 -0.9130 -0.3576 -0.7151
 4331SOL     OW24628   1.700   0.231   0.043  0.0870  0.0106  0.5242
 4331SOL    HW124629   1.773   0.237   0.104  2.2597  1.0062 -2.1574
 4331SOL    HW224630   1.722   0.147   0.002  0.3567  1.2650 -1.8790
 4332SOL     OW24631   0.452   3.036   5.753  0.1273  0.3532 -0.3494
 4332SOL    HW124632   0.498   3.113   5.720 -0.2924  0.7999  0.1034
 4332SOL    HW224633   0.396   3.073   5.822 -1.0559 -0.6579 -0.7779
 4333SOL     OW24634   4.015   2.741   7.392  0.1405  0.2185  0.2216
 4333SOL    HW124635   3.961   2.758   7.314 -1.4954 -0.3895  1.2318
 4333SOL    HW224636   3.982   2.811   7.447 -1.3559 -0.3994  0.1259
 4334SOL     OW24637   1.548   2.275   1.900  0.3645 -0.6332 -0.5680
 4334SOL    HW124638   1.598   2.248   1.823 -0.0487 -0.7082 -0.8122
 4334SOL    HW224639   1.472   2.296   1.845 -0.2202  2.2679  1.3170
 4335SOL     OW24640   0.259   3.165   1.191  0.8056  0.0807 -0.2157
 4335SOL    HW124641   0.166   3.158   1.169  1.0380  2.0699 -1.8387
 4335SOL    HW224642   0.287   3.103   1.124 -0.1386 -1.0141  0.4005
 4336SOL     OW24643   3.317   2.356   2.371  0.2039 -0.5688  0.2849
 4336SOL    HW124644   3.287   2.385   2.457  2.0602 -1.8677  1.3787
 4336SOL    HW224645   3.379   2.286   2.393  1.2165  0.0537 -0.5982
 4337SOL     OW24646   1.988   3.209  13.745  0.0401 -0.5786 -0.1063
 4337SOL    HW124647   1.971   3.123  13.783  0.4711  0.1432  1.6698
 4337SOL    HW224648   2.023   3.194  13.657 -0.4211  0.6205 -0.4971
 4338SOL     OW24649   3.441   2.771   2.789  0.2168 -0.2142 -0.2292
 4338SOL    HW124650   3.489   2.692   2.763  0.0832 -0.5781  0.6414
 4338SOL    HW224651   3.443   2.814   2.704 -2.1186  1.2748  0.4798
 4339SOL     OW24652   3.969   2.271   4.893  0.1856 -0.5066 -0.0496
 4339SOL    HW124653   3.897   2.267   4.956  0.1826 -1.6599 -0.1137
 4339SOL    HW224654   4.037   2.218   4.936  1.8668  0.5666 -1.3809
 4340SOL     OW24655   0.111   0.805   4.470  0.1824  0.1815  0.2554
 4340SOL    HW124656   0.202   0.836   4.474  0.3489 -0.5295  1.7652
 4340SOL    HW224657   0.077   0.838   4.553 -0.3064 -0.8300  0.4515
 4341SOL     OW24658   4.691   2.122   1.554 -0.0434 -0.3763 -0.4718
 4341SOL    HW124659   4.645   2.202   1.531 -1.5813 -1.4432 -1.1081
 4341SOL    HW224660   0.039   2.160   1.575 -0.9809  0.9309  1.0019
 4342SOL     OW24661   3.311   4.258  16.292 -0.7287 -0.0402 -0.0023
 4342SOL    HW124662   3.381   4.194  16.289  0.5018  1.2550  1.1606
 4342SOL    HW224663   3.360   4.339  16.281 -0.9125 -0.0690 -1.0507
 4343SOL     OW24664   4.051   4.547  11.494 -0.2836 -0.3436 -0.8261
 4343SOL    HW124665   4.089   4.459  11.499  2.8182  1.0890  1.0512
 4343SOL    HW224666   4.103   4.587  11.424  1.6959 -0.4906  0.5454
 4344SOL     OW24667   2.420   2.549   3.753  0.3461  0.2163  0.2908
 4344SOL    HW124668   2.326   2.531   3.743  0.0632  1.5228  0.6377
 4344SOL    HW224669   2.415   2.569   3.846 -3.2891 -1.1739  0.4224
 4345SOL     OW24670   4.014   3.201   3.761 -0.0010  0.0649  0.3022
 4345SOL    HW124671   4.007   3.229   3.670  1.5909 -2.1492 -0.5259
 4345SOL    HW224672   4.036   3.286   3.799 -0.8395  1.9183 -3.3644
 4346SOL     OW24673   0.145   1.382   5.879 -0.6825 -0.2775 -0.2619
 4346SOL    HW124674   0.150   1.418   5.968  1.3977 -0.2853 -0.3733
 4346SOL    HW224675   0.058   1.415   5.860 -0.4763 -0.2804 -1.2207
 4347SOL     OW24676   4.648   4.620  13.730 -0.3534 -0.1916 -0.9443
 4347SOL    HW124677   4.685   4.560  13.666  0.9371 -0.2197 -0.1632
 4347SOL    HW224678   4.704   4.697  13.727  0.6668 -0.9313 -0.6852
 4348SOL     OW24679   4.646   2.880   3.479  0.7406 -0.2108  0.4097
 4348SOL    HW124680   4.686   2.952   3.528  0.6026  0.9626 -1.1974
 4348SOL    HW224681   4.668   2.807   3.537  0.2348  1.6191  2.9025
 4349SOL     OW24682   1.518   1.535   4.029 -0.6949  0.3020 -0.0446
 4349SOL    HW124683   1.604   1.521   4.068  0.2169  1.9594 -1.4869
 4349SOL    HW224684   1.543   1.589   3.954  1.0891  0.3711  0.6013
 4350SOL     OW24685   0.280   2.887   0.357 -0.4529 -0.0636  0.3971
 4350SOL    HW124686   0.281   2.983   0.350  0.0352  0.1350  3.2554
 4350SOL    HW224687   0.321   2.872   0.441 -0.5808  1.8296  0.7934
 4351SOL     OW24688   2.853   4.647  17.155 -0.1383 -0.2268 -0.3613
 4351SOL    HW124689   2.770   4.601  17.169  1.8335 -3.2510  1.4115
 4351SOL    HW224690   2.814   4.713  17.098  0.2528  0.5310  0.2423
 4352SOL     OW24691   0.600   3.370  16.973  0.3181  0.0632 -0.5085
 4352SOL    HW124692   0.665   3.392  16.907  0.0143 -0.5372 -0.9962
 4352SOL    HW224693   0.645   3.328  17.047  3.7320 -0.0477 -2.6515
 4353SOL     OW24694   4.007   0.010   4.478  0.5729 -0.1931 -0.1180
 4353SOL    HW124695   3.921   0.051   4.478  0.5929 -0.1431 -0.9334
 4353SOL    HW224696   4.059   0.087   4.499  0.8243  0.0069 -1.4751
 4354SOL     OW24697   1.485   3.811   0.502 -0.4409 -0.0923 -0.3428
 4354SOL    HW124698   1.446   3.759   0.432  1.2372  0.5476 -1.7626
 4354SOL    HW224699   1.533   3.877   0.451  2.3525 -0.3171  1.9736
 4355SOL     OW24700   0.927   3.627   7.648 -0.4904  0.3985  0.3020
 4355SOL    HW124701   0.991   3.567   7.609  0.0232  0.5023  0.9856
 4355SOL    HW224702   0.887   3.569   7.713 -1.0596  0.9433  0.4392
 4356SOL     OW24703   1.302   0.642   1.652  0.5875 -0.5484  0.0222
 4356SOL    HW124704   1.238   0.652   1.581  0.1861 -0.3119  0.4215
 4356SOL    HW224705   1.230   0.635   1.714  2.1943 -0.5301  1.8921
 4357SOL     OW24706   3.807   3.292   8.592  0.3259  0.1588 -0.2044
 4357SOL    HW124707   3.882   3.337   8.630 -0.5057 -0.5322  2.2503
 4357SOL    HW224708   3.759   3.363   8.547 -1.9852 -2.0010 -1.1688
 4358SOL     OW24709   3.797   2.823   4.215  0.4184 -0.8323 -0.6594
 4358SOL    HW124710   3.820   2.783   4.299 -0.4174  0.4212  0.1592
 4358SOL    HW224711   3.866   2.799   4.153  0.8096 -1.6550  0.0883
 4359SOL     OW24712   1.260   4.124   4.315  0.0331  0.1811 -0.7859
 4359SOL    HW124713   1.309   4.064   4.371  1.0758 -0.3429 -2.2783
 4359SOL    HW224714   1.190   4.157   4.372  1.2751  1.2179  0.1338
 4360SOL     OW24715   3.286   0.045   5.999 -0.3666  0.2798  0.2863
 4360SOL    HW124716   3.272   0.107   5.928 -0.6116 -0.9640 -0.7534
 4360SOL    HW224717   3.289   0.101   6.077  1.3364 -1.8917  1.8179
 4361SOL     OW24718   1.239   2.408  12.694 -0.1151 -1.0484 -0.2325
 4361SOL    HW124719   1.174   2.457  12.645  0.3831  0.0629  0.2148
 4361SOL    HW224720   1.281   2.352  12.629 -1.3857 -0.8752 -1.1867
 4362SOL     OW24721   3.759   1.698   3.121  0.1755 -0.5663 -0.1643
 4362SOL    HW124722   3.683   1.650   3.156  0.8500 -0.1697  1.8497
 4362SOL    HW224723   3.727   1.703   3.031 -0.5940  2.3359  0.2757
 4363SOL     OW24724   2.424   0.222   2.554  0.6242 -0.5055  0.2721
 4363SOL    HW124725   2.477   0.144   2.573  0.4004  0.0437  3.2052
 4363SOL    HW224726   2.404   0.227   2.461 -0.5961 -0.5198  0.5370
 4364SOL     OW24727   4.057   4.255  13.402  0.5581 -0.4166 -0.1410
 4364SOL    HW124728   3.988   4.191  13.416  1.3176 -0.8233  1.7093
 4364SOL    HW224729   4.131   4.222  13.453  2.0740  0.9878 -1.4069
 4365SOL     OW24730   3.168   2.407  13.555 -0.5044 -0.2830  0.3987
 4365SOL    HW124731   3.116   2.386  13.633 -2.2578  2.8169  0.1106
 4365SOL    HW224732   3.106   2.467  13.513  1.4424  0.6536 -1.1279
 4366SOL     OW24733   3.474   0.801   3.816 -0.3678  0.9125  0.1904
 4366SOL    HW124734   3.442   0.782   3.904  1.1894  0.4370  0.6475
 4366SOL    HW224735   3.411   0.752   3.764  0.7234  0.4233 -0.6734
 4367SOL     OW24736   4.563   0.208   3.551  0.3780 -0.0177 -0.0623
 4367SOL    HW124737   4.556   0.298   3.518 -2.7039  0.4012  1.7507
 4367SOL    HW224738   4.538   0.162   3.471 -0.6843 -0.5685  0.5807
 4368SOL     OW24739   1.559   0.832   3.026  0.4905  0.3198 -0.2144
 4368SOL    HW124740   1.538   0.889   3.100 -1.6069 -1.6149  0.6711
 4368SOL    HW224741   1.480   0.846   2.974  0.8814  2.3009 -0.2955
 4369SOL     OW24742   2.335   3.806  16.803 -0.2152  0.1049  0.3501
 4369SOL    HW124743   2.431   3.803  16.810 -0.5078 -0.2269  4.0097
 4369SOL    HW224744   2.320   3.860  16.726  1.9198 -0.3511 -0.3901
 4370SOL     OW24745   0.510   0.391   7.148 -0.2046  0.4973  0.5406
 4370SOL    HW124746   0.589   0.391   7.093  0.2054  1.7564  1.1248
 4370SOL    HW224747   0.449   0.448   7.101 -0.9118 -1.7094 -1.2046
 4371SOL     OW24748   3.248   1.430   4.929 -0.3497  0.2705 -0.6060
 4371SOL    HW124749   3.227   1.517   4.895 -3.0181 -0.4994 -0.9364
 4371SOL    HW224750   3.175   1.429   4.991  0.0570  0.8348 -0.1193
 4372SOL     OW24751   2.190   2.721   9.752  0.1443 -0.0586 -0.1083
 4372SOL    HW124752   2.177   2.632   9.785  3.3387 -1.0900 -1.5673
 4372SOL    HW224753   2.230   2.703   9.667  0.5851  2.1944 -0.3898
 4373SOL     OW24754   4.329   3.234   6.721 -0.1223 -0.0326 -0.0183
 4373SOL    HW124755   4.239   3.215   6.746 -0.6072  1.0287 -0.9527
 4373SOL    HW224756   4.310   3.281   6.639 -0.5487 -2.0212 -1.0722
 4374SOL     OW24757   2.981   2.606  13.536  0.0115 -0.1170 -0.5565
 4374SOL    HW124758   2.891   2.631  13.556  0.4001  0.6109  0.3302
 4374SOL    HW224759   3.017   2.695  13.538  0.7737 -0.4230 -0.7404
 4375SOL     OW24760   3.484   1.679   8.600  0.0784 -0.1901 -0.8561
 4375SOL    HW124761   3.467   1.745   8.667 -0.2880  2.4480 -3.5384
 4375SOL    HW224762   3.436   1.704   8.520  0.2329  0.5694 -0.7059
 4376SOL     OW24763   4.669   2.461   7.438  0.7319 -0.1219  0.3595
 4376SOL    HW124764   4.580   2.496   7.431  0.7414 -0.1163  0.2655
 4376SOL    HW224765   4.717   2.539   7.466  0.8519 -0.5800  1.4205
 4377SOL     OW24766   2.509   2.539   1.966 -0.1090  0.0290  0.2122
 4377SOL    HW124767   2.462   2.488   1.900  1.2136 -0.5592 -0.2765
 4377SOL    HW224768   2.598   2.532   1.932  0.9645  3.0877  2.4351
 4378SOL     OW24769   1.324   2.390   1.763  0.5717 -0.0476  0.4345
 4378SOL    HW124770   1.276   2.472   1.756 -0.2692 -0.6050 -0.2507
 4378SOL    HW224771   1.381   2.398   1.687 -1.9873  0.2392 -1.4456
 4379SOL     OW24772   0.118   4.396   7.642 -0.5476  0.0419 -0.3696
 4379SOL    HW124773   0.140   4.480   7.684  1.0245 -1.7339  2.3539
 4379SOL    HW224774   0.203   4.354   7.628 -0.4777 -0.0272  0.2619
 4380SOL     OW24775   0.130   0.532   6.744  0.5371 -0.0898 -0.0076
 4380SOL    HW124776   0.129   0.437   6.730  0.5243 -0.4620  2.5300
 4380SOL    HW224777   0.037   0.551   6.757  0.6570  0.2648  0.3174
 4381SOL     OW24778   1.652   3.403  10.272  0.3478  0.1251 -0.0664
 4381SOL    HW124779   1.607   3.320  10.285 -0.1489  0.2521 -1.0337
 4381SOL    HW224780   1.690   3.395  10.185  1.6305  0.4655  0.4549
 4382SOL     OW24781   4.041   2.226   9.319  0.0306  0.3506  0.2217
 4382SOL    HW124782   4.046   2.290   9.248  0.9152  0.3815  0.3104
 4382SOL    HW224783   4.123   2.177   9.306  1.6898  3.0369  0.5822
 4383SOL     OW24784   3.028   0.947  17.689  0.0818 -0.6585 -0.3953
 4383SOL    HW124785   3.110   0.993  17.670 -0.7389  0.9728  0.0354
 4383SOL    HW224786   2.962   1.011  17.664  0.6701  0.4857  0.9675
 4384SOL     OW24787   3.774   3.240   1.312 -0.4793  0.8597 -0.0852
 4384SOL    HW124788   3.724   3.212   1.389 -2.2252  1.6461 -0.9346
 4384SOL    HW224789   3.841   3.172   1.311 -1.3797 -0.0100 -0.7156
 4385SOL     OW24790   0.152   1.483  16.837  0.4468  0.1060  0.1284
 4385SOL    HW124791   0.076   1.457  16.786  3.0336 -3.0189 -2.0992
 4385SOL    HW224792   0.111   1.545  16.897  1.6757  1.2111 -0.1658
 4386SOL     OW24793   0.023   2.403   6.090  0.1529 -0.6192  0.5180
 4386SOL    HW124794   0.067   2.335   6.039  2.0578 -1.9468  3.9200
 4386SOL    HW224795   4.671   2.399   6.058 -0.6851 -0.4631  2.8791
 4387SOL     OW24796   4.651   1.606  11.789 -0.0529  0.0061 -0.0045
 4387SOL    HW124797   4.589   1.621  11.717 -0.9656 -1.6530  0.4223
 4387SOL    HW224798   4.714   1.675  11.769 -0.0361  0.2245  0.7986
 4388SOL     OW24799   3.950   3.998  16.062  0.1775  0.1758  0.0327
 4388SOL    HW124800   3.857   3.987  16.081 -0.1035  0.5283 -1.1181
 4388SOL    HW224801   3.949   3.986  15.967 -1.2674  1.7302 -0.1571
 4389SOL     OW24802   2.289   0.687  12.580 -0.0153  0.0643  0.1361
 4389SOL    HW124803   2.270   0.597  12.606 -2.0237  0.2652 -0.6404
 4389SOL    HW224804   2.278   0.664  12.488 -2.9112  2.8045 -0.2398
 4390SOL     OW24805   0.250   0.467  15.707  0.3538  0.4442 -0.4980
 4390SOL    HW124806   0.297   0.389  15.679  1.3614 -0.3251  3.3488
 4390SOL    HW224807   0.200   0.425  15.777  0.5533  3.8528  1.7435
 4391SOL     OW24808   1.609   0.230   6.181  0.1211  0.1674  0.0578
 4391SOL    HW124809   1.674   0.244   6.112 -0.9961 -0.1850 -1.0592
 4391SOL    HW224810   1.618   0.312   6.229 -0.0676  0.9059 -1.1435
 4392SOL     OW24811   1.308   0.246   8.481 -0.0469  0.1213 -0.3707
 4392SOL    HW124812   1.362   0.169   8.495  0.5830  0.6225 -0.0018
 4392SOL    HW224813   1.370   0.311   8.516 -1.2562  1.0440  0.0717
 4393SOL     OW24814   2.007   2.447   2.225  0.3022 -0.0677 -0.4000
 4393SOL    HW124815   1.978   2.360   2.198  2.5306 -0.2557 -2.1806
 4393SOL    HW224816   1.963   2.464   2.308 -0.6280 -0.0128 -0.9008
 4394SOL     OW24817   1.307   2.925   6.308  0.0044 -0.5369  0.8983
 4394SOL    HW124818   1.224   2.897   6.348  0.5774 -1.7800  1.2051
 4394SOL    HW224819   1.317   2.869   6.231 -0.8447  0.5600 -0.0084
 4395SOL     OW24820   2.634   2.968   0.815  0.0619 -0.4759 -0.6147
 4395SOL    HW124821   2.636   3.037   0.748 -2.9422 -0.5719 -0.7984
 4395SOL    HW224822   2.575   2.903   0.777 -1.6432  0.8968 -0.2912
 4396SOL     OW24823   1.872   4.225  16.089  0.4839 -0.0740 -0.3187
 4396SOL    HW124824   1.955   4.223  16.137 -0.1599  3.2588  0.9224
 4396SOL    HW224825   1.889   4.160  16.020 -4.2960  0.3290 -1.8722
 4397SOL     OW24826   2.059   1.803  10.923  0.6715  0.1170  0.7582
 4397SOL    HW124827   2.025   1.726  10.878 -1.4023  2.6446 -2.0154
 4397SOL    HW224828   2.013   1.808  11.006  0.4179 -2.1478  0.7441
 4398SOL     OW24829   1.709   3.679   9.205 -0.0532  0.2152 -0.2962
 4398SOL    HW124830   1.636   3.720   9.251  1.6827  1.1964  1.5666
 4398SOL    HW224831   1.736   3.607   9.262 -1.7794  0.5703  0.9813
 4399SOL     OW24832   2.173   3.613   7.000  0.3199  0.3600 -0.0865
 4399SOL    HW124833   2.167   3.583   7.091  1.7134  0.6062  0.0906
 4399SOL    HW224834   2.171   3.527   6.959  1.3363  0.9970 -1.4647
 4400SOL     OW24835   2.340   1.283   3.818 -0.1296 -0.2549  0.1118
 4400SOL    HW124836   2.342   1.373   3.787 -1.9387  0.6394  2.5847
 4400SOL    HW224837   2.339   1.232   3.737  1.4036  0.4241 -0.3251
 4401SOL     OW24838   0.203   3.606   7.179  0.0161  0.4999 -0.0445
 4401SOL    HW124839   0.269   3.537   7.172 -0.7080 -0.0840 -1.1521
 4401SOL    HW224840   0.267   3.676   7.193  0.5898 -0.2751  1.1928
 4402SOL     OW24841   3.058   2.803   6.697  0.1331  0.1297  0.0716
 4402SOL    HW124842   3.128   2.808   6.763 -0.4247 -0.7277  0.7298
 4402SOL    HW224843   3.032   2.711   6.704 -0.9073  0.6781  3.5804
 4403SOL     OW24844   4.343   0.187  10.797 -0.3310  0.0509 -0.5221
 4403SOL    HW124845   4.310   0.107  10.757 -1.3931 -0.6723  1.8061
 4403SOL    HW224846   4.433   0.155  10.808 -0.4500 -0.0660  0.1085
 4404SOL     OW24847   3.704   3.529   5.880  0.3852 -0.2885 -0.1793
 4404SOL    HW124848   3.719   3.573   5.796 -0.6865 -0.1035 -0.2806
 4404SOL    HW224849   3.645   3.592   5.922  0.7175 -1.6151  2.2458
 4405SOL     OW24850   4.667   2.937   7.774 -0.6268  0.2675  0.3122
 4405SOL    HW124851   0.004   2.878   7.780 -1.1796 -0.4650  0.0641
 4405SOL    HW224852   4.701   3.015   7.818 -0.8528  1.8719 -2.3026
 4406SOL     OW24853   3.829   2.700  17.323 -0.4789 -0.7059  0.1335
 4406SOL    HW124854   3.866   2.612  17.311  1.1452 -0.2665  1.9515
 4406SOL    HW224855   3.812   2.728  17.233  1.0502 -0.6913 -0.1656
 4407SOL     OW24856   2.586   0.999   0.215  0.4101  0.3233 -0.7467
 4407SOL    HW124857   2.668   0.975   0.258  1.0145 -1.0535 -2.6948
 4407SOL    HW224858   2.616   0.988   0.125  1.6530 -0.6923 -0.2062
 4408SOL     OW24859   4.492   2.541   5.311  0.0849 -0.0474  0.4179
 4408SOL    HW124860   4.576   2.543   5.356 -0.2205 -1.4922  1.0675
 4408SOL    HW224861   4.519   2.578   5.227  1.2397  1.1132  1.3068
 4409SOL     OW24862   2.103   2.474  15.785 -0.1044 -0.4825  0.5763
 4409SOL    HW124863   2.132   2.397  15.737 -0.1618  0.6003 -1.1958
 4409SOL    HW224864   2.009   2.477  15.770 -0.1451  3.0317  1.5888
 4410SOL     OW24865   3.404   0.154   0.696  0.3707  0.4500  0.3169
 4410SOL    HW124866   3.423   0.247   0.689  0.4889  0.3938 -0.1445
 4410SOL    HW224867   3.477   0.127   0.753  0.1264 -1.3050 -0.1823
 4411SOL     OW24868   0.248   4.037   6.966  0.5071  0.5235  0.1927
 4411SOL    HW124869   0.251   4.132   6.976 -1.4159  0.6118 -0.0341
 4411SOL    HW224870   0.257   4.020   6.873 -0.3445  2.2123 -0.1888
 4412SOL     OW24871   1.084   0.751   6.917 -0.1094 -0.5193  0.2340
 4412SOL    HW124872   1.171   0.711   6.921 -0.5261 -1.4974 -0.5023
 4412SOL    HW224873   1.046   0.697   6.987 -0.7724 -0.7663 -0.3184
 4413SOL     OW24874   0.062   3.814   4.739  0.3310  0.0614 -0.1844
 4413SOL    HW124875   0.054   3.888   4.678 -2.7119 -0.4573 -0.4555
 4413SOL    HW224876   0.149   3.825   4.777  0.1510  0.1383  0.2070
 4414SOL     OW24877   3.226   2.877   9.111  0.0753 -0.0444 -0.2102
 4414SOL    HW124878   3.175   2.885   9.031 -1.8630  1.8517  1.2299
 4414SOL    HW224879   3.216   2.783   9.125 -0.4441  0.2332  1.3814
 4415SOL     OW24880   0.541   3.770   6.625  0.0134  0.0783  0.2394
 4415SOL    HW124881   0.515   3.694   6.677 -1.0195  0.5551  0.4334
 4415SOL    HW224882   0.591   3.726   6.557  0.1623  0.2127  0.2592
 4416SOL     OW24883   0.920   3.878  13.914 -0.1117  0.3877 -0.0032
 4416SOL    HW124884   0.851   3.884  13.981 -2.2331 -1.5176 -2.0250
 4416SOL    HW224885   1.004   3.888  13.959  0.0167  1.9747 -0.6015
 4417SOL     OW24886   4.578   0.580   6.506  0.0550 -0.3689  0.0847
 4417SOL    HW124887   4.647   0.525   6.467  2.5685  2.1680  0.9195
 4417SOL    HW224888   4.609   0.562   6.595 -0.2590  0.5128  0.3666
 4418SOL     OW24889   2.362   1.735   9.749 -0.4416  0.2506 -0.3266
 4418SOL    HW124890   2.387   1.686   9.670 -0.3621  2.1128 -1.4537
 4418SOL    HW224891   2.345   1.657   9.802 -2.3137  0.3317 -0.7981
 4419SOL     OW24892   3.938   1.517   6.934  0.0284 -0.4104  0.4014
 4419SOL    HW124893   3.937   1.486   7.024  1.1972 -0.5713  0.3589
 4419SOL    HW224894   3.893   1.601   6.931  1.4182  0.3438  0.7752
 4420SOL     OW24895   4.270   3.547   6.152 -0.2359 -0.0055  0.2748
 4420SOL    HW124896   4.262   3.526   6.059 -3.8037 -3.0810  1.2868
 4420SOL    HW224897   4.298   3.637   6.138 -2.0568  0.8894  2.3948
 4421SOL     OW24898   0.886   2.723   7.688  0.5740  0.2331  0.2597
 4421SOL    HW124899   0.916   2.763   7.606  1.1420 -0.7900 -0.0307
 4421SOL    HW224900   0.907   2.798   7.744  1.9568  0.7642 -0.9795
 4422SOL     OW24901   0.515   2.889   2.526 -0.6272 -0.1030  0.2281
 4422SOL    HW124902   0.557   2.957   2.474 -2.6560  2.0344  1.3870
 4422SOL    HW224903   0.593   2.836   2.543 -0.0256  0.4711 -0.6980
 4423SOL     OW24904   2.476   2.327   3.941 -0.4053  0.0216  0.0647
 4423SOL    HW124905   2.546   2.334   4.006 -0.9333  0.4130  0.5829
 4423SOL    HW224906   2.496   2.406   3.889 -2.0998 -0.7049 -1.6980
 4424SOL     OW24907   2.967   4.191   5.901 -0.3761  0.6165  0.2333
 4424SOL    HW124908   2.942   4.139   5.977 -0.7237 -0.1755 -0.4250
 4424SOL    HW224909   3.050   4.149   5.879 -0.2103 -0.5102  3.0152
 4425SOL     OW24910   0.776   1.739   6.486 -0.3554  0.0743  0.2315
 4425SOL    HW124911   0.862   1.755   6.525 -0.9110  2.3400  0.4932
 4425SOL    HW224912   0.752   1.666   6.543 -3.6638  0.4675 -0.6622
 4426SOL     OW24913   1.744   3.022  16.638 -0.2719  0.2191 -0.6169
 4426SOL    HW124914   1.756   3.058  16.550  0.9301 -0.8956 -0.9037
 4426SOL    HW224915   1.802   2.947  16.649 -0.9601 -0.0822  0.9676
 4427SOL     OW24916   3.533   0.719   4.643 -0.4151  0.0411 -0.0317
 4427SOL    HW124917   3.482   0.730   4.563  0.0602 -2.4746 -0.6714
 4427SOL    HW224918   3.465   0.699   4.707 -1.3656 -1.6736 -1.5848
 4428SOL     OW24919   0.322   3.957   7.940 -0.3683  0.0343  0.1897
 4428SOL    HW124920   0.371   3.978   7.860 -1.8209 -0.4877 -0.8277
 4428SOL    HW224921   0.391   3.969   8.006  0.7850 -1.6948 -0.7065
 4429SOL     OW24922   2.462   3.993   7.131 -0.4917  0.5886  0.0555
 4429SOL    HW124923   2.458   3.955   7.219  2.1694  0.9916  0.3266
 4429SOL    HW224924   2.395   3.940   7.087  1.3172 -0.5230 -1.3423
 4430SOL     OW24925   2.786   0.081   4.269 -0.2185  0.4870  0.2970
 4430SOL    HW124926   2.713   0.020   4.258 -0.4421  0.7695  0.2297
 4430SOL    HW224927   2.746   0.164   4.244 -0.2684 -0.1172 -1.6595
 4431SOL     OW24928   2.281   3.951   6.372 -0.1646  0.2036 -0.5508
 4431SOL    HW124929   2.343   3.948   6.300 -0.0010 -0.1532 -0.3908
 4431SOL    HW224930   2.249   4.041   6.367 -0.5903 -0.0371 -1.9408
 4432SOL     OW24931   2.710   0.148   6.294 -0.2683  0.5350 -0.0364
 4432SOL    HW124932   2.774   0.095   6.341 -0.0967  1.0777  0.3455
 4432SOL    HW224933   2.760   0.229   6.281  0.7647 -0.1311 -0.2615
 4433SOL     OW24934   1.654   4.327   6.704  0.3603 -0.2769 -0.1176
 4433SOL    HW124935   1.575   4.314   6.756 -0.1294  0.8436 -0.5689
 4433SOL    HW224936   1.673   4.244   6.660  0.8040 -0.7038  0.8725
 4434SOL     OW24937   1.106   1.130   4.511 -0.0208  0.3920 -0.1056
 4434SOL    HW124938   1.120   1.087   4.427  0.4129 -2.5189  1.4185
 4434SOL    HW224939   1.187   1.116   4.561 -0.4863  1.2239  0.8683
 4435SOL     OW24940   3.992   0.145   4.118  0.2811 -0.4011  0.1504
 4435SOL    HW124941   3.941   0.189   4.049  0.7092  1.0573  0.7875
 4435SOL    HW224942   4.038   0.218   4.159 -1.0574  0.3696  0.2955
 4436SOL     OW24943   0.928   0.868  15.711 -0.5839  0.3624 -0.3199
 4436SOL    HW124944   0.863   0.872  15.641 -1.2156  0.2970  0.2711
 4436SOL    HW224945   0.979   0.946  15.688 -2.8477  2.0452  0.3453
 4437SOL     OW24946   4.520   1.519   0.664  0.1310  0.1923  0.3777
 4437SOL    HW124947   4.594   1.573   0.635  0.2092  0.1015  0.4038
 4437SOL    HW224948   4.575   1.441   0.673  2.5026  1.4982 -2.9220
 4438SOL     OW24949   2.910   2.253   3.936 -0.2383  0.2998  0.4134
 4438SOL    HW124950   3.004   2.241   3.923 -0.3194 -1.3810  1.5085
 4438SOL    HW224951   2.896   2.311   3.861 -0.0744  0.7435  0.7248
 4439SOL     OW24952   1.772   0.702   7.164  0.5294 -0.4746 -0.4649
 4439SOL    HW124953   1.788   0.713   7.258  2.4939  1.4370 -1.0002
 4439SOL    HW224954   1.685   0.663   7.164  1.7774 -3.2337  1.5199
 4440SOL     OW24955   4.135   3.076   5.534 -0.1915 -0.0422 -0.1697
 4440SOL    HW124956   4.083   3.131   5.593 -2.4125 -0.5626 -1.6434
 4440SOL    HW224957   4.212   3.052   5.585 -1.5977 -0.4683  1.7491
 4441SOL     OW24958   2.800   0.612   2.148 -0.0921 -0.3126  0.3942
 4441SOL    HW124959   2.848   0.549   2.094 -0.0627  0.8765 -0.9532
 4441SOL    HW224960   2.714   0.603   2.106 -0.5632 -4.0015  2.1367
 4442SOL     OW24961   4.212   4.579  16.726  0.3113  0.1694 -0.6775
 4442SOL    HW124962   4.154   4.605  16.654 -1.1453 -1.4990 -0.1178
 4442SOL    HW224963   4.271   4.654  16.727  0.0060  0.4059 -0.4158
 4443SOL     OW24964   2.025   1.525  14.110 -0.2955  0.3000 -0.1960
 4443SOL    HW124965   2.089   1.593  14.087 -1.4239  2.4723  3.2762
 4443SOL    HW224966   1.941   1.560  14.081  0.3224  1.9575  0.0501
 4444SOL     OW24967   1.845   3.888  17.653 -0.4812 -0.7917 -0.3072
 4444SOL    HW124968   1.821   3.902  17.562 -1.0983 -1.0654 -0.1878
 4444SOL    HW224969   1.761   3.908  17.695 -0.4115 -0.5135 -0.2959
 4445SOL     OW24970   3.881   3.193   5.636  0.2983 -0.1007 -0.7296
 4445SOL    HW124971   3.825   3.209   5.560  0.8507  1.7211 -0.7584
 4445SOL    HW224972   3.916   3.282   5.642 -1.8771  0.6791  0.7427
 4446SOL     OW24973   1.299   2.135  13.728  0.1491  0.3448  0.3930
 4446SOL    HW124974   1.306   2.175  13.815  0.1080  1.5451 -0.1568
 4446SOL    HW224975   1.210   2.102  13.736  0.6818 -1.4201 -1.0041
 4447SOL     OW24976   0.037   3.037   0.664 -0.0859  0.3862 -0.3034
 4447SOL    HW124977   0.117   2.986   0.678 -0.2792 -0.4091 -1.9538
 4447SOL    HW224978   0.038   3.080   0.578  2.4908 -0.3269 -0.6454
 4448SOL     OW24979   1.693   3.134   2.029  0.2233 -0.0831  0.8826
 4448SOL    HW124980   1.737   3.053   2.054  0.5816  0.0992  0.8325
 4448SOL    HW224981   1.744   3.203   2.072  0.0718  0.5682  0.0336
 4449SOL     OW24982   0.274   2.060  15.753  0.6347 -0.7846 -0.9370
 4449SOL    HW124983   0.244   1.971  15.737  0.1945 -0.7407 -0.3635
 4449SOL    HW224984   0.296   2.054  15.846  2.9709 -1.4253 -1.5527
 4450SOL     OW24985   2.417   1.786   6.894  0.1443  0.2082  0.4867
 4450SOL    HW124986   2.467   1.730   6.953  0.1182  0.6773  0.9475
 4450SOL    HW224987   2.481   1.788   6.823  0.8072  0.7383  1.1127
 4451SOL     OW24988   1.831   2.894   2.050  0.2586 -0.6047  0.2170
 4451SOL    HW124989   1.822   2.800   2.032 -0.5621 -0.0340 -2.3856
 4451SOL    HW224990   1.902   2.897   2.114  0.6467 -0.9037 -0.2026
 4452SOL     OW24991   3.087   1.906  15.938  0.4497  0.0004  0.1044
 4452SOL    HW124992   3.046   1.844  15.999 -0.3779  2.9977  2.5932
 4452SOL    HW224993   3.140   1.851  15.880  1.9533  1.3412  0.1959
 4453SOL     OW24994   4.007   2.836  10.156 -0.2565  0.1150 -0.5950
 4453SOL    HW124995   3.989   2.871  10.068  1.5093  3.3204  0.3182
 4453SOL    HW224996   3.922   2.804  10.184  0.9900 -3.4566 -0.8995
 4454SOL     OW24997   0.079   0.658   2.676  0.2123 -0.2412 -0.1563
 4454SOL    HW124998   0.148   0.699   2.728  0.9925  0.1247 -1.4864
 4454SOL    HW224999   0.106   0.683   2.588 -0.7801  1.2015 -0.0447
 4455SOL     OW25000   4.628   2.143  10.616  0.2389  0.0351 -0.8243
 4455SOL    HW125001   4.577   2.107  10.544 -2.2251  0.9806  0.4700
 4455SOL    HW225002   4.695   2.075  10.627 -0.9755 -1.0180  0.1963
 4456SOL     OW25003   3.164   3.340   6.182  0.4653 -0.1889  0.0498
 4456SOL    HW125004   3.229   3.356   6.114  0.5193  1.6323  0.5474
 4456SOL    HW225005   3.192   3.404   6.248  1.5444  1.7887 -2.3573
 4457SOL     OW25006   1.419   1.689  13.810  0.4211 -0.1659  0.0721
 4457SOL    HW125007   1.380   1.760  13.861  1.4849  1.4960 -1.4300
 4457SOL    HW225008   1.347   1.626  13.810 -1.1234  1.6045  0.6634
 4458SOL     OW25009   2.754   4.056   9.295 -0.6192 -0.1389 -0.2855
 4458SOL    HW125010   2.666   4.048   9.332  0.3275  0.8501  2.1946
 4458SOL    HW225011   2.789   4.141   9.324 -0.2591 -0.1979 -0.5483
 4459SOL     OW25012   2.408   3.703   5.514 -0.8245 -0.3173 -0.5116
 4459SOL    HW125013   2.430   3.729   5.424  2.5499  3.2314  1.3404
 4459SOL    HW225014   2.316   3.728   5.522 -1.0214 -0.4440 -2.3034
 4460SOL     OW25015   1.559   3.420  14.193 -0.5870  0.3805 -0.1279
 4460SOL    HW125016   1.572   3.412  14.099  0.4060 -1.1991  0.1315
 4460SOL    HW225017   1.467   3.440  14.208 -0.3810  1.0306  0.2510
 4461SOL     OW25018   1.089   3.241  11.617  0.1135 -0.6269 -0.2936
 4461SOL    HW125019   1.104   3.171  11.680  1.4691 -1.5535 -1.6358
 4461SOL    HW225020   1.179   3.275  11.614 -0.6222  1.5362  1.9609
 4462SOL     OW25021   2.376   1.810   4.676  0.0456 -0.3921  0.3598
 4462SOL    HW125022   2.394   1.867   4.751  0.6483  3.1617 -2.4691
 4462SOL    HW225023   2.280   1.811   4.671  0.0532 -0.1305  0.2532
 4463SOL     OW25024   2.967   0.967   1.959  0.3154  0.3155 -0.1009
 4463SOL    HW125025   2.888   1.014   1.932 -0.1928 -0.8264 -0.6027
 4463SOL    HW225026   2.981   0.914   1.880  0.8993  0.0957  0.1473
 4464SOL     OW25027   2.974   2.936   0.967  0.0863  0.4437  0.5554
 4464SOL    HW125028   3.042   2.879   0.931  0.0845  2.0666 -1.9775
 4464SOL    HW225029   2.978   2.922   1.062  2.5313  2.7388  0.7580
 4465SOL     OW25030   1.358   1.212   2.650  0.8305  0.2573  0.0548
 4465SOL    HW125031   1.407   1.275   2.703  0.5183 -0.3973  1.1236
 4465SOL    HW225032   1.270   1.250   2.652  0.5001 -0.5901  1.1944
 4466SOL     OW25033   3.581   3.532   8.300 -0.0988  0.2543  0.2747
 4466SOL    HW125034   3.660   3.515   8.350 -0.6321 -3.1480 -0.0379
 4466SOL    HW225035   3.555   3.446   8.266 -3.0852  0.6063  1.6281
 4467SOL     OW25036   3.581   2.388   3.173  0.1142 -0.4688 -0.0307
 4467SOL    HW125037   3.557   2.345   3.091  2.6321 -1.0601 -0.4577
 4467SOL    HW225038   3.603   2.310   3.225  1.3625  0.0219  0.1731
 4468SOL     OW25039   2.245   2.477   2.616 -0.3780 -0.1180 -0.7586
 4468SOL    HW125040   2.298   2.547   2.579 -1.4906  1.4998  0.7132
 4468SOL    HW225041   2.237   2.428   2.533  0.6469  1.8721 -2.0251
 4469SOL     OW25042   1.963   3.131   8.879  0.7200  0.0879  0.6767
 4469SOL    HW125043   1.980   3.200   8.943 -0.6183  0.0587  1.0802
 4469SOL    HW225044   1.933   3.178   8.801  1.4133  1.5978  1.3293
 4470SOL     OW25045   1.795   2.303   1.070 -0.4732 -0.1538 -0.5446
 4470SOL    HW125046   1.713   2.289   1.117  0.5309 -1.7152  0.7329
 4470SOL    HW225047   1.856   2.268   1.135  1.0350  2.3756 -0.6068
 4471SOL     OW25048   2.352   2.171   7.875 -0.6896 -0.3190  0.3637
 4471SOL    HW125049   2.427   2.193   7.930 -0.2537  2.0310 -1.1572
 4471SOL    HW225050   2.279   2.206   7.926 -0.0275  2.8854 -0.9293
 4472SOL     OW25051   4.720   3.197   7.886  0.4007  0.2168  0.8475
 4472SOL    HW125052   4.719   3.292   7.877  0.4661  0.4417  3.1594
 4472SOL    HW225053   4.695   3.193   7.978 -0.1508 -1.9249  0.6013
 4473SOL     OW25054   0.051   3.565  17.560  0.3627  0.4596 -0.1000
 4473SOL    HW125055   4.733   3.616  17.619  0.1561  1.2696 -0.9889
 4473SOL    HW225056   0.110   3.524  17.623  0.4354  0.8400  0.0833
 4474SOL     OW25057   0.394   3.250   8.113 -0.1381 -0.2113 -0.0387
 4474SOL    HW125058   0.432   3.168   8.146 -2.2279 -0.7646  1.0469
 4474SOL    HW225059   0.321   3.275   8.171  0.0090 -1.1926  0.5760
 4475SOL     OW25060   0.382   2.510   3.015 -0.2693 -0.3365  0.0495
 4475SOL    HW125061   0.322   2.503   2.941  1.0070 -1.4957 -0.8753
 4475SOL    HW225062   0.452   2.473   2.961  1.1118  1.6770  0.4688
 4476SOL     OW25063   4.624   1.573  15.971  0.8982 -0.1742  0.6884
 4476SOL    HW125064   4.666   1.536  15.894  0.9022 -0.8144  0.9932
 4476SOL    HW225065   4.551   1.512  15.984  0.1356  0.4786 -0.5446
 4477SOL     OW25066   0.316   0.212   6.324 -0.1794  0.0602 -0.0807
 4477SOL    HW125067   0.365   0.273   6.379 -0.8952  0.4164  0.1661
 4477SOL    HW225068   0.392   0.160   6.298 -0.2844  0.5657 -1.3689
 4478SOL     OW25069   3.763   1.206   3.702  0.3680  0.0194 -0.1276
 4478SOL    HW125070   3.694   1.263   3.668 -0.2982 -1.7330 -1.7336
 4478SOL    HW225071   3.819   1.270   3.744  1.9482 -0.3293 -1.7097
 4479SOL     OW25072   0.306   1.621   8.709  0.0616 -0.3726 -0.2281
 4479SOL    HW125073   0.230   1.633   8.767  1.0208  2.2313  0.4705
 4479SOL    HW225074   0.269   1.557   8.647  0.2925  1.1448 -1.9370
 4480SOL     OW25075   4.022   1.603   3.449  1.0646 -0.1691 -0.7116
 4480SOL    HW125076   4.020   1.582   3.542 -0.9901  1.6612 -0.3292
 4480SOL    HW225077   3.978   1.687   3.438  0.3360 -0.1701  2.2014
 4481SOL     OW25078   2.236   0.592   4.639  0.0504 -0.2401  0.0711
 4481SOL    HW125079   2.258   0.567   4.549  0.2939 -2.8604  0.8581
 4481SOL    HW225080   2.193   0.517   4.680  0.5308  0.0939  1.1749
 4482SOL     OW25081   1.228   2.068   6.828 -0.1303 -0.1371 -0.2221
 4482SOL    HW125082   1.140   2.043   6.855  1.1172 -2.7503  1.4811
 4482SOL    HW225083   1.235   2.158   6.858 -0.1681  0.0534 -0.7908
 4483SOL     OW25084   2.665   0.324   4.222  0.4801 -0.2326  0.2320
 4483SOL    HW125085   2.626   0.350   4.139  0.2116 -1.7435 -0.1115
 4483SOL    HW225086   2.659   0.404   4.275 -0.9437  0.0515 -0.3688
 4484SOL     OW25087   3.886   1.096   2.638 -0.3897 -0.6217  0.3845
 4484SOL    HW125088   3.838   1.086   2.720 -0.5554  0.6794  0.4489
 4484SOL    HW225089   3.971   1.058   2.658 -0.3107  1.1956  3.4278
 4485SOL     OW25090   1.049   2.063   4.930 -0.1546  0.0518  0.2762
 4485SOL    HW125091   0.998   2.034   5.005 -0.9005  1.6387  0.3685
 4485SOL    HW225092   1.073   2.150   4.960  1.2898 -0.5280  0.8336
 4486SOL     OW25093   4.409   0.917   6.493 -0.2389 -0.9175  0.0059
 4486SOL    HW125094   4.390   0.883   6.406 -2.3436 -0.5223  0.3105
 4486SOL    HW225095   4.359   0.998   6.495  1.7045  0.3050 -1.1335
 4487SOL     OW25096   2.246   4.385   9.808  0.4163 -0.3579 -0.0714
 4487SOL    HW125097   2.174   4.323   9.797  1.6841 -1.2610 -3.1921
 4487SOL    HW225098   2.220   4.455   9.750 -0.2641  0.6064  1.3956
 4488SOL     OW25099   2.567   1.178   9.596 -0.0850 -0.2718  0.1692
 4488SOL    HW125100   2.558   1.099   9.649 -1.8600 -0.5958 -0.6071
 4488SOL    HW225101   2.619   1.152   9.520  0.5046  0.6958  0.2342
 4489SOL     OW25102   4.679   4.445   9.034 -0.1351  0.3208 -0.6661
 4489SOL    HW125103   0.035   4.456   9.052 -0.2057 -0.0533 -0.0992
 4489SOL    HW225104   4.667   4.367   8.980 -1.9403  0.7325 -0.8423
 4490SOL     OW25105   1.439   2.335   5.654  0.4529  0.5470  0.0915
 4490SOL    HW125106   1.470   2.379   5.575 -0.1584 -0.5147 -0.7418
 4490SOL    HW225107   1.505   2.266   5.653 -0.9737 -0.8146 -0.0778
 4491SOL     OW25108   2.532   4.493   7.720 -0.0747  0.2949 -1.2362
 4491SOL    HW125109   2.475   4.479   7.796  0.5709  0.1873 -0.7776
 4491SOL    HW225110   2.608   4.540   7.755 -1.2255  1.8247 -0.7682
 4492SOL     OW25111   2.433   0.675   7.372  0.1742  0.1417 -0.4124
 4492SOL    HW125112   2.362   0.733   7.399 -0.1218 -0.4945  0.1887
 4492SOL    HW225113   2.458   0.716   7.290 -0.8924  0.9710 -0.3239
 4493SOL     OW25114   0.959   3.472   2.235  0.2690  0.2195  0.7034
 4493SOL    HW125115   0.935   3.431   2.318  0.4065 -2.7111 -0.6962
 4493SOL    HW225116   1.030   3.527   2.269  1.2908 -0.6762  0.0160
 4494SOL     OW25117   2.379   2.294   2.368  0.3738  0.3995  0.0529
 4494SOL    HW125118   2.379   2.381   2.327  0.0579  0.3556 -0.0486
 4494SOL    HW225119   2.431   2.243   2.306 -2.9429 -0.8168 -1.7657
 4495SOL     OW25120   4.375   1.517  11.914  0.7561 -0.4670  0.3331
 4495SOL    HW125121   4.462   1.522  11.873  0.3549 -1.4399 -0.6477
 4495SOL    HW225122   4.366   1.602  11.955  0.6627  0.4700 -1.6303
 4496SOL     OW25123   4.593   2.663  10.077  0.7227  0.2198 -0.4398
 4496SOL    HW125124   4.587   2.685   9.984 -1.2302  1.9724  0.0710
 4496SOL    HW225125   4.576   2.747  10.121  0.6660 -0.7148  1.3212
 4497SOL     OW25126   4.388   2.039   2.298  0.0615  0.2885  0.2645
 4497SOL    HW125127   4.323   2.021   2.230  0.5827  0.7516 -0.3500
 4497SOL    HW225128   4.336   2.029   2.378 -0.4879  1.0815  0.0059
 4498SOL     OW25129   1.983   1.473   1.849 -0.4310  0.2794  0.2478
 4498SOL    HW125130   1.895   1.457   1.814 -0.3243 -0.8963  0.5185
 4498SOL    HW225131   2.040   1.448   1.776 -1.7674 -0.8031 -0.4355
 4499SOL     OW25132   1.641   1.566   7.897 -1.2984  0.0422  0.9181
 4499SOL    HW125133   1.628   1.516   7.977 -1.1512 -0.7127  0.4707
 4499SOL    HW225134   1.635   1.492   7.837  2.2127  2.1263 -2.0418
 4500SOL     OW25135   2.713   4.698   6.026  0.2106  0.5027  0.4076
 4500SOL    HW125136   2.774   4.693   6.100  0.4484 -1.1555  0.0963
 4500SOL    HW225137   2.715   0.054   6.010  0.2903  0.7224  1.6759
 4501SOL     OW25138   2.535   2.156  13.062  0.1552 -0.1707  0.0769
 4501SOL    HW125139   2.603   2.113  13.113  0.3555 -0.5550 -0.5135
 4501SOL    HW225140   2.458   2.136  13.116  0.4459  2.9967  1.6828
 4502SOL     OW25141   1.273   3.555   7.266  0.0952  0.0829 -0.5646
 4502SOL    HW125142   1.345   3.539   7.328 -1.9748 -1.0051  1.5613
 4502SOL    HW225143   1.252   3.467   7.236  1.7421 -0.0552 -1.3692
 4503SOL     OW25144   2.752   3.654   0.158  0.3335  0.0149  0.2503
 4503SOL    HW125145   2.724   3.743   0.181 -3.5779 -0.8246 -1.2529
 4503SOL    HW225146   2.718   3.600   0.229  0.1473  0.0664  0.2020
 4504SOL     OW25147   1.149   1.342  11.608 -0.7275  0.0626 -0.1778
 4504SOL    HW125148   1.166   1.258  11.566  0.1149 -0.1572  0.5915
 4504SOL    HW225149   1.238   1.373  11.622 -0.7736  1.3326 -2.7170
 4505SOL     OW25150   2.685   4.044   8.959  0.1749 -0.3639 -0.2961
 4505SOL    HW125151   2.776   4.056   8.931 -0.7514  1.7183 -2.4758
 4505SOL    HW225152   2.645   4.126   8.928 -1.9605 -0.8438  1.2469
 4506SOL     OW25153   4.475   1.239   7.067  0.3934  0.5523  0.3781
 4506SOL    HW125154   4.385   1.270   7.072  0.1116 -0.4784  1.6844
 4506SOL    HW225155   4.492   1.228   7.160 -0.1949  1.9225  0.6501
 4507SOL     OW25156   1.044   0.527   1.771  0.6488 -0.3333  0.1704
 4507SOL    HW125157   0.965   0.577   1.753  0.2715 -1.1624 -0.5036
 4507SOL    HW225158   1.029   0.448   1.718  0.4223  1.4212 -2.4035
 4508SOL     OW25159   0.833   1.665   4.117  0.4787 -0.0945  0.3523
 4508SOL    HW125160   0.874   1.591   4.073  0.7968  1.0108 -1.2320
 4508SOL    HW225161   0.912   1.716   4.134 -0.4602  1.3519  0.4496
 4509SOL     OW25162   2.592   0.031   1.237  0.4660 -1.3931 -0.3806
 4509SOL    HW125163   2.557   4.688   1.273  0.6656 -0.9993  0.6905
 4509SOL    HW225164   2.509   0.079   1.230  1.4283  0.4596  0.8641
 4510SOL     OW25165   2.447   3.441   7.694  0.1994  0.5116  0.4698
 4510SOL    HW125166   2.397   3.510   7.651  0.1323  0.2397  0.1115
 4510SOL    HW225167   2.477   3.380   7.626 -3.0269 -0.5449  0.0003
 4511SOL     OW25168   1.398   1.966   9.298  0.2794  0.7461 -0.3625
 4511SOL    HW125169   1.359   2.053   9.293  1.9051  1.5310  0.5111
 4511SOL    HW225170   1.394   1.952   9.393  0.5064  3.4255  0.0360
 4512SOL     OW25171   4.201   3.152   0.374 -0.2439  0.4852  0.4829
 4512SOL    HW125172   4.143   3.173   0.448 -2.3265 -1.9294 -0.4492
 4512SOL    HW225173   4.148   3.096   0.318 -0.6709  0.9510  0.4179
 4513SOL     OW25174   3.198   4.549  14.115  0.2148 -0.0119 -0.3023
 4513SOL    HW125175   3.243   4.579  14.036 -0.7500  0.6619 -0.6007
 4513SOL    HW225176   3.180   4.458  14.091 -0.6688 -0.0289  0.4244
 4514SOL     OW25177   3.550   4.103  16.221  0.2415  0.4987 -0.4431
 4514SOL    HW125178   3.590   4.018  16.202 -0.2747  0.8643 -3.1868
 4514SOL    HW225179   3.521   4.127  16.132  1.1460 -2.9796 -1.6981
 4515SOL     OW25180   4.076   3.776   4.673 -0.0635  0.6058  0.8870
 4515SOL    HW125181   4.026   3.761   4.753 -2.4748 -0.8659 -0.9133
 4515SOL    HW225182   4.127   3.695   4.664 -2.0220 -0.5900  0.5058
 4516SOL     OW25183   2.032   3.933   9.117  0.2378 -0.4491  0.0949
 4516SOL    HW125184   2.082   3.941   9.198  0.0816 -0.5892  0.2025
 4516SOL    HW225185   2.112   3.936   9.064  1.7438 -0.2292  2.4086
 4517SOL     OW25186   1.519   0.442   5.232  0.3430 -0.5339 -0.0392
 4517SOL    HW125187   1.468   0.519   5.258  1.2205 -0.1128  0.4295
 4517SOL    HW225188   1.569   0.492   5.168  1.0484 -1.3962 -0.1504
 4518SOL     OW25189   4.536   4.286   8.347  0.0631  0.4455 -0.2970
 4518SOL    HW125190   4.611   4.243   8.387 -0.0977  2.0934  1.7563
 4518SOL    HW225191   4.535   4.374   8.385 -1.6479  0.4339 -0.3305
 4519SOL     OW25192   4.675   2.159   5.192 -0.1293  0.5221 -0.2937
 4519SOL    HW125193   4.635   2.151   5.279  1.9602  1.2886  0.7513
 4519SOL    HW225194   0.003   2.228   5.200 -0.9761  1.4498 -1.3335
 4520SOL     OW25195   1.401   3.087  16.153 -0.2282 -0.3782 -0.1396
 4520SOL    HW125196   1.404   2.997  16.183  2.1937 -0.1732  0.2298
 4520SOL    HW225197   1.313   3.118  16.176 -0.0021 -1.5237  2.1930
 4521SOL     OW25198   0.914   2.476  15.543 -0.0923 -0.0904  0.3772
 4521SOL    HW125199   0.865   2.478  15.460  2.0954  1.3017 -0.8992
 4521SOL    HW225200   0.998   2.511  15.512 -0.2723 -2.5454 -2.9596
 4522SOL     OW25201   1.068   0.068   8.551  0.2624 -0.3177  0.1996
 4522SOL    HW125202   1.095   4.725   8.508 -0.6736  0.1255 -1.2330
 4522SOL    HW225203   1.148   0.119   8.540 -0.3897  0.5997 -0.2075
 4523SOL     OW25204   0.352   3.659  15.777  0.3559 -0.4684  0.7697
 4523SOL    HW125205   0.335   3.752  15.765 -0.4332 -0.5885  0.9303
 4523SOL    HW225206   0.288   3.629  15.712 -0.4732  0.9687  0.9311
 4524SOL     OW25207   4.717   3.829   8.133 -0.4235 -0.2462  0.1575
 4524SOL    HW125208   0.068   3.838   8.168 -0.3920 -0.0165  0.0194
 4524SOL    HW225209   0.008   3.802   8.046 -1.0225  0.4573 -0.2554
 4525SOL     OW25210   2.126   0.883   2.579  0.5030  0.5278 -0.0962
 4525SOL    HW125211   2.094   0.876   2.489  0.1988  3.1895 -0.1783
 4525SOL    HW225212   2.110   0.975   2.599 -2.3754  0.1519 -0.7126
 4526SOL     OW25213   4.278   1.566  11.133  0.3496  0.1555 -0.5761
 4526SOL    HW125214   4.217   1.523  11.073  1.7554 -2.4727 -0.1220
 4526SOL    HW225215   4.294   1.648  11.086  4.7308  0.4583  1.4525
 4527SOL     OW25216   4.489   0.904   6.118 -0.4943 -0.3842  0.4307
 4527SOL    HW125217   4.397   0.877   6.115 -0.9006  0.8527  2.2456
 4527SOL    HW225218   4.523   0.832   6.171 -0.1454 -0.3735  0.2214
 4528SOL     OW25219   1.600   1.035   3.206  0.1540  0.4466  0.6083
 4528SOL    HW125220   1.526   1.053   3.263 -1.5907 -3.0409 -0.5642
 4528SOL    HW225221   1.671   1.094   3.233  0.3387 -0.5309  2.2850
 4529SOL     OW25222   0.014   1.972   9.267 -0.2332  0.3297  0.1234
 4529SOL    HW125223   4.712   1.887   9.248 -1.1370  0.0577  3.2510
 4529SOL    HW225224   0.014   1.986   9.362 -2.4147  1.1454  0.0003
 4530SOL     OW25225   4.730   0.071   4.529 -0.6192 -0.8103 -0.4505
 4530SOL    HW125226   0.010   0.001   4.467 -1.1120  0.4505 -2.0288
 4530SOL    HW225227   0.057   0.046   4.594  1.6645  0.3951 -2.2180
 4531SOL     OW25228   2.510   4.396   5.767 -0.6568  0.5254  0.4402
 4531SOL    HW125229   2.575   4.326   5.764 -0.2511  0.8974  0.7111
 4531SOL    HW225230   2.435   4.359   5.815 -1.6388  0.3477 -1.2388
 4532SOL     OW25231   2.210   2.902  15.740 -0.0072 -0.0183  0.3008
 4532SOL    HW125232   2.189   2.953  15.662 -2.4119 -0.6516  0.5315
 4532SOL    HW225233   2.252   2.975  15.786 -0.1908  0.9707 -1.0881
 4533SOL     OW25234   1.477   2.657   1.461 -0.1917  0.2784 -0.1711
 4533SOL    HW125235   1.554   2.635   1.514 -0.3706  0.7637  0.2853
 4533SOL    HW225236   1.420   2.581   1.470 -0.2564  0.1689 -1.5167
 4534SOL     OW25237   0.588   3.027   8.631 -0.3431 -0.0092  0.7206
 4534SOL    HW125238   0.505   2.994   8.595  0.3102  2.1057 -2.7238
 4534SOL    HW225239   0.563   3.046   8.721  0.3048  0.7534  0.7301
 4535SOL     OW25240   4.735   1.397   4.841  0.1848  0.5905  0.7768
 4535SOL    HW125241   4.678   1.442   4.778  2.9845  1.7147 -0.9633
 4535SOL    HW225242   0.010   1.454   4.916  3.6148  0.5041  0.2730
 4536SOL     OW25243   3.409   2.358   7.915  0.1832 -0.0263  0.2037
 4536SOL    HW125244   3.361   2.335   7.995  2.8779 -1.1401  1.4829
 4536SOL    HW225245   3.346   2.351   7.843  1.6047  0.0109 -1.0239
 4537SOL     OW25246   0.167   0.840   3.942  0.8458  0.1532  0.0180
 4537SOL    HW125247   0.242   0.893   3.916  1.5020 -0.8744 -0.1668
 4537SOL    HW225248   0.159   0.868   4.034  1.5049 -5.3328  1.7767
 4538SOL     OW25249   1.460   2.821  16.231 -0.0461  0.2559  0.2592
 4538SOL    HW125250   1.420   2.736  16.249  0.3249 -0.0987 -0.5493
 4538SOL    HW225251   1.530   2.827  16.296 -2.0064 -0.6069  2.4186
 4539SOL     OW25252   4.400   0.500   4.786  0.3143 -0.4167 -0.2309
 4539SOL    HW125253   4.375   0.409   4.772  0.8438 -0.7425  0.9486
 4539SOL    HW225254   4.440   0.509   4.873 -0.2061  0.7531 -0.1185
 4540SOL     OW25255   1.739   3.656  13.676  0.1051 -0.0635  0.4023
 4540SOL    HW125256   1.825   3.687  13.704  0.0169  0.5733 -0.0522
 4540SOL    HW225257   1.761   3.563  13.671  2.8145  0.4389  2.9053
 4541SOL     OW25258   3.581   2.134   5.976 -0.8286  0.1443 -0.0524
 4541SOL    HW125259   3.654   2.074   5.961 -1.2971 -0.2109 -0.9484
 4541SOL    HW225260   3.633   2.204   6.013  0.6542 -1.4883  0.9723
 4542SOL     OW25261   4.642   0.626  10.527  0.4781  0.0343  0.4072
 4542SOL    HW125262   4.594   0.704  10.552 -1.1010 -0.1940 -1.9129
 4542SOL    HW225263   4.732   0.644  10.555  1.7676 -2.4619 -2.0277
 4543SOL     OW25264   3.345   0.863   7.066 -0.4833  0.4223 -0.3053
 4543SOL    HW125265   3.424   0.849   7.118 -0.8116 -0.6285 -0.0828
 4543SOL    HW225266   3.350   0.810   6.987 -1.8203 -0.2106  0.0379
 4544SOL     OW25267   1.415   1.918   6.252 -0.3219 -0.0902  0.6437
 4544SOL    HW125268   1.336   1.866   6.265  1.3393 -2.6440  0.4657
 4544SOL    HW225269   1.474   1.843   6.253  0.3409  0.4324  0.9987
 4545SOL     OW25270   3.253   4.207  12.818 -0.2118  0.7997  0.1993
 4545SOL    HW125271   3.186   4.241  12.758 -0.3953 -0.2333 -0.1883
 4545SOL    HW225272   3.217   4.223  12.905 -0.8375 -0.2183  0.1346
 4546SOL     OW25273   2.045   1.937   4.388  0.2076  0.3252  0.3840
 4546SOL    HW125274   2.082   1.973   4.307 -0.8107 -0.4676 -0.4237
 4546SOL    HW225275   1.994   2.011   4.423 -1.3675 -1.3306  1.5601
 4547SOL     OW25276   3.155   1.110   9.435 -0.2752  0.2846 -0.2899
 4547SOL    HW125277   3.100   1.101   9.357 -1.2706 -1.5355  0.6130
 4547SOL    HW225278   3.094   1.150   9.498  0.0631 -1.2511  1.0181
 4548SOL     OW25279   1.364   3.729   7.605 -0.3740  0.0317  0.3604
 4548SOL    HW125280   1.455   3.759   7.594 -1.5429  2.9122 -1.4194
 4548SOL    HW225281   1.373   3.673   7.682  4.6564 -0.2934 -0.4419
 4549SOL     OW25282   0.668   2.367   1.436 -0.0928 -0.0303 -0.0661
 4549SOL    HW125283   0.761   2.342   1.436 -0.0260  0.2378  1.2374
 4549SOL    HW225284   0.667   2.441   1.376 -0.9372  0.1182  0.1389
 4550SOL     OW25285   1.043   3.337   7.422 -1.1517 -0.3510  0.2087
 4550SOL    HW125286   1.083   3.408   7.473 -0.1477  0.0275 -1.1083
 4550SOL    HW225287   1.120   3.297   7.381 -1.0421 -1.2576  1.3024
 4551SOL     OW25288   4.286   1.042  16.868 -0.4321  0.0781  0.1476
 4551SOL    HW125289   4.250   0.953  16.862 -0.0503 -0.0241 -0.6125
 4551SOL    HW225290   4.376   1.029  16.840  0.4201  4.3351  0.9045
 4552SOL     OW25291   1.992   1.511  13.249 -0.5383 -0.0611  0.0339
 4552SOL    HW125292   2.004   1.458  13.328 -0.2380  0.5088  0.3663
 4552SOL    HW225293   1.945   1.582  13.292 -0.5334  0.9397 -1.6122
 4553SOL     OW25294   1.986   1.873   5.076  0.1003 -0.1556  0.5474
 4553SOL    HW125295   1.919   1.876   5.007 -0.2079  0.9132  0.8859
 4553SOL    HW225296   2.043   1.804   5.041  0.3001 -0.1482  0.8621
 4554SOL     OW25297   1.790   2.411   2.905 -0.3790 -0.0174  0.0693
 4554SOL    HW125298   1.874   2.414   2.949 -0.9050  0.9228  1.0220
 4554SOL    HW225299   1.826   2.446   2.823 -0.6291  1.3681  0.5445
 4555SOL     OW25300   0.459   1.427  13.644 -0.1352 -0.3752 -0.3148
 4555SOL    HW125301   0.481   1.519  13.658 -0.2596 -0.8458  3.0629
 4555SOL    HW225302   0.538   1.389  13.682  0.4451  0.7067 -0.4236
 4556SOL     OW25303   2.185   3.675   4.040  0.0693 -0.0099  0.0839
 4556SOL    HW125304   2.178   3.584   4.070 -0.4919  0.4677  1.3670
 4556SOL    HW225305   2.126   3.676   3.964 -0.8876  0.8849  0.8482
 4557SOL     OW25306   2.469   1.955   7.562 -0.0623  0.1403 -0.7770
 4557SOL    HW125307   2.556   1.961   7.524  0.6857 -2.0017  0.6492
 4557SOL    HW225308   2.429   2.031   7.519 -2.0519  0.7886  2.1954
 4558SOL     OW25309   1.329   4.364   6.491 -0.6135  0.0837  0.2954
 4558SOL    HW125310   1.319   4.274   6.524 -1.2855  0.8770  2.2467
 4558SOL    HW225311   1.283   4.356   6.408 -0.8781  0.4748  0.4055
 4559SOL     OW25312   3.024   0.799   5.548  0.8857  0.2386 -0.2969
 4559SOL    HW125313   2.932   0.787   5.572  2.1142 -2.4303  3.1644
 4559SOL    HW225314   3.047   0.870   5.609 -0.6037 -0.0523  0.5905
 4560SOL     OW25315   2.262   2.035   6.924  0.3365 -0.3469 -0.4817
 4560SOL    HW125316   2.323   2.058   6.994  0.5147  0.5259 -0.9226
 4560SOL    HW225317   2.308   1.961   6.885 -2.0125 -1.7931 -0.5738
 4561SOL     OW25318   2.922   1.019   9.902 -0.0960 -0.2094 -0.1397
 4561SOL    HW125319   2.903   0.982   9.988 -3.0573 -1.9439 -1.5354
 4561SOL    HW225320   2.981   1.090   9.926 -1.0242  0.1403  1.1216
 4562SOL     OW25321   1.797   4.553   6.935  0.0442  0.3748  0.5378
 4562SOL    HW125322   1.843   4.495   6.874 -4.1048  0.0097 -2.2599
 4562SOL    HW225323   1.847   4.634   6.932  0.3331  0.1802  0.1065
 4563SOL     OW25324   3.882   2.557  12.759 -0.1585 -0.3673 -0.3908
 4563SOL    HW125325   3.888   2.652  12.756 -0.2940 -0.3158  0.8544
 4563SOL    HW225326   3.794   2.555  12.796  0.1694 -1.8331  0.2910
 4564SOL     OW25327   4.120   4.122  16.255  0.2637 -0.2958  0.3874
 4564SOL    HW125328   4.116   4.048  16.315 -0.8841 -0.2172  0.3999
 4564SOL    HW225329   4.077   4.095  16.174  0.4256  0.4661  0.0390
 4565SOL     OW25330   0.842   3.167   6.499 -0.6962  0.2097 -0.5377
 4565SOL    HW125331   0.876   3.173   6.410 -1.2841  2.2814 -0.6137
 4565SOL    HW225332   0.922   3.138   6.542 -0.8791  1.4748  0.6515
 4566SOL     OW25333   0.110   0.283   7.683 -0.9106  0.0006  0.4215
 4566SOL    HW125334   0.111   0.262   7.777 -0.1356  1.9594  0.8470
 4566SOL    HW225335   0.188   0.234   7.657  0.4215  1.1258  2.3084
 4567SOL     OW25336   0.975   3.139   8.803 -0.3182 -0.4536  0.0986
 4567SOL    HW125337   0.914   3.210   8.783  1.9274  1.4116 -0.1731
 4567SOL    HW225338   0.987   3.150   8.897  0.6821  3.7131 -0.4760
 4568SOL     OW25339   2.817   2.882   6.604 -0.1521  0.2439  0.1316
 4568SOL    HW125340   2.898   2.858   6.650 -1.1463 -1.1501  1.1577
 4568SOL    HW225341   2.776   2.937   6.671  1.7570  2.0828 -0.1961
 4569SOL     OW25342   2.882   2.365   6.298 -0.3118  0.5399  0.5321
 4569SOL    HW125343   2.792   2.385   6.273  0.2346  1.7895 -0.4467
 4569SOL    HW225344   2.934   2.438   6.262  0.1517 -0.8508 -1.6258
 4570SOL     OW25345   1.808   3.559   4.066  0.6904 -0.2109 -0.3758
 4570SOL    HW125346   1.780   3.650   4.052  0.3546 -0.1314  0.8182
 4570SOL    HW225347   1.825   3.566   4.159  1.4594 -0.5745 -0.4905
 4571SOL     OW25348   2.683   0.250   1.102  0.3458  0.1684 -0.1158
 4571SOL    HW125349   2.650   0.166   1.134 -1.1092  0.4519 -0.8854
 4571SOL    HW225350   2.611   0.287   1.052  0.2293  0.4470  0.2595
 4572SOL     OW25351   0.378   3.313   1.573  0.5253  0.3602 -0.4339
 4572SOL    HW125352   0.326   3.392   1.588  0.1037  0.3552 -1.8280
 4572SOL    HW225353   0.361   3.279   1.661 -0.7412  1.9353 -0.0643
 4573SOL     OW25354   0.883   2.853   6.182 -0.3320  0.4502 -0.6981
 4573SOL    HW125355   0.850   2.764   6.189 -0.5239  0.5811  0.1123
 4573SOL    HW225356   0.832   2.895   6.251  0.0935 -0.0027 -0.1160
 4574SOL     OW25357   1.079   3.268   9.464  0.2546  0.1938  0.1191
 4574SOL    HW125358   1.105   3.194   9.519 -0.7260 -0.1844  0.0835
 4574SOL    HW225359   1.055   3.234   9.378 -0.6762  1.8777 -0.2884
 4575SOL     OW25360   2.541   4.370   3.144  0.0172 -0.0888 -0.4173
 4575SOL    HW125361   2.520   4.387   3.235 -0.2869  1.3488 -0.7586
 4575SOL    HW225362   2.632   4.339   3.146  0.5949  1.5919 -0.1755
 4576SOL     OW25363   2.978   1.339   9.734 -0.0598  0.1999 -0.4181
 4576SOL    HW125364   2.952   1.291   9.655  0.9142  0.0149 -0.6245
 4576SOL    HW225365   3.071   1.318   9.738  0.1951  1.4652  0.1558
 4577SOL     OW25366   0.247   2.835   1.450  0.2937 -0.2705 -0.0116
 4577SOL    HW125367   0.246   2.860   1.357 -0.6137 -0.6981 -0.1113
 4577SOL    HW225368   0.313   2.896   1.483 -0.4088 -0.1865  1.2152
 4578SOL     OW25369   4.366   1.979   3.610  0.4617 -0.0387 -0.1997
 4578SOL    HW125370   4.441   1.976   3.670  0.8189  0.2514 -0.6375
 4578SOL    HW225371   4.426   1.990   3.536  1.4663  0.8086  0.7327
 4579SOL     OW25372   1.652   4.125   0.625 -0.2643 -0.5373 -0.1383
 4579SOL    HW125373   1.651   4.092   0.535 -0.3265  0.9751 -0.7039
 4579SOL    HW225374   1.574   4.084   0.660 -0.7734  1.0732  0.6435
 4580SOL     OW25375   0.691   1.953   7.473  0.2297  0.4106  0.3690
 4580SOL    HW125376   0.735   1.873   7.445  0.6755 -0.6276  4.0360
 4580SOL    HW225377   0.670   1.928   7.563  1.5383  0.2750  0.6247
 4581SOL     OW25378   2.247   4.012   4.191 -0.3437  0.2234  0.3156
 4581SOL    HW125379   2.265   4.103   4.170 -1.9886  0.5456  0.2785
 4581SOL    HW225380   2.248   3.983   4.099  1.2512  0.3515  0.2978
 4582SOL     OW25381   3.525   4.613   3.145 -0.0725  0.1178  0.1284
 4582SOL    HW125382   3.599   4.580   3.094  0.7885  0.2839  1.2825
 4582SOL    HW225383   3.459   4.621   3.076  0.9778 -1.1500 -1.0449
 4583SOL     OW25384   3.459   1.224  14.425 -0.4716 -0.2822 -0.2721
 4583SOL    HW125385   3.444   1.157  14.492  0.7808  1.2506  1.5245
 4583SOL    HW225386   3.485   1.175  14.346 -0.7807 -1.4921  0.3787
 4584SOL     OW25387   1.058   0.425  10.807 -0.5852 -0.1853 -0.1678
 4584SOL    HW125388   0.967   0.454  10.800 -0.7087 -0.1814  1.3764
 4584SOL    HW225389   1.096   0.481  10.740  2.4020 -0.9516  0.9095
 4585SOL     OW25390   3.048   3.761   6.850 -0.2447  0.0375 -0.3383
 4585SOL    HW125391   3.020   3.746   6.941  3.0100  2.9264  1.1266
 4585SOL    HW225392   2.969   3.737   6.801  0.0392 -1.5022 -0.0437
 4586SOL     OW25393   2.612   3.885   0.216 -0.3811 -0.2734 -0.2675
 4586SOL    HW125394   2.518   3.906   0.219 -0.5959 -1.2239 -0.5794
 4586SOL    HW225395   2.638   3.945   0.146 -0.0683 -0.6249 -0.4488
 4587SOL     OW25396   3.667   0.049   2.870 -0.2573 -0.1912  0.0978
 4587SOL    HW125397   3.700   4.721   2.932  0.3036 -1.0482 -1.1257
 4587SOL    HW225398   3.589   0.084   2.915 -1.0218 -3.0132  0.9728
 4588SOL     OW25399   2.910   2.958  13.755  0.1002  0.5262  0.3279
 4588SOL    HW125400   2.842   2.956  13.823 -0.1362 -0.6901  0.0663
 4588SOL    HW225401   2.958   3.040  13.765 -1.0095  1.1385  0.6294
 4589SOL     OW25402   3.894   2.085   5.701 -0.7440  0.2658  0.3866
 4589SOL    HW125403   3.842   2.036   5.765  0.4656 -0.8588  0.5149
 4589SOL    HW225404   3.907   2.014   5.637 -2.1395 -1.1818  1.7033
 4590SOL     OW25405   3.340   0.225   2.653 -0.1144 -0.0215  0.4688
 4590SOL    HW125406   3.403   0.294   2.632 -0.0256  0.6926  3.0535
 4590SOL    HW225407   3.337   0.180   2.568  0.6256 -0.9959  0.9530
 4591SOL     OW25408   0.404   1.142   8.065 -0.3382 -0.3051  0.5341
 4591SOL    HW125409   0.462   1.154   8.140 -0.8770  1.0848  0.7337
 4591SOL    HW225410   0.465   1.094   8.009 -0.6194 -1.9553  1.6356
 4592SOL     OW25411   3.995   3.073   1.349  0.1495  0.1714 -0.4607
 4592SOL    HW125412   4.044   3.014   1.291  0.4549  0.6980 -0.7383
 4592SOL    HW225413   4.067   3.134   1.367 -0.5071  0.9576 -0.5098
 4593SOL     OW25414   0.896   4.714   0.039  0.0827  0.3012  0.1719
 4593SOL    HW125415   0.952   0.034  17.738 -1.0701  1.3330  0.0705
 4593SOL    HW225416   0.807   4.728   0.007 -1.1962 -0.6513  3.2367
 4594SOL     OW25417   0.360   2.385   1.187  0.2218 -0.1165  0.2529
 4594SOL    HW125418   0.433   2.431   1.229  1.5224 -1.5368 -0.4220
 4594SOL    HW225419   0.403   2.377   1.102  1.4547  2.6646  0.6174
 4595SOL     OW25420   2.480   2.997  11.757 -0.1051 -0.5385  0.3128
 4595SOL    HW125421   2.392   2.991  11.720  0.4156  1.9717 -1.2928
 4595SOL    HW225422   2.459   3.017  11.848 -2.1848 -0.1071 -0.2610
 4596SOL     OW25423   2.929   2.918   7.339  0.4995 -0.1775 -0.4743
 4596SOL    HW125424   2.972   2.872   7.411  0.4824 -0.2717 -0.5237
 4596SOL    HW225425   3.001   2.979   7.321  0.3948  0.4910  1.3993
 4597SOL     OW25426   2.197   4.235   3.426 -0.0138 -0.2843  0.1619
 4597SOL    HW125427   2.232   4.323   3.411  0.6456 -0.7547 -1.1627
 4597SOL    HW225428   2.251   4.188   3.362 -0.0909 -0.7122  0.4111
 4598SOL     OW25429   0.880   0.787  12.360  0.2141 -0.5525  0.2397
 4598SOL    HW125430   0.931   0.867  12.350 -0.6469 -0.2200 -1.5393
 4598SOL    HW225431   0.787   0.809  12.351  0.3262 -0.3125 -0.3646
 4599SOL     OW25432   1.351   3.222   2.263  0.7795  0.7537  0.1740
 4599SOL    HW125433   1.390   3.139   2.291 -0.2233 -0.3453 -1.6823
 4599SOL    HW225434   1.260   3.196   2.254  0.2460  1.3149  4.1020
 4600SOL     OW25435   2.798   0.245   4.508  0.2247 -0.5354 -0.2305
 4600SOL    HW125436   2.779   0.168   4.563  0.9972  0.5938  1.6115
 4600SOL    HW225437   2.799   0.207   4.420 -0.2497  0.0751 -0.4917
 4601SOL     OW25438   3.153   3.027   5.418 -0.1196  0.5561  0.5886
 4601SOL    HW125439   3.219   2.980   5.367 -0.3204  1.3972 -0.4374
 4601SOL    HW225440   3.197   3.031   5.503  1.5807 -1.5018 -0.1821
 4602SOL     OW25441   1.344   0.654   6.933 -0.9336 -0.1579  0.3202
 4602SOL    HW125442   1.421   0.657   6.876 -1.5617  0.0904 -0.5062
 4602SOL    HW225443   1.341   0.560   6.952 -0.5229  0.2276  2.3261
 4603SOL     OW25444   1.756   3.450   9.332  0.0700 -0.3431 -0.3768
 4603SOL    HW125445   1.727   3.395   9.259  1.5459 -1.1104 -0.3689
 4603SOL    HW225446   1.701   3.431   9.408  0.2130 -0.8494 -0.4000
 4604SOL     OW25447   0.754   3.708  11.731 -0.3309 -0.4499 -0.8154
 4604SOL    HW125448   0.675   3.731  11.780 -1.7576 -1.6977 -2.5285
 4604SOL    HW225449   0.809   3.680  11.805 -0.2494 -0.7601 -0.9952
 4605SOL     OW25450   2.059   2.654  15.102  0.5446  0.0821  0.7320
 4605SOL    HW125451   1.967   2.627  15.100  1.5837 -3.3981 -1.9039
 4605SOL    HW225452   2.054   2.721  15.033  0.9944 -1.3478 -0.6984
 4606SOL     OW25453   2.174   1.843  14.233 -0.4664  0.5428 -0.2336
 4606SOL    HW125454   2.116   1.791  14.288 -1.2918 -1.2842 -2.8373
 4606SOL    HW225455   2.180   1.798  14.149  0.0592 -0.6757  0.4691
 4607SOL     OW25456   3.413   0.139   1.461 -0.0453 -0.1813 -0.0910
 4607SOL    HW125457   3.367   0.064   1.425 -0.0119  0.1088 -0.7435
 4607SOL    HW225458   3.497   0.096   1.475  0.3966  1.4520  2.4644
 4608SOL     OW25459   3.836   2.406   1.256  0.4401 -0.3945 -0.4856
 4608SOL    HW125460   3.891   2.462   1.312  0.4550  1.5808 -2.4929
 4608SOL    HW225461   3.750   2.426   1.294  0.0177  1.0278 -2.2161
 4609SOL     OW25462   0.174   3.220  16.082 -0.2212 -0.3362  0.1331
 4609SOL    HW125463   0.095   3.207  16.028  1.6816 -2.0178 -2.2228
 4609SOL    HW225464   0.231   3.172  16.023  2.2840  0.7697  1.6424
 4610SOL     OW25465   1.062   1.462   1.245  0.1032  0.4425 -0.2609
 4610SOL    HW125466   0.980   1.429   1.208  0.2737  1.9261 -1.9658
 4610SOL    HW225467   1.124   1.448   1.173  0.1571  1.9488 -0.4988
 4611SOL     OW25468   2.582   1.340   4.296 -0.3058  0.0696  0.5780
 4611SOL    HW125469   2.674   1.362   4.286 -0.7870  2.9794  2.4463
 4611SOL    HW225470   2.584   1.270   4.231 -0.7750  1.6486 -1.1440
 4612SOL     OW25471   4.724   2.067   6.936 -0.1020 -0.5661 -0.3686
 4612SOL    HW125472   0.002   2.156   6.967  2.3604 -1.0516 -0.2890
 4612SOL    HW225473   4.701   2.030   7.021  0.3333  1.0427  0.4472
 4613SOL     OW25474   3.857   4.453  16.987 -0.0385 -0.3186  0.1706
 4613SOL    HW125475   3.894   4.383  17.040  0.3860 -1.9108 -2.2333
 4613SOL    HW225476   3.783   4.480  17.042  0.5880 -0.5553  1.1289
 4614SOL     OW25477   0.416   4.107   2.140  0.1458  0.0364 -0.0021
 4614SOL    HW125478   0.380   4.072   2.058 -4.1625  0.5708  1.6836
 4614SOL    HW225479   0.498   4.059   2.152 -0.0704 -0.4299 -0.3691
 4615SOL     OW25480   2.241   1.026   0.598  0.0214 -0.5367 -0.1301
 4615SOL    HW125481   2.277   1.109   0.628  2.2240 -1.8325  0.8485
 4615SOL    HW225482   2.206   1.054   0.513 -1.4702 -0.8729  0.3910
 4616SOL     OW25483   0.326   3.074   7.120  0.4558  0.3978 -0.6276
 4616SOL    HW125484   0.277   3.126   7.057 -0.1218  1.0961  0.4116
 4616SOL    HW225485   0.415   3.077   7.084  0.9580  1.2535  0.6834
 4617SOL     OW25486   0.407   1.382   8.448  0.1809  0.8979  0.5383
 4617SOL    HW125487   0.469   1.447   8.478  1.5263 -0.1109 -0.0741
 4617SOL    HW225488   0.462   1.325   8.394  0.2418  2.3162 -0.8802
 4618SOL     OW25489   1.037   2.294   4.746 -0.3622  0.2006  0.7680
 4618SOL    HW125490   1.031   2.318   4.653 -1.7098  0.5961  0.9583
 4618SOL    HW225491   1.023   2.199   4.736 -0.1675  0.1643  0.8476
 4619SOL     OW25492   3.109   4.559  17.156  0.2945 -0.1931  0.4043
 4619SOL    HW125493   3.017   4.582  17.170  0.1356 -1.1018  0.8303
 4619SOL    HW225494   3.124   4.626  17.090 -0.3560 -0.2059  0.2456
 4620SOL     OW25495   3.413   3.709   7.857 -0.0438  0.1677  0.0886
 4620SOL    HW125496   3.443   3.723   7.767 -0.4300  0.9978  0.0944
 4620SOL    HW225497   3.396   3.615   7.850 -3.1178  0.8119 -1.0539
 4621SOL     OW25498   0.114   1.615   3.929  0.0400  0.5471  0.3349
 4621SOL    HW125499   0.158   1.560   3.864 -0.5328  0.3167  0.1437
 4621SOL    HW225500   0.035   1.561   3.932  0.7846 -0.6834 -2.3245
 4622SOL     OW25501   4.566   2.587   3.003 -0.2796  0.1582  0.1504
 4622SOL    HW125502   4.502   2.579   2.932 -0.5603 -1.6408  0.5810
 4622SOL    HW225503   4.553   2.675   3.036  1.7493  0.6476 -0.3228
 4623SOL     OW25504   4.225   1.545   4.546  0.0408 -0.1874 -0.0401
 4623SOL    HW125505   4.258   1.625   4.504 -4.0942  1.4065 -0.2389
 4623SOL    HW225506   4.239   1.486   4.472 -2.1159 -1.3175  0.4729
 4624SOL     OW25507   3.692   4.278  13.482 -0.0273  0.1924 -0.3809
 4624SOL    HW125508   3.696   4.206  13.419 -1.1341 -1.4065  1.3897
 4624SOL    HW225509   3.610   4.316  13.450  0.7788  0.0056 -2.6454
 4625SOL     OW25510   4.511   3.274  17.730  1.2660 -0.0023 -0.0804
 4625SOL    HW125511   4.434   3.217  17.723  0.3210  1.3170 -0.5477
 4625SOL    HW225512   4.475   3.362  17.741  0.3344 -0.2414 -1.2096
 4626SOL     OW25513   2.565   2.196  11.156  0.2202  0.8347 -0.4204
 4626SOL    HW125514   2.635   2.130  11.153 -0.7028 -0.1433 -0.5529
 4626SOL    HW225515   2.618   2.276  11.152  1.7427 -0.3428 -3.9648
 4627SOL     OW25516   3.389   0.504   1.263  0.1373 -0.0930  0.2965
 4627SOL    HW125517   3.362   0.595   1.276  1.1605  0.4134 -1.1246
 4627SOL    HW225518   3.308   0.457   1.279  0.4681 -0.7468  0.0116
 4628SOL     OW25519   2.587   3.283   7.491  0.3341 -0.5147  0.1707
 4628SOL    HW125520   2.648   3.241   7.430  0.9193 -0.5221  0.7643
 4628SOL    HW225521   2.502   3.272   7.449  0.0550  0.9315  0.3633
 4629SOL     OW25522   4.083   0.341   6.606 -0.2741 -0.6321  0.1375
 4629SOL    HW125523   4.109   0.432   6.594 -0.1444 -0.8047 -0.8563
 4629SOL    HW225524   4.068   0.314   6.515 -0.2010 -0.5011  0.0869
 4630SOL     OW25525   1.150   1.800   3.603 -0.3957 -0.6169  0.2180
 4630SOL    HW125526   1.075   1.855   3.626  0.4921  0.9229 -0.6047
 4630SOL    HW225527   1.137   1.796   3.509 -3.4566 -0.2009  0.6107
 4631SOL     OW25528   2.925   2.021   8.430  0.0969 -0.4965 -0.8972
 4631SOL    HW125529   2.888   1.934   8.419 -1.0969 -0.2764  1.2841
 4631SOL    HW225530   2.992   2.007   8.498 -0.0680 -0.0985 -0.6532
 4632SOL     OW25531   0.607   0.055   6.012 -0.3876 -0.1443 -0.0310
 4632SOL    HW125532   0.534   0.015   5.965  0.3239 -0.4738 -0.8606
 4632SOL    HW225533   0.638   0.126   5.956 -0.7422 -1.2237 -1.6071
 4633SOL     OW25534   3.368   3.350  12.816 -0.4905  0.3005 -0.1343
 4633SOL    HW125535   3.283   3.343  12.772 -0.3230  1.0374 -0.5660
 4633SOL    HW225536   3.347   3.408  12.889  2.3051  0.1350  0.7891
 4634SOL     OW25537   4.448   2.130   8.350 -0.1861 -0.3066  0.4543
 4634SOL    HW125538   4.482   2.218   8.332  1.1213 -0.8201  0.4285
 4634SOL    HW225539   4.355   2.151   8.354 -0.3264 -0.7921 -0.2103
 4635SOL     OW25540   0.482   1.609  15.481 -0.2247  0.5020  0.3106
 4635SOL    HW125541   0.459   1.517  15.468  0.6500  0.0401  2.0056
 4635SOL    HW225542   0.575   1.597  15.499 -0.3670  1.5170  1.6925
 4636SOL     OW25543   3.302   3.668   4.872  0.4203 -0.1552  0.9570
 4636SOL    HW125544   3.208   3.655   4.880 -0.2275  2.9153 -1.3457
 4636SOL    HW225545   3.299   3.736   4.804  0.5031 -2.0308 -0.8968
 4637SOL     OW25546   4.476   2.503   1.111  0.2422 -0.0290  0.0786
 4637SOL    HW125547   4.418   2.565   1.066 -0.8184  0.0648  1.5629
 4637SOL    HW225548   4.546   2.568   1.122 -0.2154  0.0154  2.8114
 4638SOL     OW25549   3.780   4.086   0.803 -0.3448  0.7338  0.0621
 4638SOL    HW125550   3.823   4.080   0.717 -0.2919 -0.3118  0.1638
 4638SOL    HW225551   3.779   4.179   0.823 -0.8247  1.0920 -1.5617
 4639SOL     OW25552   1.681   1.500  11.546 -0.1832  0.7014  0.3189
 4639SOL    HW125553   1.712   1.575  11.495  2.3383 -0.8867 -0.5104
 4639SOL    HW225554   1.660   1.543  11.629  1.7754 -0.2674  1.3166
 4640SOL     OW25555   1.448   3.144  14.692 -0.1258 -0.8659  0.2246
 4640SOL    HW125556   1.504   3.202  14.743  1.0251 -0.8655 -1.0352
 4640SOL    HW225557   1.384   3.206  14.656  0.1159 -0.3174  0.7421
 4641SOL     OW25558   1.520   1.702   8.809 -0.3929 -0.4383 -0.0366
 4641SOL    HW125559   1.446   1.757   8.836 -0.6642 -1.2900  0.9798
 4641SOL    HW225560   1.530   1.656   8.893  1.8064  2.1758  1.1098
 4642SOL     OW25561   1.420   3.945  17.699  0.1733  0.2914 -0.0470
 4642SOL    HW125562   1.457   3.963  17.612  1.7787 -2.3007  0.0863
 4642SOL    HW225563   1.499   3.905  17.734  0.6164 -0.4147 -1.8361
 4643SOL     OW25564   2.088   4.631   5.783 -0.6241 -0.1034  0.0936
 4643SOL    HW125565   2.142   4.708   5.763  2.0479 -2.4208 -1.6565
 4643SOL    HW225566   2.148   4.580   5.838  0.3446  0.4348 -0.4626
 4644SOL     OW25567   2.161   4.198  10.701 -0.2963 -0.3472 -0.3805
 4644SOL    HW125568   2.140   4.232  10.614 -0.0713  0.0793 -0.2689
 4644SOL    HW225569   2.091   4.223  10.761 -1.4751 -0.9508 -1.5166
 4645SOL     OW25570   1.243   2.043   2.039 -0.0413 -0.0266 -0.1438
 4645SOL    HW125571   1.186   1.983   2.087  2.2674 -1.4375  0.8178
 4645SOL    HW225572   1.283   2.082   2.116 -1.0578  0.0806  0.3258
 4646SOL     OW25573   0.176   0.528  12.806 -0.1802  0.0529  0.0258
 4646SOL    HW125574   0.142   0.618  12.805  1.3600  0.6313 -0.1926
 4646SOL    HW225575   0.186   0.515  12.712 -0.5196  0.9976 -0.1446
 4647SOL     OW25576   2.321   0.501   3.948 -0.3005  0.1127 -0.4264
 4647SOL    HW125577   2.411   0.470   3.957 -0.7364 -0.7070  1.1348
 4647SOL    HW225578   2.278   0.485   4.032  0.0360 -1.8567 -0.6211
 4648SOL     OW25579   2.273   3.875  12.159 -0.3814  0.2686  0.4137
 4648SOL    HW125580   2.325   3.816  12.214  0.4861  2.0053  1.4371
 4648SOL    HW225581   2.313   3.959  12.180 -1.8383  0.9972  0.2972
 4649SOL     OW25582   2.184   2.516  11.174 -0.0833 -0.1572 -0.1850
 4649SOL    HW125583   2.209   2.426  11.156 -1.4112 -0.0571 -2.7028
 4649SOL    HW225584   2.248   2.548  11.237 -0.1789 -2.0666  0.8501
 4650SOL     OW25585   4.222   4.412   3.685 -0.3123 -0.2908 -0.4647
 4650SOL    HW125586   4.283   4.485   3.676 -0.3664 -0.4558 -2.0466
 4650SOL    HW225587   4.284   4.347   3.651 -0.3168 -0.4425 -0.1819
 4651SOL     OW25588   1.628   1.333   8.403 -0.1383  0.1291  0.5051
 4651SOL    HW125589   1.711   1.301   8.438  0.4216  0.6522 -0.3317
 4651SOL    HW225590   1.605   1.398   8.469 -1.7775 -0.1850  0.2374
 4652SOL     OW25591   1.692   4.014   7.429 -0.0707  0.1558  0.0070
 4652SOL    HW125592   1.613   4.059   7.457  0.5337  1.1490  0.0891
 4652SOL    HW225593   1.688   4.019   7.333 -2.4844 -2.0539 -0.0017
 4653SOL     OW25594   3.057   0.531   9.755  0.0341  0.1986  0.6270
 4653SOL    HW125595   3.114   0.487   9.817 -0.9956  0.7113  1.9323
 4653SOL    HW225596   3.075   0.620   9.785 -1.0154  1.2902 -1.9809
 4654SOL     OW25597   4.316   3.921   2.993 -0.1869  0.2473 -0.2172
 4654SOL    HW125598   4.387   3.858   2.982  0.2967  0.7534  0.0016
 4654SOL    HW225599   4.347   3.973   3.067 -2.2009  1.1635 -0.0388
 4655SOL     OW25600   3.995   3.466   8.690 -0.0025  0.1406 -0.0357
 4655SOL    HW125601   4.041   3.524   8.751 -2.7603  1.1415  1.1086
 4655SOL    HW225602   4.064   3.400   8.681 -1.4827 -1.6953  2.0677
 4656SOL     OW25603   2.391   2.524  11.348  0.1023  0.0490  0.3514
 4656SOL    HW125604   2.450   2.552  11.279 -0.2586  0.3835  0.1795
 4656SOL    HW225605   2.435   2.563  11.424  1.6468 -2.7347  0.9003
 4657SOL     OW25606   3.392   4.385  13.123  0.0604  0.5543  0.1357
 4657SOL    HW125607   3.449   4.431  13.062 -0.4513 -0.1974 -0.9057
 4657SOL    HW225608   3.309   4.383  13.075  0.0388 -0.8477  0.2449
 4658SOL     OW25609   4.534   0.872   4.382 -0.6050  0.3587  0.0420
 4658SOL    HW125610   4.599   0.815   4.424 -1.4358 -1.5624 -1.2775
 4658SOL    HW225611   4.587   0.950   4.366  0.3329 -0.1651  0.5797
 4659SOL     OW25612   2.444   1.614   7.538  0.1450 -0.2358  0.5932
 4659SOL    HW125613   2.359   1.570   7.534 -0.7396  1.6103 -0.6140
 4659SOL    HW225614   2.494   1.537   7.566 -0.9426 -2.2697 -3.1241
 4660SOL     OW25615   2.207   3.300   0.393 -0.3513  0.1084  0.2129
 4660SOL    HW125616   2.271   3.319   0.324 -0.9121  0.6390 -0.1616
 4660SOL    HW225617   2.250   3.229   0.442 -0.4461  0.5441  0.9207
 4661SOL     OW25618   0.551   4.368   3.550  0.4148 -0.4123 -0.1031
 4661SOL    HW125619   0.593   4.297   3.502  0.6517 -0.3795  0.0519
 4661SOL    HW225620   0.616   4.395   3.615  0.0284  1.8091 -0.6630
 4662SOL     OW25621   2.290   1.617   5.475  0.8459 -0.1419 -0.4721
 4662SOL    HW125622   2.283   1.529   5.512  0.9900 -0.5755 -1.4565
 4662SOL    HW225623   2.205   1.630   5.433  1.2362  0.5097 -1.0730
 4663SOL     OW25624   1.411   4.636  11.904  0.0038 -0.1379 -0.1987
 4663SOL    HW125625   1.399   4.562  11.843  0.6921 -0.0807 -0.3999
 4663SOL    HW225626   1.457   4.679  11.831 -1.6913 -2.6882 -2.8000
 4664SOL     OW25627   3.297   1.724   5.862  0.7821  0.5815 -0.8611
 4664SOL    HW125628   3.293   1.661   5.790  1.4728  0.6540 -0.9604
 4664SOL    HW225629   3.225   1.785   5.845  0.3028 -0.5130 -2.7223
 4665SOL     OW25630   0.357   3.345   2.622 -0.7110  0.7408 -0.0101
 4665SOL    HW125631   0.442   3.378   2.651  1.2344 -2.6384 -1.9737
 4665SOL    HW225632   0.331   3.278   2.686  0.5070  1.3922  1.1561
 4666SOL     OW25633   2.678   2.188   6.520  0.1064 -0.2389 -0.4200
 4666SOL    HW125634   2.688   2.196   6.425 -0.2413 -0.8367 -0.5091
 4666SOL    HW225635   2.653   2.276   6.547 -1.0469 -0.4872 -0.6738
 4667SOL     OW25636   3.754   2.923   1.864 -0.0741  0.2176 -0.1534
 4667SOL    HW125637   3.777   2.869   1.939  1.1850  0.3560 -0.4318
 4667SOL    HW225638   3.660   2.907   1.856  0.1577 -0.8442 -0.7140
 4668SOL     OW25639   1.053   2.902   9.072  0.0822  0.3548 -0.1896
 4668SOL    HW125640   1.105   2.895   8.992 -0.0833  0.1150 -0.2796
 4668SOL    HW225641   1.115   2.849   9.122 -0.0248  0.6561  0.2522
 4669SOL     OW25642   0.066   2.884   0.943  0.0488  0.0643  0.1558
 4669SOL    HW125643   0.040   2.972   0.972 -0.3197 -0.5454  1.6752
 4669SOL    HW225644   0.159   2.896   0.923  0.0633 -0.8444 -0.3061
 4670SOL     OW25645   3.746   2.424   6.065 -0.0028  0.4275  0.1969
 4670SOL    HW125646   3.766   2.517   6.073  0.3093  0.5181 -1.6205
 4670SOL    HW225647   3.793   2.393   5.988 -2.1348  1.6013 -1.5913
 4671SOL     OW25648   1.126   1.581   8.855 -0.4306 -0.5955 -0.2104
 4671SOL    HW125649   1.133   1.648   8.923  0.4972 -0.6898 -0.2089
 4671SOL    HW225650   1.045   1.615   8.816  0.8752  2.0012 -0.6719
 4672SOL     OW25651   1.435   1.877  15.160  0.6312  0.1341  0.1184
 4672SOL    HW125652   1.493   1.866  15.084  1.7724 -0.3649  1.0641
 4672SOL    HW225653   1.363   1.823  15.129  0.1666  0.3234  0.8790
 4673SOL     OW25654   0.470   4.076   9.309 -0.1613  0.3472  0.0387
 4673SOL    HW125655   0.545   4.018   9.292  1.0189  1.5890  0.9713
 4673SOL    HW225656   0.457   4.055   9.401  1.9196  1.0885  0.5205
 4674SOL     OW25657   4.209   3.526   1.996  0.7373 -0.3691  0.1167
 4674SOL    HW125658   4.248   3.601   1.951 -2.0868  0.1873 -1.4050
 4674SOL    HW225659   4.168   3.576   2.067  0.5314  1.0985 -1.0273
 4675SOL     OW25660   0.402   3.116   4.886  0.8233  0.1306  0.5561
 4675SOL    HW125661   0.424   3.070   4.967  1.3443  1.4877  1.2016
 4675SOL    HW225662   0.484   3.162   4.866 -1.5674  4.4871  0.7282
 4676SOL     OW25663   1.383   3.148  17.468  0.2332 -0.5389  0.2546
 4676SOL    HW125664   1.394   3.056  17.490  0.9755 -0.5264 -0.0658
 4676SOL    HW225665   1.463   3.186  17.503  0.5371  0.4465 -1.5324
 4677SOL     OW25666   1.747   3.356  14.377  0.1066  0.4301 -0.3363
 4677SOL    HW125667   1.659   3.352  14.338 -0.3916  1.5981  0.6547
 4677SOL    HW225668   1.781   3.268  14.390 -1.1743  0.2186  1.6719
 4678SOL     OW25669   2.134   2.057   2.179 -0.6230  0.8739  0.3125
 4678SOL    HW125670   2.189   1.991   2.136 -0.1077  1.5709 -0.0966
 4678SOL    HW225671   2.185   2.083   2.255 -1.6164  2.2244  0.5141
 4679SOL     OW25672   1.395   4.054  15.274 -0.2286  0.7509 -0.1566
 4679SOL    HW125673   1.440   4.028  15.193  1.0210 -0.8434  1.0479
 4679SOL    HW225674   1.407   4.149  15.264 -0.1956  0.6032 -1.4756
 4680SOL     OW25675   0.367   3.880  10.913  1.0108 -0.1682 -0.4994
 4680SOL    HW125676   0.305   3.857  10.982  1.4020 -1.4265 -0.5611
 4680SOL    HW225677   0.408   3.794  10.912  0.7958 -0.2797  0.1829
 4681SOL     OW25678   1.744   3.318   1.621  0.3278 -0.3108 -0.1021
 4681SOL    HW125679   1.821   3.294   1.673  2.5361  2.1262 -2.2481
 4681SOL    HW225680   1.689   3.369   1.680 -0.8109  1.2687 -2.5646
 4682SOL     OW25681   0.057   4.393   5.285  0.0615  0.3931  0.7725
 4682SOL    HW125682   0.148   4.422   5.290  0.3372 -0.1221 -1.3131
 4682SOL    HW225683   0.036   4.413   5.377  1.4891 -2.7938  1.8028
 4683SOL     OW25684   1.068   0.911   6.419  0.2732 -0.1216 -0.4239
 4683SOL    HW125685   1.043   0.942   6.505  0.6020 -0.5337 -0.1772
 4683SOL    HW225686   0.988   0.886   6.372  0.8039 -1.4105 -0.6483
 4684SOL     OW25687   3.754   3.597   5.092  0.1273  0.3483  0.1363
 4684SOL    HW125688   3.741   3.633   5.180  0.5743 -2.8764  1.5511
 4684SOL    HW225689   3.769   3.507   5.124  0.6660  0.6666  0.7832
 4685SOL     OW25690   1.207   1.087   3.576  0.2400 -0.3750  0.5665
 4685SOL    HW125691   1.150   1.149   3.530 -0.4937 -1.4403  0.0475
 4685SOL    HW225692   1.259   1.064   3.499 -0.6516 -0.7367  0.0779
 4686SOL     OW25693   4.094   1.411  16.466 -0.3671  0.4220 -0.0399
 4686SOL    HW125694   4.185   1.387  16.449 -0.6168 -1.2423  0.9360
 4686SOL    HW225695   4.094   1.468  16.543 -2.1224  0.3939 -0.0070
 4687SOL     OW25696   3.357   1.038  15.540 -0.4014  0.4449 -0.0778
 4687SOL    HW125697   3.338   1.127  15.570  1.0329  1.1389 -1.2226
 4687SOL    HW225698   3.300   1.025  15.464  1.2860 -4.3046 -0.5517
 4688SOL     OW25699   4.473   3.700  15.053 -0.2164 -0.0887  0.9691
 4688SOL    HW125700   4.455   3.627  15.113  1.1700 -0.5231  0.8720
 4688SOL    HW225701   4.409   3.754  15.099  1.6593  2.3578  0.7375
 4689SOL     OW25702   3.564   0.435  11.531  0.1396  0.0842 -0.2066
 4689SOL    HW125703   3.581   0.527  11.512  2.0303  0.3229  2.5509
 4689SOL    HW225704   3.546   0.397  11.446  0.9662 -0.6034 -0.0718
 4690SOL     OW25705   2.799   3.500  17.155 -0.0148 -0.6390  0.2128
 4690SOL    HW125706   2.715   3.520  17.113 -0.9220 -1.6969  1.4890
 4690SOL    HW225707   2.787   3.537  17.242  1.1083 -1.0720  0.5470
 4691SOL     OW25708   1.530   3.406   4.124  0.7565 -0.7769  0.1334
 4691SOL    HW125709   1.507   3.498   4.137 -0.2588 -0.8064 -1.4252
 4691SOL    HW225710   1.572   3.391   4.209 -0.4089 -0.8269  0.6951
 4692SOL     OW25711   1.059   1.042   2.962 -0.1570  0.3853 -1.0922
 4692SOL    HW125712   0.977   1.086   2.986  1.1997  4.2067 -3.4763
 4692SOL    HW225713   1.054   1.019   2.869 -1.6795  0.6941 -1.0891
 4693SOL     OW25714   0.599   0.666   4.476 -0.3481 -0.0135 -0.0022
 4693SOL    HW125715   0.511   0.629   4.478 -1.1574  1.8680 -0.4162
 4693SOL    HW225716   0.642   0.610   4.541 -1.1253  1.0663  1.4217
 4694SOL     OW25717   1.228   2.426  14.795 -0.1488  0.1333  0.4815
 4694SOL    HW125718   1.166   2.473  14.850  0.7885  0.7071  1.0412
 4694SOL    HW225719   1.279   2.502  14.768  0.2873  0.3249  1.8313
 4695SOL     OW25720   2.923   0.206   6.794  0.4761  0.1460  0.1369
 4695SOL    HW125721   2.834   0.187   6.763  0.1341  1.6687  0.1864
 4695SOL    HW225722   2.899   0.250   6.876 -1.3059  2.4916 -1.6646
 4696SOL     OW25723   3.053   1.864   5.797  0.0210 -0.1290 -0.3462
 4696SOL    HW125724   2.994   1.789   5.785  0.0182 -0.1788 -0.0421
 4696SOL    HW225725   2.997   1.928   5.753  0.5192  0.1011 -0.6337
 4697SOL     OW25726   4.466   0.226  11.387  0.4291 -0.0485  0.4188
 4697SOL    HW125727   4.510   0.150  11.348 -0.3928  1.0092 -2.5497
 4697SOL    HW225728   4.486   0.221  11.480  1.2385 -0.7569  0.2095
 4698SOL     OW25729   1.324   2.979  12.457  0.2321  0.2176  0.6832
 4698SOL    HW125730   1.348   3.031  12.381 -3.4607  0.4306 -0.3240
 4698SOL    HW225731   1.406   2.935  12.478  0.5774 -1.0922 -3.4089
 4699SOL     OW25732   3.642   2.761  16.716  0.4185  0.1695 -0.1745
 4699SOL    HW125733   3.593   2.690  16.757  0.4373 -0.2131 -0.8161
 4699SOL    HW225734   3.600   2.844  16.737 -0.8531 -0.5744  0.2065
 4700SOL     OW25735   2.810   1.373   5.471  0.3133 -0.0313  0.2548
 4700SOL    HW125736   2.721   1.342   5.487  0.7034 -0.7831  0.9727
 4700SOL    HW225737   2.854   1.299   5.430  1.1014 -0.3001  1.6336
 4701SOL     OW25738   3.555   2.568  16.887  1.0658 -0.2542 -0.1543
 4701SOL    HW125739   3.499   2.632  16.931  0.0910 -1.7635  0.7850
 4701SOL    HW225740   3.498   2.492  16.879  1.7699 -0.8437  0.4093
 4702SOL     OW25741   1.921   1.829   2.034  0.5914 -0.2722 -0.4543
 4702SOL    HW125742   1.893   1.740   2.014  0.8140  0.3117 -3.3287
 4702SOL    HW225743   1.923   1.869   1.948  2.5670  0.5137 -0.0484
 4703SOL     OW25744   2.493   2.944  13.619  0.1529  0.4005  0.5599
 4703SOL    HW125745   2.447   3.021  13.586 -3.1470 -1.2385  1.2973
 4703SOL    HW225746   2.566   2.933  13.559 -0.1245  1.9898 -0.0893
 4704SOL     OW25747   1.442   2.097   3.923 -0.0508  0.0564 -0.3783
 4704SOL    HW125748   1.374   2.098   3.856  0.6114  0.0288 -1.0622
 4704SOL    HW225749   1.507   2.165   3.900  0.1956  1.0431  3.2148
 4705SOL     OW25750   2.693   2.930   0.322 -0.2991 -0.3945 -0.2277
 4705SOL    HW125751   2.755   2.917   0.393  1.7981  0.4308 -1.9167
 4705SOL    HW225752   2.727   3.016   0.297  0.0815 -0.8634 -1.3445
 4706SOL     OW25753   0.059   2.062   1.903  0.0960 -0.1132  0.6907
 4706SOL    HW125754   0.073   1.974   1.868 -1.9439 -0.4027  0.5969
 4706SOL    HW225755   0.012   2.093   1.825  0.1334 -0.2618  0.6095
 4707SOL     OW25756   0.584   3.536   2.489  0.1108  0.2850  0.5709
 4707SOL    HW125757   0.501   3.488   2.490 -1.4201  2.8893  0.0764
 4707SOL    HW225758   0.569   3.605   2.554  0.5618  2.9025 -2.0756
 4708SOL     OW25759   0.920   4.098   7.948  0.3598  0.2364 -0.3416
 4708SOL    HW125760   0.914   4.193   7.938  1.1956  0.2399 -0.7525
 4708SOL    HW225761   0.876   4.065   7.870 -0.4171  0.4862 -0.0106
 4709SOL     OW25762   2.663   4.554   7.295  0.4226 -0.1897  0.3885
 4709SOL    HW125763   2.740   4.556   7.238 -0.4243 -2.0545 -0.8334
 4709SOL    HW225764   2.628   4.469   7.267 -1.3343  0.7961 -0.4026
 4710SOL     OW25765   2.278   3.197  10.549  0.6176 -0.0003  0.5953
 4710SOL    HW125766   2.206   3.135  10.554  0.7338 -0.1634  0.2253
 4710SOL    HW225767   2.359   3.146  10.550 -0.4178 -1.6314  0.5376
 4711SOL     OW25768   0.407   1.809   5.005 -0.2262  0.1970 -0.5885
 4711SOL    HW125769   0.466   1.816   4.930  0.1646  0.9078 -0.2103
 4711SOL    HW225770   0.452   1.743   5.057 -0.6800  0.4691  0.1487
 4712SOL     OW25771   3.044   2.365  13.791 -0.1932  0.8732 -0.0243
 4712SOL    HW125772   2.997   2.292  13.749  1.1472 -0.4007  0.6913
 4712SOL    HW225773   2.965   2.402  13.830 -0.7058 -0.9170  0.6449
 4713SOL     OW25774   3.268   3.985   3.591 -0.5401 -0.2637 -0.0614
 4713SOL    HW125775   3.361   3.978   3.569 -0.9924 -1.7910 -1.4598
 4713SOL    HW225776   3.229   4.007   3.507 -1.6501 -0.1851  0.4769
 4714SOL     OW25777   3.932   2.274   7.112 -0.5032 -0.0582 -0.0249
 4714SOL    HW125778   3.976   2.299   7.193 -0.0120 -2.3260  0.4105
 4714SOL    HW225779   3.926   2.363   7.078  0.9144  0.4333  1.0048
 4715SOL     OW25780   0.239   0.274   0.436  0.6862  0.1217 -0.1844
 4715SOL    HW125781   0.288   0.252   0.356  1.3197 -1.4762  0.6464
 4715SOL    HW225782   0.286   0.228   0.505 -1.2522  1.5077  2.0481
 4716SOL     OW25783   2.382   4.531   4.165  0.5006  0.4596  0.1162
 4716SOL    HW125784   2.404   4.624   4.168 -1.6220  0.8563  3.9637
 4716SOL    HW225785   2.471   4.497   4.177  0.1111 -0.3102  0.8322
 4717SOL     OW25786   0.574   0.133   5.072 -0.2001 -0.0512  0.5041
 4717SOL    HW125787   0.494   0.145   5.123  1.4768  1.7978  2.6784
 4717SOL    HW225788   0.642   0.160   5.133  0.0956 -2.1952  1.1366
 4718SOL     OW25789   3.463   4.292   3.622  0.3723 -0.1179  0.3977
 4718SOL    HW125790   3.552   4.324   3.605  0.0778  0.6997  0.3689
 4718SOL    HW225791   3.429   4.322   3.537  3.7715 -0.1655 -0.9981
 4719SOL     OW25792   2.008   1.394  12.973  0.0299  0.5058 -0.4042
 4719SOL    HW125793   2.081   1.456  12.970  0.7792 -0.2748  1.9048
 4719SOL    HW225794   1.972   1.406  13.060 -1.5794  1.5289 -1.2051
 4720SOL     OW25795   1.681   3.987   7.158  0.0557 -0.1553  0.2652
 4720SOL    HW125796   1.660   3.901   7.122  0.0730  0.8258 -2.1488
 4720SOL    HW225797   1.768   3.992   7.119 -0.6004 -2.6290 -1.4961
 4721SOL     OW25798   1.580   1.156   2.912 -0.0651  0.5629  0.6507
 4721SOL    HW125799   1.572   1.130   3.004 -1.8712  0.0593  0.3425
 4721SOL    HW225800   1.489   1.174   2.891 -0.2055 -1.3968 -0.4903
 4722SOL     OW25801   1.216   1.719   3.241 -0.1592  0.6628  0.3387
 4722SOL    HW125802   1.297   1.712   3.292 -2.2832 -0.3922  3.5626
 4722SOL    HW225803   1.194   1.811   3.253  0.0849  0.4179  2.6195
 4723SOL     OW25804   2.570   3.792   8.759  0.0882 -0.3494 -0.3226
 4723SOL    HW125805   2.553   3.868   8.703 -2.8226 -0.3260  0.6376
 4723SOL    HW225806   2.576   3.832   8.846 -2.2103  0.6100 -0.6112
 4724SOL     OW25807   3.404   0.004   7.717  0.0809 -0.4534 -0.4624
 4724SOL    HW125808   3.376   4.667   7.665 -1.5995 -0.2499  0.1327
 4724SOL    HW225809   3.323   0.055   7.718  1.0623  1.1007 -0.8887
 4725SOL     OW25810   0.743   3.667  17.092  0.0602 -0.2004  0.1238
 4725SOL    HW125811   0.648   3.670  17.106  0.3764 -2.2086  2.7706
 4725SOL    HW225812   0.772   3.674  17.183  0.3294 -0.1372  0.0333
 4726SOL     OW25813   1.236   3.151   5.935 -0.1485  0.8705  0.5987
 4726SOL    HW125814   1.231   3.241   5.901 -1.3161 -0.0994 -1.7785
 4726SOL    HW225815   1.218   3.090   5.864  1.8964 -0.5856  1.3257
 4727SOL     OW25816   4.250   2.020  10.815  0.5447  0.0742  0.8329
 4727SOL    HW125817   4.340   2.037  10.843  0.9468  0.1498 -0.4809
 4727SOL    HW225818   4.264   1.981  10.728 -0.3292 -1.5600  1.4447
 4728SOL     OW25819   0.342   4.625   0.654 -0.4203 -0.4447 -0.3457
 4728SOL    HW125820   0.286   4.582   0.590 -2.9277 -0.4386  1.8502
 4728SOL    HW225821   0.411   4.563   0.676  1.3418  1.1623 -1.3464
 4729SOL     OW25822   0.649   2.908   0.987 -0.4043  0.3126 -0.1929
 4729SOL    HW125823   0.648   2.814   0.969 -2.0705  0.1454  0.7861
 4729SOL    HW225824   0.739   2.926   0.958 -0.5042  0.0392 -0.6690
 4730SOL     OW25825   0.664   0.528   5.471 -0.0580  0.2634 -0.3297
 4730SOL    HW125826   0.642   0.438   5.495 -1.9463  0.6077 -0.7860
 4730SOL    HW225827   0.684   0.516   5.378  0.1331 -1.8804 -0.0055
 4731SOL     OW25828   4.500   2.525   3.472  0.6130 -0.7133  0.4102
 4731SOL    HW125829   4.535   2.439   3.496  1.3319 -0.4814  0.1789
 4731SOL    HW225830   4.543   2.538   3.387 -1.5305 -1.7543 -0.8250
 4732SOL     OW25831   3.402   1.274   9.473  0.2904  0.0686 -0.0415
 4732SOL    HW125832   3.337   1.233   9.530 -0.5515  0.5749 -0.6323
 4732SOL    HW225833   3.364   1.361   9.465  0.5662  0.3665  1.9072
 4733SOL     OW25834   3.768   0.038   8.097  0.1253 -0.0085 -0.1292
 4733SOL    HW125835   3.864   0.033   8.094  0.1261 -0.1696  0.1275
 4733SOL    HW225836   3.756   0.124   8.139 -3.0967 -0.9125  0.7710
 4734SOL     OW25837   2.164   1.019   0.880 -0.0148 -0.1681 -0.5520
 4734SOL    HW125838   2.069   1.017   0.886  0.0899 -2.6423  0.3868
 4734SOL    HW225839   2.180   1.010   0.786  0.2052 -3.1710 -0.2375
 4735SOL     OW25840   4.530   2.669   4.004  0.2692  0.4233 -0.1291
 4735SOL    HW125841   4.502   2.583   3.972  1.0130  0.1784 -0.1334
 4735SOL    HW225842   4.580   2.697   3.928  0.4330  0.4781 -0.0008
 4736SOL     OW25843   1.312   1.867  13.596  0.0988 -0.4097 -0.5790
 4736SOL    HW125844   1.302   1.936  13.661 -1.0455 -1.1939  0.0833
 4736SOL    HW225845   1.372   1.805  13.638 -0.6398 -0.7980 -0.0981
 4737SOL     OW25846   1.828   1.483  10.741  0.1857 -0.1068 -0.1119
 4737SOL    HW125847   1.818   1.578  10.738 -0.3134 -0.2282 -2.3562
 4737SOL    HW225848   1.889   1.469  10.814 -1.1993  1.9301  1.4370
 4738SOL     OW25849   3.253   1.187  10.022  0.0552  0.3712  0.3017
 4738SOL    HW125850   3.231   1.160  10.111 -1.5771 -0.1874 -0.2627
 4738SOL    HW225851   3.330   1.134  10.003  1.4427  2.3723  0.4476
 4739SOL     OW25852   4.650   4.279   2.429  0.2643  0.2384  0.6727
 4739SOL    HW125853   4.577   4.340   2.427  2.3871  2.8222  2.0197
 4739SOL    HW225854   4.657   4.233   2.346  0.7784 -0.6137  1.1856
 4740SOL     OW25855   0.340   1.412  11.939 -0.2237  0.0671  0.0026
 4740SOL    HW125856   0.249   1.434  11.958 -1.1120 -1.4485 -2.4332
 4740SOL    HW225857   0.349   1.373  12.025 -0.0646  1.0682  0.4413
 4741SOL     OW25858   1.729   4.582  16.868 -0.0216 -0.1118  0.0005
 4741SOL    HW125859   1.753   4.507  16.814 -0.6659  0.3310 -0.8840
 4741SOL    HW225860   1.682   4.534  16.936 -1.2786 -0.1519 -0.8931
 4742SOL     OW25861   0.148   1.459   6.183 -0.3642  0.1902 -0.1428
 4742SOL    HW125862   0.064   1.495   6.211 -0.3659 -1.5216  2.0245
 4742SOL    HW225863   0.209   1.495   6.248  1.5722  0.1099 -1.8924
 4743SOL     OW25864   0.319   0.228   3.334  0.2345 -0.1446  0.8886
 4743SOL    HW125865   0.227   0.241   3.355  0.3978  3.2390 -0.3273
 4743SOL    HW225866   0.356   0.188   3.412 -0.7674 -2.0859  0.3557
 4744SOL     OW25867   3.115   4.408   6.680 -0.6310 -0.2279  0.2929
 4744SOL    HW125868   3.036   4.357   6.697  0.4889 -1.8638  0.6447
 4744SOL    HW225869   3.167   4.381   6.756  0.1442 -1.9611 -0.8492
 4745SOL     OW25870   0.251   4.190   8.983 -0.1679 -0.4514  0.4946
 4745SOL    HW125871   0.213   4.186   9.071  0.4710 -0.3681  0.7748
 4745SOL    HW225872   0.206   4.122   8.932 -1.2434  1.2848 -0.8704
 4746SOL     OW25873   3.396   3.137   2.275 -0.0323 -0.6443 -0.2220
 4746SOL    HW125874   3.413   3.168   2.364  3.5621  1.9802 -1.8498
 4746SOL    HW225875   3.310   3.168   2.249 -0.0276  0.2299  0.8140
 4747SOL     OW25876   2.048   1.254  12.752  0.2925  0.3220  0.0440
 4747SOL    HW125877   2.027   1.300  12.834 -0.6884 -0.4786  0.2430
 4747SOL    HW225878   2.142   1.244  12.765  0.1016 -2.2535 -0.5689
 4748SOL     OW25879   4.676   2.356   3.968  0.4386 -0.0073  0.1000
 4748SOL    HW125880   4.683   2.322   4.057 -1.2512 -2.7876 -0.8207
 4748SOL    HW225881   4.583   2.359   3.942 -0.0110  0.3829  1.7303
 4749SOL     OW25882   2.815   3.676  10.401  0.5302  0.0322 -0.0055
 4749SOL    HW125883   2.721   3.678  10.418  0.5999 -0.7248  0.4385
 4749SOL    HW225884   2.826   3.767  10.373 -0.1487 -0.2588 -1.2064
 4750SOL     OW25885   2.446   2.306   0.915  0.6354 -0.1600 -0.1340
 4750SOL    HW125886   2.394   2.226   0.926  0.0284 -0.0071 -1.8975
 4750SOL    HW225887   2.534   2.273   0.934  0.1993 -0.2884  1.6259
 4751SOL     OW25888   2.062   3.464   2.751  0.5696  0.0024  0.1208
 4751SOL    HW125889   2.056   3.391   2.689 -2.3575  2.1716 -2.1450
 4751SOL    HW225890   2.032   3.414   2.827  2.0372 -0.2407  0.5487
 4752SOL     OW25891   0.351   2.372   8.763 -0.1951  0.2282 -0.8348
 4752SOL    HW125892   0.304   2.434   8.819  1.0470 -0.2937  0.7822
 4752SOL    HW225893   0.386   2.324   8.838 -0.6845  3.0645  1.1825
 4753SOL     OW25894   2.503   0.489  12.409 -0.2854  0.4602  0.2393
 4753SOL    HW125895   2.558   0.427  12.361 -0.4662  1.4766 -1.2954
 4753SOL    HW225896   2.493   0.446  12.494  1.3911 -1.2578 -0.4180
 4754SOL     OW25897   3.337   3.464   2.410 -0.0083  0.4777 -0.5303
 4754SOL    HW125898   3.421   3.505   2.392  0.0195  0.8940  0.5624
 4754SOL    HW225899   3.274   3.527   2.375 -0.8693  1.0468  1.9780
 4755SOL     OW25900   1.240   1.639   8.041  0.3782 -0.1862 -0.5668
 4755SOL    HW125901   1.199   1.565   7.996 -0.6232 -0.7008  1.1780
 4755SOL    HW225902   1.311   1.658   7.980  1.1360  0.0746  0.4157
 4756SOL     OW25903   0.054   1.185   5.507 -0.4824 -0.0454  0.5357
 4756SOL    HW125904   0.031   1.246   5.437  0.3857 -0.5723 -0.2103
 4756SOL    HW225905   0.117   1.234   5.560 -0.7419  0.7036  0.1560
 4757SOL     OW25906   2.322   3.297  16.982 -0.5959  0.4146  0.4908
 4757SOL    HW125907   2.277   3.376  17.013  0.0365  0.6584  0.7890
 4757SOL    HW225908   2.323   3.317  16.888 -0.0378  0.8606  0.5911
 4758SOL     OW25909   2.017   2.946   2.226  1.1610 -0.2821  0.0752
 4758SOL    HW125910   2.103   2.953   2.184  0.8310  2.0173 -0.2158
 4758SOL    HW225911   2.041   2.883   2.293  0.5345 -0.9271 -0.3141
 4759SOL     OW25912   2.294   4.581   9.581 -0.4316 -0.2137 -0.1939
 4759SOL    HW125913   2.312   4.637   9.656  1.0878  0.3079 -0.9590
 4759SOL    HW225914   2.368   4.594   9.523  0.2133 -2.2336  0.1707
 4760SOL     OW25915   4.719   2.261   0.064  0.2117  0.0932 -0.2706
 4760SOL    HW125916   4.732   2.258  17.719 -0.3402 -0.3021 -0.3297
 4760SOL    HW225917   4.636   2.214   0.071  0.0728  0.1215 -1.6659
 4761SOL     OW25918   3.035   2.590   6.235 -0.0826  0.2812 -0.0500
 4761SOL    HW125919   3.118   2.616   6.194  0.5853 -0.8678  0.5753
 4761SOL    HW225920   2.985   2.671   6.242  0.1409  0.4014  0.1598
 4762SOL     OW25921   2.192   0.302   7.203 -0.0496  0.0378 -0.1001
 4762SOL    HW125922   2.187   0.210   7.175 -0.5394  0.2421 -0.6931
 4762SOL    HW225923   2.097   0.310   7.196 -0.0495  1.0958  1.2180
 4763SOL     OW25924   1.848   0.458  14.860 -0.1408 -0.4286  0.2166
 4763SOL    HW125925   1.820   0.432  14.947 -0.9162 -0.5744 -0.0742
 4763SOL    HW225926   1.823   0.550  14.851  4.0200  0.4604 -1.9718
 4764SOL     OW25927   3.907   3.747   4.911 -0.0994 -0.1924  0.5473
 4764SOL    HW125928   3.833   3.800   4.881  2.3428  2.1972 -1.2242
 4764SOL    HW225929   3.855   3.677   4.951 -0.6116  1.1307  2.1389
 4765SOL     OW25930   2.923   4.570   6.822 -0.1609  0.1640  0.0363
 4765SOL    HW125931   2.845   4.619   6.793  1.1610  0.6079 -2.6895
 4765SOL    HW225932   2.986   4.613   6.765  0.1327  0.3665  0.5066
 4766SOL     OW25933   2.385   4.409   8.718 -0.1704 -0.2580 -0.2031
 4766SOL    HW125934   2.464   4.460   8.736 -0.7428  0.3048  0.7054
 4766SOL    HW225935   2.314   4.468   8.742 -0.4712 -0.9248  0.5178
 4767SOL     OW25936   2.394   3.060   4.018  0.8544 -0.4425  0.2167
 4767SOL    HW125937   2.308   3.025   4.042  1.2904 -0.1012  2.2069
 4767SOL    HW225938   2.380   3.103   3.933  0.2673  0.1105  0.5947
 4768SOL     OW25939   4.616   1.788   6.846  0.5333 -0.2511 -0.3062
 4768SOL    HW125940   4.591   1.842   6.921 -0.4257 -0.6734 -0.3206
 4768SOL    HW225941   4.638   1.858   6.785 -0.6252  0.4794  0.1204
 4769SOL     OW25942   3.401   4.272  15.078  0.2743  0.0980 -0.0536
 4769SOL    HW125943   3.389   4.218  15.000 -1.5485 -0.9970  0.9903
 4769SOL    HW225944   3.311   4.293  15.103  0.2067 -0.9166  0.5730
 4770SOL     OW25945   3.040   1.402   6.590 -0.0732 -0.3110 -0.1325
 4770SOL    HW125946   3.053   1.477   6.648 -2.0072 -0.3896  0.4147
 4770SOL    HW225947   3.028   1.448   6.507 -1.7199  0.0493  0.3004
 4771SOL     OW25948   1.598   3.032   1.794 -0.0575  0.3451 -0.3704
 4771SOL    HW125949   1.673   3.032   1.735  1.8465  1.8069  2.0658
 4771SOL    HW225950   1.636   3.078   1.869 -2.4693 -0.1099  1.1723
 4772SOL     OW25951   2.404   3.311   9.478 -0.4260 -0.4053  0.4744
 4772SOL    HW125952   2.486   3.285   9.520 -0.9280  1.2897  2.5146
 4772SOL    HW225953   2.380   3.229   9.436  0.3929 -1.6934  2.4793
 4773SOL     OW25954   3.265   0.576   2.522  0.2773 -0.7547  0.1643
 4773SOL    HW125955   3.218   0.557   2.603 -2.5910 -1.1873 -1.6323
 4773SOL    HW225956   3.355   0.588   2.552  0.4136 -1.4253  0.0384
 4774SOL     OW25957   1.314   2.665   8.328 -0.9165  0.6654 -0.0340
 4774SOL    HW125958   1.339   2.704   8.412 -0.7062  1.6552 -0.5498
 4774SOL    HW225959   1.306   2.572   8.348  0.8112  1.2872  3.5223
 4775SOL     OW25960   2.548   0.618   5.586 -0.3931 -0.2553 -0.0959
 4775SOL    HW125961   2.527   0.575   5.669  3.0321 -0.1696  0.8155
 4775SOL    HW225962   2.462   0.639   5.550  0.5336  1.1019 -1.5589
 4776SOL     OW25963   0.453   2.995  11.478  0.1465 -0.2739  0.1789
 4776SOL    HW125964   0.527   2.963  11.529  0.9088  0.1732 -0.6631
 4776SOL    HW225965   0.389   2.927  11.498  1.3023 -1.3671  0.1490
 4777SOL     OW25966   2.692   4.676   2.287  0.2823 -0.0337  0.2974
 4777SOL    HW125967   2.755   4.731   2.240 -1.1608  0.1899 -1.3515
 4777SOL    HW225968   2.617   4.687   2.229  0.0954  0.9051  0.7298
 4778SOL     OW25969   3.676   0.280   3.759 -0.0951 -0.0607 -0.5398
 4778SOL    HW125970   3.719   0.201   3.792  1.3508  0.1753 -1.8596
 4778SOL    HW225971   3.686   0.265   3.665  1.7467 -0.9475 -0.1887
 4779SOL     OW25972   4.134   2.502   6.374 -0.1848  0.1715  0.2833
 4779SOL    HW125973   4.146   2.462   6.288  0.1348 -0.3076  0.5487
 4779SOL    HW225974   4.147   2.596   6.359 -0.2652 -0.0085 -0.9097
 4780SOL     OW25975   2.564   0.431  11.586  0.0898  0.1485 -0.6849
 4780SOL    HW125976   2.584   0.366  11.519 -0.3475 -2.0460  1.3385
 4780SOL    HW225977   2.615   0.501  11.545 -1.3091  1.0915 -0.8166
 4781SOL     OW25978   4.390   4.610   3.640  0.2334 -0.4008 -0.2257
 4781SOL    HW125979   4.482   4.621   3.619  0.7414 -0.6252  1.8419
 4781SOL    HW225980   4.376   4.678   3.706 -1.4399 -0.5143 -0.4575
 4782SOL     OW25981   2.831   1.706   5.828  0.4626 -0.5302  0.2039
 4782SOL    HW125982   2.804   1.734   5.740  3.8672 -2.1959 -1.3666
 4782SOL    HW225983   2.775   1.767   5.877  2.6267  0.3809  1.5413
 4783SOL     OW25984   0.530   1.467   8.757  0.4729 -0.1832  0.5728
 4783SOL    HW125985   0.547   1.500   8.846  0.9234  0.7333  0.1497
 4783SOL    HW225986   0.465   1.524   8.716  0.4638 -0.1358  0.6534
 4784SOL     OW25987   1.960   3.632   2.032 -0.0692 -0.5094  0.3086
 4784SOL    HW125988   2.036   3.685   2.055  0.0405 -0.0645 -1.0546
 4784SOL    HW225989   1.923   3.625   2.119 -0.4524  2.0536  0.3471
 4785SOL     OW25990   3.171   4.152   3.391 -0.0606 -0.0966  0.1783
 4785SOL    HW125991   3.219   4.216   3.339  3.5087 -3.3362 -0.5789
 4785SOL    HW225992   3.138   4.093   3.323 -0.4996  2.3030 -1.6589
 4786SOL     OW25993   1.791   3.317   5.592 -0.3668 -1.1303  0.2018
 4786SOL    HW125994   1.884   3.328   5.575 -0.6547  0.2968 -0.4250
 4786SOL    HW225995   1.755   3.337   5.506 -1.3078 -1.0976  0.6029
 4787SOL     OW25996   1.349   2.880  17.147  0.4917  0.7367 -0.1133
 4787SOL    HW125997   1.433   2.925  17.139  0.5370  0.7839  0.6744
 4787SOL    HW225998   1.303   2.929  17.079 -0.4902  0.2957  0.2405
 4788SOL     OW25999   4.716   4.665   3.240  0.7961  0.5007  0.1682
 4788SOL    HW126000   0.032   4.706   3.308 -0.5990  1.9497  0.4083
 4788SOL    HW226001   4.649   4.733   3.232  0.0545 -0.1013  1.3092
 4789SOL     OW26002   2.697   2.734  10.126  0.0011 -0.4591  0.0520
 4789SOL    HW126003   2.657   2.747  10.040 -1.5240 -0.3454  0.7769
 4789SOL    HW226004   2.778   2.783  10.117  0.0222 -0.6189 -0.6268
 4790SOL     OW26005   2.422   3.351  11.178 -0.5098 -0.1447 -0.3643
 4790SOL    HW126006   2.509   3.387  11.161  0.2518 -0.8387  2.0637
 4790SOL    HW226007   2.389   3.320  11.093  1.1937  1.4352 -1.5935
 4791SOL     OW26008   1.517   2.533   8.568  0.0411  0.2696  0.6176
 4791SOL    HW126009   1.574   2.474   8.517 -0.5334  0.8779 -0.7186
 4791SOL    HW226010   1.472   2.460   8.610  2.7213 -2.5395 -1.3238
 4792SOL     OW26011   3.615   2.584   5.409  0.5852  0.4860  0.2838
 4792SOL    HW126012   3.529   2.551   5.435  0.6337 -1.2626 -1.7674
 4792SOL    HW226013   3.681   2.515   5.419 -1.9847 -2.0249 -0.1170
 4793SOL     OW26014   4.245   2.697   8.347 -0.1055 -0.3239  0.1498
 4793SOL    HW126015   4.267   2.625   8.288 -1.6614  0.4847 -1.3929
 4793SOL    HW226016   4.328   2.697   8.395 -0.4619 -0.5822  0.7596
 4794SOL     OW26017   4.609   3.681   4.927 -0.3755  0.8607 -0.4291
 4794SOL    HW126018   4.679   3.725   4.880  0.0928  2.0112  1.3390
 4794SOL    HW226019   4.626   3.595   4.890 -2.2070 -0.0403  0.8171
 4795SOL     OW26020   2.800   0.122   2.081  0.4168 -0.5405 -0.3119
 4795SOL    HW126021   2.750   0.187   2.130 -2.2009 -1.3907 -1.8966
 4795SOL    HW226022   2.879   0.175   2.073  0.2558 -0.2424  0.0870
 4796SOL     OW26023   2.493   4.008   4.658  0.4347 -0.1707  0.0218
 4796SOL    HW126024   2.444   4.018   4.576  2.0421 -2.6008 -1.2183
 4796SOL    HW226025   2.576   3.975   4.624  1.1735  1.7890 -0.0849
 4797SOL     OW26026   3.117   2.199  17.575 -0.4828 -0.5695  0.1934
 4797SOL    HW126027   3.066   2.278  17.556 -3.5753 -2.1807  1.7341
 4797SOL    HW226028   3.063   2.152  17.639  1.3420 -0.7599  1.6063
 4798SOL     OW26029   1.722   0.125  11.905  0.3994 -0.3395  0.0131
 4798SOL    HW126030   1.673   0.183  11.846 -0.9887 -1.8278 -0.3112
 4798SOL    HW226031   1.675   0.130  11.989 -0.5930 -1.0773 -0.4990
 4799SOL     OW26032   1.875   0.293   2.313 -0.8142  0.3732  0.3967
 4799SOL    HW126033   1.838   0.380   2.330 -1.1216  0.2365  0.4381
 4799SOL    HW226034   1.833   0.249   2.388  0.1913  0.9293  1.2722
 4800SOL     OW26035   2.000   3.122  12.192  0.5822  0.3659 -0.0093
 4800SOL    HW126036   1.964   3.053  12.247 -0.2882  1.5040  0.8256
 4800SOL    HW226037   1.920   3.160  12.156  1.6138  3.0307  0.4923
 4801SOL     OW26038   1.808   0.521   5.707  0.0515 -0.3837  0.4502
 4801SOL    HW126039   1.893   0.531   5.750 -1.1244  0.6709  2.5687
 4801SOL    HW226040   1.811   0.596   5.649  0.1826 -0.7334  0.0084
 4802SOL     OW26041   1.266   3.134   5.001  0.1430  0.6717 -0.6610
 4802SOL    HW126042   1.219   3.159   5.081  0.2750  2.1376 -1.0417
 4802SOL    HW226043   1.202   3.080   4.955  0.4973  2.6690 -3.5206
 4803SOL     OW26044   1.873   1.860  16.101 -0.0788 -0.2819 -0.2023
 4803SOL    HW126045   1.960   1.822  16.114  0.9572  1.2047 -2.7936
 4803SOL    HW226046   1.866   1.884  16.009  0.7426  0.5545 -0.0427
 4804SOL     OW26047   2.030   0.260   5.141  0.1395 -0.6897 -0.4035
 4804SOL    HW126048   1.945   0.268   5.097  0.4191  0.3631 -0.7419
 4804SOL    HW226049   2.086   0.309   5.081  0.3826  0.3509  0.6810
 4805SOL     OW26050   4.621   1.068   5.963  0.4105  0.2861  0.3217
 4805SOL    HW126051   4.577   1.020   6.033  0.0219 -0.0328 -0.1328
 4805SOL    HW226052   4.610   0.996   5.901 -1.6900  1.1321 -0.3175
 4806SOL     OW26053   4.280   1.320   0.604  0.3973  0.2691  0.0844
 4806SOL    HW126054   4.235   1.361   0.530  0.2259  1.3411  0.7924
 4806SOL    HW226055   4.353   1.287   0.552 -1.0353  2.2027 -3.1268
 4807SOL     OW26056   1.583   1.039  16.398  0.0061  0.1126 -0.5526
 4807SOL    HW126057   1.519   1.041  16.469  2.2283 -1.6326  1.5153
 4807SOL    HW226058   1.618   1.128  16.395 -0.7452  0.5020  1.8770
 4808SOL     OW26059   2.923   3.193   2.617  0.4571 -0.1468 -0.2451
 4808SOL    HW126060   2.900   3.126   2.681 -1.3820  0.3573 -0.3571
 4808SOL    HW226061   2.921   3.148   2.533  1.5921  0.1047 -0.3996
 4809SOL     OW26062   4.431   0.887  12.937 -0.2049  0.5989  0.6987
 4809SOL    HW126063   4.526   0.897  12.924  0.1860  0.1782  3.1280
 4809SOL    HW226064   4.409   0.970  12.978 -1.4022  0.3707  0.5131
 4810SOL     OW26065   2.297   0.058  13.051  0.6611  0.4177 -0.0127
 4810SOL    HW126066   2.211   0.082  13.016  0.4771  0.9460  0.8008
 4810SOL    HW226067   2.311   4.717  12.999 -0.5706  1.0954 -1.3584
 4811SOL     OW26068   4.383   3.295  12.657 -0.2912  0.2834  0.1098
 4811SOL    HW126069   4.314   3.247  12.611 -1.0380  0.7823  0.7063
 4811SOL    HW226070   4.412   3.230  12.721  0.6262  1.5834  1.0171
 4812SOL     OW26071   1.247   1.387   6.485 -0.1169  0.0532  0.4982
 4812SOL    HW126072   1.268   1.434   6.404 -0.5569  1.1779  1.0399
 4812SOL    HW226073   1.328   1.396   6.536 -0.6947 -0.2908  1.4705
 4813SOL     OW26074   3.369   2.481   7.273  0.2917 -0.0552  0.1219
 4813SOL    HW126075   3.427   2.546   7.311  1.0170 -1.4086  1.3381
 4813SOL    HW226076   3.392   2.412   7.336  0.4352 -0.9986 -0.9589
 4814SOL     OW26077   2.837   3.903   6.540  0.1169 -0.1285 -0.6052
 4814SOL    HW126078   2.843   3.832   6.604  1.4859 -0.3430 -0.9849
 4814SOL    HW226079   2.742   3.916   6.537 -0.2242 -2.6263 -0.5426
 4815SOL     OW26080   2.559   3.163   4.959  0.7551  0.3587  0.2857
 4815SOL    HW126081   2.541   3.228   5.027 -1.9986  1.0820 -1.1396
 4815SOL    HW226082   2.655   3.157   4.966  0.8902  1.8592 -0.1216
 4816SOL     OW26083   1.139   2.901   2.319 -0.5773  0.2543  0.3796
 4816SOL    HW126084   1.092   2.984   2.323  0.4084  0.8497 -0.3932
 4816SOL    HW226085   1.222   2.925   2.359 -1.5188  0.5300  2.1577
 4817SOL     OW26086   1.105   0.217  16.627 -0.1095  0.0327 -0.4273
 4817SOL    HW126087   1.122   0.182  16.540  0.7698  0.4326 -0.4207
 4817SOL    HW226088   1.155   0.298  16.638 -1.7343  0.7616  1.3909
 4818SOL     OW26089   3.506   1.463   9.141  0.0289 -0.2692 -0.1941
 4818SOL    HW126090   3.513   1.524   9.067  2.0941 -0.3177 -0.0236
 4818SOL    HW226091   3.551   1.514   9.208 -0.3904  0.4638 -0.4599
 4819SOL     OW26092   3.982   1.566   2.840  0.0868 -0.0700  0.0429
 4819SOL    HW126093   3.940   1.493   2.885 -0.0913  0.8098  1.3313
 4819SOL    HW226094   4.024   1.615   2.912  0.3384  1.7408 -1.3223
 4820SOL     OW26095   1.015   4.008   8.645 -0.0267 -0.0700  0.2660
 4820SOL    HW126096   1.099   4.051   8.660 -0.2561  0.3673  0.3022
 4820SOL    HW226097   0.966   4.029   8.725  0.9945 -1.9167  1.3772
 4821SOL     OW26098   0.563   0.081   6.292  0.4694 -0.1488  0.3715
 4821SOL    HW126099   0.538   4.726   6.291  1.4457 -0.3589 -4.1035
 4821SOL    HW226100   0.617   0.089   6.213  2.2695 -2.3480  1.3848
 4822SOL     OW26101   1.692   1.427  11.221  0.4208  0.3184 -0.1075
 4822SOL    HW126102   1.606   1.464  11.238  1.5354  2.7081  0.3309
 4822SOL    HW226103   1.690   1.395  11.131 -0.7640  0.0346  0.0235
 4823SOL     OW26104   3.039   2.011   3.296 -0.0676 -0.1029 -0.5015
 4823SOL    HW126105   3.013   2.090   3.344  0.4496 -0.8024  0.9178
 4823SOL    HW226106   3.095   2.047   3.227 -0.8619  0.6089 -0.7779
 4824SOL     OW26107   1.313   3.488  15.009 -0.7227 -0.1049  0.6385
 4824SOL    HW126108   1.381   3.554  15.015 -1.2226  0.4873 -0.2024
 4824SOL    HW226109   1.365   3.411  15.030 -0.7721 -0.3787 -0.2277
 4825SOL     OW26110   1.587   0.351   2.809  0.2071  0.0778 -0.1569
 4825SOL    HW126111   1.497   0.318   2.800  0.6277 -1.8684  2.9003
 4825SOL    HW226112   1.626   0.266   2.829  0.5868  0.3937  0.4371
 4826SOL     OW26113   1.345   1.197   8.459  0.1653  0.4452  0.7210
 4826SOL    HW126114   1.356   1.217   8.366  2.9501 -1.9768  0.5351
 4826SOL    HW226115   1.403   1.262   8.499  0.7137 -0.3717  1.2499
 4827SOL     OW26116   1.033   4.560   2.365 -0.0285  0.0613 -0.1698
 4827SOL    HW126117   1.122   4.542   2.396  0.0402 -0.7566 -0.8403
 4827SOL    HW226118   1.022   4.654   2.377 -0.7186 -0.1731  0.9707
 4828SOL     OW26119   0.817   2.372   1.899 -0.6704  0.0627  0.1181
 4828SOL    HW126120   0.792   2.419   1.819 -1.3317  0.0084  0.2871
 4828SOL    HW226121   0.900   2.411   1.926 -0.3790 -1.8900  1.9949
 4829SOL     OW26122   3.204   0.671   2.072 -0.0990 -0.1084  0.7631
 4829SOL    HW126123   3.130   0.728   2.091  0.6469  0.4629  1.9882
 4829SOL    HW226124   3.199   0.606   2.143  0.3671 -1.1040 -0.1175
 4830SOL     OW26125   2.292   2.262  11.165 -0.2001  0.1426  0.1097
 4830SOL    HW126126   2.384   2.268  11.142 -0.1029  2.0423  0.9456
 4830SOL    HW226127   2.279   2.174  11.199 -0.1616  0.0774 -0.0433
 4831SOL     OW26128   3.864   2.491   8.935  0.0102 -0.4399  0.1592
 4831SOL    HW126129   3.802   2.549   8.979  1.3776  0.8097  0.4701
 4831SOL    HW226130   3.927   2.560   8.910  1.0448 -0.9872  1.2986
 4832SOL     OW26131   2.566   4.172   5.427  0.1332 -0.2323 -0.3018
 4832SOL    HW126132   2.603   4.255   5.460  0.3109 -1.1012  1.6757
 4832SOL    HW226133   2.475   4.199   5.418  0.3321  0.9548  1.1648
 4833SOL     OW26134   3.454   0.057   2.178 -0.2145 -0.0405  0.0890
 4833SOL    HW126135   3.544   0.077   2.203 -0.4336  0.9325  0.1046
 4833SOL    HW226136   3.442   0.112   2.100 -0.8661 -1.1314 -0.5733
 4834SOL     OW26137   3.994   4.337   3.531  0.0838 -0.0932  0.5934
 4834SOL    HW126138   4.055   4.381   3.590 -0.5888  1.9348 -0.2085
 4834SOL    HW226139   4.017   4.378   3.448  2.1323 -3.1802 -0.3812
 4835SOL     OW26140   1.616   3.299  17.297 -0.1270  0.1975  0.3525
 4835SOL    HW126141   1.602   3.280  17.390 -1.8211  0.4480  0.1323
 4835SOL    HW226142   1.710   3.317  17.297 -0.0336 -0.2672  2.0265
 4836SOL     OW26143   0.554   3.260  11.402 -0.3021  0.4087 -0.0297
 4836SOL    HW126144   0.567   3.351  11.376  0.3034 -0.1948 -1.8773
 4836SOL    HW226145   0.620   3.219  11.346 -0.5533 -1.1842  0.8116
 4837SOL     OW26146   3.743   1.079  11.892 -0.3274  0.1981 -0.0061
 4837SOL    HW126147   3.656   1.117  11.882  0.1564  1.1708 -0.5354
 4837SOL    HW226148   3.797   1.152  11.861 -0.3275  0.1450 -0.1305
 4838SOL     OW26149   0.531   2.680  14.728 -0.3659  0.1450 -0.4899
 4838SOL    HW126150   0.484   2.685  14.644 -1.7333  0.4831  0.2956
 4838SOL    HW226151   0.576   2.597  14.714  0.3137  0.2724  1.0295
 4839SOL     OW26152   3.039   4.334  11.103  0.1690 -0.1014 -0.2736
 4839SOL    HW126153   3.052   4.312  11.196 -0.0810 -2.8842 -0.8990
 4839SOL    HW226154   2.946   4.316  11.094 -0.6945  4.7411 -1.1254
 4840SOL     OW26155   1.035   0.596   3.370  0.0695 -0.3392 -0.5077
 4840SOL    HW126156   1.060   0.663   3.434 -1.0159  1.5132 -2.0112
 4840SOL    HW226157   1.114   0.598   3.316  1.5398  4.0849  1.8298
 4841SOL     OW26158   4.584   3.370   7.071  0.1956  0.0067 -0.0905
 4841SOL    HW126159   4.626   3.376   7.156  0.2334 -2.9232  0.0743
 4841SOL    HW226160   4.506   3.317   7.089  1.1628 -1.0800  0.8000
 4842SOL     OW26161   2.870   2.359  10.985 -0.6874  0.4109 -0.7057
 4842SOL    HW126162   2.903   2.271  10.967  3.3395  1.9116 -0.5047
 4842SOL    HW226163   2.855   2.389  10.896  2.6120  0.8397 -1.1051
 4843SOL     OW26164   1.966   3.545  15.279 -0.3609  0.7059 -0.5434
 4843SOL    HW126165   1.959   3.453  15.254 -3.1214  0.6932  0.2860
 4843SOL    HW226166   2.029   3.580  15.216  0.8314 -2.4246 -1.0748
 4844SOL     OW26167   1.067   0.941   4.940  0.1378 -0.6482  0.3834
 4844SOL    HW126168   1.100   0.861   4.983  1.2471  0.8765  2.3784
 4844SOL    HW226169   1.000   0.910   4.880  0.4561 -2.5435  1.0012
 4845SOL     OW26170   0.070   4.218   6.114 -0.5125 -0.0319 -0.1807
 4845SOL    HW126171   0.045   4.129   6.091 -1.3156  0.2577 -0.4350
 4845SOL    HW226172   0.067   4.192   6.206  0.0545 -1.2219 -0.5003
 4846SOL     OW26173   3.862   0.570   7.091  0.4713  0.0041 -0.7521
 4846SOL    HW126174   3.845   0.559   6.998 -0.8837  1.4537 -0.6899
 4846SOL    HW226175   3.936   0.513   7.110 -1.0173 -1.1252  1.8096
 4847SOL     OW26176   2.483   4.259  13.131  0.1539  0.0310  0.0841
 4847SOL    HW126177   2.485   4.312  13.051  0.0076 -1.0053 -0.6102
 4847SOL    HW226178   2.431   4.319  13.184 -2.4071 -0.8722 -1.3572
 4848SOL     OW26179   1.051   2.556   9.503 -0.1202 -0.4904  0.8874
 4848SOL    HW126180   1.051   2.546   9.598  0.8568  0.0034  0.9326
 4848SOL    HW226181   1.130   2.510   9.477 -0.8511 -0.5891 -1.1384
 4849SOL     OW26182   3.788   2.519   3.291  0.0317 -0.0240 -0.4334
 4849SOL    HW126183   3.846   2.447   3.269 -0.3305 -0.4283 -0.0428
 4849SOL    HW226184   3.699   2.492   3.269  0.0080 -1.6279  1.6690
 4850SOL     OW26185   1.632   3.773   0.954 -0.1187  0.7707  0.1556
 4850SOL    HW126186   1.651   3.702   0.893 -1.2974  3.5250 -3.4068
 4850SOL    HW226187   1.668   3.752   1.040 -3.6475  1.7818  1.8917
 4851SOL     OW26188   1.609   3.324   2.653 -0.2619 -0.5465  0.4102
 4851SOL    HW126189   1.686   3.378   2.672  0.3054 -1.0374 -0.4729
 4851SOL    HW226190   1.550   3.358   2.719  0.3914  0.3091  0.5599
 4852SOL     OW26191   2.328   1.019   2.061 -0.2389 -0.3264  0.7380
 4852SOL    HW126192   2.272   0.951   2.098  0.0734 -0.6362  0.6417
 4852SOL    HW226193   2.399   0.972   2.018 -0.7094  2.9767 -3.6643
 4853SOL     OW26194   4.604   2.552  15.467 -0.0855  0.4304  0.3500
 4853SOL    HW126195   4.650   2.574  15.548  0.1525  2.0817 -0.2553
 4853SOL    HW226196   4.598   2.633  15.417 -0.8385 -0.1430 -0.4922
 4854SOL     OW26197   4.433   0.865   9.810  0.0604 -0.3068 -0.1520
 4854SOL    HW126198   4.446   0.779   9.772  0.6182  0.5594 -1.9485
 4854SOL    HW226199   4.471   0.852   9.897  0.4509 -0.8473 -0.4046
 4855SOL     OW26200   2.456   2.299   7.627 -0.1545 -0.1268  0.4244
 4855SOL    HW126201   2.399   2.376   7.618  0.2788  0.1687  0.2073
 4855SOL    HW226202   2.409   2.258   7.701 -1.8967  0.7465 -0.1899
 4856SOL     OW26203   3.846   3.225   7.720 -0.1749  0.5895  0.1695
 4856SOL    HW126204   3.871   3.139   7.754 -2.3745 -0.3489 -0.6111
 4856SOL    HW226205   3.921   3.256   7.668 -1.1955 -0.2947 -1.8427
 4857SOL     OW26206   0.188   1.648   6.384 -0.5447  0.0285  0.0111
 4857SOL    HW126207   0.115   1.700   6.351 -0.7892  0.1649  0.7585
 4857SOL    HW226208   0.177   1.637   6.478 -1.2127 -1.2854 -0.2261
 4858SOL     OW26209   0.600   4.299   2.762  0.0047 -0.0581  0.8738
 4858SOL    HW126210   0.628   4.372   2.706 -1.4018 -0.6593 -0.5970
 4858SOL    HW226211   0.668   4.302   2.830 -0.4801  0.9121  1.3183
 4859SOL     OW26212   3.530   1.103  15.144 -0.4522 -0.0095  0.2795
 4859SOL    HW126213   3.496   1.157  15.216 -1.9120 -0.9880  0.3252
 4859SOL    HW226214   3.488   1.021  15.167 -1.7206  0.0652 -1.8024
 4860SOL     OW26215   3.534   0.580   5.640  0.2486 -0.3109  0.1308
 4860SOL    HW126216   3.484   0.613   5.566  1.7484  1.1184 -0.2559
 4860SOL    HW226217   3.564   0.662   5.679  1.5049 -0.1366 -1.1948
 4861SOL     OW26218   0.273   3.488   1.767  0.5437 -0.7450 -0.3094
 4861SOL    HW126219   0.334   3.526   1.829 -1.8912 -0.1084  1.6999
 4861SOL    HW226220   0.191   3.537   1.775  1.4020  0.6236 -0.1057
 4862SOL     OW26221   3.077   3.527   4.108  0.3443 -0.0201 -0.3868
 4862SOL    HW126222   3.108   3.599   4.053 -1.4416  0.1163 -1.2174
 4862SOL    HW226223   3.120   3.453   4.067 -0.7215 -0.6656 -0.3362
 4863SOL     OW26224   0.888   2.300   8.254 -0.5724 -0.4249 -0.0158
 4863SOL    HW126225   0.961   2.273   8.198 -1.3815 -2.2011 -0.2249
 4863SOL    HW226226   0.922   2.277   8.340 -1.1741 -1.0187  0.0695
 4864SOL     OW26227   2.802   0.698   6.945  0.7128  0.6325  0.1832
 4864SOL    HW126228   2.720   0.690   6.898  0.5647  1.0879  0.3706
 4864SOL    HW226229   2.822   0.791   6.932  0.2134  0.6646 -0.2968
 4865SOL     OW26230   2.297   3.719   6.573 -0.0187  0.6700 -0.0840
 4865SOL    HW126231   2.291   3.778   6.498  0.7789  0.6039 -0.1997
 4865SOL    HW226232   2.283   3.641   6.519  1.9075  0.9727 -1.0263
 4866SOL     OW26233   3.741   4.260   8.052  0.5534 -0.2103  0.1948
 4866SOL    HW126234   3.827   4.218   8.055  0.2863 -0.9083 -2.1387
 4866SOL    HW226235   3.703   4.228   7.970  2.2356 -2.3600  0.2704
 4867SOL     OW26236   1.090   0.760   4.718  0.3407  0.1889 -0.3892
 4867SOL    HW126237   1.087   0.749   4.623  1.7231  0.7432 -0.4921
 4867SOL    HW226238   1.060   0.672   4.741  1.1619  0.0879  0.2808
 4868SOL     OW26239   0.644   1.411   5.051 -0.1492 -0.1661  0.0351
 4868SOL    HW126240   0.641   1.317   5.069 -0.8475 -0.0237  0.6525
 4868SOL    HW226241   0.681   1.410   4.962  0.1901  0.0333  0.1747
 4869SOL     OW26242   2.111   3.489  14.475 -0.5776 -0.3265 -0.0547
 4869SOL    HW126243   2.152   3.404  14.463 -0.2435  0.0017 -1.2286
 4869SOL    HW226244   2.124   3.522  14.386 -0.0303  4.3740  1.7772
 4870SOL     OW26245   2.185   2.866   2.659  0.0816 -0.1660 -1.0059
 4870SOL    HW126246   2.253   2.899   2.718 -2.5597  1.4834  1.1208
 4870SOL    HW226247   2.112   2.849   2.719  2.2456 -0.2714  1.6193
 4871SOL     OW26248   3.654   0.009   2.438  0.0083  0.6135 -0.0430
 4871SOL    HW126249   3.715   4.718   2.370 -0.2663  0.5691 -0.2699
 4871SOL    HW226250   3.593   4.673   2.440  0.9990 -0.3004 -2.8066
 4872SOL     OW26251   0.608   0.465   3.922  0.0999 -0.0391 -0.3260
 4872SOL    HW126252   0.638   0.475   4.012 -1.4793  1.3774  0.0446
 4872SOL    HW226253   0.559   0.547   3.917  0.5305  0.2997  1.0054
 4873SOL     OW26254   3.611   3.731   9.336  0.1701 -0.3526 -0.0576
 4873SOL    HW126255   3.663   3.773   9.268 -0.2944 -0.4775 -0.4865
 4873SOL    HW226256   3.583   3.654   9.287  1.6596  0.2318 -1.8029
 4874SOL     OW26257   4.091   1.060   5.930 -0.6137 -0.1308 -0.3070
 4874SOL    HW126258   4.037   1.139   5.936  0.4115  0.6275 -1.0309
 4874SOL    HW226259   4.131   1.071   6.016  0.4847  0.7375 -0.9258
 4875SOL     OW26260   1.885   4.201  17.537 -0.5506  0.2039 -0.1073
 4875SOL    HW126261   1.830   4.131  17.502  0.6985 -1.1396  0.6348
 4875SOL    HW226262   1.906   4.180  17.628 -0.1185 -1.3516 -0.5671
 4876SOL     OW26263   2.754   1.673   4.136  0.7358 -0.2838 -0.2135
 4876SOL    HW126264   2.779   1.613   4.066  1.3759 -0.0145 -0.2198
 4876SOL    HW226265   2.769   1.615   4.211  1.2728  1.5461  1.0930
 4877SOL     OW26266   0.080   3.891   9.674 -0.0586 -0.2696 -0.0361
 4877SOL    HW126267   0.119   3.819   9.625  0.5978 -0.2042  0.3906
 4877SOL    HW226268   0.086   3.961   9.609  1.2067  0.1712  0.5624
 4878SOL     OW26269   3.760   1.127  15.022  0.8196  0.1016  0.5680
 4878SOL    HW126270   3.671   1.126  15.055  0.7939 -1.8041  0.4221
 4878SOL    HW226271   3.806   1.093  15.099  0.9086  4.2737  2.3371
 4879SOL     OW26272   4.159   1.078  10.078 -0.1933  0.1190 -0.4821
 4879SOL    HW126273   4.146   1.020  10.153 -1.3084  0.4971 -0.3860
 4879SOL    HW226274   4.086   1.139  10.087  0.4431  0.9853 -1.0502
 4880SOL     OW26275   2.723   3.586  14.665  1.0234 -0.3259 -0.3870
 4880SOL    HW126276   2.724   3.681  14.658  2.6142 -0.2572  0.7556
 4880SOL    HW226277   2.644   3.558  14.619 -0.1221  2.5450 -0.1484
 4881SOL     OW26278   0.842   0.685  17.546 -0.4388 -0.0606  0.7833
 4881SOL    HW126279   0.832   0.763  17.492 -0.7508 -1.3680 -1.0754
 4881SOL    HW226280   0.924   0.652  17.510 -0.2436  0.0707  1.1101
 4882SOL     OW26281   0.236   2.523   6.890 -0.2967  0.1945  0.4241
 4882SOL    HW126282   0.254   2.559   6.803 -1.7787 -0.0302  0.0161
 4882SOL    HW226283   0.182   2.595   6.922 -1.0198 -1.1175  2.1495
 4883SOL     OW26284   4.638   2.844  10.611  0.5662 -0.6433  0.0956
 4883SOL    HW126285   4.615   2.913  10.548  1.2205 -0.3860  0.1396
 4883SOL    HW226286   4.617   2.765  10.562 -0.7778 -0.3852  0.2733
 4884SOL     OW26287   1.644   2.280   3.890 -0.0886 -0.4173 -0.5997
 4884SOL    HW126288   1.685   2.230   3.820  1.5075 -1.0873  0.8283
 4884SOL    HW226289   1.658   2.368   3.854 -1.8661  0.6570  1.3066
 4885SOL     OW26290   1.672   1.475  10.534 -0.2024 -0.0072 -0.3709
 4885SOL    HW126291   1.712   1.407  10.480 -0.5727  0.6172 -1.4228
 4885SOL    HW226292   1.730   1.465  10.610 -1.3223  0.4635  0.5429
 4886SOL     OW26293   2.015   4.173   0.025  0.5214  0.2349 -0.1959
 4886SOL    HW126294   2.091   4.138   0.072  0.0674 -1.2587 -0.5924
 4886SOL    HW226295   1.967   4.212   0.098 -1.2721  0.0344 -1.2753
 4887SOL     OW26296   1.766   3.884   9.002  0.1525  0.2895 -0.3559
 4887SOL    HW126297   1.852   3.917   9.027 -0.3260 -1.1041  3.1667
 4887SOL    HW226298   1.767   3.802   9.051 -1.9459 -0.5758 -1.7666
 4888SOL     OW26299   2.128   0.607  10.943 -0.3624  0.2032 -0.0195
 4888SOL    HW126300   2.181   0.618  11.022 -0.4719 -1.1883  0.2455
 4888SOL    HW226301   2.187   0.584  10.871  1.6121  3.3967  0.5846
 4889SOL     OW26302   2.341   3.460   4.880 -0.0669 -0.4796  0.2713
 4889SOL    HW126303   2.294   3.487   4.960 -2.6549  3.2230 -2.4602
 4889SOL    HW226304   2.265   3.428   4.831 -0.6708  0.9593  0.2656
 4890SOL     OW26305   0.635   0.465   7.732 -0.1100 -0.3210  0.6713
 4890SOL    HW126306   0.697   0.516   7.680  1.3644 -1.6970  1.0638
 4890SOL    HW226307   0.697   0.414   7.784  0.7835 -0.5359 -0.5856
 4891SOL     OW26308   4.151   4.538   6.878  0.5451 -0.2019 -0.0760
 4891SOL    HW126309   4.152   4.488   6.796  0.5724  1.1396 -0.8964
 4891SOL    HW226310   4.242   4.534   6.909 -0.7022 -0.2689  3.6069
 4892SOL     OW26311   4.530   1.601  14.388 -0.1515  0.1696 -0.3169
 4892SOL    HW126312   4.466   1.530  14.387  0.1523 -0.1114  0.0767
 4892SOL    HW226313   4.609   1.549  14.374 -1.2876 -0.7112 -3.3087
 4893SOL     OW26314   3.173   1.736   3.707  0.1628 -0.3119  0.0630
 4893SOL    HW126315   3.156   1.725   3.614 -0.0038  1.2168 -0.0882
 4893SOL    HW226316   3.089   1.703   3.740  0.5703 -0.0219  1.4054
 4894SOL     OW26317   1.742   0.798   5.639  0.5897 -0.9701 -0.3432
 4894SOL    HW126318   1.767   0.831   5.725 -1.4386  3.3580 -1.4213
 4894SOL    HW226319   1.796   0.856   5.585  1.8339 -1.6486  0.1616
 4895SOL     OW26320   1.873   1.718   1.214 -0.1867 -0.5204 -0.0377
 4895SOL    HW126321   1.947   1.668   1.179 -0.2002  0.9373 -2.1092
 4895SOL    HW226322   1.796   1.669   1.188  0.2441 -0.4720 -1.3882
 4896SOL     OW26323   4.302   2.855   1.210 -0.2200  0.2217 -0.0732
 4896SOL    HW126324   4.309   2.760   1.217 -1.3947  0.2001  0.7231
 4896SOL    HW226325   4.213   2.861   1.176  0.2379  1.6718 -1.0183
 4897SOL     OW26326   0.283   3.663   3.780 -0.4337 -0.0725 -0.5427
 4897SOL    HW126327   0.240   3.748   3.790 -0.9202 -0.1434 -2.0809
 4897SOL    HW226328   0.218   3.617   3.727 -1.7599  1.3054 -0.1182
 4898SOL     OW26329   3.944   3.982   8.256  0.2475 -0.8150  0.8015
 4898SOL    HW126330   3.928   4.065   8.211 -1.5392  0.3757  3.6399
 4898SOL    HW226331   3.862   3.973   8.305 -0.0961  1.0913  0.5785
 4899SOL     OW26332   2.894   2.822   7.097 -0.4939 -0.3345 -0.1131
 4899SOL    HW126333   2.968   2.869   7.059 -1.4918  2.6460  1.5823
 4899SOL    HW226334   2.893   2.852   7.187  1.3045  0.0325 -0.2058
 4900SOL     OW26335   3.690   3.156   5.401  0.2795 -0.1827 -0.4444
 4900SOL    HW126336   3.613   3.121   5.357  0.3955 -0.4023 -0.4680
 4900SOL    HW226337   3.742   3.076   5.397 -2.3874 -1.8278 -1.9409
 4901SOL     OW26338   0.425   3.874   5.256 -0.1560  0.1297  0.1998
 4901SOL    HW126339   0.463   3.889   5.343 -0.4434  1.7366  0.0360
 4901SOL    HW226340   0.343   3.831   5.280  1.6261 -3.4062 -0.0978
 4902SOL     OW26341   2.631   1.334  10.611  0.2993 -0.3473  0.2620
 4902SOL    HW126342   2.690   1.259  10.625  0.0105 -0.9527 -1.8576
 4902SOL    HW226343   2.603   1.368  10.696 -4.3697  1.0488 -1.8284
 4903SOL     OW26344   2.610   0.496  13.766 -0.2098 -0.3726  0.5463
 4903SOL    HW126345   2.545   0.548  13.813  0.7657  2.1634 -0.8784
 4903SOL    HW226346   2.599   0.525  13.675  2.0357 -1.4426 -0.0599
 4904SOL     OW26347   3.327   1.501   8.840 -0.4341 -0.3857  0.5823
 4904SOL    HW126348   3.360   1.513   8.751 -2.9062  3.0804  0.1226
 4904SOL    HW226349   3.338   1.587   8.880  1.5670 -1.8602  3.1990
 4905SOL     OW26350   4.483   4.256   4.242  0.2622 -0.7649  0.4172
 4905SOL    HW126351   4.571   4.292   4.246  0.2238 -0.9452  2.8376
 4905SOL    HW226352   4.458   4.244   4.333  0.2597 -2.2128  0.2273
 4906SOL     OW26353   1.949   1.316  16.823  0.2334  0.2477 -0.6097
 4906SOL    HW126354   1.964   1.223  16.808  0.1070 -0.4045  3.1888
 4906SOL    HW226355   2.006   1.330  16.898  0.8671 -1.1391 -0.8428
 4907SOL     OW26356   3.992   2.766   8.442  0.1370 -0.1850  1.2484
 4907SOL    HW126357   3.970   2.715   8.520  0.7362 -0.5574  1.1679
 4907SOL    HW226358   4.078   2.730   8.423  0.3686  0.5513  0.9283
 4908SOL     OW26359   3.047   1.874   2.896 -0.3276 -0.0764 -0.2097
 4908SOL    HW126360   3.066   1.846   2.806 -0.2762 -1.4220  0.2144
 4908SOL    HW226361   2.952   1.883   2.891 -0.2716  0.3192 -0.5838
 4909SOL     OW26362   4.507   0.293   6.686 -0.7185  0.0709  0.5223
 4909SOL    HW126363   4.458   0.356   6.738 -0.4731  0.9782 -0.3537
 4909SOL    HW226364   4.583   0.262   6.735  0.9021  2.2050 -0.6625
 4910SOL     OW26365   3.579   0.663   8.515 -0.1982  0.1933  0.7052
 4910SOL    HW126366   3.650   0.683   8.454 -0.4595  1.3383  0.7624
 4910SOL    HW226367   3.600   0.723   8.587 -0.4833  0.9579  0.1608
 4911SOL     OW26368   0.339   4.407   5.376 -0.2539  0.0265  0.0062
 4911SOL    HW126369   0.322   4.314   5.362  1.2573 -0.3243  0.5693
 4911SOL    HW226370   0.346   4.403   5.471 -2.1494  0.1422  0.1556
 4912SOL     OW26371   0.947   4.356  10.940  0.5446 -0.1549  0.1548
 4912SOL    HW126372   1.039   4.381  10.951  0.1581  2.2164 -1.9402
 4912SOL    HW226373   0.920   4.368  11.031 -1.2215  0.2164 -0.4117
 4913SOL     OW26374   2.227   3.610   8.436  0.2543  0.5724 -0.0500
 4913SOL    HW126375   2.321   3.614   8.419  0.2961 -1.0257 -0.1547
 4913SOL    HW226376   2.216   3.573   8.523 -1.8204 -0.7767 -0.8944
 4914SOL     OW26377   1.423   1.687   3.407 -0.2525  0.2724  0.3609
 4914SOL    HW126378   1.442   1.662   3.498  1.7721 -2.5623 -0.8335
 4914SOL    HW226379   1.506   1.659   3.368 -1.2614  0.5976 -2.0020
 4915SOL     OW26380   1.680   2.570   0.343 -0.3257 -0.0383 -0.2813
 4915SOL    HW126381   1.617   2.507   0.309  1.1002 -1.0832 -0.9601
 4915SOL    HW226382   1.620   2.621   0.398 -0.5462 -2.4771  1.7895
 4916SOL     OW26383   0.944   3.256  15.200  0.4044  0.6036 -0.7720
 4916SOL    HW126384   0.987   3.173  15.221 -0.7034  0.2852  0.2183
 4916SOL    HW226385   1.014   3.321  15.203  0.3589  0.7042 -1.8825
 4917SOL     OW26386   3.389   0.001  10.098  0.0220 -0.0355  0.0700
 4917SOL    HW126387   3.346   4.655  10.116  0.9990 -0.6042 -0.2723
 4917SOL    HW226388   3.437   4.733  10.180  0.9904 -0.0853 -0.4990
 4918SOL     OW26389   1.319   4.672   4.299  0.2366 -0.2205 -0.3775
 4918SOL    HW126390   1.313   4.578   4.285  1.1789 -0.0839 -1.7034
 4918SOL    HW226391   1.383   4.697   4.232  1.3755 -0.8996  0.4653
 4919SOL     OW26392   2.931   1.442   3.367  0.0411 -0.3224  0.3892
 4919SOL    HW126393   2.839   1.429   3.347  0.0011 -0.5145  0.7042
 4919SOL    HW226394   2.969   1.474   3.285  2.3603 -0.4202  1.4203
 4920SOL     OW26395   1.867   2.154   4.415 -0.3270  0.0404  0.1153
 4920SOL    HW126396   1.792   2.119   4.368 -1.8087  1.9803  1.0572
 4920SOL    HW226397   1.918   2.193   4.343  0.7343  0.9334  1.3525
 4921SOL     OW26398   0.213   0.155   0.973  0.4005  0.6662 -0.2599
 4921SOL    HW126399   0.244   0.243   0.952  1.4951  0.3639  0.1289
 4921SOL    HW226400   0.166   0.135   0.891 -1.7116 -0.4111  1.2214
 4922SOL     OW26401   4.670   2.433  14.286  0.5922 -0.1440  0.3452
 4922SOL    HW126402   4.705   2.354  14.327  0.7883 -1.1561 -1.7213
 4922SOL    HW226403   0.010   2.485  14.269 -1.3451  2.5782 -0.2375
 4923SOL     OW26404   1.615   3.479   0.498  0.2628  0.6328  0.5903
 4923SOL    HW126405   1.616   3.444   0.409  1.2041  4.8206 -1.0639
 4923SOL    HW226406   1.655   3.400   0.534 -2.7334 -0.4516  1.6067
 4924SOL     OW26407   0.180   2.988   8.094  0.3341  0.1929  0.0307
 4924SOL    HW126408   0.174   2.982   7.998  3.8844 -0.8176 -0.1009
 4924SOL    HW226409   0.270   2.966   8.115  0.4431 -0.7129 -1.3345
 4925SOL     OW26410   3.461   0.112   6.551 -0.4957  0.1392 -0.6369
 4925SOL    HW126411   3.467   0.122   6.646  1.5345  1.1729 -0.8644
 4925SOL    HW226412   3.444   0.019   6.540  0.1496  0.0943 -1.3169
 4926SOL     OW26413   4.138   4.003  11.527  0.1311 -0.5661 -0.3322
 4926SOL    HW126414   4.044   4.002  11.541  0.3470  0.1004  1.2457
 4926SOL    HW226415   4.172   3.995  11.616  2.3809 -0.6915 -1.1926
 4927SOL     OW26416   0.784   3.966   3.109  0.2246 -0.0154  0.5413
 4927SOL    HW126417   0.837   3.963   3.029 -3.6389  0.0216 -2.0127
 4927SOL    HW226418   0.712   4.024   3.087  0.3102 -0.5598 -1.1597
 4928SOL     OW26419   0.164   0.308   2.689  0.8714  0.0743  0.3644
 4928SOL    HW126420   0.111   0.334   2.765 -1.5884 -1.3485 -0.8515
 4928SOL    HW226421   0.194   0.395   2.663 -0.8090  0.7187  0.5502
 4929SOL     OW26422   1.491   1.172   6.705  0.7423 -0.0313  0.1285
 4929SOL    HW126423   1.490   1.124   6.788  0.2706  0.1144  0.2044
 4929SOL    HW226424   1.460   1.109   6.639  0.7028 -1.9912  2.0039
 4930SOL     OW26425   2.664   2.368   4.132 -0.1017 -0.5129  0.0049
 4930SOL    HW126426   2.719   2.290   4.135  1.9147  0.9970  1.8772
 4930SOL    HW226427   2.645   2.378   4.225  0.1479 -0.1774  0.0189
 4931SOL     OW26428   4.700   1.647  15.522 -0.1950 -0.1655 -0.4108
 4931SOL    HW126429   4.736   1.641  15.433  0.2305  0.9128 -0.3110
 4931SOL    HW226430   4.614   1.678  15.493 -1.1286 -0.2299  2.3320
 4932SOL     OW26431   3.056   2.020   6.565 -0.7532 -0.1281  0.1547
 4932SOL    HW126432   2.969   1.993   6.594 -0.7526  0.2179  0.4805
 4932SOL    HW226433   3.046   2.058   6.478 -0.7445 -3.7362 -1.4137
 4933SOL     OW26434   4.442   1.461   1.620 -0.6874  0.2196  0.0872
 4933SOL    HW126435   4.350   1.456   1.645 -0.6376  3.1430  0.8944
 4933SOL    HW226436   4.430   1.488   1.529  2.3699  3.0773  0.5280
 4934SOL     OW26437   1.409   3.191   8.856 -0.7838  0.2941  0.3630
 4934SOL    HW126438   1.357   3.211   8.778 -2.5537 -1.5969  1.0833
 4934SOL    HW226439   1.349   3.213   8.926  0.6956  0.4421  1.5856
 4935SOL     OW26440   0.551   1.671   4.124  0.3848 -0.8796 -0.4605
 4935SOL    HW126441   0.632   1.694   4.080  1.1853  0.2808  1.6081
 4935SOL    HW226442   0.589   1.667   4.212  2.3250 -0.7287 -1.3071
 4936SOL     OW26443   0.840   0.610  11.839 -0.4261  0.1344  0.4522
 4936SOL    HW126444   0.762   0.617  11.895 -1.9689  0.7744 -1.7854
 4936SOL    HW226445   0.803   0.659  11.765 -0.7279 -1.1847 -0.2685
 4937SOL     OW26446   3.405   2.292  12.907 -0.5432  0.6888  0.0150
 4937SOL    HW126447   3.428   2.338  12.988 -0.9026  3.3157 -1.4021
 4937SOL    HW226448   3.471   2.222  12.902 -1.6033 -0.4467  1.7362
 4938SOL     OW26449   0.151   2.864   3.013  0.1312 -0.0913  0.1640
 4938SOL    HW126450   0.159   2.783   3.064 -1.4920  0.5498  1.4135
 4938SOL    HW226451   0.136   2.929   3.082 -0.8794 -0.6792  0.5011
 4939SOL     OW26452   3.459   0.766  16.824 -0.3610 -0.4802 -0.3438
 4939SOL    HW126453   3.436   0.729  16.909  1.1654  0.5000  0.4941
 4939SOL    HW226454   3.493   0.852  16.846 -0.0796 -0.2281 -1.7744
 4940SOL     OW26455   0.185   0.728   8.996  0.4392  0.6417 -1.0676
 4940SOL    HW126456   0.110   0.732   8.935 -0.4226  0.9470  0.0085
 4940SOL    HW226457   0.150   0.685   9.074  0.7210  1.0011 -0.7465
 4941SOL     OW26458   0.713   0.638   7.400 -0.1272  0.3630 -0.4034
 4941SOL    HW126459   0.714   0.677   7.313 -1.0379  1.5534  0.1048
 4941SOL    HW226460   0.671   0.706   7.454 -1.4194 -3.4738  3.4437
 4942SOL     OW26461   1.760   3.371  10.032  0.1760  0.3516 -0.4448
 4942SOL    HW126462   1.805   3.287  10.024 -0.5426  0.1236 -2.2839
 4942SOL    HW226463   1.832   3.433  10.047  0.7406 -0.6459  0.9599
 4943SOL     OW26464   4.164   2.616   1.223 -0.0463 -0.5095 -0.1938
 4943SOL    HW126465   4.100   2.579   1.283  1.1737 -1.3751  0.5696
 4943SOL    HW226466   4.133   2.592   1.136  1.1363  0.4180 -0.8797
 4944SOL     OW26467   3.040   2.913   4.922  0.3120  0.7876 -1.1343
 4944SOL    HW126468   3.021   2.979   4.856 -1.0701  1.5123 -0.0008
 4944SOL    HW226469   3.131   2.940   4.934  0.4290 -0.5778  1.0917
 4945SOL     OW26470   1.853   3.858   9.913  0.8932  0.5838 -0.7722
 4945SOL    HW126471   1.776   3.913   9.896  1.2797  0.4007 -3.0595
 4945SOL    HW226472   1.887   3.838   9.826 -0.9178 -0.8405 -1.1611
 4946SOL     OW26473   1.536   1.234  15.604 -0.2285  0.0678  0.5385
 4946SOL    HW126474   1.521   1.285  15.524 -0.1191  0.6779  0.9038
 4946SOL    HW226475   1.477   1.284  15.661  0.6974 -0.3661  1.8894
 4947SOL     OW26476   3.499   2.104   3.534  1.0091 -0.2481  0.5156
 4947SOL    HW126477   3.543   2.051   3.468  0.5493  0.8672 -0.6843
 4947SOL    HW226478   3.570   2.152   3.576  0.0528  3.8067 -2.5391
 4948SOL     OW26479   4.573   3.110   8.759  0.8284 -0.2324  0.0515
 4948SOL    HW126480   4.551   3.115   8.852  0.6258  1.1030 -0.0612
 4948SOL    HW226481   4.648   3.169   8.757  1.1895 -0.6674  1.2394
 4949SOL     OW26482   1.387   2.905   3.053  0.3453 -0.8215 -0.0598
 4949SOL    HW126483   1.428   2.916   2.967 -0.0943 -1.2727 -0.3250
 4949SOL    HW226484   1.384   2.995   3.084 -0.6023  0.1846 -3.0366
 4950SOL     OW26485   4.046   2.632   8.006  0.4850  0.4017  0.4484
 4950SOL    HW126486   4.063   2.699   8.072 -0.4201 -0.1113  1.2092
 4950SOL    HW226487   4.135   2.602   7.987  0.6698  0.3652  1.3499
 4951SOL     OW26488   3.234   1.813   7.984  0.2534 -0.4085 -0.1064
 4951SOL    HW126489   3.176   1.743   8.013 -0.1398  0.5478  1.3868
 4951SOL    HW226490   3.305   1.819   8.048  0.4182  0.2990 -0.3497
 4952SOL     OW26491   0.988   3.817   6.273  0.8099  0.4053 -0.1355
 4952SOL    HW126492   1.069   3.855   6.239 -0.6356  1.6103 -2.2806
 4952SOL    HW226493   1.008   3.824   6.366 -0.4534 -1.4162  0.2694
 4953SOL     OW26494   3.068   0.073   8.971  0.5641 -0.3497 -0.0229
 4953SOL    HW126495   3.149   0.082   9.021  0.6298 -0.6181 -0.0805
 4953SOL    HW226496   3.044   0.164   8.955 -2.0377 -1.2182 -1.1372
 4954SOL     OW26497   4.690   1.362   7.392 -0.3808 -0.4903  0.4086
 4954SOL    HW126498   4.656   1.277   7.363 -1.6427  0.5866 -1.2526
 4954SOL    HW226499   4.604   1.403   7.404  0.5650  1.2520  1.1800
 4955SOL     OW26500   0.275   0.228  16.447  0.4337  0.4758 -0.4163
 4955SOL    HW126501   0.186   0.260  16.462 -0.2732 -0.7502 -1.9207
 4955SOL    HW226502   0.322   0.245  16.528  0.1708  1.6523 -0.5113
 4956SOL     OW26503   2.630   1.980   8.492 -0.5517 -0.3981  0.7162
 4956SOL    HW126504   2.545   1.936   8.500 -0.1950 -1.4452 -1.2875
 4956SOL    HW226505   2.671   1.901   8.455 -1.5261 -0.7219  0.3260
 4957SOL     OW26506   4.209   1.438   9.428  0.1015 -0.2632  0.1506
 4957SOL    HW126507   4.115   1.435   9.408  0.4025  2.0585 -1.5897
 4957SOL    HW226508   4.209   1.506   9.495 -1.2505  1.5778 -1.7173
 4958SOL     OW26509   4.039   1.851  10.906 -0.1218  0.3399  0.4405
 4958SOL    HW126510   4.103   1.906  10.860  0.7294 -2.2537 -1.4532
 4958SOL    HW226511   3.975   1.850  10.835  0.1402 -1.3041  0.2231
 4959SOL     OW26512   1.368   4.326  15.827  0.1879 -0.2396  0.2042
 4959SOL    HW126513   1.358   4.346  15.920  0.8611  4.2388 -0.7052
 4959SOL    HW226514   1.275   4.314  15.808  0.3276 -1.4546  0.2287
 4960SOL     OW26515   3.711   4.331   7.618 -0.1486 -0.0978 -0.2494
 4960SOL    HW126516   3.741   4.302   7.532  1.6151  0.6602  0.0979
 4960SOL    HW226517   3.790   4.299   7.662  1.0169  1.1621 -1.3989
 4961SOL     OW26518   1.560   3.540   7.387  0.1877 -0.1472  0.3297
 4961SOL    HW126519   1.618   3.472   7.424  0.0103  0.5055  1.8095
 4961SOL    HW226520   1.583   3.604   7.454  0.9622  0.0668 -0.1439
 4962SOL     OW26521   1.827   1.622   2.609 -0.2028  0.9145  0.4714
 4962SOL    HW126522   1.857   1.584   2.692 -1.5656  1.6689  1.3045
 4962SOL    HW226523   1.767   1.694   2.627  0.4328  1.1304  1.7392
 4963SOL     OW26524   4.134   1.925   5.835 -0.6198 -0.3680  1.0126
 4963SOL    HW126525   4.140   1.876   5.753 -0.0317 -0.9770  1.4270
 4963SOL    HW226526   4.039   1.922   5.846 -0.7339 -0.0174  0.1982
 4964SOL     OW26527   3.670   3.313   0.308 -0.0345 -0.1397 -0.0309
 4964SOL    HW126528   3.651   3.230   0.264 -1.7044  0.4560 -0.4528
 4964SOL    HW226529   3.763   3.327   0.289  0.3851  1.6770  3.3917
 4965SOL     OW26530   0.694   1.237   0.412  0.1767 -0.3450  0.0845
 4965SOL    HW126531   0.700   1.321   0.367 -0.1721 -1.4117 -1.9628
 4965SOL    HW226532   0.776   1.191   0.395  0.6512 -0.1476  1.9096
 4966SOL     OW26533   4.082   0.677   4.344  0.0235  0.1015 -0.1551
 4966SOL    HW126534   4.027   0.680   4.423 -1.1572 -0.9215 -0.9453
 4966SOL    HW226535   4.157   0.732   4.368  0.2060 -0.1751 -0.0961
 4967SOL     OW26536   0.340   1.545  10.996  0.2118 -0.5326  0.4604
 4967SOL    HW126537   0.412   1.522  11.055  0.0739 -1.8144  0.1293
 4967SOL    HW226538   0.272   1.480  11.008  0.6632 -0.6571  2.3768
 4968SOL     OW26539   3.900   4.064   1.343  0.2233 -0.7607 -0.1574
 4968SOL    HW126540   3.980   4.019   1.370  0.1885 -0.3846  0.5628
 4968SOL    HW226541   3.885   4.124   1.416  1.0158  0.2687 -0.8296
 4969SOL     OW26542   4.229   2.265   2.093 -0.0889  0.3730  0.1445
 4969SOL    HW126543   4.197   2.179   2.122  0.4093 -0.1036 -0.7047
 4969SOL    HW226544   4.152   2.298   2.046 -1.1362 -1.5288  0.5303
 4970SOL     OW26545   2.505   1.412   8.109 -0.0035 -0.0390  0.0198
 4970SOL    HW126546   2.410   1.421   8.118 -0.0865 -0.5540 -0.3464
 4970SOL    HW226547   2.517   1.354   8.034  2.7819 -0.0417  0.4711
 4971SOL     OW26548   1.562   3.461   9.524  0.1439  0.3159 -0.6420
 4971SOL    HW126549   1.484   3.488   9.475 -0.9327 -1.6291 -0.0150
 4971SOL    HW226550   1.585   3.549   9.553 -2.6124  0.9755 -0.4199
 4972SOL     OW26551   4.369   2.722   6.155 -0.6337  0.2759  0.1230
 4972SOL    HW126552   4.275   2.721   6.177 -0.6774 -2.2221 -0.1972
 4972SOL    HW226553   4.402   2.727   6.244 -1.2325  0.4342  0.3336
 4973SOL     OW26554   1.049   1.044   3.797  0.2951  0.2645  0.2999
 4973SOL    HW126555   0.968   1.036   3.747 -0.2687 -1.2987  1.4887
 4973SOL    HW226556   1.107   1.084   3.732 -0.2948  0.9849  0.2174
 4974SOL     OW26557   2.847   1.908   9.657 -0.3937 -0.5430 -0.1618
 4974SOL    HW126558   2.903   1.831   9.658  2.0339  1.2387  1.1289
 4974SOL    HW226559   2.875   1.956   9.735  0.3722 -2.0933  0.5153
 4975SOL     OW26560   4.336   1.643   3.087  0.4566  1.0182  0.2494
 4975SOL    HW126561   4.267   1.701   3.120 -1.0566 -0.2644 -0.6795
 4975SOL    HW226562   4.372   1.692   3.013 -0.9889  1.7613  0.0536
 4976SOL     OW26563   2.035   0.768  13.218 -0.1853  0.1782  0.0199
 4976SOL    HW126564   2.099   0.830  13.185  0.0756 -0.1912 -0.1657
 4976SOL    HW226565   1.996   0.810  13.295  2.9782 -0.5697  2.0109
 4977SOL     OW26566   4.215   2.210   7.798  0.6263 -0.4638 -0.3959
 4977SOL    HW126567   4.124   2.194   7.774  0.9316 -0.5022 -1.5125
 4977SOL    HW226568   4.223   2.204   7.894  2.2067 -2.7778 -0.6484
 4978SOL     OW26569   1.717   3.116   7.557 -0.9181 -0.3559 -0.4940
 4978SOL    HW126570   1.703   3.119   7.652 -0.1410  1.1508 -0.4302
 4978SOL    HW226571   1.631   3.134   7.519 -1.0806 -0.2205 -0.0686
 4979SOL     OW26572   3.930   0.249   7.763 -0.0103 -0.0326  0.8392
 4979SOL    HW126573   3.950   0.298   7.842 -0.1007  0.9674  0.2417
 4979SOL    HW226574   4.016   0.221   7.732 -0.1062  0.5476  0.0304
 4980SOL     OW26575   1.285   3.425  14.283  0.3816  0.8360 -0.4832
 4980SOL    HW126576   1.240   3.495  14.235  1.7915  1.7145 -0.5297
 4980SOL    HW226577   1.259   3.353  14.225 -1.1313  0.6041  0.4758
 4981SOL     OW26578   2.301   2.658   9.222 -0.7634  0.4705 -0.5081
 4981SOL    HW126579   2.208   2.681   9.209 -1.0480 -0.6502 -0.4831
 4981SOL    HW226580   2.279   2.567   9.240 -0.8296  0.9210  1.5978
 4982SOL     OW26581   2.391   3.795   4.308 -0.3900 -0.5239  0.8347
 4982SOL    HW126582   2.482   3.822   4.309 -0.2384 -0.9928 -0.2856
 4982SOL    HW226583   2.351   3.867   4.260  0.5856  0.1147  0.9952
 4983SOL     OW26584   4.098   0.472  17.039 -0.5461  0.1061 -0.2792
 4983SOL    HW126585   4.004   0.465  17.022 -0.5233 -1.3064  0.1802
 4983SOL    HW226586   4.131   0.391  16.999 -2.3980  0.6102 -2.8741
 4984SOL     OW26587   0.396   2.919  16.752  0.1157  0.2708  0.5874
 4984SOL    HW126588   0.311   2.924  16.798 -0.1696 -1.1035  0.2091
 4984SOL    HW226589   0.370   2.907  16.661  2.8598 -0.1819 -0.1303
 4985SOL     OW26590   1.012   4.369   4.717 -0.1889 -0.2393  0.3824
 4985SOL    HW126591   1.000   4.419   4.798  1.7494  1.9716 -0.7046
 4985SOL    HW226592   0.961   4.290   4.730 -0.9823  0.3056  0.5916
 4986SOL     OW26593   1.624   2.107   6.275 -0.1723  0.6196 -0.5882
 4986SOL    HW126594   1.601   2.163   6.202 -0.0710 -0.5986 -1.5522
 4986SOL    HW226595   1.557   2.039   6.280  0.5439 -0.1020 -0.7628
 4987SOL     OW26596   0.192   2.749   6.452 -0.4787  0.0979  0.1018
 4987SOL    HW126597   0.143   2.669   6.434  0.4979 -0.7814  1.3161
 4987SOL    HW226598   0.125   2.816   6.437 -0.4792  0.8841  3.5781
 4988SOL     OW26599   4.087   2.475   7.488  0.8119 -0.1035  0.3754
 4988SOL    HW126600   4.105   2.561   7.523  1.5512 -1.4833  3.3499
 4988SOL    HW226601   4.084   2.506   7.397  0.5658  0.0933  0.4512
 4989SOL     OW26602   2.006   3.923   6.254  0.3651 -0.1250 -0.6479
 4989SOL    HW126603   2.074   3.911   6.320 -0.7803  2.0376  0.9578
 4989SOL    HW226604   2.018   3.839   6.211 -0.5371  0.4406 -2.0212
 4990SOL     OW26605   0.912   4.108   7.000  0.2425  0.1781  0.2748
 4990SOL    HW126606   0.985   4.072   6.949 -0.3662  0.9082 -1.1099
 4990SOL    HW226607   0.941   4.198   7.013  0.2626 -0.1634  2.6018
 4991SOL     OW26608   3.627   0.441   1.877  0.3532 -0.0081 -0.2285
 4991SOL    HW126609   3.577   0.380   1.932 -1.5569  2.4366  0.7595
 4991SOL    HW226610   3.664   0.503   1.940  0.7949 -0.3112 -0.1899
 4992SOL     OW26611   4.541   3.869   8.883  0.2643 -1.0399 -0.1357
 4992SOL    HW126612   4.576   3.812   8.816  1.1282  0.0158 -0.5854
 4992SOL    HW226613   4.600   3.837   8.951 -0.2098  0.7057  1.0902
 4993SOL     OW26614   0.470   1.016  10.500 -0.1269  0.3467  0.2149
 4993SOL    HW126615   0.420   1.096  10.484  0.2951  0.6896  0.5895
 4993SOL    HW226616   0.538   1.050  10.559  0.4410  0.5801 -0.5685
 4994SOL     OW26617   2.476   1.631   9.544  0.1976 -0.1841 -0.1917
 4994SOL    HW126618   2.457   1.553   9.492 -1.7036 -0.5964  1.1248
 4994SOL    HW226619   2.525   1.685   9.481 -0.9627  1.0373 -0.0616
 4995SOL     OW26620   0.540   2.687   8.338 -0.4177 -0.6025 -0.1238
 4995SOL    HW126621   0.546   2.592   8.328 -1.5192 -0.5210 -1.5938
 4995SOL    HW226622   0.616   2.708   8.285 -0.1775  1.7801  1.1668
 4996SOL     OW26623   3.522   1.012   5.177  1.0310 -0.1652 -0.3708
 4996SOL    HW126624   3.529   1.023   5.272  2.7530  0.0917 -0.5349
 4996SOL    HW226625   3.562   0.926   5.163  0.4655 -0.1585 -1.9645
 4997SOL     OW26626   3.095   2.799  15.070 -0.2341 -0.1782 -0.2386
 4997SOL    HW126627   3.121   2.860  15.001 -1.2658 -0.4141 -0.8279
 4997SOL    HW226628   3.039   2.741  15.018 -0.3007 -2.1315  2.0287
 4998SOL     OW26629   4.170   1.359   7.087 -0.0129 -0.4758  0.0521
 4998SOL    HW126630   4.083   1.398   7.073  2.0495  4.0448 -0.3180
 4998SOL    HW226631   4.218   1.441   7.099  0.5540 -0.7773 -0.1614
 4999SOL     OW26632   3.627   0.620   4.216  0.1503 -0.5009  0.1147
 4999SOL    HW126633   3.661   0.577   4.137  0.0428  1.5563 -1.0665
 4999SOL    HW226634   3.608   0.545   4.272  0.1394 -0.3661  0.2921
 5000SOL     OW26635   1.557   4.552   7.040  0.2825  0.3414  0.3746
 5000SOL    HW126636   1.529   4.611   6.970 -1.4886 -1.2637 -0.2407
 5000SOL    HW226637   1.651   4.555   7.021  0.8759 -0.3983  3.1228
 5001SOL     OW26638   0.718   3.631   9.367 -0.2505 -0.4355  0.4466
 5001SOL    HW126639   0.673   3.585   9.296 -0.2159  0.4668 -0.1633
 5001SOL    HW226640   0.806   3.592   9.369  0.7601  1.8353 -0.2047
 5002SOL     OW26641   1.107   3.985   2.526  0.7023 -0.3285  0.3620
 5002SOL    HW126642   1.124   3.897   2.560 -3.1227 -0.5382  1.7543
 5002SOL    HW226643   1.098   4.046   2.599 -0.4772  0.1105 -0.1485
 5003SOL     OW26644   4.358   3.500   8.175 -0.6303 -0.3383 -0.2149
 5003SOL    HW126645   4.330   3.485   8.265  0.4251  1.1213  0.3423
 5003SOL    HW226646   4.302   3.439   8.126 -0.9820 -1.4141  1.5277
 5004SOL     OW26647   1.420   2.446   5.167 -0.0170  0.6697 -0.2065
 5004SOL    HW126648   1.417   2.389   5.090  4.0155  0.6078 -0.3053
 5004SOL    HW226649   1.333   2.485   5.169 -0.7509 -1.0198  0.9835
 5005SOL     OW26650   0.562   2.195   4.976 -0.0049 -0.0683 -0.0949
 5005SOL    HW126651   0.589   2.153   4.894  1.0808  0.9594 -0.2569
 5005SOL    HW226652   0.603   2.281   4.972 -0.8086  0.2642 -1.4590
 5006SOL     OW26653   1.524   1.665   3.018 -0.1999  0.4483  0.0999
 5006SOL    HW126654   1.485   1.579   3.030  0.5604 -0.2139 -2.2063
 5006SOL    HW226655   1.508   1.667   2.924  1.3246 -2.7797 -0.1864
 5007SOL     OW26656   4.626   4.351   9.460  0.3646  0.4713  0.3663
 5007SOL    HW126657   4.644   4.332   9.552 -1.5985 -0.0592  0.6523
 5007SOL    HW226658   4.693   4.418   9.448  1.3534 -0.8024 -1.2040
 5008SOL     OW26659   0.898   3.133   2.451 -0.6454 -0.3219  0.2572
 5008SOL    HW126660   0.817   3.178   2.473 -0.4625  0.1789 -0.0882
 5008SOL    HW226661   0.863   3.077   2.383  0.9308  0.4153 -1.1651
 5009SOL     OW26662   0.580   1.203   4.461 -0.0561 -0.5047  0.2908
 5009SOL    HW126663   0.628   1.185   4.380 -0.3017  1.1852 -0.2192
 5009SOL    HW226664   0.492   1.210   4.422  0.6911 -0.3143 -1.3665
 5010SOL     OW26665   0.687   2.354   5.260 -0.1494 -0.0232 -0.5862
 5010SOL    HW126666   0.624   2.356   5.331 -0.5674  0.1305 -0.9655
 5010SOL    HW226667   0.717   2.263   5.263  0.9662  0.3926  1.2103
 5011SOL     OW26668   0.416   0.932   6.245 -0.7419  0.4696  0.2604
 5011SOL    HW126669   0.436   0.876   6.320 -0.7886 -0.0897 -0.1406
 5011SOL    HW226670   0.341   0.982   6.276 -0.0916  1.2888  0.5078
 5012SOL     OW26671   0.867   2.769   8.879 -0.2055 -0.3027 -0.5683
 5012SOL    HW126672   0.950   2.815   8.867  1.4849 -3.1277  0.3812
 5012SOL    HW226673   0.821   2.846   8.911  0.8129  0.0120  0.1428
 5013SOL     OW26674   2.098   1.893   1.215 -0.6633 -0.7012  0.1086
 5013SOL    HW126675   2.106   1.963   1.149  0.0452  0.0847  1.0225
 5013SOL    HW226676   2.004   1.880   1.228 -0.6864 -1.2934 -0.7270
 5014SOL     OW26677   2.418   4.668   4.966  0.5648  0.3319 -0.3202
 5014SOL    HW126678   2.362   4.602   4.925 -2.1236  1.3487  1.6882
 5014SOL    HW226679   2.435   4.640   5.056 -1.3406  1.2875  0.3462
 5015SOL     OW26680   4.227   2.933   6.972 -0.2298  0.6258 -0.0322
 5015SOL    HW126681   4.146   2.979   6.949  0.2413  1.4231 -0.0946
 5015SOL    HW226682   4.217   2.920   7.066 -1.2365 -4.4866 -0.8436
 5016SOL     OW26683   2.369   2.318   3.268  0.1257 -0.2575 -0.0916
 5016SOL    HW126684   2.396   2.234   3.305 -1.3656  0.1498  1.9173
 5016SOL    HW226685   2.275   2.305   3.273  0.3023 -2.0711 -1.5733
 5017SOL     OW26686   2.077   4.542   8.365  0.0878  0.5102 -0.2262
 5017SOL    HW126687   2.092   4.500   8.450  1.9104 -0.4013 -1.0050
 5017SOL    HW226688   2.084   4.633   8.393  2.5481  0.5802 -1.0515
 5018SOL     OW26689   0.380   3.474   5.093 -0.1100  0.1768  0.2255
 5018SOL    HW126690   0.352   3.477   5.002  1.2607  0.7438 -0.1741
 5018SOL    HW226691   0.304   3.498   5.146 -0.6148 -2.4499  0.7378
 5019SOL     OW26692   0.149   4.602  10.484 -0.0954 -0.6690 -0.4017
 5019SOL    HW126693   0.095   4.626  10.560 -2.0309  1.2450 -2.3746
 5019SOL    HW226694   0.225   4.571  10.533  1.2955  1.9574 -0.9225
 5020SOL     OW26695   4.145   0.372   8.817  0.3647 -0.0923 -0.3784
 5020SOL    HW126696   4.123   0.288   8.856  2.2377 -0.6671 -0.5699
 5020SOL    HW226697   4.221   0.343   8.766 -0.0282 -2.7630  0.5875
 5021SOL     OW26698   4.670   3.819   8.398 -0.4821 -0.6962  0.6488
 5021SOL    HW126699   4.680   3.847   8.306  3.9170  1.2164  1.7023
 5021SOL    HW226700   4.586   3.855   8.429 -0.7371  0.5285 -1.4349
 5022SOL     OW26701   0.539   1.501  12.808  0.4389 -0.4773  0.2446
 5022SOL    HW126702   0.558   1.592  12.783  0.1201  0.1447  2.2549
 5022SOL    HW226703   0.627   1.468  12.791 -0.4498 -2.2452 -0.7984
 5023SOL     OW26704   2.056   2.988  17.744  0.4859  0.1375 -0.2710
 5023SOL    HW126705   1.964   2.988  17.719  0.4423 -1.1345 -0.1260
 5023SOL    HW226706   2.083   2.898  17.724  0.0119 -0.1657  0.4375
 5024SOL     OW26707   4.565   1.799   4.606 -0.2909 -0.1824  0.1142
 5024SOL    HW126708   4.639   1.770   4.552 -1.0102 -0.4492 -0.7258
 5024SOL    HW226709   4.578   1.893   4.607 -0.9063 -0.1032  1.1135
 5025SOL     OW26710   2.744   3.467   5.956 -0.1117 -0.3028  0.2999
 5025SOL    HW126711   2.728   3.438   6.046  0.8802 -0.5910  0.3785
 5025SOL    HW226712   2.829   3.508   5.969 -0.0942  0.1109 -1.1553
 5026SOL     OW26713   1.970   0.858  13.486  0.2249 -0.0668  0.3585
 5026SOL    HW126714   2.029   0.808  13.543 -0.7801 -0.1903  1.2887
 5026SOL    HW226715   2.020   0.937  13.467  0.9750 -0.8796 -1.0631
 5027SOL     OW26716   1.467   3.987   6.049  0.2425  0.5402 -0.8714
 5027SOL    HW126717   1.443   3.996   5.957 -3.2013  0.7517  0.0514
 5027SOL    HW226718   1.512   4.070   6.063 -2.4767  1.7716  0.5128
 5028SOL     OW26719   1.773   3.396  13.812 -0.6912 -0.8759  0.7138
 5028SOL    HW126720   1.803   3.313  13.775 -0.1873 -0.5074  0.2950
 5028SOL    HW226721   1.858   3.440  13.818  0.1614 -2.3963  0.0184
 5029SOL     OW26722   2.942   2.500   1.628 -0.1389  0.1941  0.8356
 5029SOL    HW126723   2.887   2.500   1.549 -1.8961  2.0843  2.0842
 5029SOL    HW226724   3.024   2.451   1.614  0.2122  0.6215  1.4114
 5030SOL     OW26725   1.920   2.029   8.481 -0.0721 -0.4855  0.9034
 5030SOL    HW126726   1.958   2.102   8.530 -2.1487 -0.0826  1.9400
 5030SOL    HW226727   1.992   2.019   8.419  0.4203 -1.0298  1.5646
 5031SOL     OW26728   4.218   2.963   4.368 -0.3313 -0.0283  0.1183
 5031SOL    HW126729   4.227   2.871   4.345  1.8328  0.7550 -2.1313
 5031SOL    HW226730   4.145   2.957   4.429 -0.2187 -0.7841  0.1789
 5032SOL     OW26731   1.372   2.271   4.967  0.5481 -0.2574 -0.2527
 5032SOL    HW126732   1.409   2.295   4.882  2.3554  1.7089  1.0986
 5032SOL    HW226733   1.291   2.321   4.966  0.0675 -1.0494 -1.6261
 5033SOL     OW26734   4.243   1.730   7.857 -0.6240  0.4389 -0.3165
 5033SOL    HW126735   4.251   1.652   7.801 -0.4559  0.1492  0.1099
 5033SOL    HW226736   4.234   1.693   7.945  0.7750  2.1263  0.5403
 5034SOL     OW26737   3.617   4.371   1.153  0.1128  0.4919 -0.0662
 5034SOL    HW126738   3.607   4.347   1.245 -2.8209 -1.2462 -0.8174
 5034SOL    HW226739   3.559   4.447   1.150  0.4308  0.6477 -2.3072
 5035SOL     OW26740   0.773   4.656  14.468 -0.5540 -0.3915  0.3530
 5035SOL    HW126741   0.868   4.650  14.476 -0.5359 -1.3601 -0.6930
 5035SOL    HW226742   0.766   4.733  14.525 -2.4081 -0.9189  0.8292
 5036SOL     OW26743   0.560   0.274  17.008 -0.0595  0.6458 -0.7472
 5036SOL    HW126744   0.578   0.193  17.056 -2.9733 -0.5526 -1.6361
 5036SOL    HW226745   0.505   0.246  16.934  1.2484 -0.7384 -1.1827
 5037SOL     OW26746   0.031   3.472   4.743 -0.5882  0.3278  0.1078
 5037SOL    HW126747   0.026   3.532   4.669 -0.0188  1.0259  0.6346
 5037SOL    HW226748   0.123   3.475   4.766  0.3454 -0.0530 -3.5947
 5038SOL     OW26749   1.260   3.527   5.003  0.1282  0.1039  0.1734
 5038SOL    HW126750   1.209   3.602   4.974 -0.1530 -0.3799 -0.5954
 5038SOL    HW226751   1.188   3.472   5.035  0.8751 -1.4437 -0.7849
 5039SOL     OW26752   3.159   3.929  15.900  0.3774 -0.1435 -0.1178
 5039SOL    HW126753   3.146   3.876  15.822  0.4694  0.9515 -0.8744
 5039SOL    HW226754   3.102   4.000  15.872 -0.4704 -0.2518  1.3277
 5040SOL     OW26755   1.240   0.394   6.699  0.1100  0.0503 -0.4549
 5040SOL    HW126756   1.149   0.410   6.673 -0.4458  0.5672  1.7555
 5040SOL    HW226757   1.299   0.437   6.638  1.3856 -1.8032 -0.5331
 5041SOL     OW26758   4.202   3.040  12.312  0.1757  0.1039  0.6994
 5041SOL    HW126759   4.165   3.068  12.396 -1.9921  1.5154 -0.7056
 5041SOL    HW226760   4.228   3.121  12.268  1.8116  0.4309  2.2857
 5042SOL     OW26761   4.104   2.501   5.128 -0.2193 -0.6840 -0.1032
 5042SOL    HW126762   4.026   2.548   5.099  0.0849 -0.2136 -0.1503
 5042SOL    HW226763   4.175   2.543   5.078  0.5882 -1.2368  0.5817
 5043SOL     OW26764   4.341   1.870   8.288 -0.4859 -0.3228 -0.0844
 5043SOL    HW126765   4.401   1.850   8.360  0.8979 -0.8880 -1.3992
 5043SOL    HW226766   4.379   1.952   8.258 -1.1849 -0.2581 -0.8010
 5044SOL     OW26767   2.371   1.500   4.690  0.0383 -0.6495 -0.1296
 5044SOL    HW126768   2.444   1.553   4.719 -1.3953  1.6761 -0.7968
 5044SOL    HW226769   2.307   1.519   4.759  1.0132  1.8576  0.0747
 5045SOL     OW26770   1.379   1.778   2.390  0.0314  0.3179  0.3214
 5045SOL    HW126771   1.351   1.779   2.298  1.3536 -1.6751 -0.0875
 5045SOL    HW226772   1.394   1.685   2.407  1.4209  0.3708 -0.6602
 5046SOL     OW26773   4.141   0.361   5.899 -0.1594  0.3904  0.3631
 5046SOL    HW126774   4.163   0.424   5.968  2.1897  2.7934 -2.5672
 5046SOL    HW226775   4.182   0.399   5.821 -1.3625 -0.5212 -0.7208
 5047SOL     OW26776   4.715   1.524   4.328 -0.3601  0.0709  0.1257
 5047SOL    HW126777   4.636   1.470   4.327  0.6147 -1.3050 -1.6149
 5047SOL    HW226778   4.737   1.512   4.420 -0.6263  1.2821  0.3569
 5048SOL     OW26779   1.527   3.106   5.372 -0.4763  0.3187  0.3180
 5048SOL    HW126780   1.497   3.141   5.288 -0.9192  1.1895  0.8506
 5048SOL    HW226781   1.513   3.013   5.352 -0.8341  1.2155 -3.5735
 5049SOL     OW26782   3.005   3.196  15.369  1.1236 -0.0474  0.5272
 5049SOL    HW126783   2.940   3.263  15.349  1.8831  0.7994  0.9075
 5049SOL    HW226784   3.087   3.243  15.353  1.9569 -1.0671  1.8104
 5050SOL     OW26785   1.513   3.300  15.078 -1.1266 -0.6312 -0.2663
 5050SOL    HW126786   1.485   3.285  15.168  0.3799  0.9307  0.4364
 5050SOL    HW226787   1.595   3.258  15.103 -0.7986  0.2251  0.0905
 5051SOL     OW26788   2.090   2.053  12.338  0.4202  0.2639  0.2534
 5051SOL    HW126789   2.115   1.997  12.411 -1.5240 -0.3933  0.3923
 5051SOL    HW226790   2.009   2.015  12.304  2.3358 -3.3668 -0.2523
 5052SOL     OW26791   4.147   0.330   4.962  0.1684 -0.3486  0.1578
 5052SOL    HW126792   4.211   0.266   4.992  0.9155  0.7788  0.9479
 5052SOL    HW226793   4.074   0.286   4.918 -1.4513  1.9641  0.5543
 5053SOL     OW26794   3.581   0.813   0.492  0.0481  0.1510  0.4732
 5053SOL    HW126795   3.616   0.881   0.549  0.7934 -1.1143  1.5115
 5053SOL    HW226796   3.652   0.800   0.430 -0.2259  0.3292  0.1188
 5054SOL     OW26797   3.321   2.364  14.399  0.1304 -0.3095  0.8438
 5054SOL    HW126798   3.370   2.331  14.324 -0.4232 -1.2845  0.9124
 5054SOL    HW226799   3.242   2.311  14.397  0.0617 -0.2278  1.3841
 5055SOL     OW26800   0.242   0.404   2.222 -0.0042  0.0285 -0.6175
 5055SOL    HW126801   0.327   0.407   2.267  0.1032 -2.1167 -0.6711
 5055SOL    HW226802   0.256   0.400   2.127 -0.9717 -0.8439 -0.7288
 5056SOL     OW26803   0.143   3.459   9.436 -0.0654 -0.1134 -0.2064
 5056SOL    HW126804   0.055   3.447   9.472 -0.2747  0.6095 -0.4773
 5056SOL    HW226805   0.189   3.385   9.476  0.6100 -0.5235 -1.7367
 5057SOL     OW26806   0.541   3.613   3.461 -0.1071 -0.1934 -0.0010
 5057SOL    HW126807   0.582   3.680   3.406 -0.9969  0.9110  0.6738
 5057SOL    HW226808   0.464   3.585   3.412  0.4497 -1.7792  0.0314
 5058SOL     OW26809   3.538   3.553   8.773 -0.1442  0.0654 -0.2240
 5058SOL    HW126810   3.498   3.541   8.859 -0.7975 -0.1110 -0.5510
 5058SOL    HW226811   3.463   3.546   8.714 -0.5433 -1.1739  0.4173
 5059SOL     OW26812   2.437   3.292  13.185 -0.5244 -0.6836  0.2356
 5059SOL    HW126813   2.514   3.253  13.144  0.8822  1.4475  0.8428
 5059SOL    HW226814   2.442   3.380  13.149 -0.0805 -1.6053 -1.9279
 5060SOL     OW26815   3.665   1.555   9.347  0.0973  0.5307 -0.2441
 5060SOL    HW126816   3.606   1.517   9.412  0.0980 -0.5704 -0.8794
 5060SOL    HW226817   3.732   1.600   9.399 -0.8339 -0.8750  2.1614
 5061SOL     OW26818   2.663   0.547   3.428 -0.2470  0.1645 -0.0472
 5061SOL    HW126819   2.703   0.502   3.503 -1.1740  1.3192  1.1382
 5061SOL    HW226820   2.582   0.583   3.464  1.1470  3.1161  0.0987
 5062SOL     OW26821   0.209   1.214  10.081 -0.3741 -0.2048 -0.0904
 5062SOL    HW126822   0.182   1.131  10.041  1.2932 -1.2340  0.9182
 5062SOL    HW226823   0.207   1.269  10.002 -1.6698 -0.4114 -0.1998
 5063SOL     OW26824   1.776   1.810   8.818 -0.3093  0.1321  0.6149
 5063SOL    HW126825   1.825   1.730   8.797  0.4083 -0.3322  3.9946
 5063SOL    HW226826   1.690   1.782   8.786  0.4487 -1.3540 -0.1658
 5064SOL     OW26827   4.274   2.030   2.539 -0.2473  0.3630  0.4766
 5064SOL    HW126828   4.224   1.956   2.574  0.1559 -1.0935 -2.0789
 5064SOL    HW226829   4.340   2.044   2.607  1.2518  1.5621 -1.2360
 5065SOL     OW26830   4.170   3.129  11.395  0.1521 -0.8413  0.1646
 5065SOL    HW126831   4.190   3.218  11.423 -0.9838 -0.3372 -0.6442
 5065SOL    HW226832   4.207   3.116  11.308 -1.0631  1.3469 -0.6789
 5066SOL     OW26833   3.054   2.264   7.520 -0.0156 -0.2458 -0.2146
 5066SOL    HW126834   3.031   2.178   7.486  1.0530  0.9034 -3.8857
 5066SOL    HW226835   3.074   2.249   7.612  0.6204  3.0872  0.1865
 5067SOL     OW26836   0.725   3.909   3.538  0.0989  0.8013  0.6769
 5067SOL    HW126837   0.749   4.002   3.535  2.3232  0.2021  0.1762
 5067SOL    HW226838   0.652   3.915   3.600 -0.1099 -0.5722  0.5515
 5068SOL     OW26839   2.051   2.202   3.701  0.0738 -0.3038 -0.2854
 5068SOL    HW126840   1.980   2.180   3.760 -1.9788  1.2323 -2.1956
 5068SOL    HW226841   2.131   2.165   3.739 -0.2860  1.5837  2.2766
 5069SOL     OW26842   0.052   2.216  14.814  0.2659  0.3378 -0.5139
 5069SOL    HW126843   4.716   2.218  14.752  0.6501 -1.1458 -1.0354
 5069SOL    HW226844   0.107   2.156  14.763 -0.9248  0.0550 -1.4731
 5070SOL     OW26845   3.554   0.253  16.555 -0.3036 -0.4084 -0.3940
 5070SOL    HW126846   3.531   0.308  16.480 -0.7577 -0.9337 -0.6432
 5070SOL    HW226847   3.598   0.323  16.604 -2.0688  0.4665 -0.0504
 5071SOL     OW26848   1.904   2.677   5.930 -0.1551 -0.0038 -0.2594
 5071SOL    HW126849   1.852   2.743   5.976  2.4685  0.4754  2.0085
 5071SOL    HW226850   1.935   2.720   5.849 -1.4199 -2.5215 -2.0710
 5072SOL     OW26851   0.519   1.880   2.785 -0.5508 -0.3528  0.1668
 5072SOL    HW126852   0.442   1.870   2.841  0.0372 -1.7773  0.7402
 5072SOL    HW226853   0.583   1.845   2.848  0.2292  2.0797  0.7176
 5073SOL     OW26854   0.871   3.939   6.741 -0.1939  0.1042 -0.1728
 5073SOL    HW126855   0.947   3.916   6.795 -0.7578 -1.0900  0.1238
 5073SOL    HW226856   0.869   3.855   6.695  0.9240 -0.8793  1.5648
 5074SOL     OW26857   2.224   1.086  15.962  0.0864  0.4134 -0.4066
 5074SOL    HW126858   2.196   1.051  16.046 -0.7875  0.8820 -0.4976
 5074SOL    HW226859   2.183   1.173  15.968  0.4602  0.5011  0.7695
 5075SOL     OW26860   2.893   4.126  12.805  0.4310 -0.7747  0.0769
 5075SOL    HW126861   2.908   4.054  12.743  3.0793 -1.6394  1.6864
 5075SOL    HW226862   2.798   4.128  12.810  0.5663  0.6470  2.3403
 5076SOL     OW26863   2.887   1.174   9.520 -0.0969  0.1608 -0.2424
 5076SOL    HW126864   2.849   1.105   9.573 -1.1698  0.0631 -1.1472
 5076SOL    HW226865   2.837   1.153   9.442 -0.7114  0.1010  0.1714
 5077SOL     OW26866   4.282   0.679  11.682  0.8005  0.1292  0.2375
 5077SOL    HW126867   4.268   0.640  11.596  0.0116 -1.2826  1.0040
 5077SOL    HW226868   4.215   0.746  11.698 -0.5588 -0.7915 -1.6307
 5078SOL     OW26869   2.724   3.017   8.311 -0.3630  0.7967  0.4217
 5078SOL    HW126870   2.732   3.104   8.272 -1.4217 -0.2609 -2.0890
 5078SOL    HW226871   2.819   3.005   8.321 -0.6690 -2.0398 -0.1072
 5079SOL     OW26872   1.022   2.662   5.737 -0.4936  0.5020  0.1444
 5079SOL    HW126873   1.109   2.685   5.703 -0.3755  0.5384  0.4779
 5079SOL    HW226874   1.026   2.713   5.817  2.4721 -1.5430  1.3176
 5080SOL     OW26875   0.883   2.695   6.447  0.0856  0.1553  0.5649
 5080SOL    HW126876   0.824   2.648   6.387  3.1078 -0.8172 -1.6288
 5080SOL    HW226877   0.951   2.734   6.392  1.0287 -1.1912  0.7763
 5081SOL     OW26878   4.636   1.346   6.353 -0.1488  0.2861  0.2548
 5081SOL    HW126879   4.625   1.340   6.258  1.2112 -1.3109  0.1867
 5081SOL    HW226880   4.631   1.253   6.376 -0.0658  0.7059  1.9569
 5082SOL     OW26881   2.039   1.625   6.676 -0.1757 -0.5168 -0.0088
 5082SOL    HW126882   2.047   1.666   6.762 -1.2255  1.9263 -1.0831
 5082SOL    HW226883   2.127   1.592   6.660  0.6770  1.2529  1.0675
 5083SOL     OW26884   1.350   1.062  14.444  0.8125  0.0514  0.2357
 5083SOL    HW126885   1.328   1.120  14.372  0.9726  0.7600  0.7517
 5083SOL    HW226886   1.311   0.978  14.420  1.6463 -0.1488 -0.4134
 5084SOL     OW26887   4.570   1.302   6.086  0.2702  0.6702  0.2295
 5084SOL    HW126888   4.595   1.226   6.033  0.0047  0.9245 -0.2528
 5084SOL    HW226889   4.615   1.375   6.045  1.5792 -0.2191  0.0657
 5085SOL     OW26890   3.897   1.062   7.705 -0.3272 -0.1011  0.1630
 5085SOL    HW126891   3.805   1.080   7.723 -0.5932 -0.0352 -1.2872
 5085SOL    HW226892   3.888   0.972   7.674  0.8622  0.4613 -1.7945
 5086SOL     OW26893   1.895   2.524  11.957 -0.0444  0.2722  0.4033
 5086SOL    HW126894   1.894   2.553  11.866 -2.0117 -0.4921  0.1689
 5086SOL    HW226895   1.936   2.599  11.998  0.9070 -0.1895  0.2974
 5087SOL     OW26896   2.321   2.937  16.583 -0.5673 -1.1308 -0.1267
 5087SOL    HW126897   2.316   2.945  16.678  0.6976  1.5599 -0.2843
 5087SOL    HW226898   2.244   2.985  16.553  0.5295  1.0937  0.5968
 5088SOL     OW26899   1.496   0.452  15.119  0.0678 -0.3542  0.0841
 5088SOL    HW126900   1.462   0.519  15.178 -1.4154 -1.4780  0.5061
 5088SOL    HW226901   1.417   0.398  15.113 -0.0458 -0.2977  1.0401
 5089SOL     OW26902   3.802   0.674   9.270 -0.3819  0.4136  0.0876
 5089SOL    HW126903   3.820   0.739   9.202 -2.3519  1.6109  0.7046
 5089SOL    HW226904   3.734   0.717   9.322 -0.4532 -0.8194  1.0272
 5090SOL     OW26905   4.187   1.000   7.422 -0.5270  0.0437 -0.2730
 5090SOL    HW126906   4.169   0.930   7.359  0.3689 -0.7083  0.3138
 5090SOL    HW226907   4.222   0.951   7.496  0.5560  1.1508 -0.0514
 5091SOL     OW26908   2.088   0.960   7.191  0.5138 -0.3516  0.0836
 5091SOL    HW126909   2.039   0.909   7.127  1.3059 -0.5246 -0.3794
 5091SOL    HW226910   2.049   0.925   7.271 -1.2756 -0.9030 -1.0243
 5092SOL     OW26911   2.134   2.898   9.373 -0.5816  0.0648  0.1320
 5092SOL    HW126912   2.072   2.842   9.419 -0.3531  0.4062  0.8632
 5092SOL    HW226913   2.116   2.863   9.286 -0.1231  0.6014 -0.1778
 5093SOL     OW26914   1.964   3.328  15.869 -0.2086 -0.4435  0.1863
 5093SOL    HW126915   1.904   3.260  15.839 -0.5022 -0.2282  0.2878
 5093SOL    HW226916   1.985   3.297  15.957  0.9476  2.4589  0.9295
 5094SOL     OW26917   2.237   2.849  15.300  0.1286 -0.1503 -0.2826
 5094SOL    HW126918   2.187   2.774  15.269 -2.2122  1.2989  0.0089
 5094SOL    HW226919   2.310   2.803  15.342  0.8634 -0.9317 -2.4059
 5095SOL     OW26920   2.267   0.186  12.501 -0.5669  0.4713  0.6485
 5095SOL    HW126921   2.287   0.268  12.456 -0.0521  0.3088  0.5827
 5095SOL    HW226922   2.186   0.194  12.552 -1.7357  1.5020 -1.3485
 5096SOL     OW26923   2.658   3.856  17.212  0.0955  0.1119 -0.0267
 5096SOL    HW126924   2.602   3.897  17.146 -0.8453 -0.0111  0.7005
 5096SOL    HW226925   2.726   3.823  17.153  0.0435  0.1543 -0.1109
 5097SOL     OW26926   0.013   2.115   5.490 -0.4501  0.3999  0.4963
 5097SOL    HW126927   4.690   2.059   5.442 -0.5676  0.2401  0.8370
 5097SOL    HW226928   4.730   2.096   5.581 -1.5283  1.7019  0.5194
 5098SOL     OW26929   4.184   0.812   9.544  0.1947  0.0235  0.8130
 5098SOL    HW126930   4.180   0.858   9.628 -0.4831 -0.6056  1.1263
 5098SOL    HW226931   4.238   0.867   9.487 -3.2052  1.9990 -0.5339
 5099SOL     OW26932   1.233   0.418   6.047 -0.2597  0.6506 -0.2946
 5099SOL    HW126933   1.292   0.399   5.975  0.1661  0.2675  0.1541
 5099SOL    HW226934   1.146   0.386   6.023 -0.1359  0.1946 -0.1410
 5100SOL     OW26935   1.364   1.379   4.189 -0.7952 -0.6103  0.5921
 5100SOL    HW126936   1.415   1.429   4.126 -0.4998 -3.5552 -1.5148
 5100SOL    HW226937   1.279   1.375   4.145 -0.2634 -2.7882 -0.2209
 5101SOL     OW26938   1.105   1.869   9.306  0.4240 -0.1231 -0.1978
 5101SOL    HW126939   1.174   1.930   9.334  0.6517 -0.8574  0.8498
 5101SOL    HW226940   1.079   1.839   9.393 -2.6101  0.5900 -0.8652
 5102SOL     OW26941   1.098   2.770   2.076 -0.0736 -0.2275 -0.7954
 5102SOL    HW126942   1.159   2.698   2.092 -0.5207 -0.7494 -1.3988
 5102SOL    HW226943   1.094   2.806   2.164  0.6629 -1.1982 -0.3678
 5103SOL     OW26944   1.549   2.404   9.989 -0.1420 -0.1377 -0.0606
 5103SOL    HW126945   1.486   2.429   9.922 -0.8383  0.6022  0.8614
 5103SOL    HW226946   1.626   2.439   9.946  0.1459 -1.4376 -0.5915
 5104SOL     OW26947   3.696   0.466   8.021 -0.3241  0.2625  0.1931
 5104SOL    HW126948   3.736   0.532   7.964 -2.6575  0.7805 -0.8699
 5104SOL    HW226949   3.648   0.524   8.080 -1.7071 -0.4108 -0.2711
 5105SOL     OW26950   0.350   0.227   8.489  0.0119  0.3656 -0.3204
 5105SOL    HW126951   0.325   0.318   8.506  1.0475  0.9765 -1.9961
 5105SOL    HW226952   0.289   0.179   8.544 -1.9556  1.8362 -1.1882
 5106SOL     OW26953   2.535   4.165   2.121  0.1677 -0.6474 -0.0496
 5106SOL    HW126954   2.474   4.104   2.079 -1.3461  1.0225 -0.2889
 5106SOL    HW226955   2.505   4.253   2.098 -0.7202 -1.0409 -0.3771
 5107SOL     OW26956   3.308   3.254   2.799 -0.4531  0.4151  0.4100
 5107SOL    HW126957   3.227   3.235   2.845 -1.6957  0.2694 -1.8326
 5107SOL    HW226958   3.341   3.337   2.834  0.8597  0.0617  0.0087
 5108SOL     OW26959   2.342   3.243  17.617 -0.2735  0.2006 -0.2615
 5108SOL    HW126960   2.408   3.305  17.587  1.0356 -1.3362 -0.5521
 5108SOL    HW226961   2.375   3.162  17.579 -0.8470  0.9729 -2.3957
 5109SOL     OW26962   3.179   1.380  13.001  0.1171 -0.4003  0.3332
 5109SOL    HW126963   3.097   1.404  13.046 -0.5975  0.3573 -1.3694
 5109SOL    HW226964   3.139   1.310  12.950  0.7946 -0.1244 -0.5722
 5110SOL     OW26965   2.922   2.274   9.769  0.0240  0.0172 -0.7733
 5110SOL    HW126966   2.969   2.232   9.696 -0.0633  0.8619 -1.3155
 5110SOL    HW226967   2.942   2.363   9.740 -0.6762 -0.3219 -2.2933
 5111SOL     OW26968   1.775   4.114  11.475  0.0232 -0.2355  0.2971
 5111SOL    HW126969   1.716   4.089  11.546 -0.4829  1.0048  0.3040
 5111SOL    HW226970   1.764   4.209  11.482  0.5397 -0.2920  2.1415
 5112SOL     OW26971   2.486   0.604   1.737  0.1369  0.5041  0.2618
 5112SOL    HW126972   2.452   0.679   1.687 -0.7024 -0.0896 -0.0515
 5112SOL    HW226973   2.575   0.635   1.753  1.2049 -1.2653 -2.1514
 5113SOL     OW26974   3.549   3.978   7.141  0.2702 -0.1341 -0.0617
 5113SOL    HW126975   3.487   3.979   7.068 -0.5544 -0.4895  0.6347
 5113SOL    HW226976   3.546   4.066   7.180  2.3923  1.1468 -2.7126
 5114SOL     OW26977   4.080   1.086   4.262  0.2093  0.2581  0.4948
 5114SOL    HW126978   4.099   1.177   4.239 -0.2233 -0.2762 -1.9924
 5114SOL    HW226979   4.093   1.045   4.176 -0.0422  0.7467  0.2255
 5115SOL     OW26980   1.548   1.710   6.997 -0.9806  0.4156 -0.0123
 5115SOL    HW126981   1.556   1.702   7.092 -1.3789  1.9768  0.1578
 5115SOL    HW226982   1.512   1.799   6.999  0.9448  1.1461  2.0236
 5116SOL     OW26983   1.163   3.109  11.858  0.3746  0.2985 -0.0016
 5116SOL    HW126984   1.229   3.056  11.903  0.5977  0.7362  0.1852
 5116SOL    HW226985   1.093   3.117  11.923  0.3563 -0.1126  0.0296
 5117SOL     OW26986   3.744   4.716   7.764 -0.1468  0.9018  0.0368
 5117SOL    HW126987   3.769   0.025   7.844  0.1327  1.2454 -0.2527
 5117SOL    HW226988   3.722   0.051   7.706 -1.7910  1.0360  0.8310
 5118SOL     OW26989   4.655   4.241   3.046 -0.1413 -0.3901  0.0961
 5118SOL    HW126990   4.711   4.310   3.082 -0.9070  0.0221  0.4852
 5118SOL    HW226991   4.667   4.164   3.101  1.3624 -1.0886 -1.1968
 5119SOL     OW26992   2.041   2.219   8.651  0.0115  1.0324 -0.6425
 5119SOL    HW126993   2.127   2.255   8.673  0.4899 -0.0893 -0.6462
 5119SOL    HW226994   2.003   2.293   8.605 -0.3687  1.3367  0.1659
 5120SOL     OW26995   1.862   1.589   3.573 -0.5827  0.0870 -0.5589
 5120SOL    HW126996   1.954   1.616   3.566 -1.1485  1.3428 -2.8586
 5120SOL    HW226997   1.870   1.498   3.546  2.7033  0.3147 -0.3656
 5121SOL     OW26998   3.178   3.041   8.519  0.0305 -0.3867  0.0616
 5121SOL    HW126999   3.139   3.099   8.585 -2.8583 -1.8858 -0.3456
 5121SOL    HW227000   3.269   3.030   8.547 -0.0232  0.2382  0.5010
 5122SOL     OW27001   3.046   3.400   8.254 -0.1898  0.1481 -0.0537
 5122SOL    HW127002   3.112   3.452   8.301  2.1202  0.1458 -3.3204
 5122SOL    HW227003   3.020   3.468   8.192 -0.4173  0.9660  0.9281
 5123SOL     OW27004   1.497   0.274   1.922  0.3706 -0.1082 -0.5689
 5123SOL    HW127005   1.509   0.320   1.839  2.0083  0.9194  0.2375
 5123SOL    HW227006   1.418   0.314   1.959  0.9703  0.7037 -0.1823
 5124SOL     OW27007   3.366   4.288   2.819 -0.1516  0.1118 -0.2512
 5124SOL    HW127008   3.364   4.305   2.725 -0.2118  0.1380 -0.2458
 5124SOL    HW227009   3.283   4.330   2.841  0.5941  1.2122  0.4609
 5125SOL     OW27010   2.023   4.713   6.839  0.0584 -0.4889  0.2752
 5125SOL    HW127011   2.094   0.035   6.818 -0.5372 -0.0031 -0.3612
 5125SOL    HW227012   2.026   4.647   6.770 -0.9301 -0.4985  0.2362
 5126SOL     OW27013   0.918   2.788   9.656 -0.7894  0.2789  0.0631
 5126SOL    HW127014   0.859   2.769   9.583 -0.9150 -0.7215  0.4283
 5126SOL    HW227015   0.883   2.737   9.729  0.2407 -0.8662 -0.2432
 5127SOL     OW27016   3.146   4.328   4.220 -0.2782 -0.1294  0.1133
 5127SOL    HW127017   3.108   4.241   4.208 -0.8021  0.3298 -1.5316
 5127SOL    HW227018   3.210   4.325   4.149  0.0774 -0.6996  0.4570
 5128SOL     OW27019   3.151   2.931   2.305  0.5027  0.1517  0.5634
 5128SOL    HW127020   3.168   2.940   2.212  0.5310 -0.0950  0.5424
 5128SOL    HW227021   3.159   2.835   2.312  0.0913  0.2167  1.9582
 5129SOL     OW27022   3.185   4.364  17.660 -0.1024 -0.0135 -0.2562
 5129SOL    HW127023   3.139   4.383  17.578  2.7794 -1.0603 -2.0970
 5129SOL    HW227024   3.197   4.454  17.690  0.2599 -0.0245 -0.3736
 5130SOL     OW27025   3.387   3.297  11.474  0.2997  0.1207 -0.2555
 5130SOL    HW127026   3.332   3.339  11.540 -2.9185  1.6755 -3.9881
 5130SOL    HW227027   3.332   3.303  11.397  0.4566 -0.2052 -0.3938
 5131SOL     OW27028   2.984   3.809   8.807  0.1942 -0.4128 -0.2659
 5131SOL    HW127029   2.955   3.897   8.833  2.5104  0.3737 -0.3857
 5131SOL    HW227030   2.944   3.764   8.881 -2.2065  1.2653 -0.5292
 5132SOL     OW27031   3.517   2.994  15.513  0.8970  0.5753  0.3249
 5132SOL    HW127032   3.563   2.977  15.431 -0.5412  0.2322 -0.4120
 5132SOL    HW227033   3.551   3.080  15.539 -0.5689  1.5706 -1.0003
 5133SOL     OW27034   3.280   0.128  15.373 -0.2106  0.4966  0.0038
 5133SOL    HW127035   3.266   0.096  15.462  2.4668  2.1031  0.9722
 5133SOL    HW227036   3.195   0.122  15.328  1.7879 -2.2751 -3.4010
 5134SOL     OW27037   1.186   1.716   6.311 -0.8273 -0.3924 -0.5459
 5134SOL    HW127038   1.106   1.744   6.266  0.0010  2.7834 -0.0639
 5134SOL    HW227039   1.164   1.759   6.394 -0.1352 -4.1869  1.6046
 5135SOL     OW27040   1.099   0.443   5.665  0.0049  1.0052 -0.2910
 5135SOL    HW127041   1.184   0.486   5.674  1.2089 -1.4195  0.0418
 5135SOL    HW227042   1.122   0.363   5.711 -3.4168 -0.2457 -0.7392
 5136SOL     OW27043   2.357   1.709   5.870 -0.0469 -0.1557 -0.5104
 5136SOL    HW127044   2.266   1.683   5.856 -0.3419  1.4988 -1.6667
 5136SOL    HW227045   2.381   1.704   5.777 -0.1687 -0.4181 -0.5261
 5137SOL     OW27046   3.490   2.924   9.469 -0.6914 -0.2045 -0.4456
 5137SOL    HW127047   3.401   2.932   9.433 -1.0165  0.3499  0.4644
 5137SOL    HW227048   3.548   2.904   9.396 -0.5295 -0.1379 -0.3364
 5138SOL     OW27049   0.467   3.148  10.981  0.3514 -0.3667  0.6525
 5138SOL    HW127050   0.402   3.109  10.923 -1.2012  1.7665  0.9644
 5138SOL    HW227051   0.530   3.078  10.998  2.1244  1.2017  0.4735
 5139SOL     OW27052   3.987   4.480   7.089 -0.2007 -0.6012 -0.0123
 5139SOL    HW127053   4.007   4.551   7.150 -1.8722  1.1692 -1.5066
 5139SOL    HW227054   4.041   4.513   7.017  0.6039  1.0251  1.3407
 5140SOL     OW27055   0.628   1.341   9.048  0.7186  0.4718 -0.2498
 5140SOL    HW127056   0.712   1.364   9.008  0.4667  0.5274 -0.7496
 5140SOL    HW227057   0.573   1.419   9.041  1.2837  0.9796  0.8574
 5141SOL     OW27058   0.863   1.935  11.565  0.1818  0.1728 -0.0603
 5141SOL    HW127059   0.829   1.983  11.489 -0.7068 -1.3821 -0.6537
 5141SOL    HW227060   0.886   2.006  11.624  0.6710 -0.2861  0.3008
 5142SOL     OW27061   3.122   4.371   6.403  0.1091  0.1079  0.1860
 5142SOL    HW127062   3.095   4.355   6.494 -0.1367  1.4012  0.3400
 5142SOL    HW227063   3.167   4.455   6.415  0.7056 -0.2940  0.7475
 5143SOL     OW27064   3.124   3.450   3.096 -0.5246 -0.3037  0.2300
 5143SOL    HW127065   3.204   3.492   3.130 -0.2510 -0.5453 -0.1184
 5143SOL    HW227066   3.098   3.530   3.049  0.1342  0.5741  1.3622
 5144SOL     OW27067   4.690   1.111   4.414 -0.0915 -0.6525 -0.2616
 5144SOL    HW127068   4.737   1.096   4.496 -1.1706  2.3887  0.9081
 5144SOL    HW227069   4.676   1.206   4.418 -2.5821 -1.0226 -0.1323
 5145SOL     OW27070   0.415   4.333   7.664 -0.5855 -0.0975 -0.1298
 5145SOL    HW127071   0.445   4.413   7.707 -1.6391  0.0738  0.2796
 5145SOL    HW227072   0.494   4.278   7.672  0.7188  1.4892 -2.1891
 5146SOL     OW27073   3.731   0.292   3.497 -0.5236 -0.6951  0.3220
 5146SOL    HW127074   3.820   0.274   3.527 -0.3189 -0.1124  0.0621
 5146SOL    HW227075   3.727   0.259   3.407 -2.2908  0.9078 -0.1940
 5147SOL     OW27076   0.925   0.296   3.675 -0.0902 -0.0082  0.0859
 5147SOL    HW127077   0.836   0.277   3.704  0.4163 -0.5335  1.2906
 5147SOL    HW227078   0.964   0.211   3.695  1.4392  0.0389 -2.6113
 5148SOL     OW27079   1.213   3.599  15.458 -0.6848  0.5939 -0.5658
 5148SOL    HW127080   1.290   3.566  15.412 -1.8321 -1.0895 -1.2822
 5148SOL    HW227081   1.237   3.680  15.503  2.3641 -0.5031 -0.2360
 5149SOL     OW27082   4.584   1.908   5.691 -0.2266  0.7150  0.1933
 5149SOL    HW127083   4.618   1.821   5.712  2.3939  2.1258  1.8121
 5149SOL    HW227084   4.504   1.894   5.640  0.9651  0.8295 -1.6962
 5150SOL     OW27085   2.838   4.138   2.926  0.1771  0.1372  0.3835
 5150SOL    HW127086   2.879   4.051   2.928  1.6648  0.8356 -0.2041
 5150SOL    HW227087   2.754   4.102   2.896  0.7694 -1.6462  0.8317
 5151SOL     OW27088   4.444   3.097  12.850 -0.3679 -0.3043 -0.0367
 5151SOL    HW127089   4.503   3.033  12.890 -0.8755 -0.3328  0.6786
 5151SOL    HW227090   4.358   3.054  12.856  0.2245 -1.3700  0.8673
 5152SOL     OW27091   4.493   1.331  14.603 -0.0100  0.0801  0.2043
 5152SOL    HW127092   4.574   1.303  14.560 -0.6583 -0.5920 -0.5841
 5152SOL    HW227093   4.441   1.331  14.522  0.8427 -0.8802 -0.3281
 5153SOL     OW27094   2.520   4.696   2.062  0.4273  0.2666  1.0084
 5153SOL    HW127095   2.465   4.623   2.093  1.5148  0.2546  2.9166
 5153SOL    HW227096   2.454   0.006   2.012  0.1728 -1.3345 -0.1758
 5154SOL     OW27097   3.134   3.716  14.888  0.2174 -0.0732 -0.1518
 5154SOL    HW127098   3.054   3.746  14.843 -0.6283 -1.2965  0.5397
 5154SOL    HW227099   3.191   3.792  14.881  0.4923 -0.2270  0.3926
 5155SOL     OW27100   2.328   4.598   1.865  0.2313 -0.1790 -0.5796
 5155SOL    HW127101   2.355   4.603   1.773 -0.8133  0.6945 -0.8498
 5155SOL    HW227102   2.301   4.688   1.883 -0.2276 -0.0848 -1.7113
 5156SOL     OW27103   4.332   0.198  14.675  0.2639 -0.0723  0.0011
 5156SOL    HW127104   4.421   0.225  14.697  0.1198  1.3941 -1.2788
 5156SOL    HW227105   4.345   0.115  14.629 -0.3578 -0.4146  0.4292
 5157SOL     OW27106   2.421   2.006  10.239 -0.1923  0.2952 -0.4494
 5157SOL    HW127107   2.466   2.090  10.228  2.9125 -1.0135  2.3371
 5157SOL    HW227108   2.445   1.983  10.328  0.2763  1.6915 -0.2236
 5158SOL     OW27109   2.374   4.010   5.732  0.3831  0.5913 -0.1099
 5158SOL    HW127110   2.433   3.994   5.805  0.4725  0.0260 -0.3037
 5158SOL    HW227111   2.329   4.087   5.766 -2.1225 -0.8129 -0.2526
 5159SOL     OW27112   1.545   3.179  12.613  0.4420 -0.0660 -0.2058
 5159SOL    HW127113   1.575   3.088  12.617 -0.9004 -0.4937  0.3795
 5159SOL    HW227114   1.553   3.202  12.706 -2.4390 -0.5032  0.1577
 5160SOL     OW27115   2.811   1.593   7.362 -0.0860  0.4437  0.1959
 5160SOL    HW127116   2.774   1.659   7.420 -2.0753 -0.8022  0.3495
 5160SOL    HW227117   2.885   1.635   7.317 -0.7243  0.6032 -0.7020
 5161SOL     OW27118   3.528   4.023   3.535 -0.5665 -0.4231  0.4947
 5161SOL    HW127119   3.587   4.040   3.461 -0.9539  1.5972  0.6631
 5161SOL    HW227120   3.502   4.108   3.569 -1.9766 -1.0172  0.9127
 5162SOL     OW27121   0.191   0.464   4.166 -0.1816  0.2828 -0.6369
 5162SOL    HW127122   0.103   0.498   4.182 -0.3238 -0.0676 -0.6685
 5162SOL    HW227123   0.256   0.529   4.192  0.2019  0.0147 -0.9317
 5163SOL     OW27124   1.742   3.926   6.176 -0.1277 -0.2009 -0.0554
 5163SOL    HW127125   1.837   3.933   6.185 -0.3122  0.8019  1.0777
 5163SOL    HW227126   1.724   4.019   6.161  0.7672 -0.0153  0.0028
 5164SOL     OW27127   3.648   2.862   1.190 -0.3135  0.5005  0.3116
 5164SOL    HW127128   3.718   2.807   1.155 -0.6540 -0.4555  1.1261
 5164SOL    HW227129   3.614   2.907   1.113 -0.0717  0.1530  0.0006
 5165SOL     OW27130   3.395   2.034   2.893  0.2186 -0.2121  1.0182
 5165SOL    HW127131   3.388   2.113   2.839  1.4424 -1.5458 -1.0552
 5165SOL    HW227132   3.381   1.964   2.830  1.8593  0.4636 -0.1241
 5166SOL     OW27133   3.916   2.022   1.637  0.4173 -0.2155 -0.0097
 5166SOL    HW127134   3.912   2.103   1.586  1.6354 -0.1524  0.0163
 5166SOL    HW227135   3.977   1.979   1.577  0.4277  0.9082 -0.8250
 5167SOL     OW27136   4.262   0.410   6.841 -0.1565 -0.4052 -0.2152
 5167SOL    HW127137   4.225   0.388   6.927 -0.5938 -1.1801 -0.6081
 5167SOL    HW227138   4.195   0.363   6.792 -0.3637 -0.2968 -0.0358
 5168SOL     OW27139   4.475   2.129   6.349 -0.4504 -0.9520  0.4305
 5168SOL    HW127140   4.477   2.181   6.429  1.9238  2.3469 -1.7480
 5168SOL    HW227141   4.495   2.042   6.383 -0.0499 -1.1047 -0.1970
 5169SOL     OW27142   2.965   3.825   7.370 -0.2242  0.0173 -0.6389
 5169SOL    HW127143   2.874   3.843   7.347 -0.8527 -0.8728  1.1868
 5169SOL    HW227144   3.016   3.901   7.342  1.7836 -1.9519 -2.2909
 5170SOL     OW27145   2.151   0.619  13.873 -0.0907 -0.1766 -0.0598
 5170SOL    HW127146   2.238   0.614  13.914 -0.0433 -2.6426 -0.4652
 5170SOL    HW227147   2.174   0.628  13.781  0.1280 -1.5213 -0.1419
 5171SOL     OW27148   1.763   4.064   3.695  0.1680  0.3388 -0.2159
 5171SOL    HW127149   1.851   4.066   3.658  0.0161 -1.3854 -0.6587
 5171SOL    HW227150   1.752   3.971   3.716 -0.1884  0.1938 -1.0565
 5172SOL     OW27151   0.983   1.645   5.724  0.4469 -0.1925  0.1551
 5172SOL    HW127152   0.989   1.623   5.817 -1.1652  0.3123  0.3708
 5172SOL    HW227153   0.889   1.645   5.709  0.1753 -0.8586  1.9422
 5173SOL     OW27154   1.450   1.544  16.737 -0.0115 -0.0999 -0.2206
 5173SOL    HW127155   1.497   1.500  16.808  1.1746 -0.3620 -1.1867
 5173SOL    HW227156   1.477   1.492  16.662  0.4235 -0.6164  0.2951
 5174SOL     OW27157   3.660   4.280   2.297  0.1178 -0.0016 -0.1491
 5174SOL    HW127158   3.634   4.346   2.234  1.0200 -1.0567 -1.6205
 5174SOL    HW227159   3.680   4.202   2.246  0.7000  1.3459 -1.9544
 5175SOL     OW27160   0.590   1.585   2.568 -0.1023 -0.0848  0.1370
 5175SOL    HW127161   0.566   1.527   2.641  1.6858  0.6435  1.2979
 5175SOL    HW227162   0.677   1.557   2.541 -0.6495 -2.0442  0.3538
 5176SOL     OW27163   4.722   1.877   6.595  0.3794  0.7385  0.3088
 5176SOL    HW127164   0.042   1.802   6.613 -2.7631 -2.1717 -1.7484
 5176SOL    HW227165   0.038   1.918   6.527  1.9114  0.1123  1.1422
 5177SOL     OW27166   0.453   2.031  15.546 -0.1845  0.5560  0.1718
 5177SOL    HW127167   0.391   2.060  15.612 -1.5564 -1.3152 -0.2870
 5177SOL    HW227168   0.418   1.962  15.490 -0.2425  1.1408 -0.5079
 5178SOL     OW27169   1.894   1.734   8.489 -0.3085 -0.4931 -0.4115
 5178SOL    HW127170   1.865   1.823   8.508  1.4892  0.0337 -0.1117
 5178SOL    HW227171   1.811   1.699   8.455  0.0907 -0.9769 -0.9077
 5179SOL     OW27172   2.425   4.368   7.216 -0.1520 -0.3214 -0.3465
 5179SOL    HW127173   2.346   4.419   7.197  1.4894  2.9381  1.6124
 5179SOL    HW227174   2.433   4.363   7.311 -3.2572  1.1408  0.0093
 5180SOL     OW27175   0.236   2.157   6.224 -0.2552  0.7292  0.0289
 5180SOL    HW127176   0.293   2.227   6.256  1.1263 -0.6830  0.6506
 5180SOL    HW227177   0.230   2.188   6.134 -0.7340 -0.0753 -0.2070
 5181SOL     OW27178   2.463   4.012   5.193  0.0294  0.3417  0.3928
 5181SOL    HW127179   2.471   4.107   5.196  3.7872 -0.0138  1.2236
 5181SOL    HW227180   2.462   4.003   5.098  0.1930 -0.9758  0.5124
 5182SOL     OW27181   2.446   1.017   4.784 -0.6653  0.3468  0.2983
 5182SOL    HW127182   2.458   0.935   4.736  0.2174  2.0200 -2.3061
 5182SOL    HW227183   2.479   1.085   4.727  0.5208  0.5388  1.2233
 5183SOL     OW27184   0.351   4.724   5.897  0.4307 -0.2794  0.1607
 5183SOL    HW127185   0.348   0.074   5.936  0.7844  0.0901 -0.6576
 5183SOL    HW227186   0.259   4.699   5.893 -0.0217  1.5665 -1.2615
 5184SOL     OW27187   1.426   1.975   3.467 -0.2060 -0.4397 -0.0251
 5184SOL    HW127188   1.464   1.979   3.379  0.6069  0.4492  0.3642
 5184SOL    HW227189   1.407   1.881   3.464 -2.6072  0.0863 -0.7691
 5185SOL     OW27190   2.598   0.815   5.332  0.0312  1.1219 -0.0618
 5185SOL    HW127191   2.575   0.902   5.363  3.2202  1.3695  1.6622
 5185SOL    HW227192   2.516   0.781   5.368  1.0967 -0.9158  0.4413
 5186SOL     OW27193   1.946   4.301   3.766 -0.3380 -0.2861  0.1148
 5186SOL    HW127194   1.961   4.219   3.719  0.1751  0.5272 -1.1001
 5186SOL    HW227195   2.010   4.295   3.838  0.0283  0.6363 -0.1355
 5187SOL     OW27196   3.364   1.059   8.328  0.4023  0.0119  0.2543
 5187SOL    HW127197   3.432   1.074   8.394 -0.0072  0.2055  0.6294
 5187SOL    HW227198   3.414   1.019   8.257  0.4145  1.7939 -0.7515
 5188SOL     OW27199   3.223   3.960   6.156  0.4375  0.0372  0.0539
 5188SOL    HW127200   3.223   4.019   6.232 -0.5817  1.3483 -0.9581
 5188SOL    HW227201   3.136   3.921   6.167 -0.6656  2.4839  0.2054
 5189SOL     OW27202   1.792   3.777  13.959  0.3592  0.3413  0.2302
 5189SOL    HW127203   1.735   3.772  14.036  0.7849 -0.5707  0.4901
 5189SOL    HW227204   1.733   3.741  13.893  0.5374 -1.7061  1.1692
 5190SOL     OW27205   3.324   4.673   5.602 -0.1059 -0.3763 -0.4307
 5190SOL    HW127206   3.263   0.005   5.624 -0.0151 -0.0699 -1.1590
 5190SOL    HW227207   3.405   4.715   5.631  0.0027 -0.5597 -0.4698
 5191SOL     OW27208   2.626   0.268   9.420  0.0379 -0.3763 -0.0734
 5191SOL    HW127209   2.585   0.285   9.335  0.2985  0.8183  0.0445
 5191SOL    HW227210   2.701   0.213   9.397 -0.4358 -1.2368  0.4639
 5192SOL     OW27211   2.337   0.129   1.955  0.0146  0.1491 -0.0803
 5192SOL    HW127212   2.258   0.166   1.995  1.8698  0.7387  3.0945
 5192SOL    HW227213   2.387   0.208   1.933 -1.1101  0.3787 -1.7873
 5193SOL     OW27214   2.089   2.220   9.266 -0.5215  0.4253 -0.0793
 5193SOL    HW127215   2.005   2.195   9.228  1.0818 -2.6223 -1.7065
 5193SOL    HW227216   2.137   2.137   9.259 -0.8836  0.2426 -0.3878
 5194SOL     OW27217   2.467   2.968  17.268 -0.0123  0.3684 -0.2976
 5194SOL    HW127218   2.519   3.045  17.244  0.9041 -0.2524 -0.3174
 5194SOL    HW227219   2.382   2.999  17.238 -0.6527  0.3615  1.4933
 5195SOL     OW27220   0.919   2.405   6.445  0.5694 -0.2668  0.0294
 5195SOL    HW127221   0.926   2.490   6.488 -0.7918  0.1869 -0.6442
 5195SOL    HW227222   0.903   2.432   6.355  2.7336  1.6496  0.2142
 5196SOL     OW27223   3.841   2.321  16.947 -0.4672  0.3247 -0.1472
 5196SOL    HW127224   3.863   2.384  16.878  0.0762  0.6654  0.3286
 5196SOL    HW227225   3.750   2.312  16.919 -0.2091 -1.1924 -0.4424
 5197SOL     OW27226   1.896   3.018   1.794 -0.6479  0.1246 -0.7618
 5197SOL    HW127227   1.880   2.974   1.878 -0.3692  2.1297  0.3442
 5197SOL    HW227228   1.978   3.065   1.810 -0.4721  0.2192 -1.9259
 5198SOL     OW27229   4.152   1.147   6.198  0.3838  0.0641 -0.2080
 5198SOL    HW127230   4.209   1.108   6.264  0.4709  1.3921  0.4870
 5198SOL    HW227231   4.191   1.231   6.177 -0.1990  1.2935  3.5951
 5199SOL     OW27232   3.126   3.308   7.297  0.1021  0.1292  0.5264
 5199SOL    HW127233   3.082   3.378   7.249 -0.8099 -1.1423 -0.4826
 5199SOL    HW227234   3.157   3.356   7.374  2.3718 -1.0858  0.3629
 5200SOL     OW27235   2.467   0.496   2.350  0.2454 -0.6356  0.1614
 5200SOL    HW127236   2.387   0.508   2.402 -0.5377  1.6192 -1.5800
 5200SOL    HW227237   2.520   0.565   2.389  2.3213 -2.6284  0.8509
 5201SOL     OW27238   0.423   2.799   5.588  0.1504  0.0971  0.2104
 5201SOL    HW127239   0.431   2.872   5.650  0.9336  0.8177 -0.7226
 5201SOL    HW227240   0.465   2.725   5.630 -1.1032 -0.7363  0.0005
 5202SOL     OW27241   0.534   0.791  10.626 -0.6365  0.9127  0.3261
 5202SOL    HW127242   0.493   0.854  10.566 -0.5054 -0.5435 -1.3162
 5202SOL    HW227243   0.602   0.850  10.659  1.5677 -2.0320  1.1209
 5203SOL     OW27244   1.346   3.228  10.088 -0.0396  0.1172  0.1829
 5203SOL    HW127245   1.416   3.292  10.077  0.3407 -0.0214  1.6982
 5203SOL    HW227246   1.364   3.216  10.182 -0.5646  0.9586  0.3948
 5204SOL     OW27247   1.997   3.594  16.016  0.1949  0.6962 -0.6334
 5204SOL    HW127248   1.933   3.632  15.955 -1.1308  0.9420  0.9010
 5204SOL    HW227249   2.021   3.528  15.951  1.1154 -1.1326  1.6019
 5205SOL     OW27250   3.447   4.660   8.485  0.3566 -0.5153 -0.1987
 5205SOL    HW127251   3.367   4.631   8.529 -0.2130 -0.2146 -1.0380
 5205SOL    HW227252   3.438   4.616   8.400  2.9062 -0.0876 -0.7029
 5206SOL     OW27253   0.625   2.295   7.230 -0.0352  0.7078  0.0565
 5206SOL    HW127254   0.604   2.318   7.139  1.7892 -0.2088 -0.5865
 5206SOL    HW227255   0.606   2.203   7.249 -0.6024  0.4754 -1.6171
 5207SOL     OW27256   0.047   3.238   0.044 -0.0905 -0.1762  0.2961
 5207SOL    HW127257   0.024   3.150   0.072 -1.7137  0.5640  1.3404
 5207SOL    HW227258   4.696   3.262   0.017 -0.4329  0.4329  1.9715
 5208SOL     OW27259   0.262   2.643  16.874  0.8734 -0.4602 -0.0360
 5208SOL    HW127260   0.172   2.665  16.852  0.3196 -2.1939  0.5213
 5208SOL    HW227261   0.244   2.612  16.962 -1.4396  0.8950 -0.0440
 5209SOL     OW27262   1.011   1.570  16.842  0.6556 -0.4917 -0.0545
 5209SOL    HW127263   1.063   1.644  16.872  1.4657 -0.4261 -1.6069
 5209SOL    HW227264   1.005   1.514  16.919  1.5267 -0.4569  0.0381
 5210SOL     OW27265   2.189   2.917  16.308  0.1419 -0.3163  0.0058
 5210SOL    HW127266   2.200   2.886  16.218  0.5858 -0.9743  0.2831
 5210SOL    HW227267   2.102   2.881  16.326 -0.2218  1.2211  1.3187
 5211SOL     OW27268   1.021   3.808   8.988  0.1397  0.3699  0.4734
 5211SOL    HW127269   1.109   3.797   8.954  0.2258  2.4379  0.0375
 5211SOL    HW227270   1.012   3.749   9.063  0.3476  0.7006  0.7618
 5212SOL     OW27271   3.793   3.147  12.250  0.3760  0.6241 -0.0311
 5212SOL    HW127272   3.717   3.173  12.198  0.0223  0.1440  0.2493
 5212SOL    HW227273   3.845   3.091  12.192 -2.9589 -0.7861 -1.6300
 5213SOL     OW27274   0.893   3.223  16.250 -0.1303 -0.0831  0.3503
 5213SOL    HW127275   0.835   3.292  16.219  1.4426  1.6786  1.3275
 5213SOL    HW227276   0.860   3.218  16.339 -0.0575  0.2703  0.3977
 5214SOL     OW27277   4.291   1.387   6.575  0.4622  0.5789  0.3043
 5214SOL    HW127278   4.242   1.437   6.641  0.4787  0.8707  0.0963
 5214SOL    HW227279   4.314   1.309   6.625  0.8597  0.0610 -0.6835
 5215SOL     OW27280   4.468   3.680   5.643  0.0361  0.1329  0.6696
 5215SOL    HW127281   4.383   3.646   5.671  1.3554 -2.7045  1.2373
 5215SOL    HW227282   4.521   3.604   5.667 -0.2407 -0.2861 -0.0334
 5216SOL     OW27283   4.406   0.321  11.791 -0.4317  0.2600 -0.0873
 5216SOL    HW127284   4.355   0.282  11.720 -3.3830  0.6704  1.8320
 5216SOL    HW227285   4.498   0.314  11.767 -0.0290 -0.3586  1.6628
 5217SOL     OW27286   0.513   4.727  17.076 -0.1768 -0.3234  0.2165
 5217SOL    HW127287   0.603   4.700  17.056 -1.3474 -2.5457 -2.0164
 5217SOL    HW227288   0.504   4.675  17.156 -2.6049 -1.8514 -1.0493
 5218SOL     OW27289   2.461   2.439   5.069  0.3132  0.4180  0.3901
 5218SOL    HW127290   2.515   2.491   5.009 -0.7858  1.2205  0.0910
 5218SOL    HW227291   2.376   2.478   5.049  0.4219 -0.1562 -1.1735
 5219SOL     OW27292   2.153   0.198   5.824 -1.2097  0.4136  0.0347
 5219SOL    HW127293   2.111   0.280   5.851 -0.4007  0.6589  0.5721
 5219SOL    HW227294   2.207   0.175   5.900 -2.0687  0.6072  0.7118
 5220SOL     OW27295   0.983   1.670   1.590  0.0351 -0.7671  0.5646
 5220SOL    HW127296   1.008   1.578   1.593 -0.2698 -0.8394  0.8927
 5220SOL    HW227297   0.900   1.676   1.637 -0.4782 -1.3841 -0.2644
 5221SOL     OW27298   0.478   1.991   6.735  0.6102 -0.9028  0.0892
 5221SOL    HW127299   0.388   2.023   6.742  0.9591  0.1538 -0.3013
 5221SOL    HW227300   0.497   2.011   6.644  0.0300 -0.9272 -0.0387
 5222SOL     OW27301   2.662   2.694   6.442  0.5989  0.8644  0.4716
 5222SOL    HW127302   2.720   2.757   6.484  1.6938 -0.0494  0.3113
 5222SOL    HW227303   2.580   2.734   6.470  0.0842  0.8398 -0.9796
 5223SOL     OW27304   1.809   1.164  10.082  0.5344  0.3997 -0.6397
 5223SOL    HW127305   1.831   1.252  10.112  1.5880 -0.2327  0.4637
 5223SOL    HW227306   1.829   1.170   9.988  1.6108 -0.2946 -0.4599
 5224SOL     OW27307   4.331   0.113   3.815 -0.4667 -0.0464  0.7429
 5224SOL    HW127308   4.296   0.046   3.875 -1.2669  0.1305  0.4727
 5224SOL    HW227309   4.423   0.122   3.840 -0.2930 -1.4450  0.6327
 5225SOL     OW27310   4.388   4.181  14.594 -0.2733 -0.5127  0.3557
 5225SOL    HW127311   4.481   4.200  14.583 -0.6504  0.6942 -0.7997
 5225SOL    HW227312   4.384   4.116  14.665 -1.0961 -0.2067  0.5875
 5226SOL     OW27313   2.850   1.783   3.440  0.4975 -0.2380  0.6211
 5226SOL    HW127314   2.902   1.779   3.360 -1.1980 -1.6939 -0.4325
 5226SOL    HW227315   2.918   1.777   3.507 -1.2889 -0.2624  2.4478
 5227SOL     OW27316   0.762   4.340  16.656  0.0685  0.1961 -0.0277
 5227SOL    HW127317   0.734   4.279  16.724  1.3463  0.4739  0.7495
 5227SOL    HW227318   0.752   4.413  16.718  1.6383  0.4794 -0.1116
 5228SOL     OW27319   1.059   4.567  15.804  0.1959 -0.2237 -0.2894
 5228SOL    HW127320   1.018   4.649  15.776 -1.4003  0.4635  4.2091
 5228SOL    HW227321   1.140   4.586  15.850 -0.1989 -1.7454  1.0348
 5229SOL     OW27322   2.615   2.910  13.843 -0.0680  0.7193  0.3883
 5229SOL    HW127323   2.598   3.004  13.852 -1.4381  0.5799 -0.6418
 5229SOL    HW227324   2.577   2.892  13.757 -1.3673 -0.7743  1.2785
 5230SOL     OW27325   0.749   3.554   7.850 -0.0508 -0.3310 -0.0127
 5230SOL    HW127326   0.733   3.641   7.887  1.5228 -0.3828  0.7918
 5230SOL    HW227327   0.725   3.504   7.927 -0.6894 -0.3953 -0.2581
 5231SOL     OW27328   2.975   4.633   6.144  0.3598  0.3412 -0.1241
 5231SOL    HW127329   3.070   4.622   6.133  0.4902 -1.1427  2.5800
 5231SOL    HW227330   2.950   4.592   6.061  1.2258 -1.5107  0.5075
 5232SOL     OW27331   1.668   1.924   3.965  0.0844  0.3799  0.6023
 5232SOL    HW127332   1.749   1.973   3.955 -0.5510  1.3749  0.4028
 5232SOL    HW227333   1.607   1.984   3.924 -1.2995 -1.2529  0.2573
 5233SOL     OW27334   4.138   3.215   6.969  0.4953  0.1027 -0.1060
 5233SOL    HW127335   4.087   3.294   6.986 -0.0340 -0.4259  0.7630
 5233SOL    HW227336   4.123   3.209   6.875  0.4501 -1.5597  0.0030
 5234SOL     OW27337   2.449   4.665   8.093 -0.0315  0.1152  0.2603
 5234SOL    HW127338   2.421   4.673   8.184 -1.1677  0.9692 -0.1712
 5234SOL    HW227339   2.369   4.685   8.045  1.1682  0.1758 -1.7081
 5235SOL     OW27340   1.121   1.094  13.215 -0.2047 -0.8849  0.5356
 5235SOL    HW127341   1.167   1.079  13.298 -1.8380 -0.5751  1.5179
 5235SOL    HW227342   1.031   1.069  13.238  0.3375 -2.9830  0.3324
 5236SOL     OW27343   2.615   0.003   2.559  0.5066 -0.4749 -0.0010
 5236SOL    HW127344   2.631   4.690   2.480  2.3317  1.2875 -0.7728
 5236SOL    HW227345   2.673   0.079   2.554  1.3028 -1.2582 -2.7087
 5237SOL     OW27346   1.869   0.959   5.344  0.1641 -0.3213 -0.3739
 5237SOL    HW127347   1.899   0.926   5.259 -0.3291  0.6281 -0.9151
 5237SOL    HW227348   1.779   0.929   5.353  0.2008 -1.0239 -2.2850
 5238SOL     OW27349   1.145   3.282   6.855 -0.2899  0.0882 -0.0283
 5238SOL    HW127350   1.132   3.188   6.869  0.3361  0.1068  0.6740
 5238SOL    HW227351   1.057   3.314   6.835 -1.1638 -1.5809  1.1173
 5239SOL     OW27352   0.874   1.603   2.868 -0.2822  0.0492 -0.2415
 5239SOL    HW127353   0.823   1.673   2.909  1.0025  0.6194  0.4108
 5239SOL    HW227354   0.959   1.618   2.910 -0.2469  0.3358 -0.4099
 5240SOL     OW27355   2.025   0.489   8.362  0.1313  0.5360 -0.3193
 5240SOL    HW127356   2.071   0.562   8.403  0.0542  0.1668  0.4183
 5240SOL    HW227357   1.977   0.448   8.434 -0.6071 -1.0300 -1.7058
 5241SOL     OW27358   2.628   4.231   7.730  0.3568 -0.0451  0.1168
 5241SOL    HW127359   2.585   4.216   7.814  0.5646  0.6759  0.3518
 5241SOL    HW227360   2.587   4.315   7.711 -0.3601 -0.7550 -1.4509
 5242SOL     OW27361   3.901   0.232  11.305 -0.1154  0.4798 -0.5139
 5242SOL    HW127362   3.856   0.148  11.314  1.7412 -0.4023  0.5831
 5242SOL    HW227363   3.886   0.243  11.211 -2.0954  0.4471 -0.1971
 5243SOL     OW27364   0.375   2.659   1.894 -0.3963 -0.7051  0.3064
 5243SOL    HW127365   0.437   2.715   1.941 -2.0793 -0.1075  1.7780
 5243SOL    HW227366   0.341   2.728   1.838  0.8929 -0.2950  0.0177
 5244SOL     OW27367   2.541   1.199   7.895 -0.4430 -0.2857  0.2263
 5244SOL    HW127368   2.596   1.164   7.825  0.9832  0.8188  0.8011
 5244SOL    HW227369   2.451   1.177   7.868 -0.9473 -0.7291  2.3102
 5245SOL     OW27370   1.495   3.438   4.668 -0.2381 -0.0675 -0.6399
 5245SOL    HW127371   1.438   3.365   4.689  0.1713 -0.0538  0.4931
 5245SOL    HW227372   1.499   3.479   4.755 -1.7906  1.5610 -1.3267
 5246SOL     OW27373   3.153   4.581   8.185 -0.3683 -0.5480 -0.4511
 5246SOL    HW127374   3.186   4.644   8.121  0.3961  0.1963  0.6746
 5246SOL    HW227375   3.069   4.619   8.210  1.0733  1.9933  0.5930
 5247SOL     OW27376   2.564   3.816   6.445  0.0453 -0.0592 -0.0556
 5247SOL    HW127377   2.572   3.740   6.503  1.1722 -1.1370 -1.6291
 5247SOL    HW227378   2.543   3.775   6.361 -0.8185 -0.5089  0.3806
 5248SOL     OW27379   0.200   2.475  14.279 -0.1043 -0.3241  0.0193
 5248SOL    HW127380   0.199   2.380  14.292 -0.2275 -0.2558  0.5311
 5248SOL    HW227381   0.218   2.503  14.369  0.7183 -0.3807 -0.1216
 5249SOL     OW27382   2.575   2.017   5.721  0.3477 -0.2113 -0.0581
 5249SOL    HW127383   2.537   1.936   5.688  0.2748 -0.4164  0.5240
 5249SOL    HW227384   2.581   2.004   5.816 -3.1550  1.0599  0.3486
 5250SOL     OW27385   4.325   2.447   3.122 -0.4068  0.1234  0.2382
 5250SOL    HW127386   4.257   2.493   3.072  1.9298  1.6923 -1.5466
 5250SOL    HW227387   4.405   2.497   3.103 -0.8306  0.8556  0.3730
 5251SOL     OW27388   2.756   1.763   8.409  0.2887 -0.1332 -0.1610
 5251SOL    HW127389   2.689   1.728   8.349 -0.9574 -0.2504  1.2880
 5251SOL    HW227390   2.805   1.686   8.437  1.1663 -0.1805 -1.8036
 5252SOL     OW27391   3.887   2.950  12.505  0.3495  0.1286 -0.2250
 5252SOL    HW127392   3.862   3.013  12.438 -1.3953 -1.9147 -1.4874
 5252SOL    HW227393   3.835   2.988  12.576  0.3796  0.7174 -0.5181
 5253SOL     OW27394   4.421   1.426   9.090  0.2760  0.1364  0.1165
 5253SOL    HW127395   4.411   1.337   9.056  0.9037  0.0043  0.2811
 5253SOL    HW227396   4.331   1.458   9.093  0.9098  1.7700  1.6743
 5254SOL     OW27397   0.189   1.034   7.715 -0.2154 -0.0711  0.3327
 5254SOL    HW127398   0.175   1.033   7.809  1.9778  0.6217  0.6546
 5254SOL    HW227399   0.251   0.961   7.707 -0.7184 -0.5946  1.2182
 5255SOL     OW27400   2.947   2.890  10.101  0.4473 -0.2287 -0.3924
 5255SOL    HW127401   2.893   2.949  10.154 -0.5301 -0.9736 -0.5518
 5255SOL    HW227402   2.996   2.957  10.053  1.9733 -0.9922  0.0908
 5256SOL     OW27403   4.237   1.994   6.624 -0.1166  0.4232 -0.1859
 5256SOL    HW127404   4.310   1.937   6.597  2.3782  2.7301  1.7101
 5256SOL    HW227405   4.288   2.040   6.690  1.9898  0.3774 -1.7668
 5257SOL     OW27406   2.238   1.049   5.334  0.3428  0.0671  0.6675
 5257SOL    HW127407   2.203   1.131   5.299  2.7382  0.8532  0.1514
 5257SOL    HW227408   2.223   0.990   5.260 -0.0294  0.7031  0.2394
 5258SOL     OW27409   1.005   2.454   3.475  0.3406 -0.3576  0.4410
 5258SOL    HW127410   1.005   2.416   3.387  0.8312 -2.2700  1.2519
 5258SOL    HW227411   1.099   2.465   3.492  0.2207  1.3173 -0.0169
 5259SOL     OW27412   0.167   2.438  13.315  0.4616 -0.4660 -0.8543
 5259SOL    HW127413   0.123   2.472  13.393  1.5494 -1.8060  0.3408
 5259SOL    HW227414   0.089   2.425  13.262  0.4664  3.4566 -1.8169
 5260SOL     OW27415   0.504   3.843   7.728 -0.7334  0.2611  0.3280
 5260SOL    HW127416   0.545   3.828   7.814  0.0248  1.5418  0.1853
 5260SOL    HW227417   0.522   3.762   7.681 -2.0992  0.0591  0.1534
 5261SOL     OW27418   1.237   0.401   1.925  0.2070  0.0288  0.1183
 5261SOL    HW127419   1.177   0.339   1.966  1.5272 -0.5285  1.1991
 5261SOL    HW227420   1.177   0.436   1.859  0.6751 -1.4550 -1.1128
 5262SOL     OW27421   2.156   3.683   7.931  0.0085  0.1270 -0.0121
 5262SOL    HW127422   2.131   3.775   7.923  0.1674  0.0657 -1.1729
 5262SOL    HW227423   2.242   3.684   7.973 -1.0464 -0.4011  2.1942
 5263SOL     OW27424   2.455   2.261   3.643 -0.0157  0.7070  0.2058
 5263SOL    HW127425   2.531   2.237   3.697 -0.5755  0.5776  0.9445
 5263SOL    HW227426   2.471   2.354   3.633 -0.6544  0.9280  1.1741
 5264SOL     OW27427   3.555   3.069   5.668 -0.5296  0.0890 -0.2356
 5264SOL    HW127428   3.624   3.035   5.610  2.0940  4.0139  0.5788
 5264SOL    HW227429   3.580   3.162   5.675  0.3439 -0.0675 -1.1781
 5265SOL     OW27430   2.070   1.463  10.892 -0.2155 -0.3618  0.2322
 5265SOL    HW127431   2.040   1.445  10.981  0.8201  0.6783  0.7968
 5265SOL    HW227432   2.093   1.376  10.859 -0.3363 -0.5766  0.7008
 5266SOL     OW27433   2.694   1.315   0.047 -0.1026  0.1738 -0.0007
 5266SOL    HW127434   2.788   1.307   0.030 -0.4829  1.0767 -2.5058
 5266SOL    HW227435   2.664   1.307  17.706 -2.4436 -0.6794  0.8536
 5267SOL     OW27436   3.321   0.174   7.953  0.0830 -0.0338  0.5298
 5267SOL    HW127437   3.391   0.226   7.914 -0.8403  0.7821 -0.0494
 5267SOL    HW227438   3.377   0.110   7.996 -0.1706  0.6541  1.8775
 5268SOL     OW27439   0.147   4.544   2.436  0.3198 -0.6096 -0.3631
 5268SOL    HW127440   0.081   4.509   2.376  0.8285 -2.4752  0.1497
 5268SOL    HW227441   0.170   4.626   2.393  0.1262 -0.4665 -0.1925
 5269SOL     OW27442   3.442   2.300   5.720  0.0713  0.0791 -0.1916
 5269SOL    HW127443   3.422   2.349   5.640  1.5503  0.6388 -0.2142
 5269SOL    HW227444   3.531   2.272   5.696 -0.6670 -1.2636 -1.3491
 5270SOL     OW27445   2.267   2.818   4.670  0.0533  0.4362  0.5820
 5270SOL    HW127446   2.282   2.751   4.603 -1.0040 -0.1056  0.8984
 5270SOL    HW227447   2.361   2.832   4.682  0.4268 -1.3109 -0.3554
 5271SOL     OW27448   3.767   0.040   3.831  0.0390  0.7073  0.2892
 5271SOL    HW127449   3.718   4.700   3.857  1.4877 -0.7206 -1.2444
 5271SOL    HW227450   3.844   4.737   3.791 -0.3558 -1.0766  1.3329
 5272SOL     OW27451   1.786   3.051  10.309 -0.5521 -0.6901  0.3013
 5272SOL    HW127452   1.826   3.078  10.226 -0.6339 -0.0574  0.4704
 5272SOL    HW227453   1.823   3.115  10.370  1.3177 -1.6804  0.2047
 5273SOL     OW27454   1.560   2.248   7.504  0.1836 -0.0352 -0.4371
 5273SOL    HW127455   1.490   2.225   7.443  1.7119 -2.5527 -1.2382
 5273SOL    HW227456   1.505   2.299   7.564  0.9353 -0.1346  0.3367
 5274SOL     OW27457   1.244   2.984   8.274  0.3015 -0.0913  0.0452
 5274SOL    HW127458   1.304   2.924   8.319  0.5829  0.6731  0.6779
 5274SOL    HW227459   1.251   3.062   8.329  0.0609 -0.6015  0.7964
 5275SOL     OW27460   3.126   0.876   8.161  0.0947  0.3898 -0.3992
 5275SOL    HW127461   3.136   0.782   8.178  0.4095  0.4903 -0.0316
 5275SOL    HW227462   3.177   0.879   8.080  1.9008  1.8481  0.7866
 5276SOL     OW27463   3.299   1.543   7.857  0.2335  0.2360 -0.1421
 5276SOL    HW127464   3.369   1.598   7.893  0.6272  0.2398 -0.9115
 5276SOL    HW227465   3.275   1.505   7.941 -0.6682 -1.2931 -1.0965
 5277SOL     OW27466   0.425   1.189   6.956 -0.4005 -0.2976 -0.1647
 5277SOL    HW127467   0.342   1.163   6.995 -0.5023  0.4642  0.1302
 5277SOL    HW227468   0.483   1.156   7.026 -0.4886  0.5474  0.3030
 5278SOL     OW27469   1.234   4.075   5.501 -0.2574  0.5606  0.5441
 5278SOL    HW127470   1.321   4.040   5.478 -0.7554 -0.8772  0.8572
 5278SOL    HW227471   1.190   4.004   5.549  0.5890 -0.1976  0.2112
 5279SOL     OW27472   0.803   0.019  17.094 -1.2232 -0.6255  0.6811
 5279SOL    HW127473   0.835   4.684  17.147  1.0845  0.3009  0.5589
 5279SOL    HW227474   0.874   0.061  17.046 -1.1740  1.8816  2.9728
 5280SOL     OW27475   2.256   4.289   9.074  0.2488  0.2097  0.0655
 5280SOL    HW127476   2.290   4.362   9.023 -0.1096 -0.0524 -0.5478
 5280SOL    HW227477   2.281   4.217   9.016 -0.9614 -0.6203  0.5950
 5281SOL     OW27478   2.420   2.975  17.532 -0.0319  0.1994 -0.0009
 5281SOL    HW127479   2.426   2.955  17.438 -0.4628 -2.3198  0.4934
 5281SOL    HW227480   2.502   2.936  17.562  0.1947  0.0140 -0.8515
 5282SOL     OW27481   1.043   0.485  16.846 -0.1835 -0.3209  0.0778
 5282SOL    HW127482   1.066   0.454  16.759 -2.8053  0.2920 -0.8148
 5282SOL    HW227483   0.948   0.473  16.850 -0.2890  0.7716  0.8235
 5283SOL     OW27484   0.535   3.466   4.353  0.6670  0.0765  0.1354
 5283SOL    HW127485   0.494   3.467   4.267  0.3890  1.1524  0.2842
 5283SOL    HW227486   0.499   3.544   4.396 -0.5234 -1.3763  1.7999
 5284SOL     OW27487   4.281   3.818   6.044 -0.1751 -0.1286 -0.6822
 5284SOL    HW127488   4.331   3.878   5.989 -3.8787  2.3462 -1.3608
 5284SOL    HW227489   4.320   3.842   6.128 -0.9950  1.4329 -0.7565
 5285SOL     OW27490   2.677   3.388  11.086  0.0486  0.1616  0.3364
 5285SOL    HW127491   2.644   3.475  11.063 -0.6704  0.1242  1.1795
 5285SOL    HW227492   2.713   3.354  11.005 -1.1272 -0.3344  0.0194
 5286SOL     OW27493   2.421   1.928  14.258  0.0968  0.7634 -0.3155
 5286SOL    HW127494   2.327   1.909  14.252  0.5031 -1.4125  0.1554
 5286SOL    HW227495   2.428   1.966  14.346 -2.3394 -0.3557  0.3631
 5287SOL     OW27496   2.273   3.880   6.989 -1.0402  0.0091 -0.1194
 5287SOL    HW127497   2.237   3.792   7.001  0.0414 -0.5485 -0.9753
 5287SOL    HW227498   2.192   3.922   6.960  0.2534  2.4301 -0.2385
 5288SOL     OW27499   2.959   3.880  10.003 -0.1904 -0.1181  0.4982
 5288SOL    HW127500   2.924   3.967  10.027 -1.6037 -0.2172 -1.2320
 5288SOL    HW227501   3.019   3.884   9.929 -0.9339 -1.3870 -0.1704
 5289SOL     OW27502   4.620   0.014  13.253  0.2034  0.1286 -0.1716
 5289SOL    HW127503   4.646   4.663  13.278  0.6422  0.3184  0.0476
 5289SOL    HW227504   4.683   0.048  13.188 -1.2860  4.1155  0.4386
 5290SOL     OW27505   0.844   0.274   4.831  0.4910  0.0367  0.4007
 5290SOL    HW127506   0.867   0.193   4.876  0.6519 -0.0430  0.1762
 5290SOL    HW227507   0.757   0.292   4.867 -0.5680 -3.3528 -0.5166
 5291SOL     OW27508   0.374   0.422   8.180 -0.0751 -0.0694  0.1774
 5291SOL    HW127509   0.453   0.381   8.215  1.2611  0.4291 -2.2554
 5291SOL    HW227510   0.405   0.447   8.093 -3.8650  0.1610 -1.1164
 5292SOL     OW27511   0.391   2.747   3.326  0.5123  0.0267  0.3095
 5292SOL    HW127512   0.324   2.723   3.391  0.7929  2.7457  1.6380
 5292SOL    HW227513   0.432   2.821   3.371 -0.9738  0.8327  0.3414
 5293SOL     OW27514   3.184   0.295   6.151  0.0335  0.0576  0.5650
 5293SOL    HW127515   3.101   0.319   6.109  1.4703  1.9263 -1.2695
 5293SOL    HW227516   3.194   0.361   6.220 -1.3006  1.2732 -0.3973
 5294SOL     OW27517   4.202   0.475  10.566 -0.3521 -0.2546  0.0157
 5294SOL    HW127518   4.128   0.415  10.567 -0.6362  0.0646 -1.3687
 5294SOL    HW227519   4.221   0.469  10.660  0.2916 -2.5918 -0.2843
 5295SOL     OW27520   4.196   3.340   1.814  0.2492  0.0109 -0.3237
 5295SOL    HW127521   4.201   3.421   1.864 -4.3152  0.4887 -0.6610
 5295SOL    HW227522   4.191   3.277   1.886  3.6414  1.2011  0.9529
 5296SOL     OW27523   1.047   0.890   5.379  0.2457  0.0896  0.5785
 5296SOL    HW127524   1.098   0.971   5.386 -1.6540  1.4547 -1.1552
 5296SOL    HW227525   0.970   0.917   5.328 -0.8358 -1.3474  1.4652
 5297SOL     OW27526   4.150   3.873   3.463 -0.1102 -0.3025 -0.1067
 5297SOL    HW127527   4.075   3.857   3.520  1.2741 -1.4413  1.4118
 5297SOL    HW227528   4.217   3.809   3.488  0.4351 -0.6434 -2.4315
 5298SOL     OW27529   3.763   3.420   3.034  0.1823  0.3974 -0.0585
 5298SOL    HW127530   3.772   3.342   3.089 -0.2058  1.5524  1.6451
 5298SOL    HW227531   3.835   3.462   3.081 -0.6123  0.8285  0.7523
 5299SOL     OW27532   1.260   0.848   6.684 -0.6084  0.0451 -0.0060
 5299SOL    HW127533   1.263   0.786   6.612 -0.6105 -1.8126  1.5909
 5299SOL    HW227534   1.202   0.803   6.746 -0.6434 -0.4155 -0.3794
 5300SOL     OW27535   4.546   4.001  10.582  0.0685  0.1466  0.1514
 5300SOL    HW127536   4.595   3.941  10.526 -0.6347  1.3130 -1.7346
 5300SOL    HW227537   4.611   4.072  10.584  0.1063  0.1086  0.2795
 5301SOL     OW27538   2.424   1.989   4.881  0.4743 -0.1871  0.5889
 5301SOL    HW127539   2.496   2.030   4.927 -0.1962  0.4035  1.1037
 5301SOL    HW227540   2.353   2.053   4.878 -1.6650 -2.6548 -1.1755
 5302SOL     OW27541   4.314   2.451   8.228 -0.2538 -0.0706  0.1127
 5302SOL    HW127542   4.395   2.413   8.263 -0.5253  0.7834  1.6482
 5302SOL    HW227543   4.344   2.484   8.143  3.3451 -1.8710  0.6724
 5303SOL     OW27544   1.357   0.180   2.757  0.3147  0.2640 -0.2210
 5303SOL    HW127545   1.276   0.210   2.715 -0.3331  0.3151  1.0876
 5303SOL    HW227546   1.396   0.143   2.678  0.5883 -1.1039  0.5649
 5304SOL     OW27547   3.703   4.364   2.561  1.2441  0.3187  0.3768
 5304SOL    HW127548   3.613   4.332   2.549  0.6306  2.0139  0.3903
 5304SOL    HW227549   3.738   4.344   2.474 -1.4311  0.8720 -0.8463
 5305SOL     OW27550   1.257   1.966  16.455  0.2490 -0.1031 -0.0978
 5305SOL    HW127551   1.273   1.913  16.534  0.9007  1.2165  0.6598
 5305SOL    HW227552   1.347   1.995  16.438  0.7783 -2.0545 -0.7056
 5306SOL     OW27553   2.939   2.139   8.807  0.1762 -0.4557  0.1906
 5306SOL    HW127554   3.035   2.146   8.815  0.3825  0.1163 -2.5433
 5306SOL    HW227555   2.922   2.048   8.833  1.3675 -0.6827  0.1929
 5307SOL     OW27556   1.733   0.126  14.861 -0.0021  0.6080  0.5030
 5307SOL    HW127557   1.824   0.154  14.873  0.5833 -0.4450 -1.4508
 5307SOL    HW227558   1.720   0.087  14.947  2.3475 -2.8633 -0.7005
 5308SOL     OW27559   1.842   2.591   2.023  0.0370  0.5699  0.2834
 5308SOL    HW127560   1.778   2.564   2.088  0.7025  2.0110  1.5351
 5308SOL    HW227561   1.923   2.566   2.068 -0.6210  1.0617  1.7256
 5309SOL     OW27562   3.232   1.853   7.455 -0.2506  0.2903 -0.1263
 5309SOL    HW127563   3.225   1.783   7.519  2.4710  0.0857 -0.0471
 5309SOL    HW227564   3.238   1.812   7.369 -1.9909  1.4721 -0.8162
 5310SOL     OW27565   1.573   3.203   3.925 -0.0939 -0.1596 -0.2209
 5310SOL    HW127566   1.568   3.279   3.984 -1.3172 -1.6429  1.5608
 5310SOL    HW227567   1.664   3.197   3.897 -0.4698  0.8330 -1.6324
 5311SOL     OW27568   2.109   0.973   3.083 -0.1508 -0.1575 -0.2872
 5311SOL    HW127569   2.057   0.913   3.137  0.8674  0.0146  0.8762
 5311SOL    HW227570   2.182   0.919   3.052  2.0653  1.8881  1.4008
 5312SOL     OW27571   4.626   3.050  11.460  0.0351  0.1195  0.3868
 5312SOL    HW127572   4.560   3.006  11.514  0.0112 -0.4039 -0.0586
 5312SOL    HW227573   4.581   3.081  11.382 -0.8551  1.0025  1.2578
 5313SOL     OW27574   3.698   0.814   6.263  0.0925  0.4775 -0.6085
 5313SOL    HW127575   3.727   0.826   6.172 -0.1595  2.9400 -0.3524
 5313SOL    HW227576   3.637   0.884   6.285  0.9085  0.8000  0.6499
 5314SOL     OW27577   0.251   2.692   4.046  0.5714  0.3991  0.1069
 5314SOL    HW127578   0.337   2.732   4.057  1.3039 -1.4591  1.1537
 5314SOL    HW227579   0.195   2.765   4.021  1.8571  1.5161  0.4774
 5315SOL     OW27580   3.764   4.577   3.016 -0.5870  0.3883 -0.2464
 5315SOL    HW127581   3.807   4.501   2.976 -0.6846 -0.3467  1.0334
 5315SOL    HW227582   3.834   4.641   3.003  1.5015 -1.7725  0.2394
 5316SOL     OW27583   0.809   3.380  16.769 -0.2947  0.1284  0.0384
 5316SOL    HW127584   0.781   3.290  16.752 -1.9771  0.9476 -1.5403
 5316SOL    HW227585   0.802   3.408  16.677  1.1762 -0.6408 -0.2977
 5317SOL     OW27586   1.721   3.982   1.958  0.1516  0.4330  0.6548
 5317SOL    HW127587   1.717   3.899   2.006 -2.3606 -0.0948 -0.4760
 5317SOL    HW227588   1.800   4.021   1.995  2.5977 -1.1441 -2.9671
 5318SOL     OW27589   0.173   4.046   8.747 -0.5629  0.2153  0.4555
 5318SOL    HW127590   0.179   4.122   8.689 -0.8407  0.0603  0.2233
 5318SOL    HW227591   0.135   3.975   8.696 -0.6014  0.7632 -0.2743
 5319SOL     OW27592   3.831   0.346   6.101 -0.3273 -0.1266  0.1757
 5319SOL    HW127593   3.767   0.275   6.103  0.6454 -1.0308 -1.2724
 5319SOL    HW227594   3.884   0.328   6.023 -1.0222 -0.6245 -0.1787
 5320SOL     OW27595   4.278   0.215  11.590  0.3131 -0.1653 -0.0685
 5320SOL    HW127596   4.268   0.226  11.495 -0.8806  0.8782  0.1697
 5320SOL    HW227597   4.189   0.185  11.609  0.7569 -1.2828  0.2043
 5321SOL     OW27598   4.180   4.338   2.979  0.0892  0.0006  0.1901
 5321SOL    HW127599   4.270   4.343   2.946  0.5467 -2.9867  0.9979
 5321SOL    HW227600   4.142   4.423   2.960 -3.3795 -1.4614  0.6251
 5322SOL     OW27601   0.840   1.433   7.863 -0.0126  0.1439 -0.5161
 5322SOL    HW127602   0.933   1.424   7.843  0.2414 -1.2604  1.3005
 5322SOL    HW227603   0.820   1.526   7.849 -0.8432  0.2854  1.6098
 5323SOL     OW27604   4.078   0.554   3.733  0.1887 -0.0747  0.2104
 5323SOL    HW127605   4.163   0.513   3.750 -0.3047 -0.3206  2.0393
 5323SOL    HW227606   4.051   0.558   3.824  0.6074  0.3178  0.3157
 5324SOL     OW27607   2.825   1.829   4.615  0.1010  0.6453 -0.2865
 5324SOL    HW127608   2.763   1.756   4.611  0.8185  0.0449 -0.5277
 5324SOL    HW227609   2.848   1.843   4.523  1.2961  1.9971  0.2219
 5325SOL     OW27610   3.658   2.129   3.993 -0.1386 -0.1987 -0.6034
 5325SOL    HW127611   3.669   2.097   3.904  2.7825  0.9834 -0.6402
 5325SOL    HW227612   3.723   2.083   4.047 -0.0872  2.1509  1.3076
 5326SOL     OW27613   3.774   0.848   9.039  0.0141 -0.1940  0.6887
 5326SOL    HW127614   3.845   0.911   9.039  2.1786 -2.6324 -0.7879
 5326SOL    HW227615   3.707   0.898   9.086 -1.7754  0.5938 -2.6779
 5327SOL     OW27616   3.506   3.986   5.469 -0.1755  0.1795  0.3599
 5327SOL    HW127617   3.455   3.914   5.506 -1.4457  0.0296 -1.6706
 5327SOL    HW227618   3.537   4.038   5.543  0.2462  1.0188 -0.4062
 5328SOL     OW27619   3.121   0.241   6.617 -0.2300  0.2362  0.0502
 5328SOL    HW127620   3.080   0.200   6.694 -0.5335  1.9110  0.7774
 5328SOL    HW227621   3.064   0.213   6.544  0.3277  1.7972 -0.9734
 5329SOL     OW27622   2.202   3.552   2.366  0.3100  0.5995 -0.1868
 5329SOL    HW127623   2.128   3.602   2.330 -1.2255 -1.3028  0.2986
 5329SOL    HW227624   2.221   3.599   2.447  1.1117 -0.4004  0.2134
 5330SOL     OW27625   4.442   3.233   2.814 -0.1657  0.2931  0.3659
 5330SOL    HW127626   4.480   3.146   2.805 -1.7911 -0.4953  1.1586
 5330SOL    HW227627   4.525   3.280   2.802  1.1071 -1.7627  1.1021
 5331SOL     OW27628   3.878   1.498  16.879  0.1174  0.1089 -0.1314
 5331SOL    HW127629   3.863   1.514  16.786 -0.4052  0.6176  0.0458
 5331SOL    HW227630   3.926   1.415  16.879 -2.2926 -1.2590 -1.2687
 5332SOL     OW27631   1.994   1.693  14.659  0.0069 -0.0796  0.5938
 5332SOL    HW127632   1.914   1.708  14.608  1.1738  0.0362 -1.1598
 5332SOL    HW227633   1.956   1.656  14.739 -0.9123  1.0889  0.6882
 5333SOL     OW27634   4.041   3.854   3.917 -0.3951 -0.2490  0.3300
 5333SOL    HW127635   4.107   3.786   3.907 -3.0947 -2.8588  0.4617
 5333SOL    HW227636   3.982   3.805   3.974  0.0042  0.3011  1.2107
 5334SOL     OW27637   3.036   1.347   7.479  0.0454  0.4905  0.1155
 5334SOL    HW127638   2.976   1.393   7.539 -0.7082 -1.0363  0.5354
 5334SOL    HW227639   3.116   1.389   7.511 -2.1221  2.1282  3.3666
 5335SOL     OW27640   3.431   3.236   6.931  0.3285  0.0254  0.2399
 5335SOL    HW127641   3.513   3.267   6.971 -0.0635  3.6393 -1.8272
 5335SOL    HW227642   3.397   3.197   7.012 -0.1136 -2.3702 -1.0990
 5336SOL     OW27643   4.034   0.197   8.369 -0.1014 -0.4712  0.0627
 5336SOL    HW127644   4.057   0.107   8.391  1.4284  0.0415  0.5877
 5336SOL    HW227645   3.987   0.190   8.287 -0.2618 -0.5920  0.1647
 5337SOL     OW27646   0.449   2.377   1.870  0.0908  0.1832  0.3662
 5337SOL    HW127647   0.475   2.465   1.897 -1.4774  0.8604 -0.3096
 5337SOL    HW227648   0.356   2.372   1.894  0.1419  0.7908  0.6773
 5338SOL     OW27649   1.474   1.262   5.567 -0.1889 -0.8929 -0.8330
 5338SOL    HW127650   1.499   1.170   5.556  1.9271 -0.4659  0.3904
 5338SOL    HW227651   1.402   1.265   5.630  0.0679  1.7641 -0.6743
 5339SOL     OW27652   3.958   2.100   2.547  0.6416 -0.0511 -0.0447
 5339SOL    HW127653   3.950   2.032   2.614  0.1774 -0.4888 -0.5447
 5339SOL    HW227654   4.005   2.166   2.597  2.0960 -0.9781 -0.2047
 5340SOL     OW27655   2.024   0.557   0.270 -0.6980 -0.3632 -0.2097
 5340SOL    HW127656   2.059   0.481   0.316  3.3150  2.0355  0.7218
 5340SOL    HW227657   2.002   0.517   0.186 -2.0547 -0.8683  0.3860
 5341SOL     OW27658   3.791   4.732   1.817 -0.2648 -0.1876  0.1753
 5341SOL    HW127659   3.761   0.046   1.893  2.7773 -0.6250  1.6856
 5341SOL    HW227660   3.708   4.716   1.773 -1.6311  0.6577  2.3930
 5342SOL     OW27661   4.478   2.190   5.895  0.1628 -0.6515  0.4766
 5342SOL    HW127662   4.511   2.105   5.926  2.0660  0.2900  1.0367
 5342SOL    HW227663   4.470   2.235   5.979  1.5166 -0.8752  0.7246
 5343SOL     OW27664   2.319   4.026   2.017  0.3009  0.2063  0.4376
 5343SOL    HW127665   2.257   4.033   1.944 -1.4103  2.1718  2.0769
 5343SOL    HW227666   2.316   3.931   2.027 -0.9982  0.1886 -0.1016
 5344SOL     OW27667   4.644   3.826  14.910  0.2438 -0.0563 -0.1817
 5344SOL    HW127668   4.620   3.779  14.830  1.0894 -0.9586  0.0924
 5344SOL    HW227669   4.583   3.793  14.976 -2.3216  2.5225 -1.2514
 5345SOL     OW27670   3.579   3.650   1.845  0.0660  0.0609 -0.3540
 5345SOL    HW127671   3.610   3.570   1.888 -0.3850 -1.0583 -2.1140
 5345SOL    HW227672   3.626   3.652   1.762 -0.9979 -0.0097 -0.9565
 5346SOL     OW27673   2.763   3.178   3.665 -0.1615  0.1658 -0.3532
 5346SOL    HW127674   2.832   3.243   3.656 -0.3282  0.8260  2.9048
 5346SOL    HW227675   2.682   3.229   3.658  0.5701  1.2081 -1.0569
 5347SOL     OW27676   3.021   4.277   7.160 -0.2198  0.4664  0.0744
 5347SOL    HW127677   3.000   4.260   7.251  0.8106  1.8992  0.5840
 5347SOL    HW227678   2.990   4.195   7.122 -1.4365  0.5822  0.8569
 5348SOL     OW27679   4.501   4.612   9.116  0.2236  0.7115  0.6765
 5348SOL    HW127680   4.434   4.545   9.131  0.2142  1.1106  2.4380
 5348SOL    HW227681   4.575   4.559   9.085  1.4560  2.4200  0.6966
 5349SOL     OW27682   1.421   3.755  11.613 -0.0624  0.5049 -0.2171
 5349SOL    HW127683   1.453   3.670  11.581  1.0237  0.8702 -0.0940
 5349SOL    HW227684   1.481   3.761  11.687 -1.0742 -0.9914  0.7218
 5350SOL     OW27685   3.803   3.391   6.608 -0.0765  0.1022 -0.2860
 5350SOL    HW127686   3.732   3.338   6.643  1.7037 -1.2974  1.1633
 5350SOL    HW227687   3.770   3.480   6.621 -1.4360 -0.7156  1.8195
 5351SOL     OW27688   4.342   1.187   5.265 -0.0369  0.0946  0.2594
 5351SOL    HW127689   4.429   1.180   5.227  0.0756  1.2456  0.2919
 5351SOL    HW227690   4.290   1.222   5.192 -1.5834 -1.2972  0.6788
 5352SOL     OW27691   0.261   0.636   8.313  0.9908  0.6377 -0.7635
 5352SOL    HW127692   0.262   0.550   8.270 -1.1200  1.5719 -2.7016
 5352SOL    HW227693   0.171   0.667   8.298  0.9533  1.6393  1.6140
 5353SOL     OW27694   2.431   0.890  12.446  0.0345 -0.5110  0.0740
 5353SOL    HW127695   2.373   0.847  12.509 -0.1008  1.1555  1.0913
 5353SOL    HW227696   2.431   0.835  12.368  3.5976 -0.3008 -0.0747
 5354SOL     OW27697   1.138   1.759  10.867 -0.6830  0.3251 -0.1294
 5354SOL    HW127698   1.105   1.673  10.895  0.3104  0.1117  0.4175
 5354SOL    HW227699   1.166   1.807  10.945 -1.6524  0.4439  0.1391
 5355SOL     OW27700   3.171   2.249   5.003  0.1157  0.7077 -0.6672
 5355SOL    HW127701   3.157   2.303   4.925 -0.1482 -0.7764 -1.6490
 5355SOL    HW227702   3.133   2.164   4.980  1.5529 -0.3809  0.9216
 5356SOL     OW27703   4.597   2.629   7.034 -0.4077 -0.3795 -0.5305
 5356SOL    HW127704   4.503   2.649   7.034 -0.4964 -0.7774  0.0748
 5356SOL    HW227705   4.629   2.693   6.971 -1.4089  0.0940 -0.5572
 5357SOL     OW27706   3.926   1.360   2.504 -0.5896 -0.4909  0.1476
 5357SOL    HW127707   4.009   1.340   2.461 -0.2439  1.8184 -0.2849
 5357SOL    HW227708   3.921   1.277   2.550  2.2042 -0.7279 -0.0045
 5358SOL     OW27709   0.508   2.734  16.925  0.0584  0.4334 -0.2336
 5358SOL    HW127710   0.421   2.698  16.915  0.7443 -0.7698 -1.7263
 5358SOL    HW227711   0.502   2.794  16.851  0.8325  1.3604  0.4483
 5359SOL     OW27712   3.063   1.406  10.156 -0.3310  0.3977  0.6295
 5359SOL    HW127713   3.100   1.384  10.071  1.2305 -0.5932  1.5647
 5359SOL    HW227714   2.969   1.412  10.137 -0.2147 -0.4882 -0.2088
 5360SOL     OW27715   3.109   1.384   8.024  0.2510 -0.2760 -0.0750
 5360SOL    HW127716   3.156   1.340   8.096 -0.8170  1.3888  1.6319
 5360SOL    HW227717   3.054   1.315   7.988  0.3668 -1.1815  1.4598
 5361SOL     OW27718   1.608   2.303   3.069  0.7410  0.3092  0.3456
 5361SOL    HW127719   1.665   2.275   3.141 -2.3080 -1.5412  2.0496
 5361SOL    HW227720   1.674   2.345   3.014  0.3855 -1.3561 -1.3537
 5362SOL     OW27721   0.948   0.631  12.144  0.1147 -0.4950 -0.0045
 5362SOL    HW127722   0.950   0.715  12.097  2.8755 -0.0010  1.0133
 5362SOL    HW227723   0.930   0.663  12.232 -0.5096  0.7932 -0.5838
 5363SOL     OW27724   2.075   1.464   3.806 -0.1012 -0.4985 -0.1578
 5363SOL    HW127725   2.037   1.433   3.724 -2.2709 -0.7668  0.9584
 5363SOL    HW227726   2.021   1.435   3.879 -1.0594  0.6628 -0.3963
 5364SOL     OW27727   1.640   2.996   4.837 -0.1566  0.1130  0.4009
 5364SOL    HW127728   1.642   2.914   4.788  0.4169  0.0132  0.5898
 5364SOL    HW227729   1.713   3.035   4.790 -1.3473  0.5817 -1.0819
 5365SOL     OW27730   1.752   0.642   8.449 -0.2294  0.2165  0.1979
 5365SOL    HW127731   1.664   0.658   8.483 -0.0736 -0.1874  0.7707
 5365SOL    HW227732   1.796   0.723   8.476 -1.6695  0.7656  0.8912
 5366SOL     OW27733   4.021   0.970   7.049  0.1998 -0.0365  0.1446
 5366SOL    HW127734   4.062   0.899   7.097 -1.4098 -1.2604 -0.2695
 5366SOL    HW227735   4.040   1.049   7.100 -0.9957 -0.5783  1.4034
 5367SOL     OW27736   1.702   3.321   6.549 -0.9780 -0.7756 -0.2788
 5367SOL    HW127737   1.729   3.283   6.466 -0.1070 -2.5496  0.8192
 5367SOL    HW227738   1.673   3.247   6.601 -1.4107  0.6422  1.5268
 5368SOL     OW27739   2.736   2.316  14.201 -0.2635  0.0891 -0.5292
 5368SOL    HW127740   2.764   2.401  14.167  1.6040 -0.6195 -0.7518
 5368SOL    HW227741   2.801   2.257  14.161  0.6541  0.9652 -0.3413
 5369SOL     OW27742   1.350   2.238   2.720 -0.3645  0.1902 -0.8284
 5369SOL    HW127743   1.292   2.215   2.793 -0.7081  2.1917 -0.4752
 5369SOL    HW227744   1.296   2.220   2.643  0.0772  0.2403 -1.1475
 5370SOL     OW27745   0.356   2.226   3.109 -0.2749  0.4676  0.0419
 5370SOL    HW127746   0.405   2.156   3.153 -0.6821  0.3863  0.3672
 5370SOL    HW227747   0.391   2.235   3.020  0.5727 -0.1216  0.3172
 5371SOL     OW27748   0.246   3.188   0.320  0.2784  0.3546 -0.1540
 5371SOL    HW127749   0.163   3.171   0.364 -0.3516  0.2920 -1.3752
 5371SOL    HW227750   0.286   3.262   0.368  0.9858  0.1217 -0.3806
 5372SOL     OW27751   2.275   1.334   8.493  0.3800  0.1845 -0.2486
 5372SOL    HW127752   2.309   1.392   8.561  0.5019 -2.1965  1.6961
 5372SOL    HW227753   2.357   1.292   8.469  1.4889  2.3370 -0.1944
 5373SOL     OW27754   3.965   0.357   5.255 -0.4663 -0.5071  0.0583
 5373SOL    HW127755   3.934   0.287   5.197  1.9527 -0.6003 -1.1174
 5373SOL    HW227756   3.968   0.437   5.203 -0.0502 -0.0174  0.8346
 5374SOL     OW27757   4.097   2.703   3.351  0.6584  0.1381 -0.0119
 5374SOL    HW127758   4.165   2.770   3.343  0.9670 -0.0898  0.6922
 5374SOL    HW227759   4.036   2.743   3.412 -0.5713 -0.8173 -0.6087
 5375SOL     OW27760   4.266   4.384  14.714  0.6560 -0.6727  0.0347
 5375SOL    HW127761   4.296   4.310  14.661  2.1871 -0.7932  1.0883
 5375SOL    HW227762   4.212   4.332  14.774 -0.3513 -1.1514 -1.2844
 5376SOL     OW27763   3.708   0.782   2.783  0.3696 -0.0183 -0.4221
 5376SOL    HW127764   3.784   0.824   2.825  0.8778  0.5451 -1.8923
 5376SOL    HW227765   3.715   0.700   2.832 -0.6081  1.5136  2.2748
 5377SOL     OW27766   3.556   2.126   8.285  0.3041 -0.1864 -0.0065
 5377SOL    HW127767   3.550   2.210   8.330  1.3372 -0.5533  0.8256
 5377SOL    HW227768   3.580   2.155   8.197 -1.9591  2.2872  0.1890
 5378SOL     OW27769   1.709   3.849  10.275  0.6265 -0.0025  0.0333
 5378SOL    HW127770   1.726   3.772  10.331 -0.1808  1.2359  1.9958
 5378SOL    HW227771   1.781   3.855  10.212  0.7313 -1.5429 -0.0113
 5379SOL     OW27772   0.903   4.097  17.171  0.1064  0.0703  0.3061
 5379SOL    HW127773   0.982   4.061  17.131  0.5809  2.0204 -0.5454
 5379SOL    HW227774   0.943   4.126  17.253  1.1355 -0.3693 -0.0460
 5380SOL     OW27775   2.025   4.122   4.283 -0.0644  0.3796  0.1890
 5380SOL    HW127776   2.051   4.159   4.367  2.4448  0.2830 -0.5496
 5380SOL    HW227777   2.098   4.063   4.264  0.1381 -0.2655  2.9623
 5381SOL     OW27778   2.897   2.871  15.253  0.6351 -0.0662 -0.2893
 5381SOL    HW127779   2.845   2.881  15.174 -1.7963 -0.4756  1.2561
 5381SOL    HW227780   2.978   2.838  15.214  2.1579 -1.9793  4.4845
 5382SOL     OW27781   3.686   1.544  13.740 -0.1972  0.0072  0.6944
 5382SOL    HW127782   3.766   1.520  13.693 -0.7378 -2.9172  1.2300
 5382SOL    HW227783   3.623   1.584  13.680 -0.3835 -1.3146  0.0033
 5383SOL     OW27784   0.785   0.411   7.964 -0.2623  1.2090 -0.0452
 5383SOL    HW127785   0.779   0.323   8.001  0.4591  1.9153  1.7197
 5383SOL    HW227786   0.826   0.461   8.035  0.4585  0.5164  0.0215
 5384SOL     OW27787   1.502   3.213  15.352 -0.0300  0.0338 -0.1573
 5384SOL    HW127788   1.413   3.190  15.378 -0.7837 -0.6424 -3.4043
 5384SOL    HW227789   1.555   3.166  15.416  0.9939  1.3261 -0.0404
 5385SOL     OW27790   3.526   4.456   5.145  0.6907  0.5702 -0.4490
 5385SOL    HW127791   3.568   4.499   5.219  0.3859  1.4050 -0.7715
 5385SOL    HW227792   3.530   4.368   5.183 -0.3163  0.7937  0.1770
 5386SOL     OW27793   1.903   4.239   9.521 -0.0636  0.3376 -0.1265
 5386SOL    HW127794   1.905   4.290   9.440 -0.0098  0.8676  0.2161
 5386SOL    HW227795   1.830   4.177   9.520  0.1658  0.0393  1.5687
 5387SOL     OW27796   0.089   2.170   3.491  0.1935 -0.0499 -0.0054
 5387SOL    HW127797   0.118   2.251   3.450 -0.4317 -0.3032 -0.9592
 5387SOL    HW227798   0.165   2.135   3.538  0.9121 -0.3289 -1.3871
 5388SOL     OW27799   2.395   3.168   7.279 -0.0355 -0.4018  0.5523
 5388SOL    HW127800   2.441   3.094   7.318 -0.4454 -1.2583 -0.5709
 5388SOL    HW227801   2.326   3.165   7.346 -2.0152 -0.8078 -1.5021
 5389SOL     OW27802   4.452   4.191   1.336  0.6715 -0.1657  0.6035
 5389SOL    HW127803   4.371   4.225   1.373 -0.1319 -1.4295  0.0035
 5389SOL    HW227804   4.447   4.215   1.244 -2.2865  0.1322  0.8516
 5390SOL     OW27805   0.509   0.333  15.086  0.4225 -0.3353  0.5304
 5390SOL    HW127806   0.592   0.367  15.052 -1.3247 -1.9691 -5.5240
 5390SOL    HW227807   0.518   0.345  15.180 -3.4219 -0.8703  0.9545
 5391SOL     OW27808   2.797   3.796   5.868  0.1724  0.2955  0.3058
 5391SOL    HW127809   2.869   3.753   5.822 -0.2032 -0.7508  0.7041
 5391SOL    HW227810   2.746   3.823   5.791 -2.7242 -3.0844  1.0650
 5392SOL     OW27811   2.859   0.211   7.608 -0.0643  0.6583 -0.1343
 5392SOL    HW127812   2.886   0.146   7.543  1.1048 -0.1957  1.2141
 5392SOL    HW227813   2.885   0.288   7.556  3.4902 -1.0912 -0.9102
 5393SOL     OW27814   0.731   2.115  15.771 -0.1214 -0.1142  0.0220
 5393SOL    HW127815   0.684   2.038  15.801 -2.0787  1.7719  1.7833
 5393SOL    HW227816   0.788   2.074  15.705  2.3149 -1.7453  3.1822
 5394SOL     OW27817   3.255   4.247   7.534 -0.4091  0.3425 -0.2792
 5394SOL    HW127818   3.241   4.156   7.559  0.7710  0.2481  0.0435
 5394SOL    HW227819   3.168   4.275   7.506  0.1646  0.6663 -1.7621
 5395SOL     OW27820   2.932   0.027  13.448 -0.1261  0.4419  0.0922
 5395SOL    HW127821   2.968   0.065  13.529  4.1849 -0.4505 -1.4027
 5395SOL    HW227822   2.844   0.002  13.474  0.0378 -0.9538 -0.7378
 5396SOL     OW27823   3.932   2.421   6.541 -0.1264  0.0273  0.3438
 5396SOL    HW127824   3.921   2.326   6.543  1.8088 -0.1953  0.0730
 5396SOL    HW227825   4.011   2.426   6.487 -0.5262 -0.0800 -0.2394
 5397SOL     OW27826   0.347   2.108   8.165 -0.0124 -0.3760 -0.2781
 5397SOL    HW127827   0.381   2.148   8.085 -0.6728  2.6275  0.9393
 5397SOL    HW227828   0.381   2.157   8.239 -1.1826 -1.9429  1.3083
 5398SOL     OW27829   1.966   3.816  10.155 -0.2348 -0.2712 -0.1974
 5398SOL    HW127830   1.980   3.723  10.171 -2.2618 -0.8601 -1.8304
 5398SOL    HW227831   1.934   3.814  10.065  0.6694  0.2763 -0.5282
 5399SOL     OW27832   1.937   3.626   5.479 -0.1262  0.2537  0.1202
 5399SOL    HW127833   1.844   3.647   5.474  0.2671  1.5042 -2.1792
 5399SOL    HW227834   1.969   3.693   5.539 -0.1093 -2.9211  3.6692
 5400SOL     OW27835   1.184   1.622   6.645 -0.2229 -0.0891  0.1584
 5400SOL    HW127836   1.190   1.532   6.615  0.8941  0.2852 -0.7318
 5400SOL    HW227837   1.275   1.653   6.643  0.0508 -1.0718 -2.3203
 5401SOL     OW27838   1.915   4.055   8.769  0.0115  0.4930 -0.6505
 5401SOL    HW127839   1.936   4.097   8.853  0.5066  2.2998 -1.6864
 5401SOL    HW227840   1.820   4.051   8.778 -0.1185 -2.8198 -3.4504
 5402SOL     OW27841   3.976   3.992   5.238  0.7824 -0.0858 -0.3309
 5402SOL    HW127842   3.976   4.012   5.144 -1.2526  1.0384 -0.0948
 5402SOL    HW227843   4.035   4.061   5.268  1.0129 -0.0332 -0.9016
 5403SOL     OW27844   3.116   3.064   4.097 -0.3756  0.2280 -0.1211
 5403SOL    HW127845   3.193   3.021   4.133 -1.2498 -1.1023  0.1512
 5403SOL    HW227846   3.139   3.082   4.006 -0.1371 -0.2995 -0.1624
 5404SOL     OW27847   3.170   2.908   2.015 -0.0781 -0.3669  0.1775
 5404SOL    HW127848   3.129   2.925   1.931  0.6706 -1.7352 -0.4691
 5404SOL    HW227849   3.222   2.834   1.983  1.4351  0.5255  0.5675
 5405SOL     OW27850   0.375   2.002  16.451 -0.1372 -0.3040 -0.1149
 5405SOL    HW127851   0.285   2.002  16.419 -0.6480 -0.3162  1.3419
 5405SOL    HW227852   0.388   1.908  16.463 -0.2082 -0.2708  0.2222
 5406SOL     OW27853   0.622   3.709   4.131  0.5374  0.1860 -0.3572
 5406SOL    HW127854   0.691   3.646   4.152 -2.0735 -1.3168  3.7577
 5406SOL    HW227855   0.652   3.746   4.049  2.7546 -1.8014 -0.4269
 5407SOL     OW27856   3.672   0.622   3.170 -0.5915  0.4060  0.6340
 5407SOL    HW127857   3.703   0.699   3.217 -2.2119  2.7280 -2.1358
 5407SOL    HW227858   3.580   0.647   3.164 -0.7833 -0.2813  0.6631
 5408SOL     OW27859   2.731   3.240   7.716  0.3773 -0.4669 -0.3147
 5408SOL    HW127860   2.687   3.279   7.640 -1.7699 -2.4188 -0.0662
 5408SOL    HW227861   2.761   3.166   7.662  1.4156 -0.1487 -0.1679
 5409SOL     OW27862   3.329   3.409   8.559 -0.1311 -0.1726  0.2519
 5409SOL    HW127863   3.285   3.443   8.637  0.4287  0.1072  0.4415
 5409SOL    HW227864   3.313   3.476   8.493 -1.8744 -1.4360 -0.6197
 5410SOL     OW27865   1.762   4.154  10.781 -0.1239  0.7875  0.3979
 5410SOL    HW127866   1.675   4.122  10.759 -0.4530  0.7756  1.7409
 5410SOL    HW227867   1.784   4.090  10.848 -1.0288  0.6065  0.5130
 5411SOL     OW27868   3.120   3.383   4.600 -0.1439  0.0956 -0.0606
 5411SOL    HW127869   3.173   3.391   4.680  1.3331 -1.0789 -0.9135
 5411SOL    HW227870   3.045   3.434   4.628 -0.0412 -0.8324  1.9127
 5412SOL     OW27871   2.545   1.713   3.959  0.1494  0.0843 -0.0138
 5412SOL    HW127872   2.637   1.715   3.985 -0.3229  0.6841  1.6378
 5412SOL    HW227873   2.514   1.637   4.008 -1.8899  1.6092  1.0238
 5413SOL     OW27874   0.994   2.322   4.470  0.1649  0.3291  0.1363
 5413SOL    HW127875   1.024   2.390   4.410  0.2856  0.0111 -0.1699
 5413SOL    HW227876   1.042   2.248   4.432 -0.5124 -0.0344 -0.0232
 5414SOL     OW27877   1.158   4.482   3.397  0.0066  0.1623  0.6276
 5414SOL    HW127878   1.076   4.528   3.412  0.7285  1.3159  1.0308
 5414SOL    HW227879   1.217   4.551   3.367 -1.6297  1.5834  0.6788
 5415SOL     OW27880   1.327   0.247   5.817 -0.0419 -0.0608  0.2015
 5415SOL    HW127881   1.299   0.160   5.846  1.9342  0.2854  3.0829
 5415SOL    HW227882   1.419   0.232   5.795  0.2151 -0.2351  1.4525
 5416SOL     OW27883   2.206   4.713   7.999  0.1403 -0.1442  0.3878
 5416SOL    HW127884   2.260   4.737   7.924 -1.4414 -0.7802 -0.9483
 5416SOL    HW227885   2.137   0.040   7.986 -0.8941 -1.3805 -0.2861
 5417SOL     OW27886   1.265   3.679   0.863  0.3216  0.3582 -0.2297
 5417SOL    HW127887   1.342   3.626   0.885  1.6265  2.3919  0.2236
 5417SOL    HW227888   1.291   3.747   0.926  2.0743 -0.3125 -0.2392
 5418SOL     OW27889   0.681   0.235   3.772  0.3781 -0.4634  0.2339
 5418SOL    HW127890   0.666   0.156   3.824 -0.4154  0.1071  0.8537
 5418SOL    HW227891   0.644   0.299   3.832  1.6121  0.7874 -0.3452
 5419SOL     OW27892   4.405   4.732   6.689 -0.4192  0.0873 -0.3573
 5419SOL    HW127893   4.454   0.004   6.770 -1.2545 -0.1398  0.1747
 5419SOL    HW227894   4.339   0.062   6.704  0.4322  0.8505 -0.0963
 5420SOL     OW27895   1.411   2.888   6.863 -0.1410  0.2445 -1.0988
 5420SOL    HW127896   1.479   2.899   6.929 -0.5997 -1.8192 -0.2717
 5420SOL    HW227897   1.394   2.794   6.874 -1.3419  0.5798 -0.1207
 5421SOL     OW27898   1.642   3.608   1.472 -0.1152 -0.1298 -0.5362
 5421SOL    HW127899   1.586   3.550   1.523  1.8824 -1.6254 -0.0188
 5421SOL    HW227900   1.581   3.637   1.404 -1.0881 -0.2997  0.2590
 5422SOL     OW27901   2.040   1.294   4.932  0.4174 -0.1783 -0.8203
 5422SOL    HW127902   2.101   1.239   4.982 -0.2128  0.6542  0.8711
 5422SOL    HW227903   2.091   1.375   4.927  0.5144 -0.2059 -0.3071
 5423SOL     OW27904   1.720   0.117   2.842 -0.1076 -0.1550  0.1801
 5423SOL    HW127905   1.776   0.189   2.812  0.4582  0.1454  1.9658
 5423SOL    HW227906   1.756   0.087   2.925  0.2052  2.7980  1.1117
 5424SOL     OW27907   4.704   2.992   2.053  0.3099 -0.2322 -0.5413
 5424SOL    HW127908   0.035   2.990   2.120  0.0875 -0.5710 -0.3234
 5424SOL    HW227909   4.664   2.909   2.077  0.5296  0.0883  0.8984
 5425SOL     OW27910   2.856   0.659   7.582  0.0787  0.1182  0.3821
 5425SOL    HW127911   2.824   0.627   7.666 -1.3807 -1.4556 -0.7623
 5425SOL    HW227912   2.788   0.717   7.549  0.7132  1.4131  1.3612
 5426SOL     OW27913   1.780   1.279  12.675 -0.4936  0.0698  0.0794
 5426SOL    HW127914   1.751   1.194  12.641 -1.8579  0.2696  0.7370
 5426SOL    HW227915   1.863   1.256  12.715 -1.3780 -0.1916  1.7513
 5427SOL     OW27916   0.777   2.159  16.218 -0.6499  0.1530 -0.3233
 5427SOL    HW127917   0.686   2.180  16.240 -0.9689 -0.8520 -0.6777
 5427SOL    HW227918   0.793   2.225  16.151 -0.9363 -0.7475 -1.2745
 5428SOL     OW27919   3.004   0.356   7.193 -0.2419  0.1442  0.3535
 5428SOL    HW127920   2.950   0.380   7.118 -1.0017 -1.3679  0.4263
 5428SOL    HW227921   3.082   0.324   7.148 -0.4379 -1.4853  1.1921
 5429SOL     OW27922   1.134   2.857   1.821 -0.3449  0.3301 -0.1796
 5429SOL    HW127923   1.107   2.825   1.908 -1.6648  0.1289 -0.6589
 5429SOL    HW227924   1.228   2.840   1.824 -0.2660  0.9111  0.7328
 5430SOL     OW27925   3.389   4.551  12.060 -0.2512  0.1795  0.1475
 5430SOL    HW127926   3.417   4.601  12.137  0.3396  0.6439 -0.3699
 5430SOL    HW227927   3.446   4.585  11.991  2.7326 -1.7925  1.6751
 5431SOL     OW27928   0.246   4.312   6.959 -0.1310 -0.5269  0.1120
 5431SOL    HW127929   0.322   4.361   6.991 -0.9108  1.7908 -1.5649
 5431SOL    HW227930   0.230   4.338   6.868  0.8768 -0.8470 -0.1504
 5432SOL     OW27931   4.382   2.318  14.794  0.3042 -0.4598 -0.4668
 5432SOL    HW127932   4.347   2.407  14.793 -0.4705 -0.7596 -0.1361
 5432SOL    HW227933   4.441   2.329  14.720  1.3089  3.5402  0.9331
 5433SOL     OW27934   3.207   2.845   7.823 -0.4610  0.7381 -0.5551
 5433SOL    HW127935   3.113   2.862   7.824  0.1465  3.9312  1.4561
 5433SOL    HW227936   3.243   2.922   7.867 -1.4276  1.4377 -1.0033
 5434SOL     OW27937   2.288   1.624  10.872 -0.2510  0.4544  0.6510
 5434SOL    HW127938   2.228   1.550  10.884  1.7352 -1.3859 -0.8924
 5434SOL    HW227939   2.231   1.695  10.902  0.2681  1.3978 -0.5959
 5435SOL     OW27940   3.673   4.668  11.627  0.2706  0.1465 -0.0572
 5435SOL    HW127941   3.676   4.617  11.546 -0.6989  0.2421 -0.1509
 5435SOL    HW227942   3.706   0.015  11.598  2.5205 -0.5606  0.4116
 5436SOL     OW27943   4.634   2.196  11.258 -0.4537 -0.1388  0.3536
 5436SOL    HW127944   4.632   2.292  11.256  2.0207 -0.1164 -0.3298
 5436SOL    HW227945   4.696   2.171  11.327  0.8929 -0.3331 -0.9219
 5437SOL     OW27946   1.901   1.701   7.935 -0.0035  0.5922 -0.4264
 5437SOL    HW127947   1.824   1.654   7.902 -0.4577  0.0651  1.3779
 5437SOL    HW227948   1.850   1.778   7.957  1.4329  1.6808 -0.9101
 5438SOL     OW27949   3.215   0.613   4.258  0.0692  0.2433  0.1058
 5438SOL    HW127950   3.166   0.541   4.298  0.3729  1.4047  2.5572
 5438SOL    HW227951   3.143   0.661   4.216 -1.5868 -1.3994  1.0604
 5439SOL     OW27952   2.235   2.002   9.298  0.1766 -0.4338 -0.1271
 5439SOL    HW127953   2.320   1.960   9.290  0.8108  1.1289 -1.6133
 5439SOL    HW227954   2.195   1.921   9.331  1.4462 -0.4185  1.4488
 5440SOL     OW27955   0.275   0.855  10.402  0.4674  0.3779  0.0345
 5440SOL    HW127956   0.340   0.925  10.407  0.1323  0.8429 -1.8124
 5440SOL    HW227957   0.301   0.792  10.334  0.0700  0.5432 -0.2705
 5441SOL     OW27958   1.413   2.344   1.454  1.0167 -0.1706  0.3777
 5441SOL    HW127959   1.380   2.256   1.471  1.5101 -0.4330 -0.0053
 5441SOL    HW227960   1.347   2.384   1.398  1.3455 -0.3796 -0.1594
 5442SOL     OW27961   4.736   2.619  16.919  1.0713 -0.1257  0.1843
 5442SOL    HW127962   4.727   2.561  16.843  1.7443 -1.2095  0.9356
 5442SOL    HW227963   4.648   2.620  16.957  1.0032 -0.8245  0.0625
 5443SOL     OW27964   3.965   4.066   6.081  1.1327 -0.4547 -0.0841
 5443SOL    HW127965   3.872   4.081   6.061  1.4690 -0.6072 -1.7264
 5443SOL    HW227966   3.964   3.973   6.104 -3.2488 -0.7576 -1.4948
 5444SOL     OW27967   3.000   2.065   7.081  0.0097 -0.0545 -0.6339
 5444SOL    HW127968   3.066   2.123   7.118  2.0398 -4.0097  1.8644
 5444SOL    HW227969   2.928   2.125   7.062  2.4567  2.9764 -0.3136
 5445SOL     OW27970   1.104   4.470   7.498 -0.8117  0.4158  0.0466
 5445SOL    HW127971   1.058   4.450   7.417  0.2435 -2.4966  0.1517
 5445SOL    HW227972   1.183   4.515   7.467 -0.9232  0.5604 -0.0222
 5446SOL     OW27973   1.829   0.404   0.865 -0.2664  0.3891 -0.3757
 5446SOL    HW127974   1.863   0.333   0.920 -2.0316 -0.1457  0.0039
 5446SOL    HW227975   1.880   0.479   0.896 -0.1545 -0.6124  1.8796
 5447SOL     OW27976   3.141   4.605  11.959 -0.6570 -0.1864  0.1841
 5447SOL    HW127977   3.078   4.534  11.975  2.2424 -2.6032  0.7525
 5447SOL    HW227978   3.223   4.575  11.998  0.0527 -0.2380 -1.3624
 5448SOL     OW27979   4.064   0.435   2.210  0.1825 -0.0764  0.1367
 5448SOL    HW127980   4.068   0.518   2.258 -0.4741  0.6713 -1.0830
 5448SOL    HW227981   4.017   0.463   2.131  1.5868  0.1178 -0.6404
 5449SOL     OW27982   1.111   1.215   8.934 -0.5766 -0.2833  0.4815
 5449SOL    HW127983   1.165   1.293   8.942  0.8195 -1.1342 -0.5609
 5449SOL    HW227984   1.077   1.212   9.024 -0.7135 -1.1334  0.4004
 5450SOL     OW27985   0.214   1.152   2.741  0.2415  0.0282  0.2909
 5450SOL    HW127986   0.254   1.201   2.813 -0.7807  2.5051 -0.8474
 5450SOL    HW227987   0.129   1.194   2.729 -1.1400 -2.7418  0.2402
 5451SOL     OW27988   0.935   2.800   5.376 -0.2001  0.1996  0.1304
 5451SOL    HW127989   0.865   2.746   5.412 -0.4942  3.7186  4.6974
 5451SOL    HW227990   0.931   2.870   5.441  0.0460  0.7541 -0.4496
 5452SOL     OW27991   3.784   0.124  10.490  0.0095 -0.0134  0.2384
 5452SOL    HW127992   3.707   0.118  10.546  1.0586  2.6124  1.9808
 5452SOL    HW227993   3.748   0.106  10.404  0.2342 -1.8654  0.5454
 5453SOL     OW27994   4.017   1.893   2.720  0.0612  0.1150 -0.0045
 5453SOL    HW127995   4.026   1.798   2.730 -0.8010 -0.0217 -0.5369
 5453SOL    HW227996   3.994   1.917   2.810 -2.0544 -2.7698  0.2423
 5454SOL     OW27997   0.451   2.233   4.098 -0.3752  0.1771  0.2716
 5454SOL    HW127998   0.494   2.161   4.144 -0.1935  0.5905  0.7358
 5454SOL    HW227999   0.521   2.297   4.111  1.7838 -2.6700  2.6707
 5455SOL     OW28000   4.731   0.224   6.914 -0.4273 -0.2036  0.1953
 5455SOL    HW128001   0.025   0.269   6.993 -1.3135  2.6096 -1.0769
 5455SOL    HW228002   0.076   0.212   6.867 -0.2200  1.0219  0.2600
 5456SOL     OW28003   1.699   3.771   4.814  0.0853 -0.2182  0.0740
 5456SOL    HW128004   1.754   3.719   4.873 -1.4872 -0.1730  1.5547
 5456SOL    HW228005   1.626   3.791   4.872  0.3430 -2.6321  1.2279
 5457SOL     OW28006   4.688   3.680   7.141 -0.5493  0.5379  0.0551
 5457SOL    HW128007   4.703   3.765   7.098  2.0308  0.4824  0.8343
 5457SOL    HW228008   0.044   3.662   7.145 -0.6165  0.0261 -0.8109
 5458SOL     OW28009   1.770   1.581   4.965 -0.1649 -0.0584  0.2805
 5458SOL    HW128010   1.773   1.503   4.909 -2.6727  2.0190 -2.8026
 5458SOL    HW228011   1.758   1.644   4.893  2.0862 -0.7491 -0.6935
 5459SOL     OW28012   0.222   3.596   6.716  0.5542 -0.6732  0.8161
 5459SOL    HW128013   0.306   3.608   6.759  1.4940 -0.6738 -1.0356
 5459SOL    HW228014   0.174   3.561   6.792 -1.5023  3.0820  1.2724
 5460SOL     OW28015   4.693   0.004   9.798  0.4228  0.2931  0.7697
 5460SOL    HW128016   4.732   4.683   9.864 -0.5952 -3.5681 -2.0990
 5460SOL    HW228017   4.606   4.703   9.792  0.4112  0.9067 -2.7942
 5461SOL     OW28018   0.103   2.236   7.422 -0.0487 -0.2979  0.4973
 5461SOL    HW128019   0.177   2.254   7.365  1.0299  0.9314  2.2737
 5461SOL    HW228020   0.053   2.317   7.418 -0.0342 -0.3204 -0.0656
 5462SOL     OW28021   4.401   2.111   6.808 -0.0283  0.2564 -0.3591
 5462SOL    HW128022   4.482   2.074   6.843 -1.1941 -3.4195 -1.5552
 5462SOL    HW228023   4.351   2.112   6.890  0.1941  2.6260 -0.2311
 5463SOL     OW28024   2.238   3.010   1.640 -0.3004 -0.1728 -0.3195
 5463SOL    HW128025   2.171   3.055   1.691  0.5313  0.7189 -0.0033
 5463SOL    HW228026   2.320   3.044   1.677  0.5957 -2.0229 -0.5756
 5464SOL     OW28027   4.150   4.695  11.711 -0.3265 -1.3342 -0.3609
 5464SOL    HW128028   4.070   4.673  11.760  0.1238  0.1260  1.0029
 5464SOL    HW228029   4.113   4.692  11.623 -0.5655  1.1555 -0.3342
 5465SOL     OW28030   3.525   0.533   0.306  0.1416 -0.4146  0.1287
 5465SOL    HW128031   3.570   0.476   0.368  2.2256  0.7215 -0.3452
 5465SOL    HW228032   3.587   0.528   0.233 -0.4012 -0.2648 -0.3383
 5466SOL     OW28033   1.197   2.729   5.330 -0.1604 -1.0664 -0.1120
 5466SOL    HW128034   1.223   2.751   5.419  1.0443 -0.0040 -0.7437
 5466SOL    HW228035   1.102   2.735   5.342 -0.1873 -2.3574  0.4166
 5467SOL     OW28036   2.612   0.960   6.972 -0.1798  0.4443 -0.1002
 5467SOL    HW128037   2.551   0.971   7.044  1.7941 -3.5498  2.1821
 5467SOL    HW228038   2.700   0.965   7.010  0.9217 -0.5898 -2.4291
 5468SOL     OW28039   4.613   3.454   5.186 -0.5650 -0.8412  0.1490
 5468SOL    HW128040   4.577   3.367   5.204 -0.6294 -1.1594 -1.5572
 5468SOL    HW228041   4.531   3.499   5.167 -0.1454  0.0001  0.3445
 5469SOL     OW28042   0.198   1.138   0.309 -0.1746  0.0727  0.1917
 5469SOL    HW128043   0.125   1.175   0.359  2.1072  0.3156  3.3208
 5469SOL    HW228044   0.156   1.121   0.224 -1.8486  0.6318  0.8995
 5470SOL     OW28045   0.151   4.259   9.251  0.0547  0.3909 -0.2892
 5470SOL    HW128046   0.240   4.257   9.286 -0.0991 -1.6951  0.0006
 5470SOL    HW228047   0.133   4.353   9.252 -0.7097  0.2411  0.0615
 5471SOL     OW28048   3.932   2.698  13.110  0.5673 -0.1261 -0.6603
 5471SOL    HW128049   3.902   2.627  13.168 -1.0404 -0.3342 -1.7365
 5471SOL    HW228050   3.850   2.710  13.062  0.9676  0.1750 -1.2559
 5472SOL     OW28051   1.338   1.424   1.443  0.2966  0.6054 -0.0985
 5472SOL    HW128052   1.247   1.439   1.469 -0.7251 -3.8586 -0.9605
 5472SOL    HW228053   1.338   1.329   1.431 -0.5841  0.3321  2.1235
 5473SOL     OW28054   3.160   2.079   2.023 -0.1775  0.1415  0.2828
 5473SOL    HW128055   3.210   2.095   1.943  3.0989 -1.0824  2.0863
 5473SOL    HW228056   3.232   2.063   2.085  0.5584 -0.0167 -0.6057
 5474SOL     OW28057   4.457   3.250   5.256 -0.4328 -0.2977 -0.3151
 5474SOL    HW128058   4.430   3.225   5.167 -0.8913 -1.4926  0.1662
 5474SOL    HW228059   4.429   3.169   5.298  1.7973 -1.8775 -1.8308
 5475SOL     OW28060   0.416   1.401   6.337 -0.0050 -1.0402 -0.1269
 5475SOL    HW128061   0.510   1.388   6.324  0.6242  0.3993  2.8183
 5475SOL    HW228062   0.372   1.362   6.261 -3.7671  0.2699  1.3816
 5476SOL     OW28063   2.764   1.425   8.899 -0.2209 -0.3608 -0.4169
 5476SOL    HW128064   2.743   1.346   8.850 -1.8636 -0.9104  1.1637
 5476SOL    HW228065   2.856   1.435   8.872 -0.1082  0.3464  0.2083
 5477SOL     OW28066   3.462   1.421  12.710  0.2692 -0.1922  0.1747
 5477SOL    HW128067   3.416   1.376  12.639  1.9327  1.0345 -1.6573
 5477SOL    HW228068   3.536   1.461  12.665  0.8363  0.3000  1.5222
 5478SOL     OW28069   0.466   2.826   4.149 -0.0125  0.1417  0.1130
 5478SOL    HW128070   0.550   2.781   4.148  1.1406  2.3224 -0.7473
 5478SOL    HW228071   0.474   2.897   4.086  1.3328  0.0755  0.2188
 5479SOL     OW28072   2.999   3.036   8.286 -0.4321  0.1958 -0.5497
 5479SOL    HW128073   3.067   3.005   8.346  2.7376 -0.1759 -4.2991
 5479SOL    HW228074   2.993   3.127   8.314 -0.3999  0.0587 -0.1066
 5480SOL     OW28075   1.873   1.820  14.947  0.2477 -0.0854 -0.6053
 5480SOL    HW128076   1.955   1.870  14.952  1.0067 -1.5042  1.1315
 5480SOL    HW228077   1.905   1.738  14.910  0.3113  0.2231 -1.2287
 5481SOL     OW28078   4.319   0.419   5.712  0.1125 -0.0795 -0.0111
 5481SOL    HW128079   4.407   0.457   5.715  0.2310 -0.3979  0.4975
 5481SOL    HW228080   4.291   0.433   5.622 -0.8441 -1.0940  0.1290
 5482SOL     OW28081   0.329   1.624   2.890  0.3057 -0.1271  0.2172
 5482SOL    HW128082   0.327   1.708   2.937 -0.3296  0.1934 -0.3706
 5482SOL    HW228083   0.238   1.595   2.883 -0.2028  2.2825 -3.1228
 5483SOL     OW28084   0.151   0.710   2.414 -0.2763  0.3900  0.3519
 5483SOL    HW128085   0.222   0.749   2.364 -1.5128  0.3670 -1.4214
 5483SOL    HW228086   0.069   0.724   2.367 -0.0743  0.3456 -0.0123
 5484SOL     OW28087   2.466   2.542   8.318 -0.4167 -0.2588  0.3895
 5484SOL    HW128088   2.551   2.509   8.288  0.3189  1.6061  0.4422
 5484SOL    HW228089   2.480   2.630   8.284  1.5005 -0.3143  1.0140
 5485SOL     OW28090   0.601   4.613   7.655  0.1552 -0.6904 -0.0767
 5485SOL    HW128091   0.657   4.543   7.621 -0.3405 -0.5819 -1.1335
 5485SOL    HW228092   0.549   4.628   7.576  0.6564 -1.6033 -0.5894
 5486SOL     OW28093   0.882   4.481  13.340  0.3882  0.1344 -0.2354
 5486SOL    HW128094   0.924   4.395  13.332 -1.1926 -0.7635  0.9462
 5486SOL    HW228095   0.821   4.459  13.410 -0.8527 -0.2102 -1.3977
 5487SOL     OW28096   4.369   3.719   1.926  0.1878 -0.6030 -0.2590
 5487SOL    HW128097   4.417   3.640   1.949  0.3715 -0.5134 -0.3317
 5487SOL    HW228098   4.439   3.781   1.902  0.6995 -1.2536 -0.4348
 5488SOL     OW28099   2.011   2.182   1.970 -0.2495 -0.5004  0.4312
 5488SOL    HW128100   1.972   2.096   1.951 -1.0286 -0.2465  0.8642
 5488SOL    HW228101   2.053   2.155   2.051  1.0546 -1.3072 -0.5157
 5489SOL     OW28102   3.714   1.364   7.650 -0.5437  0.7234 -0.2379
 5489SOL    HW128103   3.797   1.392   7.688  0.3066 -1.7645 -0.2141
 5489SOL    HW228104   3.699   1.277   7.688  2.6924  0.2992  0.0055
 5490SOL     OW28105   3.499   4.609   2.710  0.7199 -0.2674  0.4175
 5490SOL    HW128106   3.556   4.680   2.739  0.6088 -0.3211  0.7672
 5490SOL    HW228107   3.453   4.579   2.788 -0.3684 -0.1663 -0.1883
 5491SOL     OW28108   1.077   0.074   2.418  0.2520 -0.8242  0.0005
 5491SOL    HW128109   1.032   0.125   2.350  1.1996 -2.5317 -1.8930
 5491SOL    HW228110   1.167   0.107   2.412 -1.3025  3.4038 -0.1207
 5492SOL     OW28111   3.930   1.290   5.959  0.0424 -0.0545 -0.6624
 5492SOL    HW128112   3.885   1.298   6.043 -0.7636 -0.6443 -1.0405
 5492SOL    HW228113   4.002   1.354   5.963 -0.1060 -0.0083  1.0621
 5493SOL     OW28114   1.944   0.818   6.981  0.2328  0.1406  0.1029
 5493SOL    HW128115   1.884   0.888   7.004  0.3493  0.6555 -1.1770
 5493SOL    HW228116   1.915   0.743   7.032  0.9969  1.5334  2.5595
 5494SOL     OW28117   4.414   2.923   5.982 -0.0873 -0.1031 -0.1443
 5494SOL    HW128118   4.326   2.959   5.991 -0.8780 -2.0641 -0.0225
 5494SOL    HW228119   4.399   2.840   6.029  1.4065  0.0360  0.5788
 5495SOL     OW28120   1.991   3.618   5.946  0.6616 -0.1494 -0.2149
 5495SOL    HW128121   2.077   3.644   5.979  0.7236 -2.3716  1.3556
 5495SOL    HW228122   1.987   3.523   5.957  0.3782 -0.3384 -2.0322
 5496SOL     OW28123   0.594   2.833   7.579 -0.3851  0.5988  0.1350
 5496SOL    HW128124   0.528   2.823   7.647 -1.3965  1.4281 -0.7149
 5496SOL    HW228125   0.675   2.795   7.613  0.0042  1.8678  0.6150
 5497SOL     OW28126   3.987   2.083  13.879 -0.3682 -0.4404  0.2164
 5497SOL    HW128127   3.904   2.041  13.858 -1.2980  0.2652  2.4324
 5497SOL    HW228128   3.958   2.140  13.950  0.3084  1.1071 -0.7233
 5498SOL     OW28129   2.069   2.281   5.315 -0.5335  0.5018 -0.1721
 5498SOL    HW128130   2.064   2.188   5.296 -0.1169  0.1521  1.4465
 5498SOL    HW228131   2.125   2.276   5.392 -0.8278  1.0192  0.0800
 5499SOL     OW28132   1.563   0.240  11.712  1.0944 -0.2657 -0.0072
 5499SOL    HW128133   1.496   0.297  11.749  0.2358  0.5048 -2.7813
 5499SOL    HW228134   1.508   0.182  11.660  2.1735 -0.7177 -0.6623
 5500SOL     OW28135   4.646   3.468   1.419  0.2300  0.3571 -0.0659
 5500SOL    HW128136   4.716   3.405   1.401 -0.2170 -0.3744  0.8000
 5500SOL    HW228137   4.694   3.533   1.469  1.8137 -0.1279 -0.9447
 5501SOL     OW28138   1.357   4.573   2.673 -0.2292 -0.0911  0.0460
 5501SOL    HW128139   1.419   4.566   2.745 -1.5722  0.1608  1.2204
 5501SOL    HW228140   1.344   4.668   2.675 -1.5014 -0.2610  0.1280
 5502SOL     OW28141   4.271   1.359   3.736  0.2079  0.5404 -0.2461
 5502SOL    HW128142   4.271   1.389   3.645  0.8172 -2.7975 -1.3506
 5502SOL    HW228143   4.360   1.324   3.737 -0.3835 -0.9338  0.8349
 5503SOL     OW28144   1.175   1.903  10.619  0.2203 -0.2537  0.5904
 5503SOL    HW128145   1.186   1.851  10.699  1.0200  0.9091  1.2441
 5503SOL    HW228146   1.080   1.911  10.610  0.2020  2.0936  2.5599
 5504SOL     OW28147   1.484   1.617  15.634 -0.1230 -0.0229  0.1831
 5504SOL    HW128148   1.555   1.567  15.594 -1.7902 -1.1998 -1.2760
 5504SOL    HW228149   1.509   1.709  15.622  0.8117 -0.0601  1.8431
 5505SOL     OW28150   0.550   3.289   8.488 -0.1708  0.3800  0.0798
 5505SOL    HW128151   0.485   3.256   8.550  1.0379 -0.8496  0.7009
 5505SOL    HW228152   0.497   3.348   8.434 -4.5314 -2.5296  1.1928
 5506SOL     OW28153   1.999   1.534  11.370  0.2114 -0.4043 -0.7201
 5506SOL    HW128154   2.032   1.585  11.444 -0.7197 -1.1991  0.2416
 5506SOL    HW228155   1.944   1.463  11.404 -0.9438  0.4309 -0.8663
 5507SOL     OW28156   0.413   3.100  12.894  0.0040  0.0238 -0.6048
 5507SOL    HW128157   0.448   3.014  12.871  1.3668 -0.2217  2.3464
 5507SOL    HW228158   0.389   3.135  12.808 -0.3727  2.3306  0.4510
 5508SOL     OW28159   2.006   0.231  14.860 -0.3454 -0.2335 -0.3823
 5508SOL    HW128160   1.977   0.322  14.858  0.0642 -0.1011 -0.3287
 5508SOL    HW228161   2.027   0.223  14.767  2.3773  0.3544  0.1800
 5509SOL     OW28162   3.794   0.124   2.638 -0.4677 -0.3418  0.4313
 5509SOL    HW128163   3.744   0.104   2.717 -0.6123 -0.6158  0.2698
 5509SOL    HW228164   3.756   0.066   2.572 -2.6348  1.2171  0.3110
 5510SOL     OW28165   4.430   3.039  12.496  0.3685  0.4164  0.1254
 5510SOL    HW128166   4.435   3.106  12.427  0.8372  1.4964  1.2037
 5510SOL    HW228167   4.350   2.998  12.465 -0.5513  1.5255  1.0282
 5511SOL     OW28168   2.039   3.288   6.157 -0.1467  0.3398  0.3886
 5511SOL    HW128169   2.034   3.325   6.069 -4.4965 -0.4014  0.2980
 5511SOL    HW228170   1.957   3.238   6.166  1.0771 -1.3866  1.8828
 5512SOL     OW28171   2.851   3.202   9.745 -0.2407  0.1205  0.5311
 5512SOL    HW128172   2.860   3.284   9.697  2.6012 -0.1321  0.6005
 5512SOL    HW228173   2.776   3.165   9.699 -0.1221  0.1778  0.2910
 5513SOL     OW28174   1.164   2.567   3.893 -0.5339  0.4334  0.1986
 5513SOL    HW128175   1.217   2.647   3.890 -0.7206  0.6000  1.3886
 5513SOL    HW228176   1.093   2.607   3.943  0.0670  3.4541 -1.3290
 5514SOL     OW28177   2.897   3.807   2.595  0.1561 -0.1102  0.3249
 5514SOL    HW128178   2.985   3.794   2.631 -0.6460 -3.6472  1.0396
 5514SOL    HW228179   2.844   3.731   2.619  0.4761  0.6850  3.5614
 5515SOL     OW28180   3.860   3.193   4.472 -0.5483  0.1082 -0.0538
 5515SOL    HW128181   3.929   3.128   4.486 -0.0297  0.1644 -2.2899
 5515SOL    HW228182   3.829   3.171   4.384 -0.7187  1.1465 -0.2452
 5516SOL     OW28183   0.319   1.811   4.026 -0.2626 -0.5009  0.0861
 5516SOL    HW128184   0.403   1.769   4.046 -0.9155 -0.4875  2.9106
 5516SOL    HW228185   0.259   1.737   4.025 -0.2130 -0.5368 -0.1898
 5517SOL     OW28186   2.511   3.512   6.977  0.0073  0.2049  0.1254
 5517SOL    HW128187   2.524   3.520   7.072  0.4189  0.6603  0.0270
 5517SOL    HW228188   2.489   3.419   6.972  0.8162 -0.0927  1.9852
 5518SOL     OW28189   4.035   3.860   7.986  0.2724 -0.4151  0.0346
 5518SOL    HW128190   4.089   3.791   8.024  2.5804  1.8405  0.9020
 5518SOL    HW228191   3.987   3.902   8.057  1.0759 -1.6304  1.2958
 5519SOL     OW28192   3.273   1.264   3.287  0.0801 -0.4845  0.6003
 5519SOL    HW128193   3.180   1.244   3.288 -0.1609  0.6234  0.6792
 5519SOL    HW228194   3.275   1.335   3.222  1.3927 -0.1184  1.0290
 5520SOL     OW28195   3.705   1.049  10.897 -0.2706 -0.3411 -0.5748
 5520SOL    HW128196   3.765   1.079  10.965 -0.6282 -0.6443 -0.1328
 5520SOL    HW228197   3.645   1.122  10.909  0.4940  0.1481  0.2771
 5521SOL     OW28198   4.658   0.999   1.379 -0.1694  0.2079  0.0845
 5521SOL    HW128199   4.666   1.041   1.465 -2.4940 -2.2410  1.5296
 5521SOL    HW228200   0.004   0.955   1.365  0.3912  1.6847 -1.1575
 5522SOL     OW28201   1.757   0.931  12.340 -0.0888  0.4886  0.2073
 5522SOL    HW128202   1.727   0.932  12.431  0.2113 -1.0601  0.3145
 5522SOL    HW228203   1.712   0.850  12.318 -1.1198  0.7098  1.4572
 5523SOL     OW28204   1.846   1.107   7.885 -0.7838  0.4427 -0.4805
 5523SOL    HW128205   1.872   1.189   7.842  0.0913 -0.0159 -0.8260
 5523SOL    HW228206   1.930   1.070   7.914  0.7379  2.7526 -1.9470
 5524SOL     OW28207   0.854   3.695   2.111 -0.3814  0.0802 -0.3409
 5524SOL    HW128208   0.905   3.733   2.040 -2.0697 -1.3748 -2.3438
 5524SOL    HW228209   0.923   3.659   2.166 -1.7213 -2.1417 -0.1003
 5525SOL     OW28210   0.388   1.260   2.965  0.0617  0.3428  0.5835
 5525SOL    HW128211   0.389   1.276   3.060  0.8400 -0.6155  0.7333
 5525SOL    HW228212   0.405   1.166   2.963 -0.6544  0.1564  2.9299
 5526SOL     OW28213   3.243   4.497   7.136 -0.0049  0.4091 -0.2264
 5526SOL    HW128214   3.308   4.471   7.071  2.0184  0.0241  1.9512
 5526SOL    HW228215   3.204   4.411   7.152  2.6242 -0.9343 -1.2296
 5527SOL     OW28216   4.464   0.967   4.891 -0.2823 -0.0183 -0.2340
 5527SOL    HW128217   4.459   0.895   4.828  0.2415  0.2969 -0.6385
 5527SOL    HW228218   4.472   1.037   4.827 -0.9470  1.6382  1.4929
 5528SOL     OW28219   1.188   1.727   5.358 -0.3484  0.2420 -0.3751
 5528SOL    HW128220   1.227   1.811   5.332 -0.1068 -0.2786 -1.7292
 5528SOL    HW228221   1.115   1.732   5.297  0.2669 -1.1552 -1.2294
 5529SOL     OW28222   0.407   0.810   6.701  0.2630  0.0544  0.3163
 5529SOL    HW128223   0.363   0.757   6.634  0.9772 -0.1012 -0.0264
 5529SOL    HW228224   0.361   0.893   6.686  0.4755  0.0956 -0.1176
 5530SOL     OW28225   3.574   4.398  10.381  0.2565  0.0598 -0.2936
 5530SOL    HW128226   3.537   4.324  10.429  0.8716 -0.5516 -0.7504
 5530SOL    HW228227   3.642   4.353  10.331  0.1561  1.0570 -1.3236
 5531SOL     OW28228   2.205   2.937  11.971  0.1707  0.6018  0.2279
 5531SOL    HW128229   2.159   3.006  12.018  1.3076  1.4656  0.0672
 5531SOL    HW228230   2.291   2.948  12.012 -0.6543  1.4266  1.7326
 5532SOL     OW28231   3.757   2.500   1.882  0.1826 -0.1773 -0.3367
 5532SOL    HW128232   3.824   2.553   1.839 -0.0812  0.8012  0.4438
 5532SOL    HW228233   3.702   2.564   1.926 -0.5227 -2.5462  2.2634
 5533SOL     OW28234   4.089   1.141   5.453  0.3501  0.2358 -0.3211
 5533SOL    HW128235   4.075   1.235   5.440 -1.1282  0.0712  0.0630
 5533SOL    HW228236   4.069   1.108   5.366 -2.3219 -0.1051  0.4275
 5534SOL     OW28237   2.563   1.428   5.934 -0.0669  0.4293  0.0655
 5534SOL    HW128238   2.656   1.415   5.917 -0.1060  0.8414 -0.4521
 5534SOL    HW228239   2.574   1.490   6.006  0.3181 -0.1847  0.5408
 5535SOL     OW28240   0.086   0.244   1.326  0.3556 -0.4519 -0.2864
 5535SOL    HW128241   0.018   0.310   1.314  0.4934 -0.6143 -2.0110
 5535SOL    HW228242   0.060   0.168   1.274  0.3402  0.5730 -1.7761
 5536SOL     OW28243   3.962   1.713   0.339  0.1605  0.4439 -0.4786
 5536SOL    HW128244   3.908   1.722   0.261  1.2304 -0.8893 -1.3633
 5536SOL    HW228245   3.907   1.764   0.399 -1.0098 -2.0971  0.6178
 5537SOL     OW28246   3.735   3.480   6.330  0.7663 -0.4818  0.1100
 5537SOL    HW128247   3.744   3.503   6.422  0.1532 -1.3965  0.4043
 5537SOL    HW228248   3.825   3.497   6.302  0.7068 -1.2929 -0.5792
 5538SOL     OW28249   3.481   4.716   7.110  0.2577 -0.2870  0.1405
 5538SOL    HW128250   3.449   4.627   7.094  0.3957 -0.4609  0.8571
 5538SOL    HW228251   3.575   4.701   7.119  0.4888  0.9104 -0.2784
 5539SOL     OW28252   2.089   1.144   8.770  1.0639 -0.3247 -0.0076
 5539SOL    HW128253   2.065   1.187   8.688  0.4253 -0.8821 -0.1120
 5539SOL    HW228254   2.152   1.080   8.737  1.5367  0.6110 -0.9133
 5540SOL     OW28255   1.659   4.059   9.445 -0.1199 -0.8005 -0.3682
 5540SOL    HW128256   1.589   4.082   9.384 -0.0525  0.6487  0.0956
 5540SOL    HW228257   1.605   4.006   9.503  1.1686 -0.9328  0.7348
 5541SOL     OW28258   4.573   1.561   6.514  0.1063 -0.2055  0.2723
 5541SOL    HW128259   4.590   1.470   6.491  0.5819 -0.0252 -0.0913
 5541SOL    HW228260   4.632   1.601   6.449 -0.8933 -0.7110 -0.9517
 5542SOL     OW28261   2.860   3.940  10.321  0.7369  0.2140  0.0541
 5542SOL    HW128262   2.918   4.015  10.318  0.5512  0.4154  1.3789
 5542SOL    HW228263   2.802   3.977  10.254  1.2127  1.6184  0.4277
 5543SOL     OW28264   1.355   0.139  16.057  0.1425  0.5828  0.0428
 5543SOL    HW128265   1.405   0.118  16.136 -0.6558 -0.0086  0.3902
 5543SOL    HW228266   1.381   0.231  16.050 -1.5058  0.8907 -2.1700
 5544SOL     OW28267   2.517   3.331  14.361 -0.5092 -0.3594 -0.7558
 5544SOL    HW128268   2.428   3.305  14.384 -0.1597 -0.6818  0.2321
 5544SOL    HW228269   2.531   3.416  14.403 -0.8559 -0.9399  0.5591
 5545SOL     OW28270   2.251   0.238   3.313 -0.1912 -0.1430 -0.2815
 5545SOL    HW128271   2.279   0.326   3.287 -1.3797  0.0753 -0.8486
 5545SOL    HW228272   2.224   0.259   3.403  1.1515 -0.7363  0.2495
 5546SOL     OW28273   3.211   3.676   4.562 -0.0521 -0.9832  0.0778
 5546SOL    HW128274   3.126   3.716   4.546  0.4621  0.8936  1.9675
 5546SOL    HW228275   3.193   3.600   4.507 -3.1675  0.6690 -1.1973
 5547SOL     OW28276   3.257   0.355   1.881  0.5933  0.2986  0.1255
 5547SOL    HW128277   3.247   0.275   1.830 -0.4534  0.6729 -0.2504
 5547SOL    HW228278   3.282   0.413   1.809  0.7255  2.9617  2.3140
 5548SOL     OW28279   0.221   1.892   6.064  0.3332  0.2384 -0.0577
 5548SOL    HW128280   0.188   1.942   6.138  2.8462  4.1592 -1.5544
 5548SOL    HW228281   0.198   1.949   5.990  3.4151  1.4251 -0.1188
 5549SOL     OW28282   4.195   3.882  12.221  0.1591 -0.2838 -0.2642
 5549SOL    HW128283   4.257   3.820  12.259  0.3756  0.8831  1.2903
 5549SOL    HW228284   4.178   3.924  12.305  0.3922  0.0540 -0.3826
 5550SOL     OW28285   0.224   0.446   8.640 -0.1314 -0.7030 -0.4060
 5550SOL    HW128286   0.271   0.528   8.626  1.1272 -1.4082 -0.3790
 5550SOL    HW228287   0.136   0.482   8.642  0.7512  1.3528  1.3006
 5551SOL     OW28288   4.197   4.266   7.573  0.0620 -0.0739 -0.5510
 5551SOL    HW128289   4.256   4.196   7.602 -0.8399  0.6256  2.9937
 5551SOL    HW228290   4.153   4.227   7.498 -0.6655  0.3528 -0.3504
 5552SOL     OW28291   2.749   2.314   9.977 -0.1368  0.3531 -0.0417
 5552SOL    HW128292   2.687   2.255   9.935 -2.2012  1.1911  1.8887
 5552SOL    HW228293   2.800   2.335   9.898  0.9812  0.7119  0.7790
 5553SOL     OW28294   3.164   2.574   3.569 -0.1967  0.3272  0.6365
 5553SOL    HW128295   3.228   2.520   3.522 -1.2387  0.5177 -1.0311
 5553SOL    HW228296   3.179   2.660   3.531 -1.5342 -1.7966 -4.6982
 5554SOL     OW28297   4.552   2.073   4.643  0.0676  0.7310  0.4583
 5554SOL    HW128298   4.589   2.146   4.692  0.7623 -0.6043  1.9027
 5554SOL    HW228299   4.491   2.039   4.708 -3.4434  0.1563 -3.1352
 5555SOL     OW28300   1.921   1.521  13.807 -0.1677 -0.3957  0.2746
 5555SOL    HW128301   1.978   1.572  13.750 -0.4305 -0.7668 -0.3219
 5555SOL    HW228302   1.932   1.428  13.785 -3.5659 -0.6545 -0.4044
 5556SOL     OW28303   0.432   1.429   4.063  0.3613  0.3066  0.0267
 5556SOL    HW128304   0.351   1.412   4.110  0.6738 -0.7651  0.1639
 5556SOL    HW228305   0.476   1.494   4.118  1.9232 -1.1912  0.5621
 5557SOL     OW28306   3.036   1.104   9.200  0.2517 -0.3874 -0.5121
 5557SOL    HW128307   3.089   1.072   9.126  1.1931 -0.3357  0.1534
 5557SOL    HW228308   3.001   1.185   9.163 -1.4430 -0.8874 -0.0135
 5558SOL     OW28309   3.206   1.766  15.746 -0.0112  0.8756 -0.1508
 5558SOL    HW128310   3.158   1.783  15.664 -0.4622  1.5073  0.2395
 5558SOL    HW228311   3.285   1.817  15.727 -0.2858  1.3928  0.0914
 5559SOL     OW28312   4.643   2.935   5.338 -0.1635 -0.3891 -0.1257
 5559SOL    HW128313   4.570   2.887   5.298 -2.1172 -0.0625  3.0613
 5559SOL    HW228314   4.702   2.942   5.263  1.4290  1.1600  1.2916
 5560SOL     OW28315   0.818   0.744   3.831  0.4431  0.2133 -0.5477
 5560SOL    HW128316   0.884   0.679   3.853  1.0409  0.5333 -1.3837
 5560SOL    HW228317   0.784   0.694   3.756 -2.9599  0.6016  0.7350
 5561SOL     OW28318   3.118   4.019   1.985  0.2620  0.1642  0.4390
 5561SOL    HW128319   3.051   4.081   2.014  1.5819  1.8683 -0.1167
 5561SOL    HW228320   3.076   3.978   1.910 -1.7023 -1.1073  2.2377
 5562SOL     OW28321   0.977   1.998   8.048  0.2082  0.4507  0.0368
 5562SOL    HW128322   1.030   2.077   8.039  0.7171 -0.1394 -2.2633
 5562SOL    HW228323   1.036   1.942   8.097  0.5296 -2.3723 -3.5753
 5563SOL     OW28324   2.671   1.558   9.713  0.0832  0.0446  0.0517
 5563SOL    HW128325   2.747   1.565   9.656  0.1565  0.5955  0.2168
 5563SOL    HW228326   2.596   1.569   9.655  2.1803 -0.5755 -2.7610
 5564SOL     OW28327   3.356   1.282   7.708  0.2667  0.4737 -0.3082
 5564SOL    HW128328   3.337   1.325   7.791  1.5745  0.9565 -0.2542
 5564SOL    HW228329   3.416   1.348   7.675  0.0055  0.4117 -0.9049
 5565SOL     OW28330   4.413   4.259   0.191  0.4299 -0.0840  0.4313
 5565SOL    HW128331   4.397   4.249   0.284 -2.0069 -0.3649 -0.0298
 5565SOL    HW228332   4.345   4.324   0.175 -1.3206 -2.0065  0.0761
 5566SOL     OW28333   2.178   1.336  16.974  0.3891  0.3417 -0.4844
 5566SOL    HW128334   2.215   1.422  16.956  1.6322  0.1824  1.1778
 5566SOL    HW228335   2.258   1.287  16.954  0.7618  2.3506 -3.7613
 5567SOL     OW28336   1.338   1.903   5.667  0.0673 -0.0254 -0.0541
 5567SOL    HW128337   1.365   1.970   5.729  0.0012 -1.3497  1.4173
 5567SOL    HW228338   1.394   1.825   5.667  1.7474  1.1978  0.3897
 5568SOL     OW28339   4.374   1.123   8.103  0.8238  0.4117  0.0118
 5568SOL    HW128340   4.316   1.054   8.134  0.8594  1.1807  1.7718
 5568SOL    HW228341   4.443   1.108   8.167  0.4880  1.9870  0.7448
 5569SOL     OW28342   2.377   3.016   5.783  0.1799 -0.6202 -0.5018
 5569SOL    HW128343   2.362   2.991   5.692  0.7070  0.5091 -0.9013
 5569SOL    HW228344   2.472   3.014   5.795  0.2935 -0.9262 -1.4744
 5570SOL     OW28345   3.184   2.259   6.630  0.3483  0.1254 -0.1622
 5570SOL    HW128346   3.152   2.170   6.615 -0.9549  0.6630 -0.5346
 5570SOL    HW228347   3.215   2.241   6.719 -0.7036  0.9748  0.3786
 5571SOL     OW28348   0.766   4.249  15.927  0.4971 -0.0939 -0.2553
 5571SOL    HW128349   0.756   4.190  15.852  0.0940  0.2531 -0.4720
 5571SOL    HW228350   0.675   4.260  15.954  0.8065  0.2549  0.6265
 5572SOL     OW28351   3.926   0.776   6.423  0.3006 -0.0216 -0.7126
 5572SOL    HW128352   3.907   0.683   6.440 -1.0977  0.3493 -0.1941
 5572SOL    HW228353   3.838   0.806   6.400  1.0300  1.7925 -1.0822
 5573SOL     OW28354   3.914   0.180  16.146 -0.4393  0.2602 -0.1698
 5573SOL    HW128355   3.855   0.251  16.171  1.6180  1.3431  1.7049
 5573SOL    HW228356   3.873   0.098  16.175 -0.0258 -0.2096 -0.9120
 5574SOL     OW28357   0.718   1.679  13.194 -0.1331 -0.8270  0.2954
 5574SOL    HW128358   0.657   1.622  13.242 -0.5640 -0.8671 -0.3030
 5574SOL    HW228359   0.780   1.688  13.267 -1.4624  0.4506  1.2520
 5575SOL     OW28360   0.188   4.644   5.630  0.0866 -0.5411 -0.1065
 5575SOL    HW128361   0.145   4.675   5.550 -0.8262 -0.6622  0.3374
 5575SOL    HW228362   0.120   4.664   5.694  0.8418 -1.7070  1.0517
 5576SOL     OW28363   1.068   2.781   5.990 -0.0843  0.8456 -0.2173
 5576SOL    HW128364   1.017   2.829   6.055  0.0078  0.6326  0.0133
 5576SOL    HW228365   1.152   2.783   6.036 -0.3518  0.6233  0.2744
 5577SOL     OW28366   1.434   3.918   0.773  0.0546  0.5070  0.0057
 5577SOL    HW128367   1.447   3.855   0.703 -1.4386 -0.6673  0.7762
 5577SOL    HW228368   1.475   3.878   0.849  0.4940  1.6053  0.3511
 5578SOL     OW28369   1.427   2.504   3.151 -0.1360  0.0488 -0.0111
 5578SOL    HW128370   1.403   2.440   3.218 -0.7238  0.2929  0.0122
 5578SOL    HW228371   1.465   2.447   3.085  2.7709  1.8643  0.0826
 5579SOL     OW28372   4.205   2.570   5.404 -0.2639  0.6705 -0.1303
 5579SOL    HW128373   4.135   2.544   5.344  1.1403 -2.3072 -0.4463
 5579SOL    HW228374   4.276   2.562   5.340  0.5881 -1.2295  1.0540
 5580SOL     OW28375   0.758   0.251   5.784 -0.0142  0.3966  0.4283
 5580SOL    HW128376   0.724   0.208   5.705 -2.8233  0.9920  1.3447
 5580SOL    HW228377   0.782   0.338   5.752 -0.1933  0.5593  0.7443
 5581SOL     OW28378   1.830   1.529  16.983 -0.0323  0.8647 -0.3934
 5581SOL    HW128379   1.845   1.486  17.068 -1.3823 -0.1473 -0.6606
 5581SOL    HW228380   1.850   1.464  16.916 -1.0606 -1.1401  1.2373
 5582SOL     OW28381   3.124   2.007   8.596  0.0401  0.5670 -0.4238
 5582SOL    HW128382   3.200   2.045   8.552 -0.5586  2.1081 -0.1244
 5582SOL    HW228383   3.156   2.016   8.686 -0.0953  1.6908 -0.4874
 5583SOL     OW28384   3.780   3.022   7.904 -0.3057 -0.5382 -0.2673
 5583SOL    HW128385   3.841   2.948   7.913 -0.6167 -0.6749  0.7046
 5583SOL    HW228386   3.693   2.982   7.895 -0.0057 -0.2673 -4.3464
 5584SOL     OW28387   0.973   2.568   9.060  0.4794 -0.3080 -0.1485
 5584SOL    HW128388   0.945   2.653   9.025  1.3995 -0.5942 -1.5925
 5584SOL    HW228389   1.053   2.596   9.105  0.2444  1.4982 -0.8485
 5585SOL     OW28390   4.299   4.109  17.323  0.2322  0.1679  0.2324
 5585SOL    HW128391   4.239   4.167  17.275  0.5425  0.6499  0.4186
 5585SOL    HW228392   4.248   4.028  17.321  1.0527 -0.3369  0.0473
 5586SOL     OW28393   4.708   3.736   5.177  0.1698  0.1822  0.3707
 5586SOL    HW128394   4.658   3.716   5.097  1.8197  0.7583 -0.8008
 5586SOL    HW228395   4.641   3.737   5.245 -0.3107 -2.5400 -0.0655
 5587SOL     OW28396   2.952   1.363   4.581 -0.0245 -0.3373 -0.1553
 5587SOL    HW128397   3.032   1.345   4.630  0.0531  2.0815  0.6071
 5587SOL    HW228398   2.978   1.451   4.554 -0.1900  0.3986  2.0622
 5588SOL     OW28399   1.148   1.145   5.375  0.8700 -0.0204  0.1579
 5588SOL    HW128400   1.090   1.182   5.442 -1.2645  0.0002 -1.6846
 5588SOL    HW228401   1.167   1.227   5.328  0.9886  1.6166  3.0293
 5589SOL     OW28402   2.795   3.613   7.695 -0.1842  0.2970  0.4128
 5589SOL    HW128403   2.807   3.634   7.788 -1.2836  1.1840  0.3626
 5589SOL    HW228404   2.701   3.625   7.679 -0.4603  0.7339  2.3648
 5590SOL     OW28405   1.294   3.811  16.575 -0.3674 -0.2335 -0.2377
 5590SOL    HW128406   1.302   3.904  16.595 -1.5565  0.0580 -1.1437
 5590SOL    HW228407   1.199   3.809  16.566 -0.4370  1.4027  0.0141
 5591SOL     OW28408   3.515   1.679   7.943 -0.2779 -0.1060 -0.1299
 5591SOL    HW128409   3.550   1.676   7.854  0.6065  2.0106  0.1342
 5591SOL    HW228410   3.552   1.762   7.975  0.2116 -0.3981  0.0695
 5592SOL     OW28411   0.989   3.011  15.335  0.0041 -0.3864  0.2475
 5592SOL    HW128412   0.993   2.943  15.402 -2.8223  1.3252  2.1404
 5592SOL    HW228413   0.961   3.084  15.392 -2.1771 -1.4107  0.4791
 5593SOL     OW28414   2.340   0.693   5.405  0.3750  0.2447 -0.1467
 5593SOL    HW128415   2.316   0.720   5.316 -0.6775  1.0662  0.3914
 5593SOL    HW228416   2.258   0.722   5.446  0.5562 -0.5455  0.7623
 5594SOL     OW28417   3.795   2.761   0.823  0.7291  0.2731 -0.3868
 5594SOL    HW128418   3.795   2.844   0.775  1.8083 -0.3058 -1.4086
 5594SOL    HW228419   3.798   2.708   0.743  1.8855 -2.7551  1.6564
 5595SOL     OW28420   0.226   1.531   3.455 -1.1818 -0.7196 -0.6376
 5595SOL    HW128421   0.224   1.436   3.458 -1.0055 -0.7238 -0.6085
 5595SOL    HW228422   0.159   1.562   3.516  1.0501  0.9885  0.9604
 5596SOL     OW28423   4.449   1.253  11.170 -0.3946  0.4986 -0.6721
 5596SOL    HW128424   4.488   1.232  11.085 -0.1589 -0.0576 -0.4253
 5596SOL    HW228425   4.531   1.258  11.219  0.1739  1.1775 -1.6688
 5597SOL     OW28426   2.434   3.664  11.710 -0.0863 -0.0512  0.2836
 5597SOL    HW128427   2.418   3.635  11.621 -0.1891  0.8190  0.0218
 5597SOL    HW228428   2.457   3.581  11.754  0.5917 -0.1293 -0.2243
 5598SOL     OW28429   0.097   3.169   1.600 -0.4620 -1.1940  0.3109
 5598SOL    HW128430   0.006   3.197   1.607  0.4723  1.2228  2.4112
 5598SOL    HW228431   0.122   3.191   1.689 -0.1109  0.8801 -0.3089
 5599SOL     OW28432   3.700   2.676  17.539  0.1572 -0.1075 -0.2876
 5599SOL    HW128433   3.710   2.583  17.559  0.4077  0.3177  1.5650
 5599SOL    HW228434   3.757   2.693  17.464 -0.0974  1.0058 -0.2210
 5600SOL     OW28435   2.186   1.461   9.348 -0.0847 -0.8322  0.3436
 5600SOL    HW128436   2.160   1.376   9.384  0.1977 -0.8806  0.4326
 5600SOL    HW228437   2.276   1.436   9.327 -0.6266 -1.1603 -1.5580
 5601SOL     OW28438   2.600   3.312   2.151  0.0521  0.1930 -0.3540
 5601SOL    HW128439   2.613   3.348   2.063  0.4289  3.5022  1.0213
 5601SOL    HW228440   2.514   3.351   2.166 -0.2335  0.2925 -2.2226
 5602SOL     OW28441   1.802   2.422  12.206  0.4542  0.3947  0.2078
 5602SOL    HW128442   1.825   2.455  12.120  1.2215 -0.0619  0.2361
 5602SOL    HW228443   1.888   2.412  12.247  0.9530 -0.2785 -1.0036
 5603SOL     OW28444   2.885   2.626  14.829 -0.8027 -0.0265  0.1985
 5603SOL    HW128445   2.888   2.534  14.805 -0.0153  0.4326 -1.4816
 5603SOL    HW228446   2.936   2.661  14.756  0.8329  0.1579  1.4174
 5604SOL     OW28447   0.817   1.442   5.478 -0.1920  0.5434 -0.1462
 5604SOL    HW128448   0.849   1.472   5.393 -1.4967 -1.1274 -1.2394
 5604SOL    HW228449   0.748   1.377   5.463  0.7637 -0.5450  0.1850
 5605SOL     OW28450   0.244   2.917  14.079  0.2361 -0.4086  0.3639
 5605SOL    HW128451   0.221   2.912  14.172 -2.7333 -1.3345 -0.4288
 5605SOL    HW228452   0.181   2.978  14.040  2.4536 -0.1440 -2.7988
 5606SOL     OW28453   0.357   0.214   0.204  0.3503  0.3443  0.1425
 5606SOL    HW128454   0.299   0.155   0.156  0.0590  0.2074  0.6571
 5606SOL    HW228455   0.441   0.170   0.188 -1.0058 -0.8051 -3.6856
 5607SOL     OW28456   0.054   2.769   4.347  0.1293 -0.1045  0.3999
 5607SOL    HW128457   0.085   2.851   4.385 -1.9994  1.1348 -0.5383
 5607SOL    HW228458   4.700   2.794   4.358  0.5679  1.3905  0.6504
 5608SOL     OW28459   1.906   3.435   6.726  0.1560  0.6600  0.2887
 5608SOL    HW128460   1.952   3.488   6.661  0.4579  1.5707  1.2482
 5608SOL    HW228461   1.843   3.384   6.675 -0.2009  1.3720  0.0063
 5609SOL     OW28462   3.132   0.214   2.306  0.2301 -0.4203 -0.1421
 5609SOL    HW128463   3.089   0.128   2.316 -1.5270  0.3586 -0.9035
 5609SOL    HW228464   3.058   0.262   2.345  0.8117  1.0828 -0.8972
 5610SOL     OW28465   3.689   0.759   8.751  0.3380 -0.3762 -0.0861
 5610SOL    HW128466   3.756   0.799   8.807  0.2102 -1.2295  0.6845
 5610SOL    HW228467   3.693   0.666   8.774  0.6529 -0.2975  0.1790
 5611SOL     OW28468   1.959   2.991  13.914  0.3761 -0.4373  0.2196
 5611SOL    HW128469   1.874   2.954  13.939  2.2303 -1.4289  5.0512
 5611SOL    HW228470   2.004   2.968  13.996  1.0327  1.0634  0.2804
 5612SOL     OW28471   2.527   2.862   8.367 -0.2418  0.5007 -0.1023
 5612SOL    HW128472   2.597   2.925   8.353  0.0735 -0.2350 -1.8207
 5612SOL    HW228473   2.513   2.859   8.462  0.3610  0.3965 -0.0139
 5613SOL     OW28474   1.025   2.359   2.087  0.3576  0.4678 -0.1683
 5613SOL    HW128475   1.022   2.274   2.130  1.6646  0.8014  0.6150
 5613SOL    HW228476   0.997   2.415   2.159  1.4406 -1.6038  1.8603
 5614SOL     OW28477   4.275   0.579   9.406 -0.8305  0.0301  0.2144
 5614SOL    HW128478   4.203   0.557   9.347 -0.0924  0.8432 -0.9937
 5614SOL    HW228479   4.245   0.648   9.465  0.8899 -0.5964  1.8382
 5615SOL     OW28480   1.809   2.323   5.330  0.3068 -0.0225 -0.4833
 5615SOL    HW128481   1.902   2.341   5.319  0.6983 -2.0452 -0.5041
 5615SOL    HW228482   1.810   2.285   5.418  0.9566 -1.0320 -0.9188
 5616SOL     OW28483   4.251   2.512  13.073 -0.1128  0.1577  0.4682
 5616SOL    HW128484   4.280   2.529  13.163  0.2470 -1.3340  0.6253
 5616SOL    HW228485   4.206   2.596  13.063 -2.4095 -1.0253  1.0243
 5617SOL     OW28486   4.503   0.193   4.888 -1.0362  0.0368 -0.8640
 5617SOL    HW128487   4.459   0.138   4.953  0.5161 -1.2754 -0.9105
 5617SOL    HW228488   4.591   0.194   4.926 -2.5008 -0.4762  2.4986
 5618SOL     OW28489   4.695   3.742   1.561  0.5804 -0.0639  0.3619
 5618SOL    HW128490   4.655   3.781   1.483 -1.0208 -0.4686  0.9671
 5618SOL    HW228491   0.039   3.701   1.533  0.6096 -0.9958  1.7687
 5619SOL     OW28492   2.110   2.838   5.535 -0.9330  0.0966 -0.3272
 5619SOL    HW128493   2.205   2.830   5.547 -1.2654 -2.1253  0.7903
 5619SOL    HW228494   2.108   2.874   5.446  0.3650 -0.2666 -0.5053
 5620SOL     OW28495   1.027   3.773   0.196 -0.0561  0.1528 -0.2112
 5620SOL    HW128496   1.105   3.801   0.147 -0.6402  0.9278 -0.6982
 5620SOL    HW228497   1.012   3.686   0.159 -0.6929  0.4388 -0.6212
 5621SOL     OW28498   3.316   3.966   4.301 -0.3251 -0.4005  0.2662
 5621SOL    HW128499   3.226   3.934   4.304 -0.4176 -0.0131  1.4182
 5621SOL    HW228500   3.312   4.043   4.358  3.0101 -0.4167  0.5213
 5622SOL     OW28501   0.691   0.243   4.145  0.0690 -0.0757  0.9750
 5622SOL    HW128502   0.655   0.285   4.223 -0.0389  2.5698 -0.5026
 5622SOL    HW228503   0.742   0.318   4.112 -2.0163  0.8178 -0.2074
 5623SOL     OW28504   0.946   0.422   4.059  0.2760  0.1096  0.2132
 5623SOL    HW128505   0.924   0.506   4.100 -1.0748  0.2684 -0.8192
 5623SOL    HW228506   0.984   0.453   3.977 -0.7483 -2.6593 -1.3042
 5624SOL     OW28507   2.554   2.178   9.824  0.3123 -0.2831  0.0812
 5624SOL    HW128508   2.585   2.176   9.734  1.3287 -1.2151  0.4529
 5624SOL    HW228509   2.539   2.085   9.845  0.0799 -0.6458 -1.7299
 5625SOL     OW28510   1.294   4.333   7.158  0.6122 -0.5468  0.4579
 5625SOL    HW128511   1.297   4.243   7.190  1.7852 -0.8240 -0.4028
 5625SOL    HW228512   1.327   4.320   7.069  0.2217 -2.2700  0.5565
 5626SOL     OW28513   3.689   2.179   7.428  0.0109 -0.3431  0.4784
 5626SOL    HW128514   3.658   2.107   7.483 -0.3943 -1.4265 -1.1849
 5626SOL    HW228515   3.780   2.152   7.424  0.3517  0.8763 -0.0057
 5627SOL     OW28516   2.077   0.740   5.944  0.1310 -0.9157 -0.5250
 5627SOL    HW128517   2.063   0.824   5.901  0.8527  0.1819  1.3888
 5627SOL    HW228518   2.044   0.748   6.034 -0.2300 -0.2265 -0.7182
 5628SOL     OW28519   0.549   4.569   7.147 -0.2849 -0.1944 -0.2352
 5628SOL    HW128520   0.480   4.523   7.196 -2.2067  3.2144  0.2378
 5628SOL    HW228521   0.561   4.517   7.068  0.1989 -1.7200  0.8300
 5629SOL     OW28522   0.112   4.576  10.027  0.2643 -0.2138  0.0287
 5629SOL    HW128523   0.061   4.562  10.106  1.1072 -2.4586  0.1788
 5629SOL    HW228524   0.182   4.637  10.050 -1.0319  1.4980 -0.5872
 5630SOL     OW28525   3.192   1.578   7.617 -0.3286  0.6229  0.5856
 5630SOL    HW128526   3.236   1.584   7.702 -0.4060  0.0546  0.6657
 5630SOL    HW228527   3.113   1.621   7.649 -0.5679  0.3944  0.2997
 5631SOL     OW28528   1.183   0.046   3.334 -0.0465  0.6586  0.3139
 5631SOL    HW128529   1.112   0.013   3.278 -0.6335  1.3087  0.6719
 5631SOL    HW228530   1.140   0.123   3.371  1.1652  0.7506  1.5083
 5632SOL     OW28531   2.156   1.204   1.919  0.3935 -0.2719  0.0263
 5632SOL    HW128532   2.135   1.170   1.832  0.4482 -0.3491  0.0431
 5632SOL    HW228533   2.222   1.141   1.948 -0.9088 -1.2272  0.9214
 5633SOL     OW28534   4.616   1.500   2.272 -0.7113  0.5323  0.0167
 5633SOL    HW128535   4.700   1.544   2.258 -0.3365  0.5516  2.4610
 5633SOL    HW228536   4.573   1.565   2.327 -0.5830 -0.3147  1.0999
 5634SOL     OW28537   2.599   2.234   9.550 -0.2712 -0.1896  0.0070
 5634SOL    HW128538   2.539   2.163   9.527 -0.1528 -0.0036 -0.8498
 5634SOL    HW228539   2.555   2.312   9.517 -0.1745 -0.4533 -0.7378
 5635SOL     OW28540   2.109   0.240   6.472  0.2080 -0.5661  0.2104
 5635SOL    HW128541   2.168   0.297   6.521  0.9793 -0.8943 -0.3389
 5635SOL    HW228542   2.144   0.154   6.496 -0.6108 -0.5643  1.4344
 5636SOL     OW28543   0.478   0.579   2.138  0.3906  0.1904  0.7201
 5636SOL    HW128544   0.460   0.655   2.194 -0.9065  0.3876  0.0294
 5636SOL    HW228545   0.488   0.635   2.061  1.5120 -0.5213  0.3606
 5637SOL     OW28546   0.999   1.552  12.670 -0.2668  0.1479  0.3559
 5637SOL    HW128547   0.954   1.622  12.622  3.1805  1.1084 -1.5244
 5637SOL    HW228548   1.057   1.601  12.729 -0.6086  2.1057 -0.9046
 5638SOL     OW28549   3.910   2.924   5.148  0.1662  0.1874 -0.5863
 5638SOL    HW128550   3.913   2.962   5.235  0.6647  0.1813 -0.6011
 5638SOL    HW228551   3.970   2.972   5.090 -1.9094 -0.1710 -3.0341
 5639SOL     OW28552   3.667   4.620   8.845 -1.2586 -0.6599  0.1173
 5639SOL    HW128553   3.630   4.540   8.807  0.0216 -1.0294 -0.3291
 5639SOL    HW228554   3.746   4.582   8.883 -0.2747  3.3019  2.0250
 5640SOL     OW28555   0.527   2.242  16.410 -0.5326 -0.0328  0.7784
 5640SOL    HW128556   0.572   2.236  16.494 -0.2594 -1.2650  0.5448
 5640SOL    HW228557   0.463   2.173  16.427 -0.5195  0.3700  2.3988
 5641SOL     OW28558   1.111   3.087   6.552  0.2086 -0.1053 -0.4720
 5641SOL    HW128559   1.122   3.023   6.622 -0.6894 -1.4429 -1.5408
 5641SOL    HW228560   1.194   3.133   6.542 -0.4575  1.2025 -0.0215
 5642SOL     OW28561   1.819   4.282   9.824 -0.2325  0.5617  0.0314
 5642SOL    HW128562   1.756   4.210   9.825 -2.0940  2.1775 -0.2942
 5642SOL    HW228563   1.892   4.245   9.774 -1.1399 -3.2655  1.5345
 5643SOL     OW28564   2.976   4.339   2.506 -0.0400 -0.7605  0.0753
 5643SOL    HW128565   2.940   4.250   2.514  0.4246 -0.8736  0.9245
 5643SOL    HW228566   2.895   4.383   2.480 -0.1269 -2.3816 -2.3716
 5644SOL     OW28567   1.325   2.701   7.407  0.4710 -0.2033  0.0658
 5644SOL    HW128568   1.231   2.699   7.387  0.5023  0.2356 -0.1306
 5644SOL    HW228569   1.338   2.609   7.386  1.6427  0.3421 -1.6593
 5645SOL     OW28570   2.730   3.227  13.583 -0.0161 -0.3685  0.4335
 5645SOL    HW128571   2.796   3.189  13.640 -1.9820  0.1549  3.0386
 5645SOL    HW228572   2.750   3.188  13.497 -1.8855 -0.5828  0.1000
 5646SOL     OW28573   1.720   1.742   6.319  0.3668  0.0781 -0.2020
 5646SOL    HW128574   1.759   1.804   6.380 -1.7195  0.1993  1.0335
 5646SOL    HW228575   1.792   1.682   6.304 -0.5034 -0.5289 -1.9140
 5647SOL     OW28576   0.833   3.950  15.546 -0.4406  0.2045 -0.0736
 5647SOL    HW128577   0.796   3.862  15.538 -0.8890  0.5954 -2.2551
 5647SOL    HW228578   0.885   3.949  15.466 -0.0399  3.8914  0.1366
 5648SOL     OW28579   2.377   0.488   6.001 -0.5153 -0.3589 -0.2185
 5648SOL    HW128580   2.454   0.543   6.016 -0.9686 -0.4251  2.3386
 5648SOL    HW228581   2.416   0.442   5.926  1.0121  1.2921 -0.4434
 5649SOL     OW28582   0.467   3.908   5.494  0.3312 -0.1731 -0.5151
 5649SOL    HW128583   0.521   3.981   5.525  0.5276 -1.1789  1.5258
 5649SOL    HW228584   0.496   3.855   5.568  3.7943 -0.4911 -2.1360
 5650SOL     OW28585   3.090   3.566  17.215 -0.5082  0.2979  0.0670
 5650SOL    HW128586   3.126   3.617  17.143  0.7797 -1.0863 -0.2530
 5650SOL    HW228587   3.001   3.549  17.182 -1.0346  0.4923  1.3580
 5651SOL     OW28588   2.357   1.613  14.978 -0.0774 -0.5839  0.5714
 5651SOL    HW128589   2.336   1.579  14.891 -0.1535  0.8160  0.0313
 5651SOL    HW228590   2.394   1.700  14.958  1.3552 -0.8624  2.0747
 5652SOL     OW28591   0.879   1.774  12.573 -0.0175  0.2020 -0.4125
 5652SOL    HW128592   0.889   1.772  12.478  0.6579  3.1127 -0.3937
 5652SOL    HW228593   0.934   1.848  12.597  0.7215 -0.8962  1.3605
 5653SOL     OW28594   3.144   1.621   8.316 -0.5060 -0.2484 -0.2768
 5653SOL    HW128595   3.222   1.578   8.281  0.0213 -0.3640  1.0170
 5653SOL    HW228596   3.092   1.637   8.238 -0.8984  0.7068  0.1753
 5654SOL     OW28597   3.936   1.877   7.691 -0.0914 -0.3211  0.1913
 5654SOL    HW128598   3.850   1.888   7.650 -1.3921 -1.0883  2.6936
 5654SOL    HW228599   3.924   1.788   7.724 -0.7949 -0.0638  0.6299
 5655SOL     OW28600   3.485   1.399   4.206  0.3212 -0.0306  0.4783
 5655SOL    HW128601   3.526   1.342   4.141 -1.1591  0.4240 -0.8282
 5655SOL    HW228602   3.531   1.482   4.191  4.2859 -2.5033 -0.9794
 5656SOL     OW28603   2.622   3.199   0.663 -0.1727  0.5839 -0.0268
 5656SOL    HW128604   2.692   3.232   0.718 -0.5050  1.5309 -0.1727
 5656SOL    HW228605   2.669   3.185   0.580  0.8815  0.7400  0.5493
 5657SOL     OW28606   4.115   4.552   4.651 -0.2386 -0.2827  0.5821
 5657SOL    HW128607   4.072   4.620   4.600 -1.2403 -1.3954 -0.0589
 5657SOL    HW228608   4.113   4.473   4.597  0.9838 -1.7420  2.6560
 5658SOL     OW28609   3.636   1.551   0.464 -0.4174 -0.1051  0.5545
 5658SOL    HW128610   3.691   1.603   0.523  0.2799 -0.2783  0.0518
 5658SOL    HW228611   3.564   1.609   0.442 -0.2219 -1.3093 -3.1587
 5659SOL     OW28612   0.944   1.022   8.472  0.0417 -0.1444  0.4360
 5659SOL    HW128613   0.989   1.085   8.528 -2.1790  0.9497  0.9815
 5659SOL    HW228614   0.884   0.971   8.526  0.4644 -0.5210  0.5517
 5660SOL     OW28615   2.746   2.939   3.813 -0.8202 -0.1051 -0.1538
 5660SOL    HW128616   2.839   2.916   3.805 -0.6676  0.7453 -0.8411
 5660SOL    HW228617   2.753   3.020   3.762  0.7226 -1.9561 -2.8330
 5661SOL     OW28618   4.204   0.003   9.178 -0.5054 -0.6126  0.0979
 5661SOL    HW128619   4.228   4.716   9.089  2.7091  0.3935  0.6950
 5661SOL    HW228620   4.236   0.093   9.169 -0.9401 -0.5296 -0.6436
 5662SOL     OW28621   1.080   1.410   1.632  0.3380  0.1056  0.3824
 5662SOL    HW128622   1.042   1.383   1.715 -0.6387  0.8124  0.1680
 5662SOL    HW228623   1.036   1.349   1.573  1.6012  0.5984 -1.0808
 5663SOL     OW28624   1.280   0.409  10.120 -0.2821  0.1352  0.2111
 5663SOL    HW128625   1.253   0.500  10.129  2.6415  0.9928  0.5413
 5663SOL    HW228626   1.201   0.377  10.078 -0.1466  0.3122 -0.1709
 5664SOL     OW28627   1.223   3.656   0.616 -0.1521  0.2946  0.1893
 5664SOL    HW128628   1.281   3.721   0.577 -3.0891  1.9253 -1.4259
 5664SOL    HW228629   1.236   3.667   0.710 -0.6948  2.1668  0.0520
 5665SOL     OW28630   4.054   3.732  15.372 -0.5534 -0.2766 -0.5476
 5665SOL    HW128631   4.027   3.805  15.428 -3.9904  0.0992 -2.6915
 5665SOL    HW228632   4.090   3.670  15.436 -0.0969  0.8069  0.2423
 5666SOL     OW28633   2.946   2.230   3.487 -0.4887  0.0771 -0.2550
 5666SOL    HW128634   2.856   2.211   3.460 -0.6003 -1.4991  1.1829
 5666SOL    HW228635   2.937   2.263   3.576 -2.1680  0.1322 -0.4567
 5667SOL     OW28636   1.895   1.987   1.783  0.4716 -0.1110 -0.0064
 5667SOL    HW128637   1.866   2.040   1.709 -1.1611 -1.2198 -0.1640
 5667SOL    HW228638   1.834   1.913   1.778  0.9497 -0.6244  1.7895
 5668SOL     OW28639   4.314   1.265  16.635  0.2829 -0.3648  0.0495
 5668SOL    HW128640   4.341   1.239  16.723 -0.6064  0.8026  0.6719
 5668SOL    HW228641   4.379   1.224  16.578  1.2301  0.0850  0.8187
 5669SOL     OW28642   3.803   1.580   7.997 -0.1516  0.2366 -0.3970
 5669SOL    HW128643   3.712   1.557   8.016 -0.7412  2.4495 -0.4950
 5669SOL    HW228644   3.832   1.616   8.081 -0.7492 -0.4775  0.1197
 5670SOL     OW28645   4.732   1.992   3.121  0.1076 -0.4748  0.2354
 5670SOL    HW128646   4.658   1.974   3.063 -0.5051  3.0855 -0.0667
 5670SOL    HW228647   0.059   2.042   3.071  2.0914 -2.3383  0.9788
 5671SOL     OW28648   1.043   1.817   4.171 -0.1087  0.5936  0.0319
 5671SOL    HW128649   1.125   1.865   4.156 -0.7686  1.5884 -0.3522
 5671SOL    HW228650   1.025   1.818   4.265  0.8590  0.3989  0.2252
 5672SOL     OW28651   2.782   1.454   5.090 -0.1584  0.0535  0.4522
 5672SOL    HW128652   2.700   1.465   5.042 -0.2355 -1.3820  0.2275
 5672SOL    HW228653   2.832   1.529   5.060 -0.5724  0.0436 -0.2704
 5673SOL     OW28654   0.959   2.124   5.914 -0.4722 -0.5154 -0.0010
 5673SOL    HW128655   0.971   2.088   5.826  1.2606 -0.6511  0.2978
 5673SOL    HW228656   0.879   2.177   5.913 -0.7060 -0.8706 -0.1693
 5674SOL     OW28657   2.933   2.449  10.704 -0.0166 -0.5510  0.2301
 5674SOL    HW128658   3.013   2.412  10.739  0.6000  0.4369 -0.1379
 5674SOL    HW228659   2.949   2.451  10.610  2.6647  2.3388  0.7369
 5675SOL     OW28660   3.684   3.697  11.814  0.1146 -0.2583  0.0255
 5675SOL    HW128661   3.624   3.690  11.740 -0.2880  1.3641  0.1981
 5675SOL    HW228662   3.637   3.664  11.891  1.2072  0.6143  1.0666
 5676SOL     OW28663   1.884   3.839   3.248 -0.1568 -0.1009 -0.3386
 5676SOL    HW128664   1.811   3.875   3.298  1.0107  0.4609  0.9818
 5676SOL    HW228665   1.857   3.858   3.159  3.5369 -2.1699 -1.9067
 5677SOL     OW28666   4.248   3.622   6.764 -0.8456  0.3030  0.1304
 5677SOL    HW128667   4.315   3.634   6.831  0.7129  2.2609 -1.7446
 5677SOL    HW228668   4.174   3.598   6.819  0.3726 -1.1966  1.1117
 5678SOL     OW28669   2.824   0.821   0.240 -0.4148 -0.2295  0.8074
 5678SOL    HW128670   2.900   0.814   0.182 -0.6887  3.3134  0.0096
 5678SOL    HW228671   2.855   0.862   0.321 -0.8988  0.8310  0.4605
 5679SOL     OW28672   1.962   3.068   8.212 -0.3047  0.3708  0.2130
 5679SOL    HW128673   1.939   3.127   8.140  1.5147  1.5031  0.5701
 5679SOL    HW228674   1.976   3.120   8.291  0.4447 -0.7741  0.8342
 5680SOL     OW28675   1.414   2.812   9.629 -0.0780  0.4919 -0.1058
 5680SOL    HW128676   1.496   2.813   9.580  1.8738 -2.4996  3.0911
 5680SOL    HW228677   1.354   2.789   9.558 -0.7908  3.6957 -0.5265
 5681SOL     OW28678   1.454   0.208  12.440 -0.2843 -0.2907 -1.1844
 5681SOL    HW128679   1.368   0.245  12.462  1.5882  1.8634  2.5162
 5681SOL    HW228680   1.456   0.130  12.495  1.9896 -0.3245 -1.3190
 5682SOL     OW28681   3.439   0.371   3.859 -0.2282  0.0710  0.0006
 5682SOL    HW128682   3.461   0.379   3.951 -2.6929  1.5809  0.4696
 5682SOL    HW228683   3.525   0.356   3.819 -0.0013  0.9590  0.1590
 5683SOL     OW28684   1.637   1.872   6.061  0.1342  0.9228 -0.0054
 5683SOL    HW128685   1.599   1.786   6.040 -1.6054  1.4339  1.0249
 5683SOL    HW228686   1.706   1.850   6.123 -0.7243 -1.6695  0.0218
 5684SOL     OW28687   1.446   3.707   2.665  0.3811 -0.0311  0.3818
 5684SOL    HW128688   1.426   3.750   2.748  1.5963  1.1926  0.0509
 5684SOL    HW228689   1.443   3.615   2.690  0.7050 -0.2493 -0.3807
 5685SOL     OW28690   1.096   3.118   5.482 -0.9613  0.1671 -0.1344
 5685SOL    HW128691   1.029   3.075   5.535 -0.3695 -1.4678 -0.7320
 5685SOL    HW228692   1.092   3.207   5.519  0.7407 -0.0751  0.6663
 5686SOL     OW28693   0.517   2.930  15.774 -0.9676 -0.2177  0.0731
 5686SOL    HW128694   0.529   2.841  15.807 -0.3464  0.5956  2.0301
 5686SOL    HW228695   0.585   2.933  15.707 -1.9296  1.7721 -0.8366
 5687SOL     OW28696   3.085   0.646   4.608  0.4261  0.1930 -0.2800
 5687SOL    HW128697   3.005   0.627   4.657  0.5889 -0.6008 -0.3096
 5687SOL    HW228698   3.061   0.721   4.554  0.2932  2.3692  2.7852
 5688SOL     OW28699   2.004   1.403   1.532 -0.3297  0.2049 -0.2965
 5688SOL    HW128700   2.086   1.379   1.575 -0.6991 -1.5826 -0.5900
 5688SOL    HW228701   1.958   1.319   1.524 -1.8043  0.9921 -0.1269
 5689SOL     OW28702   1.655   1.529  14.969 -0.3516  0.8953  0.2360
 5689SOL    HW128703   1.607   1.563  14.894 -1.3275 -1.9381 -0.4078
 5689SOL    HW228704   1.736   1.498  14.928 -1.4497 -0.3946 -0.9673
 5690SOL     OW28705   2.152   3.911   4.561  0.0467 -0.3187 -0.4012
 5690SOL    HW128706   2.219   3.846   4.583 -0.8688 -0.0025  3.3328
 5690SOL    HW228707   2.209   3.987   4.553 -2.2439  1.3879 -0.3494
 5691SOL     OW28708   4.126   1.149   2.970 -0.0346 -0.3347 -0.5033
 5691SOL    HW128709   4.220   1.134   2.980 -0.1894 -1.3482 -0.5715
 5691SOL    HW228710   4.119   1.184   2.881  0.9923 -0.9217 -0.8083
 5692SOL     OW28711   3.419   3.537  11.801 -0.4581  0.1315 -0.1624
 5692SOL    HW128712   3.451   3.549  11.712  1.0398  3.5104  0.8090
 5692SOL    HW228713   3.337   3.493  11.780  0.4852 -1.8942  0.4329
 5693SOL     OW28714   0.742   1.190   3.792 -0.1508 -0.0281 -0.1332
 5693SOL    HW128715   0.707   1.277   3.810  2.7382  1.1849 -0.3510
 5693SOL    HW228716   0.751   1.193   3.697  1.1806 -3.6506 -0.1207
 5694SOL     OW28717   2.093   1.729   4.867 -0.3348  0.2679 -0.2529
 5694SOL    HW128718   2.014   1.688   4.832 -0.4131  0.7595 -0.6443
 5694SOL    HW228719   2.125   1.774   4.789 -0.4119 -1.5363 -1.3351
 5695SOL     OW28720   0.390   1.591   8.153  0.4167 -0.3280 -0.1153
 5695SOL    HW128721   0.337   1.643   8.215 -1.6813 -0.1998 -1.9943
 5695SOL    HW228722   0.317   1.545   8.112  0.1181  0.7854 -0.8501
 5696SOL     OW28723   2.362   0.511   4.374 -0.4713 -1.0885  0.2358
 5696SOL    HW128724   2.450   0.540   4.350 -0.7507  0.7145  1.3185
 5696SOL    HW228725   2.386   0.432   4.422 -0.2828 -0.5128  1.0901
 5697SOL     OW28726   3.063   4.714   3.018  0.4520 -0.8267  0.5279
 5697SOL    HW128727   3.091   4.708   3.109  1.7179 -2.6401  0.0063
 5697SOL    HW228728   2.992   4.651   3.005  0.1967 -0.6793  1.2581
 5698SOL     OW28729   3.400   4.188  10.493  0.0563 -0.5173 -0.0514
 5698SOL    HW128730   3.432   4.108  10.451  2.1398 -0.5867  1.6462
 5698SOL    HW228731   3.384   4.155  10.581  2.3982 -0.1707  0.5197
 5699SOL     OW28732   0.911   0.170  16.840  0.1132 -0.1287 -0.2992
 5699SOL    HW128733   0.837   0.230  16.831 -0.9113 -1.1072  1.8184
 5699SOL    HW228734   0.968   0.216  16.777  1.2164 -0.8957  0.1333
 5700SOL     OW28735   1.147   4.481   5.003  1.0003  0.3829 -0.3779
 5700SOL    HW128736   1.185   4.506   4.919  0.0808  1.2368 -0.5377
 5700SOL    HW228737   1.160   4.553   5.064  3.2757 -0.1644 -0.2107
 5701SOL     OW28738   4.228   4.355  11.437 -0.0581  0.0461 -0.1420
 5701SOL    HW128739   4.195   4.349  11.348 -0.1932  0.1711 -0.0995
 5701SOL    HW228740   4.321   4.344  11.418 -0.1937 -1.2426 -0.0555
 5702SOL     OW28741   4.056   2.171   3.310 -0.1341 -0.0495  0.0519
 5702SOL    HW128742   4.089   2.259   3.330 -3.1547  0.6713  1.8869
 5702SOL    HW228743   4.069   2.138   3.399  1.3699 -1.4802 -0.7149
 5703SOL     OW28744   3.359   2.567   8.151  0.3976 -0.0065 -0.2883
 5703SOL    HW128745   3.274   2.524   8.161 -0.5207  1.8614 -0.0535
 5703SOL    HW228746   3.359   2.573   8.056 -0.5516 -2.5252 -0.4405
 5704SOL     OW28747   2.788   2.330  17.276  0.2788 -0.2238 -0.4608
 5704SOL    HW128748   2.768   2.419  17.248  1.1264  0.1978  0.3022
 5704SOL    HW228749   2.849   2.338  17.349  2.3804  0.8257 -2.3470
 5705SOL     OW28750   3.988   1.696  12.369 -0.0096 -0.2901  0.0259
 5705SOL    HW128751   3.903   1.691  12.412  0.1692 -0.5312  0.3535
 5705SOL    HW228752   3.985   1.781  12.326 -4.3244 -0.7806 -0.6372
 5706SOL     OW28753   2.877   4.552   7.111  0.1175 -0.9333 -0.3704
 5706SOL    HW128754   2.934   4.479   7.136  5.3013  3.0434 -0.4402
 5706SOL    HW228755   2.889   4.538   7.017 -0.3962  1.0962 -0.7480
 5707SOL     OW28756   2.624   1.114   5.956 -0.3462  0.1404 -0.1055
 5707SOL    HW128757   2.626   1.189   6.017  1.7642 -0.3271  0.4112
 5707SOL    HW228758   2.682   1.141   5.885 -0.5759  1.0927  0.0650
 5708SOL     OW28759   0.074   1.306   0.907  0.5279  0.3332 -0.1522
 5708SOL    HW128760   0.166   1.333   0.914  0.4652 -0.2003  2.6534
 5708SOL    HW228761   0.023   1.387   0.915 -1.2141 -0.6398 -1.3854
 5709SOL     OW28762   0.761   1.973   4.088 -0.2578 -0.1647  0.2186
 5709SOL    HW128763   0.803   1.887   4.087 -0.7916 -0.4240 -0.1694
 5709SOL    HW228764   0.726   1.977   3.999  0.5213 -1.9165 -0.1656
 5710SOL     OW28765   1.383   1.248  17.560  0.0800  0.2905  0.0538
 5710SOL    HW128766   1.364   1.215  17.472 -0.0431 -0.8717  0.5166
 5710SOL    HW228767   1.315   1.314  17.569  0.7135  0.8552  0.7145
 5711SOL     OW28768   1.588   3.679   2.120 -1.0700  0.3386 -0.3596
 5711SOL    HW128769   1.542   3.742   2.065  1.0659  0.8033 -1.5934
 5711SOL    HW228770   1.658   3.728   2.164 -0.5970 -1.4035  0.8434
 5712SOL     OW28771   3.059   0.760   8.565  0.0624  0.2697  0.0482
 5712SOL    HW128772   3.149   0.761   8.532 -0.5902  0.0241 -1.7350
 5712SOL    HW228773   3.065   0.676   8.612  1.8859 -0.0982 -0.8140
 5713SOL     OW28774   2.385   4.105   3.248 -0.7647  0.5603  0.0661
 5713SOL    HW128775   2.353   4.015   3.245  1.5023 -0.2619  0.9909
 5713SOL    HW228776   2.473   4.097   3.212 -1.2060  2.3634 -1.4420
 5714SOL     OW28777   4.373   2.002   4.017 -0.6069  0.4139  0.0041
 5714SOL    HW128778   4.371   2.070   4.085  0.7821 -0.1390  0.6036
 5714SOL    HW228779   4.453   2.021   3.969 -1.2942  0.7294 -1.0259
 5715SOL     OW28780   0.755   4.288   1.586  0.2892  0.2086 -0.0987
 5715SOL    HW128781   0.718   4.346   1.519  0.8969  1.2124  0.4425
 5715SOL    HW228782   0.795   4.361   1.632 -0.7046 -0.8083  2.3547
 5716SOL     OW28783   3.710   0.462   3.983  0.9341  0.3233  0.1917
 5716SOL    HW128784   3.709   0.380   3.934  2.7635  0.3316  0.1138
 5716SOL    HW228785   3.734   0.519   3.910  0.5094 -1.5637 -1.4337
 5717SOL     OW28786   0.258   3.227   3.485 -0.3305  0.7003  0.3746
 5717SOL    HW128787   0.169   3.236   3.518 -0.4976 -0.2151  0.1867
 5717SOL    HW228788   0.307   3.199   3.563 -1.6723  2.1313  1.7253
 5718SOL     OW28789   4.385   3.544   5.087 -0.0950 -0.5293  0.3880
 5718SOL    HW128790   4.413   3.588   5.007  0.3271 -1.3103  0.1006
 5718SOL    HW228791   4.305   3.593   5.105  0.2022 -0.5071  1.6794
 5719SOL     OW28792   0.911   3.017   2.160 -0.0916 -0.1501 -0.2458
 5719SOL    HW128793   0.925   2.957   2.086  1.1130 -1.3560  0.9644
 5719SOL    HW228794   0.819   2.996   2.173 -0.2281 -0.5477 -1.8132
 5720SOL     OW28795   3.584   2.486  12.703 -0.4400  0.2732  0.2915
 5720SOL    HW128796   3.514   2.521  12.758 -0.6189 -1.3701  1.1076
 5720SOL    HW228797   3.546   2.468  12.617 -0.4835  0.7762  0.2068
 5721SOL     OW28798   3.501   2.451  15.686 -0.2031  0.3975  0.2445
 5721SOL    HW128799   3.556   2.429  15.762 -0.8098  1.5403  1.0256
 5721SOL    HW228800   3.515   2.546  15.689  2.7844 -0.0425  0.2260
 5722SOL     OW28801   0.171   0.900   3.136 -0.5157  0.6027 -0.6036
 5722SOL    HW128802   0.229   0.839   3.183 -3.4771 -0.1226  2.1089
 5722SOL    HW228803   0.210   0.911   3.050  0.3120  0.5883 -0.2396
 5723SOL     OW28804   1.202   2.132  16.667 -0.4459  0.1027  0.2797
 5723SOL    HW128805   1.211   2.065  16.599 -0.6130 -1.9004  2.2269
 5723SOL    HW228806   1.148   2.198  16.623 -1.0773 -0.2251  0.5699
 5724SOL     OW28807   1.832   1.874   9.363  0.4333 -0.5646 -0.5317
 5724SOL    HW128808   1.824   1.874   9.267 -0.0130  0.6085 -0.4929
 5724SOL    HW228809   1.923   1.842   9.367  0.7331  0.2313 -0.9274
 5725SOL     OW28810   0.304   0.684   2.885  0.2095  0.3510 -0.0240
 5725SOL    HW128811   0.390   0.647   2.865  0.2501  0.2049  0.4366
 5725SOL    HW228812   0.264   0.603   2.918 -0.1387  0.9159  0.9373
 5726SOL     OW28813   1.069   3.748   7.117 -0.1699 -0.3091 -0.2619
 5726SOL    HW128814   1.074   3.728   7.210 -1.5392 -0.6676 -0.2695
 5726SOL    HW228815   0.975   3.737   7.103  0.1061 -0.7766 -1.7548
 5727SOL     OW28816   3.970   2.587   1.452 -0.1145 -0.3049  0.0989
 5727SOL    HW128817   3.897   2.646   1.433 -0.7938 -0.2865  2.7704
 5727SOL    HW228818   4.030   2.647   1.497  0.3831  0.1147 -1.1197
 5728SOL     OW28819   1.165   2.797   9.848  0.0216 -0.3223  0.2596
 5728SOL    HW128820   1.202   2.885   9.837  0.3546 -0.4756  0.1629
 5728SOL    HW228821   1.075   2.814   9.820 -0.2329 -4.8880 -1.6596
 5729SOL     OW28822   1.186   0.909  17.747  0.5080  0.3072  0.3911
 5729SOL    HW128823   1.246   0.919  17.673 -0.1922 -1.0152 -0.3547
 5729SOL    HW228824   1.233   0.837   0.040 -0.5309 -0.3025  0.5084
 5730SOL     OW28825   2.122   0.790  11.158  0.1821  0.1166 -0.0964
 5730SOL    HW128826   2.183   0.753  11.222  0.6966  0.0130 -0.6358
 5730SOL    HW228827   2.138   0.884  11.172 -1.7406  0.3977  0.1512
 5731SOL     OW28828   2.619   0.670   8.011  0.2540  0.8326 -0.2229
 5731SOL    HW128829   2.697   0.725   8.009  0.7091  0.1855  0.1890
 5731SOL    HW228830   2.612   0.640   8.101 -2.4637  1.3893 -0.2246
 5732SOL     OW28831   2.953   0.045   2.717 -0.0299  0.7359 -0.2242
 5732SOL    HW128832   2.941   4.716   2.785  0.4574  1.2757  0.3930
 5732SOL    HW228833   3.046   0.028   2.704  0.4403  2.1732  1.2649
 5733SOL     OW28834   2.002   1.335   3.550 -0.1079  0.1046 -0.0096
 5733SOL    HW128835   1.963   1.248   3.556  1.2345 -0.4582  0.5149
 5733SOL    HW228836   2.056   1.336   3.471  0.1268 -2.0538  0.1331
 5734SOL     OW28837   3.838   0.637  10.185  0.1726 -0.0616  0.5933
 5734SOL    HW128838   3.881   0.723  10.181 -2.4183  1.0607 -2.5117
 5734SOL    HW228839   3.857   0.607  10.097  4.8716  0.0858  1.5495
 5735SOL     OW28840   2.040   4.721   5.144 -0.2186 -0.0613  0.3287
 5735SOL    HW128841   2.016   4.731   5.052  0.4275  1.5537  0.3346
 5735SOL    HW228842   2.027   0.073   5.174 -1.4531 -0.9087  2.3276
 5736SOL     OW28843   3.073   4.643   6.597  0.4655 -0.4405  0.5825
 5736SOL    HW128844   3.158   4.670   6.562  1.1520  1.5175  3.6741
 5736SOL    HW228845   3.086   4.554   6.628 -0.1498  0.4635  3.4687
 5737SOL     OW28846   4.335   3.171   7.941 -0.1158 -0.6724 -0.0418
 5737SOL    HW128847   4.335   3.232   7.867  1.3440 -1.0663 -0.3519
 5737SOL    HW228848   4.419   3.200   7.976 -0.5158 -2.0977  2.1091
 5738SOL     OW28849   2.971   2.806   4.408  0.5024  0.1818 -0.2398
 5738SOL    HW128850   2.985   2.898   4.387 -1.8784  0.5286 -0.3378
 5738SOL    HW228851   3.027   2.781   4.481  2.5505  1.8001 -1.2499
 5739SOL     OW28852   0.781   2.752   7.095 -0.1609  0.3964  0.3819
 5739SOL    HW128853   0.797   2.663   7.124 -0.4107 -0.0614 -0.8692
 5739SOL    HW228854   0.867   2.793   7.102  0.3657 -0.6630  0.1228
 5740SOL     OW28855   3.439   0.402   4.668 -0.5156  0.3411 -0.3924
 5740SOL    HW128856   3.425   0.328   4.727  1.4170  1.2928  1.2551
 5740SOL    HW228857   3.399   0.473   4.718 -0.8133  1.4094 -2.1379
 5741SOL     OW28858   0.810   4.555   8.044  0.5995 -0.6130 -0.2402
 5741SOL    HW128859   0.832   4.622   7.980  0.0150 -0.9234 -0.7771
 5741SOL    HW228860   0.848   4.585   8.127 -2.0714  1.2997  0.2974
 5742SOL     OW28861   2.038   4.705   4.867 -0.1478 -0.1699  0.4523
 5742SOL    HW128862   2.105   0.029   4.838  1.4045 -0.4727  3.3580
 5742SOL    HW228863   2.093   4.630   4.842 -1.1152 -0.2624 -1.4070
 5743SOL     OW28864   3.431   0.374   5.836  0.1844  0.1391 -0.4857
 5743SOL    HW128865   3.351   0.415   5.868  0.1452 -0.4853  0.2119
 5743SOL    HW228866   3.466   0.436   5.772 -0.8857  0.6179 -0.5972
 5744SOL     OW28867   4.220   3.739   8.175  0.6097 -0.4179 -0.5628
 5744SOL    HW128868   4.296   3.797   8.175  0.6066 -0.4185  0.3454
 5744SOL    HW228869   4.254   3.651   8.189 -1.4896 -1.0102  0.7984
 5745SOL     OW28870   2.458   1.087   2.390 -0.2280 -0.0207  0.2368
 5745SOL    HW128871   2.419   1.077   2.303 -1.0389 -0.4552  0.6523
 5745SOL    HW228872   2.530   1.024   2.385 -0.2536 -0.1120  0.9848
 5746SOL     OW28873   2.694   2.839   2.121 -0.0234 -0.5674 -0.0778
 5746SOL    HW128874   2.731   2.927   2.123  2.6078 -1.6368 -1.5655
 5746SOL    HW228875   2.771   2.789   2.094  0.4882 -0.1813  0.6760
 5747SOL     OW28876   3.236   3.632   9.071 -0.3625  0.2052 -0.1683
 5747SOL    HW128877   3.249   3.727   9.080 -0.6024  0.0880  1.3926
 5747SOL    HW228878   3.141   3.624   9.074 -0.3595  0.7490  1.4442
 5748SOL     OW28879   3.400   1.913   0.905 -0.2456  0.2592 -0.5990
 5748SOL    HW128880   3.365   1.995   0.941  0.7059 -0.2218  1.4306
 5748SOL    HW228881   3.340   1.855   0.951  0.3209 -2.5906 -3.5137
 5749SOL     OW28882   0.059   2.025   7.588  0.2630 -0.5135  0.0141
 5749SOL    HW128883   4.717   1.981   7.559 -0.8314  1.4456  0.0726
 5749SOL    HW228884   0.075   2.081   7.512 -0.5599 -1.0740 -0.5760
 5750SOL     OW28885   3.604   1.619   2.323 -0.5211 -0.1383  0.1136
 5750SOL    HW128886   3.536   1.562   2.287 -1.1822 -0.3544  1.7205
 5750SOL    HW228887   3.659   1.613   2.244  0.5297 -0.6429  0.8774
 5751SOL     OW28888   2.312   2.007  12.169 -0.1313 -0.1639 -0.1372
 5751SOL    HW128889   2.246   1.969  12.111 -0.5025  0.5666 -0.1867
 5751SOL    HW228890   2.272   2.024  12.254 -1.1844 -1.0734 -0.4448
 5752SOL     OW28891   1.628   2.705   3.222 -0.5202 -0.0312  0.0187
 5752SOL    HW128892   1.547   2.688   3.173 -1.1175  2.1302  0.2796
 5752SOL    HW228893   1.640   2.799   3.211 -1.8925  0.3209  1.5478
 5753SOL     OW28894   2.699   3.765   2.329 -0.4684  0.1679 -0.9178
 5753SOL    HW128895   2.634   3.712   2.283 -4.2742  2.3331  1.9697
 5753SOL    HW228896   2.776   3.712   2.306  0.7311  1.1327  0.8669
 5754SOL     OW28897   1.651   3.541   3.823  0.2903 -0.1425 -0.2762
 5754SOL    HW128898   1.604   3.537   3.906  1.2920  0.9833  0.3404
 5754SOL    HW228899   1.744   3.535   3.845 -0.0363 -0.3569  1.0735
 5755SOL     OW28900   1.925   2.868   4.297  0.0093 -0.0331 -0.0824
 5755SOL    HW128901   1.907   2.818   4.377  0.5558  1.3051  0.8909
 5755SOL    HW228902   1.885   2.810   4.233  2.0426 -2.2909  0.6913
 5756SOL     OW28903   1.576   1.012   6.081 -0.1394  0.3641 -1.0117
 5756SOL    HW128904   1.605   1.053   6.162  1.8356 -2.0647 -0.4912
 5756SOL    HW228905   1.495   1.060   6.067  0.8014  1.1893 -3.7517
 5757SOL     OW28906   0.444   0.700   2.571  0.3145  0.2534 -0.3567
 5757SOL    HW128907   0.406   0.785   2.592  0.9114 -0.1808  2.3791
 5757SOL    HW228908   0.373   0.661   2.519 -0.5071  0.4059  0.6574
 5758SOL     OW28909   0.484   4.492   5.177  0.0906 -0.1487  1.0219
 5758SOL    HW128910   0.573   4.467   5.204  0.3260  0.7654  1.0947
 5758SOL    HW228911   0.431   4.461   5.250 -1.1603 -2.6285 -0.9474
 5759SOL     OW28912   3.685   0.452   8.737  0.2337 -0.3791 -0.4775
 5759SOL    HW128913   3.667   0.491   8.651  2.3528 -1.9378 -1.6154
 5759SOL    HW228914   3.750   0.386   8.711  0.9188  0.4508 -0.8572
 5760SOL     OW28915   3.071   0.751   6.618 -0.1279  0.6120 -0.0296
 5760SOL    HW128916   3.145   0.714   6.571  0.4697 -0.5395  1.8199
 5760SOL    HW228917   3.036   0.671   6.657 -0.5863  1.0465  0.4699
 5761SOL     OW28918   2.387   3.288   0.751  0.5074  0.5804  0.1350
 5761SOL    HW128919   2.358   3.207   0.792  2.0870  0.3789  0.8698
 5761SOL    HW228920   2.466   3.255   0.708  1.1474  0.5607  1.3185
 5762SOL     OW28921   2.476   1.336   6.897 -0.2773  0.1851  0.5075
 5762SOL    HW128922   2.386   1.316   6.921 -0.8792 -0.9735 -2.7760
 5762SOL    HW228923   2.467   1.387   6.816  0.6062  0.3461  0.5072
 5763SOL     OW28924   2.197   3.716   5.310 -0.0549 -0.1376 -0.1489
 5763SOL    HW128925   2.206   3.811   5.310  0.9563 -0.2415  0.1716
 5763SOL    HW228926   2.128   3.709   5.377 -0.2271  0.3004 -0.2810
 5764SOL     OW28927   0.289   2.558   5.304 -0.1220 -0.0921  0.0860
 5764SOL    HW128928   0.270   2.648   5.332 -2.2910 -0.5183  0.0161
 5764SOL    HW228929   0.355   2.572   5.236 -0.9203  0.8068 -0.5060
 5765SOL     OW28930   0.632   4.040   4.408  0.0577  0.0848 -0.2618
 5765SOL    HW128931   0.570   4.025   4.479  0.8321 -0.4738  0.3015
 5765SOL    HW228932   0.584   4.004   4.333 -0.6692  0.9072 -0.1856
 5766SOL     OW28933   2.995   2.031  17.744 -0.4241  0.0436  0.3631
 5766SOL    HW128934   2.991   1.991   0.082 -0.5913 -0.0763  0.3010
 5766SOL    HW228935   2.982   1.954  17.689 -1.6352  1.2221 -0.9906
 5767SOL     OW28936   2.805   1.600  12.928  0.4618  0.3738 -0.4516
 5767SOL    HW128937   2.726   1.650  12.947 -0.0624 -0.6659  0.1189
 5767SOL    HW228938   2.877   1.639  12.977  1.7417 -0.5471 -1.5764
 5768SOL     OW28939   0.208   3.603   5.680 -0.2549 -0.3846 -0.2159
 5768SOL    HW128940   0.277   3.571   5.623  0.8807 -0.4444  1.1965
 5768SOL    HW228941   0.198   3.694   5.654 -0.1470 -0.4623 -0.5198
 5769SOL     OW28942   0.693   4.329   7.706  0.2534 -0.2314 -0.1357
 5769SOL    HW128943   0.743   4.295   7.632 -1.6691 -1.6944 -0.7630
 5769SOL    HW228944   0.761   4.356   7.768 -1.6326  1.0194  1.3894
 5770SOL     OW28945   4.306   1.367   6.140 -0.8981  0.2191 -0.5906
 5770SOL    HW128946   4.399   1.355   6.125 -0.6647  0.3480  0.7330
 5770SOL    HW228947   4.306   1.426   6.216  1.6548  1.1516 -1.3307
 5771SOL     OW28948   0.583   4.122   5.953 -0.1314  0.8263 -0.7288
 5771SOL    HW128949   0.503   4.069   5.962  0.5445  0.0280  0.5966
 5771SOL    HW228950   0.649   4.082   6.010 -0.1922  0.6767 -0.7654
 5772SOL     OW28951   3.244   1.069   5.152  0.1348  0.0305  0.3560
 5772SOL    HW128952   3.331   1.039   5.181  0.7839  1.1020 -0.4834
 5772SOL    HW228953   3.264   1.071   5.058  0.8950 -0.7401  0.5018
 5773SOL     OW28954   2.663   3.220   6.553 -0.1420  0.3092 -0.4072
 5773SOL    HW128955   2.588   3.182   6.599  1.3740  0.5445  2.2726
 5773SOL    HW228956   2.695   3.137   6.518  0.2160  0.4901 -0.5061
 5774SOL     OW28957   4.552   3.300   4.734  0.0039  0.2875 -0.0484
 5774SOL    HW128958   4.517   3.369   4.678 -1.8903 -2.9922 -2.9080
 5774SOL    HW228959   4.639   3.339   4.732  0.6047 -0.8996  2.9590
 5775SOL     OW28960   1.690   1.761  16.962 -0.4337  0.0640 -0.1343
 5775SOL    HW128961   1.721   1.804  17.042  0.5021 -0.2972 -0.3066
 5775SOL    HW228962   1.737   1.679  16.975 -0.1580  0.0583 -1.1951
 5776SOL     OW28963   0.769   3.637  12.054  0.1291 -0.3791 -0.4157
 5776SOL    HW128964   0.854   3.612  12.091  0.3914  2.0409  0.6153
 5776SOL    HW228965   0.735   3.553  12.023  0.3857 -0.0182 -1.6826
 5777SOL     OW28966   3.161   4.533  12.373 -0.1523  0.1736 -0.0705
 5777SOL    HW128967   3.127   4.622  12.382 -0.2491  0.2460 -1.1502
 5777SOL    HW228968   3.248   4.550  12.338  0.2659 -3.6392 -0.7968
 5778SOL     OW28969   1.157   2.129   6.124 -0.0958  0.2052 -0.1772
 5778SOL    HW128970   1.093   2.114   6.054  2.2046 -3.7076 -1.4400
 5778SOL    HW228971   1.235   2.136   6.069 -0.5995 -1.5640 -1.1233
 5779SOL     OW28972   2.333   1.295   5.833  0.5257 -0.1466  0.0478
 5779SOL    HW128973   2.326   1.277   5.927 -0.6032 -0.2022 -0.0426
 5779SOL    HW228974   2.411   1.349   5.843 -1.1411  1.6710  3.4908
 5780SOL     OW28975   3.469   1.781   5.131  0.0691 -0.3761  0.0536
 5780SOL    HW128976   3.521   1.726   5.072  4.0915 -0.1491  3.3785
 5780SOL    HW228977   3.448   1.856   5.075 -0.9500 -1.3859 -0.9183
 5781SOL     OW28978   3.638   1.288   3.992  0.6202  0.1750  0.0080
 5781SOL    HW128979   3.612   1.198   3.972  0.2687 -0.0920  1.6716
 5781SOL    HW228980   3.589   1.342   3.931 -2.5252 -2.7344 -0.0367
 5782SOL     OW28981   3.969   2.374   8.105 -0.0117 -0.2246  0.0905
 5782SOL    HW128982   3.956   2.354   8.013  1.2681 -0.4461 -0.0520
 5782SOL    HW228983   3.983   2.469   8.101  1.2044 -0.3367  1.3496
 5783SOL     OW28984   3.473   3.847   9.536 -0.2205 -0.0070 -0.6043
 5783SOL    HW128985   3.537   3.857   9.607 -1.5159  1.4532  0.3475
 5783SOL    HW228986   3.514   3.791   9.470 -0.1870 -0.1834 -0.4340
 5784SOL     OW28987   2.075   3.751  13.963 -0.0095  1.0862 -0.0652
 5784SOL    HW128988   1.982   3.773  13.972  0.4011  2.3225  1.1033
 5784SOL    HW228989   2.121   3.833  13.984  1.5043  0.5759 -1.3712
 5785SOL     OW28990   1.665   0.623  14.672  0.7059 -0.5313 -0.4324
 5785SOL    HW128991   1.652   0.633  14.766 -1.1467  1.0196 -0.8528
 5785SOL    HW228992   1.578   0.605  14.636  0.8632  0.2685 -1.2200
 5786SOL     OW28993   3.362   0.001   1.879  0.0020  0.5301  0.0940
 5786SOL    HW128994   3.417   4.682   1.824 -2.5460 -1.8958  0.0534
 5786SOL    HW228995   3.325   0.049   1.805  1.7050 -0.5529 -1.4710
 5787SOL     OW28996   2.393   2.723   6.716  0.1708  0.5750  0.1534
 5787SOL    HW128997   2.468   2.693   6.768 -2.0096 -2.1728  1.6809
 5787SOL    HW228998   2.349   2.641   6.693  0.2605  1.0445 -1.7302
 5788SOL     OW28999   4.421   4.695   5.020  0.3618  0.4511 -0.2512
 5788SOL    HW129000   4.376   4.615   4.993  0.1754  1.3039 -2.4232
 5788SOL    HW229001   4.479   4.651   5.083  0.7689 -0.6728 -1.4089
 5789SOL     OW29002   1.233   1.903   2.859 -0.5590 -0.0205  0.6057
 5789SOL    HW129003   1.268   1.928   2.774  1.1438  1.1895  1.6617
 5789SOL    HW229004   1.298   1.950   2.912  1.2728 -2.5024  0.5304
 5790SOL     OW29005   1.233   3.167   9.046 -0.3157 -0.2616 -0.0560
 5790SOL    HW129006   1.266   3.083   9.081 -0.0438 -0.8417 -1.6972
 5790SOL    HW229007   1.151   3.181   9.094 -0.9979  0.5527 -1.4515
 5791SOL     OW29008   4.238   0.142  14.955 -0.1136 -0.1727  0.1134
 5791SOL    HW129009   4.255   0.157  14.862  1.7505 -1.9692  0.1724
 5791SOL    HW229010   4.201   0.228  14.976 -0.5067 -0.1368 -0.7007
 5792SOL     OW29011   2.886   1.782  13.374  0.2493 -0.1459 -0.2888
 5792SOL    HW129012   2.871   1.876  13.364  0.6893  0.2145  2.4081
 5792SOL    HW229013   2.799   1.745  13.366 -0.7979  2.1877  0.3361
 5793SOL     OW29014   4.326   1.959   0.763 -0.1823  0.3786 -0.1501
 5793SOL    HW129015   4.337   1.869   0.732 -0.5128  0.0734  0.6171
 5793SOL    HW229016   4.286   1.985   0.680 -0.1218 -1.6833 -0.8076
 5794SOL     OW29017   1.424   0.698   4.564  0.5265 -0.1327 -0.0261
 5794SOL    HW129018   1.374   0.626   4.602 -0.9977  0.2603 -1.3097
 5794SOL    HW229019   1.378   0.778   4.589 -0.4617 -0.7560  0.1208
 5795SOL     OW29020   1.151   2.717   6.407  0.3135  0.4161  0.3107
 5795SOL    HW129021   1.177   2.631   6.373 -2.3895 -0.5374  0.6442
 5795SOL    HW229022   1.152   2.694   6.500 -1.8784  0.2583  0.3030
 5796SOL     OW29023   1.035   4.357  17.024 -0.4051 -0.7489  0.6238
 5796SOL    HW129024   1.111   4.299  17.022 -1.0906 -1.6503  0.7731
 5796SOL    HW229025   0.963   4.309  16.985 -0.7438  0.6559 -0.4674
 5797SOL     OW29026   2.997   0.803  11.093  0.7516  0.3563 -0.6915
 5797SOL    HW129027   3.058   0.751  11.146  0.0451 -0.8872 -1.0859
 5797SOL    HW229028   2.937   0.843  11.156  2.0851 -2.7536  2.5492
 5798SOL     OW29029   0.467   2.959   9.615  0.0123  0.2044 -0.3180
 5798SOL    HW129030   0.411   2.939   9.689 -2.2679  1.8448 -1.6209
 5798SOL    HW229031   0.498   2.869   9.605 -2.1491 -0.5819  0.2859
 5799SOL     OW29032   3.084   1.386   2.845 -0.3171  0.3445 -0.5437
 5799SOL    HW129033   3.057   1.446   2.775 -0.1714 -2.2161 -2.8208
 5799SOL    HW229034   3.000   1.370   2.888  0.0459 -2.5560 -0.8739
 5800SOL     OW29035   3.279   3.149   7.146  0.0960 -0.4197 -0.2171
 5800SOL    HW129036   3.219   3.212   7.185  0.4809  0.7267 -1.4590
 5800SOL    HW229037   3.299   3.098   7.224 -2.5965 -1.4062 -0.1592
 5801SOL     OW29038   0.934   1.698  11.132  0.0951  0.0078  0.1814
 5801SOL    HW129039   0.953   1.726  11.221  1.8348  0.8391 -0.4535
 5801SOL    HW229040   0.894   1.776  11.092  0.1890 -0.8803 -1.6423
 5802SOL     OW29041   3.356   1.630   4.706  0.1577 -0.1552  0.8042
 5802SOL    HW129042   3.355   1.563   4.637 -0.2481 -0.3576  1.0076
 5802SOL    HW229043   3.263   1.653   4.713  0.2808  0.5594  0.1420
 5803SOL     OW29044   4.551   1.418  12.754  0.3084  0.3803  0.5971
 5803SOL    HW129045   4.477   1.361  12.776 -1.6539  1.6479 -2.7057
 5803SOL    HW229046   4.592   1.381  12.676 -2.8583 -1.8511 -0.0317
 5804SOL     OW29047   2.553   4.727   5.673 -0.3882 -0.1676 -0.2318
 5804SOL    HW129048   2.558   0.059   5.738  0.0765  0.2189 -0.6872
 5804SOL    HW229049   2.458   4.735   5.661  0.0629  2.7242 -1.7816
 5805SOL     OW29050   3.814   1.164  11.113 -0.0235  0.0967  0.0684
 5805SOL    HW129051   3.884   1.130  11.169 -0.8207 -0.5928  0.6442
 5805SOL    HW229052   3.800   1.255  11.139 -1.5348  0.1379 -0.8869
 5806SOL     OW29053   1.649   3.818   3.698 -0.2376 -0.2996 -0.7138
 5806SOL    HW129054   1.562   3.844   3.729 -0.1384  0.5125 -1.1131
 5806SOL    HW229055   1.648   3.722   3.708  0.6172 -0.1686  0.5569
 5807SOL     OW29056   3.050   3.629   2.895 -0.0439  0.5642  0.1613
 5807SOL    HW129057   2.985   3.562   2.876  0.0677  0.9202 -1.5668
 5807SOL    HW229058   3.079   3.647   2.805  0.4625 -1.4902 -0.0935
 5808SOL     OW29059   2.879   2.196   9.202 -0.6075  0.5309 -0.2465
 5808SOL    HW129060   2.861   2.170   9.292  2.3000  0.1836  0.2443
 5808SOL    HW229061   2.862   2.290   9.208  0.1643  0.4373  3.2579
 5809SOL     OW29062   0.300   4.390   6.727  0.0690 -0.1527  0.0880
 5809SOL    HW129063   0.360   4.464   6.717  0.0434  0.0990  1.9623
 5809SOL    HW229064   0.226   4.421   6.674  0.3605  0.7349  0.2006
 5810SOL     OW29065   0.984   2.824  15.546 -0.0217  0.3235  0.2038
 5810SOL    HW129066   0.889   2.820  15.553 -0.1026 -1.3379 -1.8322
 5810SOL    HW229067   1.008   2.804  15.636  0.9364  0.0091 -0.1142
 5811SOL     OW29068   4.251   3.173   0.008 -0.2686 -0.6165 -0.4706
 5811SOL    HW129069   4.267   3.095   0.061 -2.3755 -0.2166  0.7774
 5811SOL    HW229070   4.155   3.171   0.011 -0.2269  0.6142  1.9463
 5812SOL     OW29071   0.316   1.813   9.262  0.2243 -0.8060 -0.1885
 5812SOL    HW129072   0.229   1.795   9.299  0.0125 -0.0703 -0.3222
 5812SOL    HW229073   0.355   1.728   9.242  1.4828 -0.0390 -1.0140
 5813SOL     OW29074   4.072   1.360   0.400 -0.0257  0.0447 -0.3154
 5813SOL    HW129075   3.976   1.361   0.393 -0.2258 -2.8147  1.8458
 5813SOL    HW229076   4.091   1.448   0.432  1.6452 -0.1843 -0.6664
 5814SOL     OW29077   3.606   0.753   5.153  0.0637  0.0720 -0.1688
 5814SOL    HW129078   3.512   0.737   5.161  0.3553 -0.6489  1.9676
 5814SOL    HW229079   3.636   0.662   5.148  0.2126  0.1720 -1.1046
 5815SOL     OW29080   2.405   3.994   8.644 -0.0416 -0.6111 -0.1779
 5815SOL    HW129081   2.459   4.021   8.570 -1.1444  0.4690 -0.5937
 5815SOL    HW229082   2.323   3.970   8.600 -0.4402  0.5376 -0.0766
 5816SOL     OW29083   1.527   1.536   6.312  0.4323 -0.2951 -0.1064
 5816SOL    HW129084   1.569   1.610   6.267  1.8992 -0.5345  0.8539
 5816SOL    HW229085   1.442   1.525   6.271 -0.5424  1.0382  1.5712
 5817SOL     OW29086   0.050   1.821   4.207 -0.2008  0.3092 -0.1673
 5817SOL    HW129087   4.717   1.845   4.267 -0.5165  1.4862 -1.0209
 5817SOL    HW229088   0.040   1.726   4.197 -2.1583  0.5616 -0.6713
 5818SOL     OW29089   1.931   2.379  17.203 -0.4048  0.0322  0.6999
 5818SOL    HW129090   1.890   2.396  17.118 -1.7897  1.5499  1.6946
 5818SOL    HW229091   1.984   2.299  17.195  0.2116  0.5387 -0.3591
 5819SOL     OW29092   1.740   1.907   3.343 -0.4701  0.0301 -0.2799
 5819SOL    HW129093   1.695   1.863   3.416 -1.6295  2.6090  0.5575
 5819SOL    HW229094   1.741   1.838   3.277 -0.4180  0.9229 -1.1927
 5820SOL     OW29095   0.716   0.804   2.928  0.6400  0.5567  0.0121
 5820SOL    HW129096   0.743   0.846   2.846 -1.3239 -1.4988 -1.6677
 5820SOL    HW229097   0.658   0.865   2.974 -1.1732 -0.4381 -0.9772
 5821SOL     OW29098   4.549   4.179   8.936  0.5047  0.2953  0.6668
 5821SOL    HW129099   4.617   4.129   8.980 -1.1265 -1.8705  0.7412
 5821SOL    HW229100   4.495   4.106   8.905  1.5185 -0.4841  0.7351
 5822SOL     OW29101   3.091   2.192   9.573  0.1874  0.1320 -0.1895
 5822SOL    HW129102   3.025   2.172   9.507  1.4284 -1.8278 -0.8528
 5822SOL    HW229103   3.164   2.181   9.512  1.4276 -2.1059  1.6986
 5823SOL     OW29104   3.062   3.048  17.534  0.6705  0.1444 -0.2089
 5823SOL    HW129105   3.040   3.008  17.619  2.1627  0.7704  0.4784
 5823SOL    HW229106   3.021   3.133  17.550  1.7182  0.5774  0.1520
 5824SOL     OW29107   3.539   2.811   6.568 -0.1676 -0.1730  0.5523
 5824SOL    HW129108   3.446   2.793   6.559 -0.0121 -1.0779  0.8262
 5824SOL    HW229109   3.529   2.892   6.619  0.2154  0.2746 -0.0812
 5825SOL     OW29110   2.741   3.443   0.345  0.0350  1.1891  0.5721
 5825SOL    HW129111   2.756   3.447   0.439  0.8763  2.2852  0.3932
 5825SOL    HW229112   2.780   3.360   0.316  0.1528  0.9317  1.4503
 5826SOL     OW29113   2.064   3.098   7.015 -0.1583 -0.1992  0.0251
 5826SOL    HW129114   2.137   3.038   6.999  0.0503 -0.0529  0.4315
 5826SOL    HW229115   2.003   3.031   7.048 -1.8135  0.2215 -2.2367
 5827SOL     OW29116   1.584   1.646  11.786  0.0637 -0.1104 -0.1387
 5827SOL    HW129117   1.540   1.593  11.852  0.0165 -0.7948 -0.7238
 5827SOL    HW229118   1.517   1.683  11.728  1.3763  0.8744 -1.0417
 5828SOL     OW29119   4.212   1.512  16.710 -0.3357  0.0635  0.2089
 5828SOL    HW129120   4.215   1.417  16.700  3.1862  0.2957 -0.9372
 5828SOL    HW229121   4.293   1.536  16.665 -0.3392  1.6739  1.0540
 5829SOL     OW29122   1.202   1.106   6.812  0.4293 -0.4940  0.5288
 5829SOL    HW129123   1.264   1.041   6.845  0.9935 -0.1817  0.1021
 5829SOL    HW229124   1.202   1.094   6.717 -0.4034  2.2699  0.1790
 5830SOL     OW29125   0.932   4.729   2.622  0.3700 -0.5705 -0.2680
 5830SOL    HW129126   0.991   0.025   2.555  0.7181  0.3989  0.5388
 5830SOL    HW229127   0.850   4.725   2.572  0.6735 -0.4368 -0.7726
 5831SOL     OW29128   2.640   0.714   6.639 -0.2322  0.1251 -1.0532
 5831SOL    HW129129   2.706   0.730   6.572  0.3044  0.0862 -0.5410
 5831SOL    HW229130   2.653   0.620   6.654  1.2103  0.3851 -0.6839
 5832SOL     OW29131   1.702   3.454   7.683  0.4667 -0.2860 -0.6128
 5832SOL    HW129132   1.610   3.475   7.700  0.0505 -0.8007 -2.1844
 5832SOL    HW229133   1.738   3.540   7.703 -1.7020  0.8498 -1.5023
 5833SOL     OW29134   1.619   2.764   4.712 -0.0470 -0.0703 -0.4397
 5833SOL    HW129135   1.690   2.700   4.714  0.2382  0.2937  1.4901
 5833SOL    HW229136   1.566   2.707   4.768  2.3793 -0.8500  1.0813
 5834SOL     OW29137   1.381   4.203   5.130 -0.6164  0.3730 -0.4333
 5834SOL    HW129138   1.299   4.236   5.166 -0.8702  0.2588 -0.9050
 5834SOL    HW229139   1.431   4.285   5.128  0.0431  0.0422  2.6622
 5835SOL     OW29140   2.797   0.167   8.468  0.5290 -0.3301  0.8595
 5835SOL    HW129141   2.760   0.195   8.552 -1.1054 -0.1937  0.0825
 5835SOL    HW229142   2.714   0.165   8.420  0.2004  2.1742  1.3079
 5836SOL     OW29143   2.016   3.552  13.734 -0.4790  0.2806  0.1031
 5836SOL    HW129144   2.098   3.600  13.729  0.9630 -2.2977 -0.9500
 5836SOL    HW229145   2.009   3.500  13.654 -1.7451  1.0260 -0.2653
 5837SOL     OW29146   3.715   0.939   6.722 -0.0265  0.3052  0.6940
 5837SOL    HW129147   3.746   0.982   6.641  0.8317 -0.6649  0.5075
 5837SOL    HW229148   3.676   1.012   6.771 -0.0259  0.8976 -0.1684
 5838SOL     OW29149   0.050   3.518  10.833  0.2743 -0.2129 -0.0429
 5838SOL    HW129150   0.145   3.513  10.822  0.1197 -1.9438 -0.7081
 5838SOL    HW229151   0.035   3.442  10.890 -0.7336 -1.2429 -1.6745
 5839SOL     OW29152   2.369   1.888   8.939  0.1452 -0.2962  0.8839
 5839SOL    HW129153   2.358   1.950   8.866 -1.1819 -0.4915  0.9242
 5839SOL    HW229154   2.441   1.931   8.985  2.6769 -3.0170 -0.5609
 5840SOL     OW29155   3.203   0.428   4.898  0.7571  0.3208 -0.2108
 5840SOL    HW129156   3.177   0.377   4.821  1.0194 -0.8627  0.4847
 5840SOL    HW229157   3.274   0.373   4.932 -1.0265 -1.4123  0.7610
 5841SOL     OW29158   0.517   0.745   8.240 -0.0535 -0.5011  0.0723
 5841SOL    HW129159   0.523   0.751   8.145  1.3235  0.6709  0.2416
 5841SOL    HW229160   0.430   0.703   8.240 -0.8398  1.1397 -0.7913
 5842SOL     OW29161   4.135   2.277  12.664 -0.5655 -0.3772  0.9389
 5842SOL    HW129162   4.216   2.311  12.702  0.1564 -2.1382  0.9364
 5842SOL    HW229163   4.085   2.267  12.745  1.1808  3.3524  2.4812
 5843SOL     OW29164   0.731   4.380   2.191 -0.1119  0.1674 -0.9163
 5843SOL    HW129165   0.669   4.382   2.118  0.6735 -3.0156 -1.6426
 5843SOL    HW229166   0.774   4.305   2.150 -0.4381 -0.9211  0.7479
 5844SOL     OW29167   2.804   1.757   2.186  0.3398  0.1893  0.4536
 5844SOL    HW129168   2.726   1.701   2.181  0.1579  0.5725 -0.9556
 5844SOL    HW229169   2.878   1.702   2.161 -0.3935 -0.2677 -0.7226
 5845SOL     OW29170   0.888   0.295  10.316  0.1642 -0.3722  0.3885
 5845SOL    HW129171   0.880   0.369  10.377 -1.0160  0.0189 -0.2319
 5845SOL    HW229172   0.972   0.258  10.344 -0.2510 -1.6307 -0.0498
 5846SOL     OW29173   1.930   2.031   6.022 -0.6124  0.1798 -0.0192
 5846SOL    HW129174   1.905   2.116   5.987  3.9719  1.0688 -1.2007
 5846SOL    HW229175   1.924   2.051   6.115 -0.8773  1.2372 -0.2677
 5847SOL     OW29176   3.636   2.039  12.951 -0.3726 -0.4566 -0.2735
 5847SOL    HW129177   3.709   2.081  12.997  0.6760 -2.2939 -0.2508
 5847SOL    HW229178   3.664   1.952  12.922  2.0131  1.5300 -4.0077
 5848SOL     OW29179   1.992   0.808   7.373  0.1352 -0.2761 -0.2957
 5848SOL    HW129180   1.911   0.824   7.422  0.4116 -0.2055  0.1286
 5848SOL    HW229181   2.019   0.739   7.432 -4.0070 -2.3256 -0.8246
 5849SOL     OW29182   4.269   2.437  10.787  0.4355 -0.0635 -0.2083
 5849SOL    HW129183   4.202   2.387  10.833  1.2490  0.3058  1.3913
 5849SOL    HW229184   4.206   2.471  10.724  1.2494 -1.1026 -1.5852
 5850SOL     OW29185   0.749   4.450  17.140 -0.8458 -0.0336  0.3202
 5850SOL    HW129186   0.828   4.397  17.149 -0.3659  0.4195 -1.2727
 5850SOL    HW229187   0.715   4.415  17.058  0.0660 -3.2886  1.3502
 5851SOL     OW29188   1.801   2.807   3.440 -0.0129  0.2033  0.2490
 5851SOL    HW129189   1.799   2.715   3.412  1.4300 -0.0919  1.1429
 5851SOL    HW229190   1.737   2.842   3.378 -0.9130 -0.0882  1.0069
 5852SOL     OW29191   3.827   3.821   7.755  0.9385 -0.4084  0.0197
 5852SOL    HW129192   3.878   3.791   7.830  1.2472  0.8286  0.3020
 5852SOL    HW229193   3.899   3.872   7.718  1.7682 -0.5563  1.4170
 5853SOL     OW29194   2.348   0.657   7.988 -0.1961  0.2560 -0.4448
 5853SOL    HW129195   2.379   0.612   7.910  1.4870 -2.4986  1.7884
 5853SOL    HW229196   2.424   0.714   7.996 -0.0518  0.2304 -1.7508
 5854SOL     OW29197   2.452   1.149   7.207 -0.8021  0.0696 -0.0655
 5854SOL    HW129198   2.540   1.170   7.239 -0.5368 -1.6522  0.3483
 5854SOL    HW229199   2.436   1.080   7.272 -0.8652  0.4308  0.3037
 5855SOL     OW29200   0.248   3.610   8.020 -0.0140 -0.3946 -0.3807
 5855SOL    HW129201   0.232   3.690   7.968  0.1344 -0.3649 -0.3814
 5855SOL    HW229202   0.165   3.570   7.995 -1.6329  2.9775 -0.4846
 5856SOL     OW29203   0.783   2.646   3.449  0.0084  0.3836 -0.2700
 5856SOL    HW129204   0.852   2.595   3.405  0.1940 -0.7347  1.2945
 5856SOL    HW229205   0.839   2.718   3.479  1.6595 -0.4241 -1.4118
 5857SOL     OW29206   4.055   0.616   8.901  0.0921 -0.4164 -0.3454
 5857SOL    HW129207   3.986   0.566   8.945  1.2634  1.3872  3.5582
 5857SOL    HW229208   4.107   0.544   8.866 -0.3485 -0.0519 -1.7396
 5858SOL     OW29209   2.751   2.286   1.645 -0.6187 -0.0567  0.0480
 5858SOL    HW129210   2.687   2.310   1.711  1.9919  0.7094  2.3164
 5858SOL    HW229211   2.822   2.348   1.665 -0.9922  0.3939 -0.0052
 5859SOL     OW29212   0.563   2.542   3.545  0.3191  0.8294 -0.6576
 5859SOL    HW129213   0.621   2.613   3.516  0.8549  0.5463 -0.2669
 5859SOL    HW229214   0.545   2.500   3.460 -0.5078 -1.3112  0.5890
 5860SOL     OW29215   2.298   1.118  12.815 -0.1092 -0.5024  0.6866
 5860SOL    HW129216   2.365   1.075  12.761  1.9691  0.9259  2.1499
 5860SOL    HW229217   2.252   1.038  12.842 -0.9485 -0.2430  0.0193
 5861SOL     OW29218   3.836   1.593   2.620 -0.2834  0.0922 -0.5225
 5861SOL    HW129219   3.887   1.574   2.699 -0.4287 -1.5818 -0.8242
 5861SOL    HW229220   3.814   1.502   2.599 -0.1418  0.9913 -4.4167
 5862SOL     OW29221   4.185   1.548  16.112 -0.1706 -0.1263 -0.3531
 5862SOL    HW129222   4.114   1.521  16.054  0.5131 -1.6305 -0.4808
 5862SOL    HW229223   4.242   1.596  16.052  0.2741 -0.8390 -0.5022
 5863SOL     OW29224   2.019   0.303  15.372  0.4311  0.1252 -0.4719
 5863SOL    HW129225   1.923   0.304  15.379  0.4375  4.1281 -1.0187
 5863SOL    HW229226   2.047   0.292  15.462  0.3725  1.7265 -0.2658
 5864SOL     OW29227   3.977   1.079  11.315 -0.6403 -0.0270  0.0963
 5864SOL    HW129228   3.974   1.131  11.396 -0.5105  1.8180 -1.0823
 5864SOL    HW229229   4.048   1.021  11.342  1.3769  2.1353 -0.5065
 5865SOL     OW29230   1.779   4.398   2.274 -0.0370 -0.5198  0.2211
 5865SOL    HW129231   1.736   4.339   2.213 -1.7684  1.4672 -0.4737
 5865SOL    HW229232   1.853   4.345   2.304  0.9175  0.3715 -0.5332
 5866SOL     OW29233   3.803   1.993   5.951 -0.3898 -0.0540 -0.0740
 5866SOL    HW129234   3.820   1.991   6.045  2.0353 -1.2060 -0.5486
 5866SOL    HW229235   3.805   1.899   5.935 -0.5071  0.0650 -0.7796
 5867SOL     OW29236   2.581   1.967   2.160 -0.3423 -0.3019 -0.0807
 5867SOL    HW129237   2.524   1.899   2.196 -0.5555 -0.6138 -1.0147
 5867SOL    HW229238   2.594   1.948   2.067 -1.7100 -1.1740 -0.0987
 5868SOL     OW29239   0.542   3.389   6.931  0.2385 -0.5763 -0.0752
 5868SOL    HW129240   0.567   3.297   6.937  1.0521 -0.3229  0.4033
 5868SOL    HW229241   0.585   3.405   6.847  0.6574 -0.8184  0.0970
 5869SOL     OW29242   1.498   3.455   2.860  0.3297 -0.1773  0.1798
 5869SOL    HW129243   1.555   3.527   2.888  0.1446  0.0418  0.0021
 5869SOL    HW229244   1.460   3.428   2.943  2.1908 -0.7732  0.8234
 5870SOL     OW29245   2.075   0.004   6.069  0.3832 -0.3151  0.7587
 5870SOL    HW129246   1.994   4.732   6.019  0.8728  3.2249 -0.7523
 5870SOL    HW229247   2.066   0.091   6.108 -0.8012  0.4151 -1.1075
 5871SOL     OW29248   1.511   1.390   7.394 -0.2174 -0.1731  0.0090
 5871SOL    HW129249   1.490   1.305   7.434 -2.6772  0.0836 -0.7216
 5871SOL    HW229250   1.467   1.363   7.313 -1.3160 -2.9582  1.5070
 5872SOL     OW29251   2.399   1.564  12.770 -0.8713  0.2244 -0.3297
 5872SOL    HW129252   2.365   1.516  12.845 -0.2525  1.6579  0.8495
 5872SOL    HW229253   2.470   1.504  12.749 -0.5614 -0.0986  1.7183
 5873SOL     OW29254   0.990   2.257   2.356 -0.3337 -0.7317 -0.4086
 5873SOL    HW129255   0.968   2.350   2.357 -0.4795 -0.7635 -0.6436
 5873SOL    HW229256   0.903   2.221   2.371  0.2204 -2.1785 -0.6730
 5874SOL     OW29257   1.728   4.663   2.230  0.2146 -0.1392 -0.2009
 5874SOL    HW129258   1.660   4.681   2.295 -0.4367 -4.2524  0.2593
 5874SOL    HW229259   1.705   4.573   2.206 -0.8742  1.2260 -4.3932
 5875SOL     OW29260   1.088   0.775   3.576 -0.4727  0.0947  0.1931
 5875SOL    HW129261   1.137   0.856   3.585  1.5040 -0.8523 -2.0664
 5875SOL    HW229262   1.128   0.730   3.651  0.6130  2.1098  0.8213
 5876SOL     OW29263   2.645   3.646   3.377  0.5061  0.3088 -0.0339
 5876SOL    HW129264   2.729   3.680   3.410  1.4923 -1.1595 -0.9975
 5876SOL    HW229265   2.658   3.633   3.283  2.4324 -0.0219  0.2747
 5877SOL     OW29266   3.684   3.914  12.129 -0.3379 -0.2928  0.6804
 5877SOL    HW129267   3.667   4.004  12.155  0.6382 -0.4068  1.6716
 5877SOL    HW229268   3.665   3.872  12.213  2.4961 -3.2979 -0.1818
 5878SOL     OW29269   2.127   1.881   6.162 -0.1053  0.1408 -0.0818
 5878SOL    HW129270   2.162   1.915   6.244 -3.2694  1.8075  0.6065
 5878SOL    HW229271   2.057   1.944   6.146 -0.9262 -0.7222  0.1083
 5879SOL     OW29272   4.161   0.267  11.358  0.4346 -0.0015 -0.0850
 5879SOL    HW129273   4.071   0.273  11.326  1.4869  1.8811 -2.7207
 5879SOL    HW229274   4.201   0.224  11.283 -0.3621 -0.8294 -0.0221
 5880SOL     OW29275   0.884   0.019   5.041 -0.1342 -0.2723  0.0320
 5880SOL    HW129276   0.850   4.667   5.049 -0.4028 -0.1389  0.3563
 5880SOL    HW229277   0.935   4.737   4.962  0.2067  0.7511 -0.0039
 5881SOL     OW29278   0.931   1.081   2.700 -0.9039  0.1764 -0.0109
 5881SOL    HW129279   0.877   1.157   2.720  1.0547  1.2479  1.1753
 5881SOL    HW229280   0.863   1.014   2.691  0.3202 -1.0959  0.1002
 5882SOL     OW29281   4.680   4.357   8.741 -0.0109  0.7274  0.0789
 5882SOL    HW129282   4.656   4.269   8.771  0.1613  0.6749  0.0627
 5882SOL    HW229283   4.651   4.356   8.650 -0.7946  0.8127  0.3318
 5883SOL     OW29284   4.252   3.671   3.925 -0.4475 -0.3176 -0.1497
 5883SOL    HW129285   4.216   3.613   3.993 -0.9783  0.8272  0.5558
 5883SOL    HW229286   4.328   3.710   3.969  0.3851 -0.5292 -1.4281
 5884SOL     OW29287   4.353   3.821   7.543  0.4661  0.3729 -0.0072
 5884SOL    HW129288   4.283   3.755   7.540 -0.4140  1.2400  1.1326
 5884SOL    HW229289   4.378   3.834   7.452 -0.3179  2.4581  0.0657
 5885SOL     OW29290   1.409   4.145   0.155 -0.1668  0.1556  0.6290
 5885SOL    HW129291   1.470   4.186   0.095  1.3462 -0.6313  1.6375
 5885SOL    HW229292   1.351   4.092   0.100 -0.8822  1.3218  0.2628
 5886SOL     OW29293   2.580   2.199  12.603  0.3966  0.2498 -0.1992
 5886SOL    HW129294   2.545   2.238  12.683 -1.3007  0.9519 -1.2704
 5886SOL    HW229295   2.667   2.194  12.643  0.0875 -1.2977  0.2747
 5887SOL     OW29296   2.295   1.858   8.178 -0.4842 -0.1189  0.6153
 5887SOL    HW129297   2.270   1.792   8.242  0.8983 -0.4623  0.8023
 5887SOL    HW229298   2.278   1.811   8.096 -1.2043  0.1831  0.5861
 5888SOL     OW29299   2.124   1.164   0.350 -0.3280 -0.5364 -0.1558
 5888SOL    HW129300   2.051   1.106   0.329 -2.6527  2.7061 -1.0477
 5888SOL    HW229301   2.089   1.230   0.410  1.5202 -0.6540  1.0360
 5889SOL     OW29302   1.787   1.169   3.672  0.0681 -0.7892  0.1567
 5889SOL    HW129303   1.741   1.085   3.678 -1.0588 -0.0493  1.9722
 5889SOL    HW229304   1.719   1.230   3.702  0.4238 -0.6287  0.6206
 5890SOL     OW29305   4.376   4.183   6.438 -0.3549  0.0747 -0.3563
 5890SOL    HW129306   4.417   4.159   6.355  0.5532 -0.4682  0.2390
 5890SOL    HW229307   4.445   4.151   6.497 -2.8325 -0.9550  1.9853
 5891SOL     OW29308   1.352   3.768   4.338  0.3694 -0.4893  0.3838
 5891SOL    HW129309   1.382   3.848   4.383  0.1543 -0.3672  0.3085
 5891SOL    HW229310   1.418   3.709   4.376 -1.9633 -2.0275  2.0183
 5892SOL     OW29311   2.241   3.081  17.151 -0.3047  0.6595 -0.2958
 5892SOL    HW129312   2.273   3.133  17.078  2.8042  1.3944  1.6213
 5892SOL    HW229313   2.147   3.080  17.135 -0.5765  1.4497  1.2615
 5893SOL     OW29314   3.453   4.645  10.361  0.0653 -0.3298  0.0847
 5893SOL    HW129315   3.523   4.580  10.370  1.2686  0.8038 -1.0470
 5893SOL    HW229316   3.383   4.607  10.413  2.5475 -2.7473  1.6804
 5894SOL     OW29317   1.204   1.400   7.300  0.5034  0.4488 -0.4776
 5894SOL    HW129318   1.132   1.387   7.238 -0.2384 -1.3398  0.7776
 5894SOL    HW229319   1.271   1.431   7.238 -1.2741  2.3210 -1.4486
 5895SOL     OW29320   3.169   0.518   2.287  0.4674 -0.0400 -0.5769
 5895SOL    HW129321   3.096   0.461   2.311 -1.0679  2.8167  1.3938
 5895SOL    HW229322   3.222   0.517   2.366 -1.6047  2.2046  0.8255
 5896SOL     OW29323   1.591   4.035   0.367 -0.0114  0.5842 -0.0485
 5896SOL    HW129324   1.524   4.069   0.307 -2.0375 -2.8429  0.2626
 5896SOL    HW229325   1.671   4.066   0.324  1.4430 -1.0007  1.5775
 5897SOL     OW29326   2.983   1.460  16.888  0.0104  0.3095 -0.0174
 5897SOL    HW129327   2.908   1.475  16.831  0.3132  2.3094  0.0978
 5897SOL    HW229328   3.022   1.378  16.857 -4.2058 -1.3890 -0.8317
 5898SOL     OW29329   2.340   4.501  10.548  0.0002 -0.4615  0.1586
 5898SOL    HW129330   2.374   4.588  10.530  0.9285 -0.8214  0.1517
 5898SOL    HW229331   2.247   4.502  10.526  0.2120 -1.7825 -0.8342
 5899SOL     OW29332   0.991   3.058   8.169 -0.1606 -0.1847 -0.1921
 5899SOL    HW129333   1.076   3.082   8.206 -0.5206  1.1615 -0.2543
 5899SOL    HW229334   1.000   2.963   8.174 -1.8929 -0.3379  0.0398
 5900SOL     OW29335   1.389   1.473   2.273  0.1488 -0.1402 -0.5294
 5900SOL    HW129336   1.370   1.395   2.221 -0.4720  1.6207 -2.9374
 5900SOL    HW229337   1.319   1.469   2.339  2.0560  1.5956  1.6319
 5901SOL     OW29338   1.825   4.652   3.600  0.0403 -0.9576 -0.1159
 5901SOL    HW129339   1.738   4.613   3.609 -0.6167  1.0230  1.9951
 5901SOL    HW229340   1.881   4.630   3.674 -0.7406 -0.1619  0.7127
 5902SOL     OW29341   4.075   1.528   8.868 -0.1418 -0.0115  0.1252
 5902SOL    HW129342   4.029   1.595   8.817 -1.3464  0.8681  2.3827
 5902SOL    HW229343   4.010   1.471   8.908 -1.3890  1.0968 -0.3530
 5903SOL     OW29344   2.731   3.638   5.338 -0.0782 -0.8418 -0.1710
 5903SOL    HW129345   2.657   3.674   5.289 -0.6536 -0.8094  0.7159
 5903SOL    HW229346   2.784   3.714   5.363  0.9770 -0.9211 -2.2207
 5904SOL     OW29347   3.558   3.671  12.087  0.3321  0.6699  0.1742
 5904SOL    HW129348   3.623   3.608  12.119  0.4494  1.3074  1.1611
 5904SOL    HW229349   3.608   3.752  12.081  0.6973  0.4786  0.6256
 5905SOL     OW29350   3.736   3.987   4.531  0.3086 -0.7055 -0.5705
 5905SOL    HW129351   3.685   3.951   4.458 -1.5391  1.0994 -0.1747
 5905SOL    HW229352   3.707   4.078   4.535 -0.5109 -1.0372  1.1687
 5906SOL     OW29353   0.934   2.794   3.624 -0.5747  0.0469  0.0274
 5906SOL    HW129354   1.000   2.860   3.604  1.0177 -0.3650  3.9432
 5906SOL    HW229355   0.991   2.728   3.663  2.7092  1.0058 -3.0923
 5907SOL     OW29356   2.488   3.218   7.854  0.1987  0.4946 -0.0871
 5907SOL    HW129357   2.577   3.227   7.822  0.9832 -2.3817  1.2437
 5907SOL    HW229358   2.442   3.225   7.770  0.2343  2.2050  0.0499
 5908SOL     OW29359   3.312   3.760  12.230  0.1334  0.3559 -0.1508
 5908SOL    HW129360   3.372   3.719  12.292  1.9149  1.6588 -1.0344
 5908SOL    HW229361   3.356   3.724  12.154  2.3012  1.2299  0.6907
 5909SOL     OW29362   3.649   2.714   8.082  0.2631  0.0955  0.3128
 5909SOL    HW129363   3.556   2.719   8.101  0.0326  1.6011 -1.2563
 5909SOL    HW229364   3.674   2.638   8.135 -0.5713 -0.4539 -0.0840
 5910SOL     OW29365   0.084   3.020   5.075  0.5572 -0.2954 -0.1679
 5910SOL    HW129366   0.100   3.113   5.058 -1.3266  0.2326  1.0164
 5910SOL    HW229367   4.727   3.036   5.069  0.6891  0.1287 -1.2903
 5911SOL     OW29368   3.627   3.845   6.359 -0.4416  0.3114 -0.2595
 5911SOL    HW129369   3.567   3.828   6.432  1.4949  1.2326  1.5290
 5911SOL    HW229370   3.634   3.940   6.352  2.0759  0.1819  0.4699
 5912SOL     OW29371   2.827   2.267  16.977 -0.0260 -0.3357 -0.1289
 5912SOL    HW129372   2.787   2.354  16.980 -1.9667 -1.2048 -0.8285
 5912SOL    HW229373   2.749   2.211  16.982  0.8262 -1.3904  1.2411
 5913SOL     OW29374   1.306   3.657   8.493  0.3978  0.1105 -0.0355
 5913SOL    HW129375   1.280   3.570   8.462  0.2345 -0.3505  1.3780
 5913SOL    HW229376   1.225   3.693   8.531 -0.6688 -2.1999 -0.1147
 5914SOL     OW29377   2.013   4.579  11.329 -0.1138  0.0090 -0.3923
 5914SOL    HW129378   2.082   4.534  11.378 -0.6623 -0.6148 -0.1833
 5914SOL    HW229379   1.939   4.570  11.390  1.1142 -0.2539  1.0548
 5915SOL     OW29380   2.972   3.619   8.101 -0.0526  0.2488 -0.6839
 5915SOL    HW129381   3.009   3.625   8.013  0.5558 -0.9006 -0.5075
 5915SOL    HW229382   3.039   3.659   8.157 -0.4168 -1.1543  0.7751
 5916SOL     OW29383   0.203   0.344  12.991 -0.1959 -0.2618 -0.5116
 5916SOL    HW129384   0.283   0.293  12.975  1.4095  1.8627  0.8705
 5916SOL    HW229385   0.201   0.400  12.913 -1.1506 -0.1788 -0.4224
 5917SOL     OW29386   0.422   2.110   2.116 -0.2100  0.0964 -0.2598
 5917SOL    HW129387   0.480   2.186   2.119  0.6909 -0.6384  1.2540
 5917SOL    HW229388   0.372   2.110   2.034 -0.4308 -1.5874 -0.1361
 5918SOL     OW29389   0.130   4.326   4.696 -0.0737  0.5299  0.2078
 5918SOL    HW129390   0.105   4.235   4.681  1.5430  0.0629  0.2968
 5918SOL    HW229391   0.139   4.338   4.791 -2.1923  1.1406  0.3149
 5919SOL     OW29392   4.005   0.608   5.176 -0.5815  0.5563  0.3197
 5919SOL    HW129393   3.998   0.645   5.088 -2.3538  0.6079  0.4874
 5919SOL    HW229394   3.958   0.675   5.226 -2.2633  0.8541 -1.6594
 5920SOL     OW29395   1.711   3.224   0.511 -0.2144  0.3846  0.0325
 5920SOL    HW129396   1.701   3.154   0.576 -1.8310 -1.8070 -2.5557
 5920SOL    HW229397   1.806   3.223   0.508 -0.1544  1.0551  1.6988
 5921SOL     OW29398   0.311   0.621  16.883 -0.0831  0.1395  0.6461
 5921SOL    HW129399   0.311   0.715  16.904  1.2338  0.4348 -0.6721
 5921SOL    HW229400   0.289   0.583  16.968 -0.5686  0.2211  0.5603
 5922SOL     OW29401   1.243   4.636   8.089  0.3722 -0.1524 -0.2015
 5922SOL    HW129402   1.303   4.605   8.157  0.9825 -0.8850 -1.0640
 5922SOL    HW229403   1.308   4.688   8.041  1.1666 -0.9800 -0.0261
 5923SOL     OW29404   0.219   0.049   2.331  0.3209  0.5846  0.2348
 5923SOL    HW129405   0.273   0.067   2.254 -1.9482  1.7005 -1.1044
 5923SOL    HW229406   0.289   0.045   2.396  0.6364 -0.8114 -0.2063
 5924SOL     OW29407   0.481   2.807  17.198  0.4606  0.3474  0.5065
 5924SOL    HW129408   0.408   2.750  17.174 -0.3382  2.1388 -1.3691
 5924SOL    HW229409   0.488   2.842  17.109 -0.4552  0.1499  0.3585
 5925SOL     OW29410   1.346   0.960   5.745 -0.0089 -0.8994 -0.1992
 5925SOL    HW129411   1.266   0.908   5.755  0.4649 -1.6455 -0.3253
 5925SOL    HW229412   1.318   1.041   5.788  0.9014 -1.0888  0.7527
 5926SOL     OW29413   0.110   1.704   4.918 -0.1971 -0.0047  0.4760
 5926SOL    HW129414   0.193   1.675   4.957 -0.4979  0.9233  1.8190
 5926SOL    HW229415   0.107   1.794   4.949 -3.1854 -0.0639  0.3423
 5927SOL     OW29416   2.465   2.665   8.964  0.7744 -0.5564  0.6701
 5927SOL    HW129417   2.409   2.626   9.031  1.1097  0.7310  1.7074
 5927SOL    HW229418   2.496   2.585   8.922 -1.2211 -0.8046 -0.3727
 5928SOL     OW29419   1.407   3.295   5.620  0.2668 -0.1231  0.4179
 5928SOL    HW129420   1.476   3.291   5.686 -0.1602 -4.2329  0.5854
 5928SOL    HW229421   1.466   3.282   5.546 -0.5186 -1.5662  0.0519
 5929SOL     OW29422   0.041   0.395   9.340  0.5344  0.2334  0.0647
 5929SOL    HW129423   4.729   0.374   9.419  0.5291  1.5803  0.4297
 5929SOL    HW229424   0.131   0.402   9.373  0.3869 -1.1938  0.7508
 5930SOL     OW29425   0.460   0.916  12.794  0.2788 -0.3388  0.0821
 5930SOL    HW129426   0.494   0.874  12.874 -1.5643  2.0176  2.0930
 5930SOL    HW229427   0.377   0.871  12.775  0.9874 -2.4852  2.0385
 5931SOL     OW29428   3.865   1.229   0.960  0.2766  0.3026 -0.3276
 5931SOL    HW129429   3.832   1.269   0.879  1.3449 -0.8034 -1.3257
 5931SOL    HW229430   3.825   1.280   1.030  0.4991 -0.4089  0.3136
 5932SOL     OW29431   3.430   1.010   7.905 -0.3109  0.4723  0.0439
 5932SOL    HW129432   3.361   0.946   7.927  1.5081 -1.5870 -0.2329
 5932SOL    HW229433   3.498   0.995   7.971 -0.0373  0.4012 -0.2537
 5933SOL     OW29434   1.842   3.280   7.102 -0.3155  0.2108 -0.0651
 5933SOL    HW129435   1.925   3.309   7.140 -0.5962  2.2895 -1.0354
 5933SOL    HW229436   1.819   3.217   7.170 -0.9159 -1.1846 -1.5872
 5934SOL     OW29437   0.951   2.117   0.908  0.0533  0.0331 -0.4947
 5934SOL    HW129438   0.899   2.194   0.931 -1.0425 -1.2519  1.2943
 5934SOL    HW229439   0.910   2.053   0.965  1.9385 -1.8927 -1.2947
 5935SOL     OW29440   1.711   0.835   4.104  0.1414 -0.5401  0.5103
 5935SOL    HW129441   1.709   0.746   4.138  2.1263 -0.6788  0.2650
 5935SOL    HW229442   1.677   0.882   4.180  2.1258  1.8084 -0.0562
 5936SOL     OW29443   0.900   3.283   5.756  0.1075 -0.6931 -0.1798
 5936SOL    HW129444   0.963   3.310   5.689  0.6560 -0.8846  0.2654
 5936SOL    HW229445   0.910   3.340   5.832 -1.3053 -0.8012  0.0843
 5937SOL     OW29446   0.977   4.609   2.114 -0.4879 -0.2078  0.4822
 5937SOL    HW129447   0.946   4.523   2.085  2.2695 -0.7692 -0.8652
 5937SOL    HW229448   0.968   4.604   2.209  1.2667  0.2792  0.6815
 5938SOL     OW29449   1.316   0.973   3.332 -0.5099 -0.3175  0.4084
 5938SOL    HW129450   1.229   0.946   3.305  1.4113 -5.4580 -0.6010
 5938SOL    HW229451   1.313   1.066   3.308  1.2941 -0.4395 -0.3446
 5939SOL     OW29452   4.228   3.447   5.343 -0.6179  0.4820  0.2569
 5939SOL    HW129453   4.307   3.413   5.302 -0.7817 -0.5205  0.7748
 5939SOL    HW229454   4.156   3.393   5.309  0.2480 -2.3541  2.9526
 5940SOL     OW29455   2.667   2.959   4.109 -0.0054 -0.0063 -0.4295
 5940SOL    HW129456   2.684   2.906   4.031  0.9047  1.6460 -1.3780
 5940SOL    HW229457   2.591   3.009   4.080  2.0563  3.0397 -0.5884
 5941SOL     OW29458   0.719   3.811   3.887 -0.4800  0.6319 -0.4919
 5941SOL    HW129459   0.705   3.906   3.876  3.4977  1.0230 -2.1559
 5941SOL    HW229460   0.655   3.771   3.828 -0.6842 -0.2316  0.3247
 5942SOL     OW29461   4.691   3.311   2.815  0.7350  0.0099 -0.2495
 5942SOL    HW129462   4.737   3.234   2.783  1.1192  0.0907  0.1053
 5942SOL    HW229463   4.730   3.380   2.762 -0.0556  0.5496 -0.1245
 5943SOL     OW29464   2.191   2.653   2.181 -0.5657  0.4130  0.4704
 5943SOL    HW129465   2.130   2.584   2.208 -2.0319  1.5267 -0.0117
 5943SOL    HW229466   2.183   2.714   2.254  0.6436 -1.5216  2.2404
 5944SOL     OW29467   0.166   2.529   5.701 -0.1106 -1.0830  0.4059
 5944SOL    HW129468   0.190   2.615   5.665  0.5595 -0.5461  2.0878
 5944SOL    HW229469   0.245   2.512   5.753 -0.1413  1.3783  1.2881
 5945SOL     OW29470   1.018   4.168   1.336 -0.0429  0.0098  0.0914
 5945SOL    HW129471   1.072   4.177   1.415 -0.3188 -0.3780  0.3257
 5945SOL    HW229472   1.023   4.261   1.315  0.0865  0.1193  0.6053
 5946SOL     OW29473   2.652   0.906   2.328  0.1135  0.2240  0.0179
 5946SOL    HW129474   2.633   0.893   2.235  0.1382 -5.2072  0.7612
 5946SOL    HW229475   2.747   0.907   2.330  0.1255 -1.8947  0.7146
 5947SOL     OW29476   3.780   1.295   7.387 -0.5696  0.9734 -0.1426
 5947SOL    HW129477   3.778   1.329   7.477 -2.5623 -0.8893  0.5055
 5947SOL    HW229478   3.691   1.262   7.374 -0.1990 -0.3953  0.7936
 5948SOL     OW29479   0.148   1.674   6.653 -0.4964 -0.2057 -0.4649
 5948SOL    HW129480   0.194   1.590   6.655 -1.2325 -0.6178 -0.7305
 5948SOL    HW229481   0.177   1.705   6.739  1.2966 -1.7083 -0.5202
 5949SOL     OW29482   4.472   0.394   2.950  0.3274  0.2196  0.2222
 5949SOL    HW129483   4.543   0.459   2.951  0.3606  0.1374  2.0217
 5949SOL    HW229484   4.476   0.373   2.857  0.7128 -1.0674  0.5364
 5950SOL     OW29485   2.376   2.715   5.497  0.3469  0.5292 -0.1657
 5950SOL    HW129486   2.417   2.651   5.440  2.5377  2.4115 -0.7303
 5950SOL    HW229487   2.440   2.786   5.509  0.3450  0.3288  1.0098
 5951SOL     OW29488   1.622   2.425   9.119 -0.0662  0.2310 -0.4210
 5951SOL    HW129489   1.613   2.359   9.051  0.6392 -0.9131  0.5904
 5951SOL    HW229490   1.709   2.459   9.098 -0.2141 -0.2527 -1.7506
 5952SOL     OW29491   0.568   0.571  16.819  0.2172 -0.2629  0.2088
 5952SOL    HW129492   0.473   0.577  16.831 -0.1120 -3.6148 -0.5790
 5952SOL    HW229493   0.586   0.610  16.733  0.4473 -0.9681 -0.0671
 5953SOL     OW29494   3.902   1.879   3.399 -0.3619 -0.0609  0.3302
 5953SOL    HW129495   3.971   1.919   3.451  0.8432  1.7776 -2.6811
 5953SOL    HW229496   3.829   1.939   3.412 -0.7653 -0.6133  0.6333
 5954SOL     OW29497   0.886   3.151   4.678  0.2914 -0.4834  0.6411
 5954SOL    HW129498   0.962   3.204   4.653  0.1172 -0.5144  0.0337
 5954SOL    HW229499   0.884   3.082   4.612  2.1453 -0.8339  0.9487
 5955SOL     OW29500   2.326   3.575   3.678  0.3697  0.2748 -0.1524
 5955SOL    HW129501   2.322   3.668   3.655 -1.6369  0.5942  1.4249
 5955SOL    HW229502   2.349   3.538   3.593  1.3895  2.4278 -0.8036
 5956SOL     OW29503   4.088   2.340   8.726  0.4605  0.1960  0.2242
 5956SOL    HW129504   4.049   2.259   8.757 -1.6011  0.6288 -1.2138
 5956SOL    HW229505   4.134   2.378   8.801 -0.3778  0.8044  0.4330
 5957SOL     OW29506   4.668   2.688   1.095  0.0531  0.0260 -0.2210
 5957SOL    HW129507   4.708   2.745   1.029 -2.1142  1.1093 -0.5926
 5957SOL    HW229508   0.004   2.675   1.155  0.5399  0.8753 -0.6414
 5958SOL     OW29509   2.808   3.602   6.970 -0.1581 -0.7962  0.3664
 5958SOL    HW129510   2.724   3.597   7.015 -0.8145  1.2098 -0.6195
 5958SOL    HW229511   2.775   3.603   6.881 -1.5382  0.3173  0.8848
 5959SOL     OW29512   4.297   4.006   1.141 -0.2736  0.6362  0.2669
 5959SOL    HW129513   4.230   4.041   1.082 -1.0390 -0.1561  0.6764
 5959SOL    HW229514   4.374   4.057   1.115  1.1958 -1.7319  0.0314
 5960SOL     OW29515   4.678   0.806   6.982 -0.4476 -0.1147 -0.0931
 5960SOL    HW129516   0.025   0.835   6.949 -0.7066  1.1297  0.3673
 5960SOL    HW229517   4.616   0.824   6.911  1.9343  1.2093 -1.8115
 5961SOL     OW29518   2.663   4.335   9.044 -0.1410 -0.7819  0.0919
 5961SOL    HW129519   2.750   4.322   9.082  0.8749  0.0532 -2.0038
 5961SOL    HW229520   2.610   4.303   9.118  0.7914 -3.2417 -0.3229
 5962SOL     OW29521   1.696   4.293   2.796  0.0870  0.1482  0.1427
 5962SOL    HW129522   1.749   4.361   2.838 -0.0923 -1.5832  3.1215
 5962SOL    HW229523   1.753   4.219   2.777 -0.3577  0.1525 -1.1986
 5963SOL     OW29524   1.113   2.213   8.876  0.2791  0.3486  0.3687
 5963SOL    HW129525   1.193   2.240   8.922  1.7749 -1.9739 -0.9083
 5963SOL    HW229526   1.059   2.292   8.874 -1.4732 -0.8116  1.4540
 5964SOL     OW29527   0.187   3.141   2.764 -0.5129  0.1671  0.0708
 5964SOL    HW129528   0.182   3.152   2.859  1.3022 -0.2933  0.2095
 5964SOL    HW229529   0.203   3.047   2.762 -2.4380 -0.1429 -0.3997
 5965SOL     OW29530   0.153   2.596   2.397 -0.4246  0.0375  0.1522
 5965SOL    HW129531   0.173   2.635   2.312 -1.1006  0.4912  0.2005
 5965SOL    HW229532   0.233   2.604   2.448 -0.8800  2.3926  0.4643
 5966SOL     OW29533   0.650   2.806   5.817 -0.2836 -0.0385  0.2361
 5966SOL    HW129534   0.585   2.872   5.794  0.7925  0.9637  0.0343
 5966SOL    HW229535   0.715   2.865   5.857 -0.2654  1.8020 -2.5501
 5967SOL     OW29536   1.624   3.601   2.406  0.1083 -0.0719 -0.3378
 5967SOL    HW129537   1.574   3.575   2.483 -0.8364  0.8921 -0.6313
 5967SOL    HW229538   1.560   3.599   2.335 -1.8117  1.5161  1.3840
 5968SOL     OW29539   1.098   0.792   1.921 -0.1667 -0.1065  0.0674
 5968SOL    HW129540   1.090   0.710   1.971 -0.0017 -0.9488 -1.2746
 5968SOL    HW229541   1.042   0.855   1.966 -1.9571 -1.9756  0.4572
 5969SOL     OW29542   1.502   3.870   2.436  0.1889  0.3126  0.1027
 5969SOL    HW129543   1.456   3.813   2.375  2.1745  0.3422 -1.4209
 5969SOL    HW229544   1.512   3.801   2.502  1.9454  0.6615  0.2168
 5970SOL     OW29545   2.782   0.914   8.028  0.1897 -0.4943  0.3721
 5970SOL    HW129546   2.842   0.985   8.050 -0.0922 -0.2378  0.3141
 5970SOL    HW229547   2.775   0.917   7.933 -3.7201  1.0388  0.7170
 5971SOL     OW29548   1.519   3.470   5.372  0.6239  0.4501 -0.3300
 5971SOL    HW129549   1.591   3.517   5.329  0.7207 -1.1563 -1.8943
 5971SOL    HW229550   1.478   3.426   5.298  0.1332  2.3292 -1.1868
 5972SOL     OW29551   3.803   3.326  12.834  0.1328  0.7237 -0.0645
 5972SOL    HW129552   3.748   3.388  12.787 -0.8372  0.7329  1.0968
 5972SOL    HW229553   3.801   3.365  12.922 -0.0208  0.4956  0.0325
 5973SOL     OW29554   0.472   2.633   2.187 -0.1632  0.1274  0.7874
 5973SOL    HW129555   0.404   2.567   2.199  1.1896 -1.3120  0.5980
 5973SOL    HW229556   0.427   2.692   2.127  0.8449  0.4941  0.3905
 5974SOL     OW29557   0.511   1.979  10.699 -0.1520 -0.1416  0.3129
 5974SOL    HW129558   0.517   1.953  10.606  0.6261  0.8842  0.0890
 5974SOL    HW229559   0.584   2.040  10.702 -1.2508  1.2348 -0.5970
 5975SOL     OW29560   4.530   3.248   4.304  0.2852  0.7603 -0.6709
 5975SOL    HW129561   4.609   3.195   4.294 -0.2445  0.5590 -3.7808
 5975SOL    HW229562   4.493   3.216   4.387 -0.5992 -1.3383 -1.8698
 5976SOL     OW29563   1.102   3.899  16.075  0.5637  0.3102 -0.6752
 5976SOL    HW129564   1.080   3.973  16.018 -1.8295 -0.0172 -0.1713
 5976SOL    HW229565   1.187   3.925  16.111 -0.6005  2.0945  0.8575
 5977SOL     OW29566   1.502   3.787   5.060  0.3535  0.0156 -0.2667
 5977SOL    HW129567   1.498   3.872   5.017 -0.8089 -0.7263 -1.6113
 5977SOL    HW229568   1.475   3.806   5.150  0.6423  0.3748 -0.2582
 5978SOL     OW29569   4.157   0.834   8.760  0.2540 -0.0592  0.5682
 5978SOL    HW129570   4.118   0.776   8.825  1.0603 -1.1543  0.0589
 5978SOL    HW229571   4.119   0.808   8.676 -0.4602 -0.3394  0.9815
 5979SOL     OW29572   2.764   2.786  15.030  0.2586 -0.1512  0.3236
 5979SOL    HW129573   2.814   2.776  14.949 -0.5155  0.9859 -0.3082
 5979SOL    HW229574   2.677   2.809  14.995  0.9233  1.8252 -0.0189
 5980SOL     OW29575   2.571   2.896   5.460  0.4051  0.1253 -0.0336
 5980SOL    HW129576   2.569   2.927   5.370  0.3264  0.7436  0.1836
 5980SOL    HW229577   2.664   2.886   5.481 -0.0995  1.2790  2.7388
 5981SOL     OW29578   3.907   4.186   1.612 -0.0248 -0.0829  0.1071
 5981SOL    HW129579   3.996   4.151   1.611  0.4764  1.2012 -0.5143
 5981SOL    HW229580   3.918   4.270   1.657  1.2209 -0.0695 -0.2116
 5982SOL     OW29581   2.550   2.841   3.367 -1.0044  0.3590 -0.0348
 5982SOL    HW129582   2.562   2.841   3.462  0.4584  1.7743 -0.2241
 5982SOL    HW229583   2.534   2.750   3.342 -0.9001 -0.1477  1.7036
 5983SOL     OW29584   1.682   1.596   3.356  0.1383 -0.0815 -0.4027
 5983SOL    HW129585   1.723   1.607   3.442  0.1115 -0.9722 -0.2819
 5983SOL    HW229586   1.654   1.505   3.359 -1.3157  0.3580 -0.6587
 5984SOL     OW29587   3.939   4.629   3.700 -0.5400 -0.1571  0.2097
 5984SOL    HW129588   3.992   4.611   3.778 -1.1919 -0.1984  0.6459
 5984SOL    HW229589   4.010   4.684   3.666  0.8242 -1.2396  1.2923
 5985SOL     OW29590   4.188   1.598  15.664 -0.0309 -0.3452  0.2327
 5985SOL    HW129591   4.159   1.621  15.575 -2.6297  2.7590  1.8930
 5985SOL    HW229592   4.213   1.677  15.711  2.2602 -1.0901  0.2732
 5986SOL     OW29593   3.281   0.520  12.182  0.4158 -0.5206 -0.3641
 5986SOL    HW129594   3.201   0.564  12.211  1.6043  1.6689 -0.3624
 5986SOL    HW229595   3.247   0.436  12.152 -0.9239 -0.3478  0.6821
 5987SOL     OW29596   1.345   1.474   2.780 -0.4487 -0.0252  0.1256
 5987SOL    HW129597   1.296   1.492   2.700 -1.8983  0.7709  1.1873
 5987SOL    HW229598   1.426   1.521   2.759 -0.2586 -0.7053 -0.6782
 5988SOL     OW29599   3.706   4.513   4.960  0.0364  0.7527 -0.4744
 5988SOL    HW129600   3.695   4.569   4.883  1.9668  0.2640 -1.1032
 5988SOL    HW229601   3.618   4.501   4.996  0.3746 -0.1804  0.0127
 5989SOL     OW29602   0.631   2.285   2.126  0.2141 -0.2970 -0.5009
 5989SOL    HW129603   0.618   2.349   2.055 -0.5231 -2.6097 -2.4402
 5989SOL    HW229604   0.727   2.284   2.126  0.1977 -1.4672 -0.5176
 5990SOL     OW29605   1.381   3.783   3.715  0.2577  0.2167 -0.5610
 5990SOL    HW129606   1.315   3.828   3.662  1.7186  2.9758 -0.0508
 5990SOL    HW229607   1.329   3.757   3.791  1.1286  0.3836  0.0968
 5991SOL     OW29608   1.039   0.613  12.528  0.1206 -0.3071  0.2432
 5991SOL    HW129609   0.992   0.663  12.462  1.4471  0.7256  0.0566
 5991SOL    HW229610   0.992   0.531  12.515  0.2539 -0.0366 -1.9116
 5992SOL     OW29611   4.173   2.307  14.999 -0.0450  0.2496 -0.2851
 5992SOL    HW129612   4.101   2.270  14.948 -1.4774 -0.7985  2.4797
 5992SOL    HW229613   4.239   2.302  14.930 -0.6795 -0.6624 -0.8172
 5993SOL     OW29614   0.229   0.599   5.404 -0.1163  0.0944  0.1253
 5993SOL    HW129615   0.167   0.662   5.368  1.0174  0.2643 -1.5350
 5993SOL    HW229616   0.255   0.555   5.324  1.7124  0.4367  0.5221
 5994SOL     OW29617   0.357   3.326   4.609 -0.0422  0.0608 -0.0721
 5994SOL    HW129618   0.400   3.327   4.524  1.3588  1.2761  0.6496
 5994SOL    HW229619   0.265   3.306   4.590 -0.8762  1.6508  2.1825
 5995SOL     OW29620   3.924   3.226  12.455  0.2847 -0.0828 -0.3702
 5995SOL    HW129621   3.922   3.322  12.459 -1.5472 -0.1187 -0.6440
 5995SOL    HW229622   3.873   3.211  12.375  0.0717 -0.9487 -0.0675
 5996SOL     OW29623   4.010   1.701  13.476 -0.3807 -0.6679  0.3552
 5996SOL    HW129624   3.943   1.763  13.504  0.9113  0.7740  0.2434
 5996SOL    HW229625   4.090   1.752  13.484  0.1914 -1.3016 -1.3195
 5997SOL     OW29626   1.220   4.734   5.848  0.0705 -0.0745  0.9361
 5997SOL    HW129627   1.193   0.005   5.939 -0.0185 -1.3229  1.0266
 5997SOL    HW229628   1.130   4.735   5.815 -0.0180  1.2530  1.2163
 5998SOL     OW29629   1.566   4.477  17.458  0.6672 -0.1765  0.2346
 5998SOL    HW129630   1.583   4.383  17.455 -1.0848 -0.4774 -0.3106
 5998SOL    HW229631   1.609   4.500  17.540 -2.8658 -1.4215  2.4577
 5999SOL     OW29632   2.612   4.254   8.003 -0.3608 -0.5635  0.1557
 5999SOL    HW129633   2.538   4.314   8.006 -0.0581 -0.1975  0.4180
 5999SOL    HW229634   2.659   4.275   8.083  0.8799  0.3153 -0.8064
 6000SOL     OW29635   4.554   0.945   5.152  0.0741 -0.0812  0.2859
 6000SOL    HW129636   4.528   0.921   5.064  2.2437 -0.7297 -0.1736
 6000SOL    HW229637   4.595   1.032   5.148 -0.1070 -0.0024  0.1489
 6001SOL     OW29638   2.092   3.393   4.764  0.2277  0.4191  0.4070
 6001SOL    HW129639   2.075   3.393   4.670  2.8799  4.2725 -0.0526
 6001SOL    HW229640   2.094   3.300   4.787 -1.0138  0.4468  0.6179
 6002SOL     OW29641   3.381   3.962  11.227 -0.1835  0.4440 -0.0350
 6002SOL    HW129642   3.351   3.950  11.317 -1.4145 -0.6379 -0.6027
 6002SOL    HW229643   3.410   4.053  11.227  0.4752  0.2358  0.3291
 6003SOL     OW29644   2.669   4.480  16.963  0.0369  0.4027  0.5202
 6003SOL    HW129645   2.708   4.558  16.924 -1.2518  0.0631 -1.4090
 6003SOL    HW229646   2.708   4.415  16.904 -3.0117  0.1435 -1.1904
 6004SOL     OW29647   2.715   2.258  13.428  0.2144  0.1474 -0.4616
 6004SOL    HW129648   2.792   2.307  13.398  0.3096  1.3010  1.6536
 6004SOL    HW229649   2.644   2.322  13.421  0.2854  0.0969 -1.6605
 6005SOL     OW29650   2.772   1.284   9.918  0.3985 -0.1859  0.1565
 6005SOL    HW129651   2.756   1.213   9.856  2.1556 -0.1005 -0.4048
 6005SOL    HW229652   2.851   1.318   9.875  0.9060 -2.2137 -0.4979
 6006SOL     OW29653   4.585   0.885   5.772  0.2388  0.0354 -0.0591
 6006SOL    HW129654   4.562   0.814   5.832 -0.5991  1.9710  1.8874
 6006SOL    HW229655   4.628   0.828   5.708 -0.8195  0.8267 -1.4910
 6007SOL     OW29656   2.727   0.729   1.763 -0.1527 -0.5615 -0.0027
 6007SOL    HW129657   2.756   0.780   1.688  2.0458 -1.0579  0.5081
 6007SOL    HW229658   2.802   0.672   1.777 -0.3916 -1.3492 -1.9497
 6008SOL     OW29659   4.284   3.506   5.883 -0.0831 -0.1528  0.3121
 6008SOL    HW129660   4.307   3.431   5.828 -0.0660  0.6918 -0.8396
 6008SOL    HW229661   4.235   3.562   5.823 -0.1746  0.7888  1.2830
 6009SOL     OW29662   2.709   2.826  16.398  0.1329  0.0112 -0.4179
 6009SOL    HW129663   2.690   2.744  16.445  1.2115 -0.6155 -1.0612
 6009SOL    HW229664   2.768   2.873  16.458 -0.8076 -0.0166  0.5310
 6010SOL     OW29665   1.780   2.912  17.669  0.2909  0.9246 -0.5901
 6010SOL    HW129666   1.748   2.945  17.585  2.4330  2.4695 -0.8171
 6010SOL    HW229667   1.709   2.944  17.724 -0.4034 -1.7964  0.0779
 6011SOL     OW29668   2.827   3.353   7.943  0.4702 -0.0682 -0.3624
 6011SOL    HW129669   2.912   3.395   7.935  1.1770 -1.5255 -0.4690
 6011SOL    HW229670   2.805   3.332   7.852 -0.1308  4.0341 -1.1462
 6012SOL     OW29671   3.223   2.187   5.848  0.9093 -0.3645  0.2691
 6012SOL    HW129672   3.144   2.202   5.796  0.3880 -2.3972  0.4318
 6012SOL    HW229673   3.291   2.212   5.786  0.3949 -1.8901 -0.9011
 6013SOL     OW29674   1.343   3.003   7.734  0.2593 -0.5187 -0.4876
 6013SOL    HW129675   1.330   2.985   7.827 -1.0722  0.8943 -0.3869
 6013SOL    HW229676   1.425   2.954   7.733 -0.5408 -1.8637 -1.4203
 6014SOL     OW29677   0.454   3.116   1.801  0.1681 -0.0712  0.2709
 6014SOL    HW129678   0.506   3.108   1.881 -0.8636 -2.6316  0.6692
 6014SOL    HW229679   0.374   3.073   1.830 -1.0833  1.4397 -0.9445
 6015SOL     OW29680   3.734   3.513   4.185  0.5401 -0.0516  0.5930
 6015SOL    HW129681   3.684   3.511   4.266 -0.6834 -2.2019 -0.1951
 6015SOL    HW229682   3.709   3.423   4.160  0.7541  0.7969 -2.7559
 6016SOL     OW29683   3.893   2.297   5.179  0.2770 -0.0901 -0.5238
 6016SOL    HW129684   3.832   2.287   5.252  0.6948 -0.2826 -0.2067
 6016SOL    HW229685   3.897   2.392   5.169 -3.6582  0.1918  0.7140
 6017SOL     OW29686   1.658   3.943   1.316 -0.5671 -0.4268  0.5217
 6017SOL    HW129687   1.589   3.891   1.358 -1.6285 -1.4569 -2.4854
 6017SOL    HW229688   1.714   3.981   1.383  0.2482 -1.9684  0.7226
 6018SOL     OW29689   1.945   3.836   5.038 -0.2420  0.1904  0.1945
 6018SOL    HW129690   2.021   3.878   4.997 -0.8924  1.7912  0.6036
 6018SOL    HW229691   1.963   3.744   5.018 -2.4493 -0.0009 -0.9677
 6019SOL     OW29692   4.472   4.552   4.554 -0.0218 -0.2567  0.1783
 6019SOL    HW129693   4.545   4.519   4.606  0.3832  1.4875  0.7104
 6019SOL    HW229694   4.461   4.639   4.593 -0.1665  0.2803 -1.0624
 6020SOL     OW29695   2.459   2.758   7.441 -0.4810 -0.2962 -0.2237
 6020SOL    HW129696   2.480   2.765   7.534 -1.1969  2.6755 -0.3002
 6020SOL    HW229697   2.374   2.713   7.445 -0.2581 -0.4695  2.3997
 6021SOL     OW29698   2.284   0.047   5.298  0.5032 -0.3568  0.4338
 6021SOL    HW129699   2.212   0.021   5.241  0.9336  0.2941 -0.4152
 6021SOL    HW229700   2.337   0.098   5.236 -0.9524 -0.5925 -1.0107
 6022SOL     OW29701   3.876   4.649  17.245 -0.0728  0.0329 -0.3083
 6022SOL    HW129702   3.848   4.661  17.335 -0.9177  0.5564 -0.6369
 6022SOL    HW229703   3.803   4.594  17.216 -1.3491  3.1190 -2.9063
 6023SOL     OW29704   1.478   3.661   4.093  0.3427  0.5957  0.4203
 6023SOL    HW129705   1.517   3.720   4.157 -0.2852  0.7958  0.6150
 6023SOL    HW229706   1.407   3.719   4.067 -0.5935 -1.3900 -1.4470
 6024SOL     OW29707   1.139   2.179   4.291 -0.4101 -0.6224 -0.1095
 6024SOL    HW129708   1.104   2.214   4.208  0.1653  1.5986  0.5829
 6024SOL    HW229709   1.179   2.096   4.267 -4.1091 -2.0458 -1.3787
 6025SOL     OW29710   4.547   0.461   4.072 -0.7600  0.7750 -0.6377
 6025SOL    HW129711   4.484   0.390   4.085 -1.8134  1.4489 -1.9855
 6025SOL    HW229712   4.595   0.455   4.155  1.1090 -0.9687 -1.8416
 6026SOL     OW29713   3.059   4.063  14.113  0.0049  0.4105 -0.0555
 6026SOL    HW129714   2.982   4.111  14.082  0.2280  0.7802 -0.0413
 6026SOL    HW229715   3.130   4.126  14.098  0.2914  0.2669  0.7270
 6027SOL     OW29716   2.627   1.905  15.348 -0.0429 -0.1094  0.4132
 6027SOL    HW129717   2.704   1.938  15.395  0.7340  0.7506 -1.4593
 6027SOL    HW229718   2.645   1.811  15.349  0.4442 -0.0165  0.7334
 6028SOL     OW29719   2.385   1.633   2.648  0.5124 -0.2867 -0.0351
 6028SOL    HW129720   2.436   1.706   2.614  0.8398 -0.2888  0.4497
 6028SOL    HW229721   2.293   1.659   2.656  0.7044 -0.1942  2.0411
 6029SOL     OW29722   4.373   4.329   6.757  0.2430  0.3760  0.3742
 6029SOL    HW129723   4.319   4.256   6.787 -2.2996  1.1841 -2.2210
 6029SOL    HW229724   4.390   4.367   6.843  2.5237  1.0467 -0.3813
 6030SOL     OW29725   0.757   3.936  12.258  0.2092 -0.0781  0.0172
 6030SOL    HW129726   0.734   3.998  12.189  1.0677 -0.8347 -0.9552
 6030SOL    HW229727   0.852   3.932  12.256  0.1657 -0.5353 -1.3702
 6031SOL     OW29728   4.141   1.375   5.705 -0.1999  0.3707  0.0423
 6031SOL    HW129729   4.059   1.386   5.658 -0.2148 -1.4208 -0.3603
 6031SOL    HW229730   4.202   1.350   5.636 -2.0762  0.7047 -1.7124
 6032SOL     OW29731   3.762   1.105   2.881 -0.1783  0.6652  0.0316
 6032SOL    HW129732   3.786   1.174   2.944  1.9248  0.0366 -0.0815
 6032SOL    HW229733   3.716   1.052   2.946  0.6817 -1.2396 -0.9227
 6033SOL     OW29734   0.297   3.455  10.026  0.2991 -0.6502 -0.1996
 6033SOL    HW129735   0.288   3.363  10.000 -1.3164 -0.9582  1.4072
 6033SOL    HW229736   0.282   3.508   9.948 -0.3774 -0.4992  0.0299
 6034SOL     OW29737   0.026   4.213   4.317 -0.0638  0.1721  0.5025
 6034SOL    HW129738   0.078   4.289   4.343 -1.3308  1.6017 -1.2709
 6034SOL    HW229739   0.091   4.168   4.263 -0.5612  0.5994 -0.4470
 6035SOL     OW29740   3.904   4.025  12.432  0.1293  0.1020  0.5510
 6035SOL    HW129741   3.970   4.094  12.433 -0.8643  1.0305  0.8174
 6035SOL    HW229742   3.895   4.021  12.336 -1.0634  0.6072  0.6494
 6036SOL     OW29743   0.083   4.456   3.111 -0.7110 -0.4025  0.3582
 6036SOL    HW129744   0.142   4.427   3.182 -1.1680  0.2315  0.9943
 6036SOL    HW229745   0.028   4.515   3.162 -0.9381  0.7022 -1.1596
 6037SOL     OW29746   2.312   0.312   8.289  0.3560 -0.1842 -0.6743
 6037SOL    HW129747   2.226   0.271   8.281  0.6829 -1.3420  1.7191
 6037SOL    HW229748   2.338   0.313   8.197  1.3529 -1.5757 -0.4224
 6038SOL     OW29749   1.604   4.122   4.209 -0.1331 -0.6345  0.0320
 6038SOL    HW129750   1.635   4.103   4.120 -0.6688  0.4915 -0.4110
 6038SOL    HW229751   1.540   4.187   4.179 -0.3677 -2.6849 -3.9387
 6039SOL     OW29752   0.053   1.083   4.658 -0.1743  0.3110 -0.1285
 6039SOL    HW129753   0.096   1.099   4.742  0.5807 -3.3953  0.2060
 6039SOL    HW229754   0.013   1.001   4.686 -2.8798  1.5745 -0.3152
 6040SOL     OW29755   1.230   3.764   3.983  0.2604  0.7098  0.1847
 6040SOL    HW129756   1.239   3.838   4.043 -0.9127  0.3532  0.7855
 6040SOL    HW229757   1.156   3.787   3.926 -0.4013 -1.0511  0.3233
 6041SOL     OW29758   4.549   3.151   3.199 -0.1842  0.1768 -0.1222
 6041SOL    HW129759   4.626   3.098   3.219 -1.3521 -2.4203 -2.4828
 6041SOL    HW229760   4.583   3.238   3.178 -0.8203  0.6830  0.9507
 6042SOL     OW29761   4.183   2.462  12.362 -0.3363  0.0429  0.2095
 6042SOL    HW129762   4.160   2.550  12.332  0.4792 -0.5518 -2.1939
 6042SOL    HW229763   4.186   2.476  12.457  0.3040  0.9845  0.0472
 6043SOL     OW29764   2.586   3.029   8.015  0.3836  0.5353  0.0480
 6043SOL    HW129765   2.553   3.099   7.959  1.7675  0.8281 -0.4194
 6043SOL    HW229766   2.651   3.073   8.070  2.1088 -1.2243 -0.5622
 6044SOL     OW29767   0.827   0.493   5.707  0.0467  0.0154  0.3996
 6044SOL    HW129768   0.922   0.483   5.698 -0.1158  0.2528 -1.6863
 6044SOL    HW229769   0.799   0.492   5.615  1.6863 -0.1715 -0.0990
 6045SOL     OW29770   3.603   2.118  15.938  0.1582 -0.2534  0.0820
 6045SOL    HW129771   3.512   2.111  15.911  0.5225 -0.1543 -1.1793
 6045SOL    HW229772   3.610   2.065  16.017 -3.0735 -3.2928 -1.6439
 6046SOL     OW29773   1.193   1.111   0.244 -0.1789 -0.1134  0.1702
 6046SOL    HW129774   1.270   1.087   0.295 -2.0245  0.4336  3.2144
 6046SOL    HW229775   1.223   1.088   0.156 -2.6357 -3.3091  0.1594
 6047SOL     OW29776   1.986   0.665   3.138  0.0972 -0.3179 -0.5245
 6047SOL    HW129777   1.953   0.731   3.199  2.9033 -0.5227  1.2329
 6047SOL    HW229778   1.930   0.593   3.165  1.6436 -0.8710  1.1581
 6048SOL     OW29779   4.509   0.708  14.997 -0.4908  0.5879  0.2278
 6048SOL    HW129780   4.456   0.752  15.064 -0.0179 -0.6550  1.4147
 6048SOL    HW229781   4.463   0.626  14.977 -0.4315  0.5657  0.1821
 6049SOL     OW29782   3.990   4.194  17.433  0.2503  0.1274 -0.2423
 6049SOL    HW129783   4.028   4.112  17.401 -1.0639 -0.1665 -1.0696
 6049SOL    HW229784   3.968   4.180  17.525  1.4118 -2.2508 -0.3311
 6050SOL     OW29785   0.014   0.356   3.881 -0.1338  0.5414  0.2347
 6050SOL    HW129786   4.706   0.274   3.866 -1.5835  1.4065 -0.0597
 6050SOL    HW229787   4.678   0.408   3.911  0.1939  1.4800 -0.5808
 6051SOL     OW29788   3.544   1.031  12.693 -0.1802  0.1606 -0.6887
 6051SOL    HW129789   3.511   1.062  12.778 -0.3729  0.6276 -0.9395
 6051SOL    HW229790   3.498   1.093  12.638  1.4369  0.3692 -1.7868
 6052SOL     OW29791   3.532   1.029  14.231  0.3492 -0.2687  0.2075
 6052SOL    HW129792   3.517   0.934  14.240  1.0850 -0.6095 -2.3908
 6052SOL    HW229793   3.625   1.029  14.210  0.2089  0.5876 -0.3550
 6053SOL     OW29794   3.962   0.774   6.755 -0.2274 -0.2279 -0.2102
 6053SOL    HW129795   3.894   0.806   6.814  0.9028 -0.1998  1.0782
 6053SOL    HW229796   3.904   0.731   6.692 -0.5066  0.5782 -0.5143
 6054SOL     OW29797   4.266   4.605   8.446 -0.4708  0.0072 -0.0502
 6054SOL    HW129798   4.290   4.556   8.367 -0.5023  1.0289 -0.6990
 6054SOL    HW229799   4.174   4.584   8.458 -0.3307 -0.4539  0.2091
 6055SOL     OW29800   3.359   0.221   3.359 -0.3492  0.4358  0.1879
 6055SOL    HW129801   3.306   0.198   3.435 -0.5305  1.7310  0.4588
 6055SOL    HW229802   3.431   0.157   3.362 -3.1188 -2.6348  0.6861
 6056SOL     OW29803   2.999   3.419  15.030 -0.2615  0.2567 -0.5285
 6056SOL    HW129804   2.931   3.358  15.057 -0.6119  0.6454 -0.5185
 6056SOL    HW229805   2.930   3.476  14.994 -3.2602 -3.5968 -0.8385
 6057SOL     OW29806   2.982   1.342   2.029 -0.0519 -0.5163 -0.4374
 6057SOL    HW129807   2.922   1.268   2.038 -0.1652 -0.5209 -1.2571
 6057SOL    HW229808   3.056   1.302   1.983  0.2156  1.1261 -1.4434
 6058SOL     OW29809   1.670   3.179  11.420 -0.2084 -0.2631  0.5373
 6058SOL    HW129810   1.685   3.089  11.392  1.2045  0.1634 -0.0962
 6058SOL    HW229811   1.752   3.224  11.399 -0.4402  0.1449  0.5021
 6059SOL     OW29812   2.949   2.883   7.766  0.2620 -0.5643 -0.4513
 6059SOL    HW129813   2.889   2.928   7.707 -1.6741 -3.3739 -0.6520
 6059SOL    HW229814   2.889   2.862   7.838  0.4479  1.1602  0.2016
 6060SOL     OW29815   2.645   2.832  15.360 -0.1330 -0.5658 -0.2957
 6060SOL    HW129816   2.629   2.775  15.435  0.5294 -1.4485 -0.8291
 6060SOL    HW229817   2.738   2.853  15.354 -0.7851  2.1267 -0.9018
 6061SOL     OW29818   4.481   1.623   8.548 -0.3198  0.0016 -0.0757
 6061SOL    HW129819   4.516   1.559   8.486 -1.1405 -1.5989  1.0947
 6061SOL    HW229820   4.519   1.594   8.631 -0.0271  0.1439 -0.1582
 6062SOL     OW29821   2.112   4.592  10.734  0.2725  0.0299 -0.0559
 6062SOL    HW129822   2.163   4.559  10.807  1.1906  0.6174 -0.4368
 6062SOL    HW229823   2.106   4.682  10.765  1.5086  0.4051 -0.9121
 6063SOL     OW29824   4.287   0.937   7.651  0.2275 -0.5038 -0.0970
 6063SOL    HW129825   4.347   0.892   7.592  0.8617 -0.2476  0.3617
 6063SOL    HW229826   4.346   1.004   7.686 -0.5248 -0.4562  1.0979
 6064SOL     OW29827   3.082   1.033   3.705 -0.8456 -0.2591 -0.4351
 6064SOL    HW129828   3.136   1.005   3.631 -0.5409 -1.0944  0.0982
 6064SOL    HW229829   3.025   1.096   3.662  0.0362  0.9086  0.1149
 6065SOL     OW29830   4.405   0.666   8.020  0.0614 -0.4013 -0.3791
 6065SOL    HW129831   4.409   0.762   8.025  2.0989 -0.5805  1.1101
 6065SOL    HW229832   4.499   0.657   8.033 -0.1646 -1.6971  0.3650
 6066SOL     OW29833   2.251   1.279  11.336 -0.5801 -0.1565 -0.3775
 6066SOL    HW129834   2.248   1.301  11.429 -0.1972 -0.0396 -0.3938
 6066SOL    HW229835   2.193   1.345  11.298 -0.8178  0.0507  0.3546
 6067SOL     OW29836   3.743   0.086   2.058  0.2929  0.0066 -0.3248
 6067SOL    HW129837   3.734   0.171   2.100  2.2189 -1.1332  2.3745
 6067SOL    HW229838   3.825   0.048   2.089 -0.2387  0.2559  1.3893
 6068SOL     OW29839   2.672   0.601   4.625  0.5650 -0.4499 -0.7789
 6068SOL    HW129840   2.643   0.539   4.692 -0.5967  0.6842 -0.2122
 6068SOL    HW229841   2.756   0.620   4.666  0.0987  0.8226 -0.4092
 6069SOL     OW29842   2.776   4.145   0.470  0.2027  0.0588 -0.4088
 6069SOL    HW129843   2.720   4.216   0.500 -2.0963 -1.2143 -1.7241
 6069SOL    HW229844   2.854   4.173   0.520  0.4855  0.9686 -1.3685
 6070SOL     OW29845   1.633   3.743   7.584 -0.2233 -0.0454 -0.0450
 6070SOL    HW129846   1.686   3.801   7.530 -0.1975 -1.5196 -1.6115
 6070SOL    HW229847   1.693   3.725   7.656  0.7771  1.1559 -0.5852
 6071SOL     OW29848   1.236   3.274   6.205 -0.1465 -0.6966  0.4309
 6071SOL    HW129849   1.285   3.208   6.155 -1.2087 -1.0694 -0.1191
 6071SOL    HW229850   1.297   3.305   6.271  0.7831 -0.3566 -0.5861
 6072SOL     OW29851   2.986   3.501   7.164  0.0850  0.4074 -0.2926
 6072SOL    HW129852   2.917   3.474   7.105 -0.3402 -0.3812  0.5601
 6072SOL    HW229853   2.944   3.576   7.207  0.6996  1.0953 -0.8870
 6073SOL     OW29854   0.792   3.807  16.664  0.2035  0.5873  0.3064
 6073SOL    HW129855   0.770   3.797  16.757 -2.9269  0.5406 -0.4349
 6073SOL    HW229856   0.799   3.902  16.658  0.4730  0.4813 -1.1455
 6074SOL     OW29857   2.531   0.042   3.288 -0.7561 -0.5770 -0.8153
 6074SOL    HW129858   2.519   0.116   3.230 -4.1404 -0.2267  0.3417
 6074SOL    HW229859   2.491   4.705   3.243 -0.1895 -0.7022 -1.1100
 6075SOL     OW29860   2.794   3.019   7.576  0.3495  0.3471 -0.2561
 6075SOL    HW129861   2.729   3.005   7.508 -0.7882  0.3045  0.8512
 6075SOL    HW229862   2.871   3.020   7.518  1.6487 -0.9167  1.4320
 6076SOL     OW29863   3.537   0.033  16.822  0.4166 -0.7207  0.0059
 6076SOL    HW129864   3.479   4.696  16.810  0.7907 -0.9214 -0.5895
 6076SOL    HW229865   3.607   0.009  16.760  0.3871  1.6707 -0.9478
 6077SOL     OW29866   4.371   4.426   1.786 -0.0521 -0.5760  0.0001
 6077SOL    HW129867   4.357   4.350   1.843 -2.2857 -0.4893 -0.4418
 6077SOL    HW229868   4.376   4.490   1.858  1.6029  1.2341 -1.6998
 6078SOL     OW29869   2.451   1.970   3.965  0.0753  0.7778 -0.1354
 6078SOL    HW129870   2.472   1.877   3.973 -1.7638  0.4054  0.2898
 6078SOL    HW229871   2.539   2.009   3.966  0.2389  0.4306 -0.6392
 6079SOL     OW29872   3.890   1.985   8.937  0.2792 -0.1230 -0.3003
 6079SOL    HW129873   3.884   2.077   8.909  0.1755 -0.4843 -1.4686
 6079SOL    HW229874   3.811   1.976   8.991  0.9269 -1.1523  0.4725
 6080SOL     OW29875   2.829   2.892   9.848  0.5836  0.0793  0.2889
 6080SOL    HW129876   2.841   2.972   9.797  1.6005 -2.0330 -2.7937
 6080SOL    HW229877   2.866   2.912   9.934  2.3104  1.7300 -0.8397
 6081SOL     OW29878   1.935   3.184   9.172 -0.3149  0.1256 -0.0013
 6081SOL    HW129879   2.021   3.224   9.183 -1.2431  1.6051  1.7560
 6081SOL    HW229880   1.933   3.146   9.259  3.0777 -2.0668 -0.8436
 6082SOL     OW29881   0.612   2.499  11.693 -0.3563  0.3801 -0.6615
 6082SOL    HW129882   0.527   2.493  11.651 -0.5677  0.1936 -0.2098
 6082SOL    HW229883   0.595   2.547  11.774  1.4780  1.4962 -0.9400
 6083SOL     OW29884   0.824   1.963   8.259  0.0365 -0.6969  0.5804
 6083SOL    HW129885   0.857   1.973   8.170  1.5460  0.5702  1.2811
 6083SOL    HW229886   0.729   1.962   8.246  0.3231 -0.0931 -1.6103
 6084SOL     OW29887   4.368   4.126   3.193  0.4369 -0.0723 -0.1594
 6084SOL    HW129888   4.298   4.148   3.131  0.8960  0.1225 -0.6086
 6084SOL    HW229889   4.431   4.197   3.181 -1.1828  1.8331  2.5674
 6085SOL     OW29890   2.936   0.601   3.423  0.0356 -0.5478 -0.7416
 6085SOL    HW129891   2.846   0.579   3.397 -0.0145 -2.3814  0.9990
 6085SOL    HW229892   2.940   0.537   3.494  0.8328  0.1351 -0.1733
 6086SOL     OW29893   0.362   0.584   7.542  0.3525 -0.2583 -0.2466
 6086SOL    HW129894   0.450   0.621   7.550  0.5945 -0.4383 -2.2632
 6086SOL    HW229895   0.402   0.497   7.547 -1.4354 -0.9822  1.4976
 6087SOL     OW29896   3.772   2.246   9.890  0.1166 -0.3679  0.6890
 6087SOL    HW129897   3.822   2.324   9.865 -2.1367  0.2410 -1.8572
 6087SOL    HW229898   3.706   2.246   9.820  1.0202 -2.2505 -0.1573
 6088SOL     OW29899   0.239   4.721   6.841 -0.2220  0.3327  0.5433
 6088SOL    HW129900   0.188   4.654   6.796  0.5215 -0.0110  0.2181
 6088SOL    HW229901   0.210   4.706   6.930 -2.0316  1.1575  0.0940
 6089SOL     OW29902   0.464   3.953   4.175 -0.2677  0.1813 -0.2289
 6089SOL    HW129903   0.521   3.878   4.158 -1.1958 -0.5110 -0.3061
 6089SOL    HW229904   0.480   4.012   4.102  1.9337 -0.2119 -0.0822
 6090SOL     OW29905   1.428   3.173   3.127  0.1612 -0.4755  0.2594
 6090SOL    HW129906   1.412   3.249   3.182 -0.8346 -0.3291 -0.2350
 6090SOL    HW229907   1.497   3.211   3.073  0.7008  0.6807  1.7714
 6091SOL     OW29908   3.578   0.509  16.738  0.6966  0.5901  0.0063
 6091SOL    HW129909   3.553   0.594  16.702 -1.7973 -0.2962 -0.3542
 6091SOL    HW229910   3.520   0.497  16.813 -0.4115 -0.0395 -0.9389
 6092SOL     OW29911   3.378   4.074  16.625 -0.2006  0.1359  0.0334
 6092SOL    HW129912   3.362   3.989  16.583 -2.3230  1.0762 -1.0826
 6092SOL    HW229913   3.441   4.118  16.568 -0.8036  0.0778 -0.6797
 6093SOL     OW29914   1.991   3.560   9.692  0.3371  0.3704  0.1589
 6093SOL    HW129915   2.009   3.578   9.785  1.3775  2.6157 -0.4761
 6093SOL    HW229916   2.067   3.599   9.650  1.3525 -1.3013  0.4296
 6094SOL     OW29917   1.884   1.826   5.400 -0.5126 -0.3752  0.0825
 6094SOL    HW129918   1.824   1.826   5.326  3.0216  0.6499 -2.7343
 6094SOL    HW229919   1.854   1.749   5.450  1.2282 -0.6391  0.7080
 6095SOL     OW29920   2.332   0.515   3.263 -0.0636  0.0822  0.0451
 6095SOL    HW129921   2.251   0.564   3.255 -0.6735 -1.2483 -1.9638
 6095SOL    HW229922   2.387   0.563   3.325  1.6958  0.2997 -1.6750
 6096SOL     OW29923   0.398   2.082   2.414 -0.2377  0.7802 -0.0819
 6096SOL    HW129924   0.434   2.061   2.328 -1.7844 -0.9737 -0.2998
 6096SOL    HW229925   0.320   2.026   2.414 -0.3464  0.9330  1.2752
 6097SOL     OW29926   1.814   2.578  15.055 -0.0316 -0.1429  0.6308
 6097SOL    HW129927   1.824   2.483  15.066 -0.6145 -0.4354 -1.4101
 6097SOL    HW229928   1.736   2.580  15.000 -0.1381 -0.6088  0.7618
 6098SOL     OW29929   4.009   1.021   1.941  0.1707  0.1888  0.4213
 6098SOL    HW129930   3.977   0.932   1.934 -1.4513  0.7342  0.9701
 6098SOL    HW229931   4.017   1.030   2.037 -0.2214 -0.9831  0.5543
 6099SOL     OW29932   1.378   1.839   4.738 -0.0729 -0.0366 -0.0553
 6099SOL    HW129933   1.456   1.892   4.718 -0.0523 -1.0699 -2.7172
 6099SOL    HW229934   1.352   1.873   4.823 -1.3991  0.4327 -0.6498
 6100SOL     OW29935   2.455   2.102   5.307 -0.1424 -0.0427  0.0924
 6100SOL    HW129936   2.535   2.069   5.267  0.9330  0.7104  1.6360
 6100SOL    HW229937   2.491   2.141   5.387 -0.6856 -0.5172  0.5715
 6101SOL     OW29938   0.647   4.618  15.099  0.1723  1.0358  0.1421
 6101SOL    HW129939   0.639   4.630  15.004  0.0796  0.5887  0.0921
 6101SOL    HW229940   0.557   4.628  15.128 -1.0861 -2.5901 -2.4054
 6102SOL     OW29941   4.015   3.824   3.080 -0.0430 -0.5842 -0.1904
 6102SOL    HW129942   4.010   3.918   3.063 -1.3483 -0.6286  0.0144
 6102SOL    HW229943   4.107   3.806   3.061  0.6992 -0.1518  3.0045
 6103SOL     OW29944   1.024   0.096   8.828 -0.7760  0.1516 -0.6100
 6103SOL    HW129945   0.931   0.085   8.847 -0.6369 -0.3994 -0.2615
 6103SOL    HW229946   1.023   0.105   8.733  1.2844 -1.2628 -0.7545
 6104SOL     OW29947   2.020   2.449   4.504  0.0776  0.4422 -0.5359
 6104SOL    HW129948   2.072   2.375   4.472 -2.5150 -1.9344  0.8478
 6104SOL    HW229949   2.039   2.445   4.597  2.8676  2.4712 -0.9966
 6105SOL     OW29950   0.615   1.618   9.009  0.2845  0.0204  0.5909
 6105SOL    HW129951   0.622   1.686   8.942  1.9058  0.2676  1.0231
 6105SOL    HW229952   0.681   1.654   9.067 -1.3956 -0.0315  2.5169
 6106SOL     OW29953   1.985   3.936  16.464 -0.3209  0.0692 -0.2623
 6106SOL    HW129954   1.978   3.874  16.536 -2.2459  0.4999 -0.0701
 6106SOL    HW229955   1.982   3.881  16.386  1.5567 -1.1291  0.5077
 6107SOL     OW29956   1.247   2.830  14.069 -0.4085 -0.8913  0.0410
 6107SOL    HW129957   1.288   2.915  14.052 -1.0413 -0.0355  2.9446
 6107SOL    HW229958   1.206   2.817  13.983 -2.5726 -1.4527  1.1773
 6108SOL     OW29959   1.065   2.882   7.530 -0.3717 -0.3623 -0.1895
 6108SOL    HW129960   1.027   2.970   7.525 -0.8432 -0.5223  0.6622
 6108SOL    HW229961   1.142   2.890   7.586  0.0611  0.1653 -0.8508
 6109SOL     OW29962   4.241   0.590  11.080  0.0180  0.6835  0.0637
 6109SOL    HW129963   4.222   0.661  11.142 -1.0151  0.8393 -0.4393
 6109SOL    HW229964   4.273   0.520  11.136 -0.7313  0.8673  0.7088
 6110SOL     OW29965   3.382   1.500   7.432  0.6376 -0.0949  0.1680
 6110SOL    HW129966   3.342   1.530   7.350  1.3235 -0.1841 -0.1996
 6110SOL    HW229967   3.308   1.501   7.492  1.5964  0.7194  1.3300
 6111SOL     OW29968   1.024   0.287   1.657 -0.1975 -0.2269  0.2638
 6111SOL    HW129969   0.985   0.249   1.579 -2.5580  0.6723  0.9865
 6111SOL    HW229970   1.042   0.214   1.715  1.6954  1.1042  1.3617
 6112SOL     OW29971   1.883   2.176  10.070 -0.2217 -0.0072  0.2488
 6112SOL    HW129972   1.975   2.196  10.089 -0.1848  2.1150 -2.1721
 6112SOL    HW229973   1.873   2.260  10.026  0.4616 -1.0847 -1.9460
 6113SOL     OW29974   1.662   2.403  10.852 -0.1587 -0.0170  0.5934
 6113SOL    HW129975   1.648   2.394  10.758  2.9614  2.9489 -0.1688
 6113SOL    HW229976   1.752   2.373  10.863  1.1961  2.4756 -3.8900
 6114SOL     OW29977   3.240   3.409   5.108 -0.3347  0.3052  1.3053
 6114SOL    HW129978   3.148   3.428   5.088  0.4738  1.0552 -1.7337
 6114SOL    HW229979   3.239   3.315   5.123 -1.3593  0.2842  1.1534
 6115SOL     OW29980   3.214   3.662   3.727  0.3809  0.5252  0.1476
 6115SOL    HW129981   3.278   3.592   3.738 -0.0742  0.2104  0.7172
 6115SOL    HW229982   3.278   3.731   3.708 -1.7676  2.0102 -1.7390
 6116SOL     OW29983   3.427   0.256   4.961 -0.0072  0.6483 -0.7596
 6116SOL    HW129984   3.390   0.174   4.995  1.7120  0.2592  0.1543
 6116SOL    HW229985   3.515   0.245   4.996  0.4325 -1.1447 -2.4864
 6117SOL     OW29986   4.465   4.379  10.521 -0.3983  1.1306 -0.1325
 6117SOL    HW129987   4.396   4.362  10.585 -0.1234 -0.4144 -0.2581
 6117SOL    HW229988   4.534   4.408  10.581  0.0783 -1.0780  0.4044
 6118SOL     OW29989   1.754   3.117  15.154 -0.1887 -0.2801 -0.0890
 6118SOL    HW129990   1.785   3.117  15.245  0.5880  1.3298 -0.3488
 6118SOL    HW229991   1.734   3.024  15.145 -1.6734  0.2096 -1.8119
 6119SOL     OW29992   4.590   2.973   3.820  0.3819  0.0474  0.3233
 6119SOL    HW129993   4.502   2.949   3.849  0.5436  0.4864  1.1660
 6119SOL    HW229994   4.562   3.035   3.752  0.0098  2.0075  2.2699
 6120SOL     OW29995   0.853   4.439   1.803  0.6527 -0.0122 -0.0415
 6120SOL    HW129996   0.785   4.378   1.832 -1.8233  2.3014 -0.9128
 6120SOL    HW229997   0.818   4.519   1.841 -0.1357 -0.9095  1.1122
 6121SOL     OW29998   3.515   0.212  11.356  0.1830 -0.3588  0.7862
 6121SOL    HW129999   3.486   0.182  11.442 -0.2586 -2.9294 -0.2592
 6121SOL    HW230000   3.575   0.141  11.333  0.6022  0.2867 -0.1499
 6122SOL     OW30001   4.345   3.932   4.945 -0.6298 -0.2770  0.0558
 6122SOL    HW130002   4.322   3.842   4.920 -0.8884  0.3757 -2.0822
 6122SOL    HW230003   4.372   3.916   5.035  1.4008  1.9825 -0.1552
 6123SOL     OW30004   0.431   4.095  11.054  0.2538 -0.3050 -0.1581
 6123SOL    HW130005   0.356   4.065  11.105 -0.3337 -1.2228 -1.5510
 6123SOL    HW230006   0.437   4.020  10.995 -0.0202  0.3934 -1.0617
 6124SOL     OW30007   1.597   0.556  11.436  0.1096 -0.2368  0.0058
 6124SOL    HW130008   1.587   0.476  11.384  0.3406 -0.4206  0.2425
 6124SOL    HW230009   1.618   0.624  11.373  2.8280  0.9273  2.1649
 6125SOL     OW30010   4.537   2.060   9.104  0.3064  0.7198  0.0575
 6125SOL    HW130011   4.588   2.060   9.185  0.2768  0.0195  0.0759
 6125SOL    HW230012   4.497   1.973   9.111  3.2527 -0.5894  0.6352
 6126SOL     OW30013   2.891   3.768   3.377  0.6088 -0.4261 -0.7791
 6126SOL    HW130014   2.925   3.794   3.463  1.4615 -2.0316 -0.6221
 6126SOL    HW230015   2.931   3.829   3.315  0.2675 -2.3803 -2.8861
 6127SOL     OW30016   3.084   4.433  15.986  0.1555 -0.2885 -0.4289
 6127SOL    HW130017   3.104   4.340  15.997  0.9953  0.0780  1.1091
 6127SOL    HW230018   3.075   4.461  16.077 -0.9430  0.0249 -0.6340
 6128SOL     OW30019   0.788   4.689   1.901 -0.3075  0.1626  0.3221
 6128SOL    HW130020   0.877   4.723   1.911 -0.7944  0.2212  4.2970
 6128SOL    HW230021   0.738   0.013   1.954  2.1384  2.2237  0.2221
 6129SOL     OW30022   2.957   4.311   5.108  0.1800 -0.3121 -0.5765
 6129SOL    HW130023   3.010   4.382   5.073 -0.3758  0.6789  0.5886
 6129SOL    HW230024   2.891   4.356   5.161  0.7086 -0.4102  0.1677
 6130SOL     OW30025   0.372   0.164  12.901  0.2537  0.7485  0.0257
 6130SOL    HW130026   0.442   0.124  12.952  0.9514  1.8695 -0.0370
 6130SOL    HW230027   0.358   0.088  12.845 -1.2581  1.7273 -0.9157
 6131SOL     OW30028   3.000   1.611   8.547 -0.3046  0.0309  0.0955
 6131SOL    HW130029   3.064   1.638   8.481 -1.0438  1.4761 -0.0335
 6131SOL    HW230030   2.967   1.533   8.502  1.8503 -0.6256 -0.3626
 6132SOL     OW30031   2.100   2.722  16.804  0.1466 -0.1113 -0.0930
 6132SOL    HW130032   2.131   2.635  16.778 -1.1430 -0.5415 -0.1808
 6132SOL    HW230033   2.027   2.694  16.859 -0.7534 -0.1682 -1.3271
 6133SOL     OW30034   2.304   1.110   7.824 -0.0310 -0.4756 -0.0587
 6133SOL    HW130035   2.267   1.149   7.745 -0.6463 -2.5390 -0.7923
 6133SOL    HW230036   2.266   1.022   7.827  0.5959 -0.7291  0.5782
 6134SOL     OW30037   1.007   1.199   4.991 -0.0718 -0.1267 -0.2136
 6134SOL    HW130038   1.039   1.113   4.963  2.8939  1.2829 -1.1112
 6134SOL    HW230039   0.939   1.226   4.929 -2.3015 -1.2278  1.7247
 6135SOL     OW30040   4.282   4.628  14.034  0.1737 -0.1238 -0.2658
 6135SOL    HW130041   4.319   4.679  14.106  1.6463  0.2314 -1.2877
 6135SOL    HW230042   4.354   4.598  13.979 -0.6445 -0.3513 -1.2086
 6136SOL     OW30043   1.489   3.315   2.028 -0.0652  0.2897 -0.2753
 6136SOL    HW130044   1.566   3.259   2.041  2.6693  3.5621 -2.5622
 6136SOL    HW230045   1.427   3.293   2.098  0.1711 -0.3356 -0.2550
 6137SOL     OW30046   4.673   2.355   7.028 -0.4219  0.5676 -0.2388
 6137SOL    HW130047   4.627   2.298   7.089  0.9760 -0.6415 -0.3036
 6137SOL    HW230048   4.659   2.444   7.059  1.7775 -0.2945  3.2191
 6138SOL     OW30049   3.929   1.415  11.091  0.2234 -0.2700  0.2255
 6138SOL    HW130050   3.919   1.467  11.170 -1.3999 -0.1652 -0.0530
 6138SOL    HW230051   3.994   1.347  11.111  2.8475  2.7983  2.1316
 6139SOL     OW30052   1.861   3.121  10.038  0.1236 -0.0140  0.1569
 6139SOL    HW130053   1.858   3.031  10.006 -1.6189 -0.2314  0.9315
 6139SOL    HW230054   1.953   3.128  10.062  0.2362 -0.2568 -0.2059
 6140SOL     OW30055   1.337   0.785   3.893 -0.1499 -0.5923  0.0280
 6140SOL    HW130056   1.409   0.731   3.860  0.8278  0.5809  0.2493
 6140SOL    HW230057   1.380   0.870   3.887 -0.6558 -0.3450 -0.0527
 6141SOL     OW30058   2.464   2.006   6.316 -0.6218 -0.1661 -0.3081
 6141SOL    HW130059   2.376   1.999   6.354 -1.9296  3.5752 -2.7089
 6141SOL    HW230060   2.462   2.102   6.311  0.3542 -0.1066  0.2884
 6142SOL     OW30061   4.429   2.116  17.057 -0.4925 -0.1680  0.1078
 6142SOL    HW130062   4.389   2.084  16.976 -1.1762  1.1258 -0.0578
 6142SOL    HW230063   4.455   2.206  17.037  0.7649 -0.5579 -0.0146
 6143SOL     OW30064   2.352   2.878   2.872  0.1737 -0.5125 -0.4403
 6143SOL    HW130065   2.416   2.856   2.804 -0.4060 -0.5861 -0.9605
 6143SOL    HW230066   2.408   2.914   2.941  0.4320 -1.5691 -0.0812
 6144SOL     OW30067   2.300   2.815   3.871 -0.0916 -0.0056 -0.2155
 6144SOL    HW130068   2.246   2.794   3.795  0.7029 -1.8149 -0.2701
 6144SOL    HW230069   2.240   2.843   3.940 -1.2477 -2.2836 -0.3184
 6145SOL     OW30070   1.256   3.849   5.235  0.5221  0.3868 -1.1472
 6145SOL    HW130071   1.168   3.869   5.267  0.3643  0.8138 -1.8442
 6145SOL    HW230072   1.230   3.817   5.148 -0.4196 -1.3795 -0.2122
 6146SOL     OW30073   0.759   0.717   6.493 -0.0663 -0.4241 -0.1254
 6146SOL    HW130074   0.758   0.726   6.588 -1.2197 -2.3041  0.0461
 6146SOL    HW230075   0.746   0.808   6.467  0.4952 -0.0810  0.7753
 6147SOL     OW30076   0.963   1.811   6.207  0.1550 -0.1236 -0.5293
 6147SOL    HW130077   0.927   1.883   6.155  0.4157  0.2511 -0.1981
 6147SOL    HW230078   0.892   1.775   6.261 -1.1450  2.3470 -0.5798
 6148SOL     OW30079   0.042   2.612   3.888  0.3967 -0.9777  0.1516
 6148SOL    HW130080   0.131   2.625   3.921  0.0060 -1.8633  1.5232
 6148SOL    HW230081   0.023   2.523   3.916  3.3180 -1.2398  1.2565
 6149SOL     OW30082   3.628   4.334   1.428  0.2847 -0.2334 -0.0245
 6149SOL    HW130083   3.634   4.349   1.522 -1.0949 -0.7966  0.1565
 6149SOL    HW230084   3.691   4.400   1.399  1.9357 -2.1321 -0.7435
 6150SOL     OW30085   1.724   3.389   3.347 -0.0234  0.2914 -0.1956
 6150SOL    HW130086   1.690   3.428   3.428 -3.1062 -1.7595 -0.4832
 6150SOL    HW230087   1.805   3.349   3.378  0.0824 -0.2500 -1.1763
 6151SOL     OW30088   3.586   3.314   6.171 -0.1258  0.7795 -0.1984
 6151SOL    HW130089   3.635   3.376   6.224  2.5178  2.3689 -4.4892
 6151SOL    HW230090   3.608   3.233   6.217 -1.8572 -0.6559 -1.8624
 6152SOL     OW30091   1.981   1.337   8.107  0.0992 -0.2998  0.9412
 6152SOL    HW130092   1.928   1.261   8.084 -0.3936 -0.5419  2.8634
 6152SOL    HW230093   1.917   1.381   8.163  0.7526  1.8396  0.0065
 6153SOL     OW30094   1.621   2.928  12.613  0.3637  0.2762  0.0567
 6153SOL    HW130095   1.586   2.858  12.668  0.2015 -1.2511 -2.0269
 6153SOL    HW230096   1.715   2.916  12.627 -0.0166  0.3144  2.7332
 6154SOL     OW30097   2.137   0.669   1.514 -0.1280 -0.2498 -0.4978
 6154SOL    HW130098   2.093   0.754   1.504 -2.1264 -1.0714  1.3484
 6154SOL    HW230099   2.121   0.657   1.607  0.7668 -2.4250 -0.6256
 6155SOL     OW30100   2.365   3.136  14.055 -0.0349  0.2228 -0.2878
 6155SOL    HW130101   2.304   3.200  14.020 -1.3270 -1.7759 -1.6868
 6155SOL    HW230102   2.391   3.072  13.989 -2.2823  1.2352 -2.1465
 6156SOL     OW30103   4.273   2.262   8.538 -0.0482 -0.0919 -0.7639
 6156SOL    HW130104   4.202   2.285   8.598 -0.2947  2.1492 -1.9247
 6156SOL    HW230105   4.346   2.310   8.578 -1.1549  0.4404  0.6176
 6157SOL     OW30106   1.931   3.541   6.270  0.4487  0.0622  0.3695
 6157SOL    HW130107   1.976   3.605   6.215 -0.2796  0.6227  0.4180
 6157SOL    HW230108   1.981   3.463   6.246 -2.0610 -1.8490  1.3051
 6158SOL     OW30109   2.679   0.652   8.322 -0.0607  0.6905  0.1918
 6158SOL    HW130110   2.768   0.619   8.332  0.4683  1.0059 -3.2363
 6158SOL    HW230111   2.627   0.644   8.402  0.1422 -1.2572  0.1177
 6159SOL     OW30112   0.619   1.864   2.535 -0.1176  0.1578 -0.3139
 6159SOL    HW130113   0.560   1.859   2.610  2.0530 -0.9385  1.3244
 6159SOL    HW230114   0.624   1.768   2.529  1.8588  0.1838  0.8639
 6160SOL     OW30115   0.607   2.501   9.954 -0.2202 -0.3108 -0.1948
 6160SOL    HW130116   0.575   2.436  10.018  0.6153  0.3361  0.8660
 6160SOL    HW230117   0.525   2.528   9.912 -1.0447 -2.4809 -0.0222
 6161SOL     OW30118   1.458   2.259   4.192  0.1269  0.7498  0.0173
 6161SOL    HW130119   1.419   2.192   4.136 -0.4920  1.6145 -0.5976
 6161SOL    HW230120   1.512   2.294   4.120  1.0860  1.3997  1.0603
 6162SOL     OW30121   2.701   2.645   4.055  0.5249  0.0448 -0.5538
 6162SOL    HW130122   2.615   2.669   4.021 -0.4773 -3.3783 -0.4073
 6162SOL    HW230123   2.670   2.565   4.098  0.1972  1.0993  1.1917
 6163SOL     OW30124   3.503   1.550   5.490 -0.6163  0.3633 -0.3009
 6163SOL    HW130125   3.523   1.461   5.462  0.5761  0.6869 -0.4845
 6163SOL    HW230126   3.582   1.599   5.467  0.3324 -0.2696  1.5998
 6164SOL     OW30127   3.485   4.439   4.696 -0.2676 -0.0538  0.2597
 6164SOL    HW130128   3.452   4.362   4.742 -0.3228 -1.7968 -2.6664
 6164SOL    HW230129   3.421   4.493   4.742 -0.1657 -0.3489  0.7457
 6165SOL     OW30130   0.459   4.606   6.689 -0.2015  0.3830  0.2780
 6165SOL    HW130131   0.422   4.657   6.761  3.1813  0.5451  1.9047
 6165SOL    HW230132   0.532   4.661   6.659 -0.3306 -0.0065 -0.7463
 6166SOL     OW30133   4.524   3.201   2.064  0.1222  0.3551  0.3394
 6166SOL    HW130134   4.507   3.173   2.154 -1.2393  0.4291  0.1058
 6166SOL    HW230135   4.571   3.129   2.023 -0.5989  0.2068 -0.2340
 6167SOL     OW30136   1.684   1.025   8.601  0.1853 -0.3736 -0.3097
 6167SOL    HW130137   1.594   1.016   8.568  0.0488  1.0892 -0.3622
 6167SOL    HW230138   1.681   1.105   8.654  0.2768 -0.1370 -0.6592
 6168SOL     OW30139   0.977   3.591   1.734  0.1677 -0.4182  0.0299
 6168SOL    HW130140   0.966   3.510   1.685 -2.3339 -0.4925  0.7118
 6168SOL    HW230141   0.889   3.606   1.769 -0.5587  0.5380 -2.2111
 6169SOL     OW30142   0.018   0.903  13.159  0.2749  0.4607 -0.1821
 6169SOL    HW130143   0.062   0.843  13.220  0.0004  1.7290  1.2788
 6169SOL    HW230144   0.025   0.983  13.212  1.0400  0.2667  0.0165
 6170SOL     OW30145   3.017   3.904   2.965 -0.0528 -0.7064 -0.0751
 6170SOL    HW130146   3.016   3.809   2.957 -1.5853 -0.5505 -1.7478
 6170SOL    HW230147   3.076   3.929   2.894  0.8449 -1.4024  0.4275
 6171SOL     OW30148   3.863   4.167  11.258 -0.1299 -0.2111  0.1386
 6171SOL    HW130149   3.943   4.177  11.311  1.3929 -0.7646 -2.0804
 6171SOL    HW230150   3.906   4.134  11.179  0.2172  0.8386 -0.1109
 6172SOL     OW30151   1.817   2.892  10.932 -0.0225  0.3486 -0.5593
 6172SOL    HW130152   1.907   2.913  10.956  0.4321 -0.9664 -1.1337
 6172SOL    HW230153   1.836   2.831  10.860  1.9784 -1.0283  1.1644
 6173SOL     OW30154   2.073   4.120  16.299 -0.2030 -0.4847  0.1422
 6173SOL    HW130155   2.040   4.205  16.326 -1.3165 -0.9493  0.2580
 6173SOL    HW230156   2.032   4.067  16.368 -0.1660 -1.4698 -0.5953
 6174SOL     OW30157   0.550   4.252   8.393 -0.1717  0.2600 -0.1513
 6174SOL    HW130158   0.562   4.346   8.408 -0.1488  0.2567 -0.1484
 6174SOL    HW230159   0.578   4.249   8.302  0.9668 -3.3204  0.3175
 6175SOL     OW30160   2.059   4.607  14.668  0.5635 -0.0755  0.0450
 6175SOL    HW130161   2.050   4.587  14.575  0.2731 -2.0744  0.5026
 6175SOL    HW230162   2.064   4.702  14.662 -1.5865  0.0713  0.5220
 6176SOL     OW30163   4.484   0.825   7.488  0.0675  0.4883 -0.5388
 6176SOL    HW130164   4.533   0.822   7.406 -0.2078  0.7313 -0.7069
 6176SOL    HW230165   4.548   0.862   7.550  1.2213 -1.2689 -0.6529
 6177SOL     OW30166   3.107   2.122  16.733  0.8011  0.0115  0.0892
 6177SOL    HW130167   3.191   2.115  16.689  2.0068  2.4994  1.9305
 6177SOL    HW230168   3.079   2.031  16.730 -0.5698  0.4515 -0.5153
 6178SOL     OW30169   4.531   3.572   8.513  0.8319 -0.5961 -0.4787
 6178SOL    HW130170   4.576   3.568   8.428 -1.1761  2.2307 -1.6966
 6178SOL    HW230171   4.475   3.495   8.510 -0.1441  0.1284 -1.1161
 6179SOL     OW30172   4.066   1.769   6.411 -0.3969  0.9020 -0.1228
 6179SOL    HW130173   4.072   1.719   6.330 -1.1328  0.4946  0.0743
 6179SOL    HW230174   4.145   1.822   6.414 -0.4193  0.6571  4.3576
 6180SOL     OW30175   4.124   3.812   1.795  0.1794 -0.0959 -0.2073
 6180SOL    HW130176   4.207   3.770   1.819 -0.1693 -1.1443 -0.8845
 6180SOL    HW230177   4.079   3.741   1.750  2.1866 -1.4239 -0.1153
 6181SOL     OW30178   2.153   2.851   7.234  0.2117 -0.3476 -0.1817
 6181SOL    HW130179   2.157   2.773   7.289  0.6271 -0.8847 -0.9796
 6181SOL    HW230180   2.078   2.824   7.180  0.7190 -2.3472  0.1287
 6182SOL     OW30181   1.613   0.073  12.169 -0.2864  0.1617 -0.1607
 6182SOL    HW130182   1.521   0.095  12.183 -1.2883 -2.5851 -2.4374
 6182SOL    HW230183   1.644   0.062  12.259 -1.0156  2.9024  0.4142
 6183SOL     OW30184   1.154   0.607  12.781  0.1123 -0.6038 -0.1308
 6183SOL    HW130185   1.099   0.610  12.702 -2.0373 -1.4576  1.3271
 6183SOL    HW230186   1.116   0.530  12.825 -0.4627 -1.3137 -1.8595
 6184SOL     OW30187   2.052   2.425   3.034 -0.5543  0.3319  0.2708
 6184SOL    HW130188   2.135   2.426   2.986 -1.5399 -0.5174 -1.4297
 6184SOL    HW230189   2.086   2.358   3.093 -1.1066 -0.8253 -0.7299
 6185SOL     OW30190   0.015   1.619   3.617  0.2792  0.2561 -0.8719
 6185SOL    HW130191   0.031   1.527   3.639  0.7106  0.7036  0.7233
 6185SOL    HW230192   4.658   1.630   3.624  0.3339  0.9040 -1.1280
 6186SOL     OW30193   3.474   2.914  13.026 -0.2942  0.1704 -0.1235
 6186SOL    HW130194   3.486   2.895  13.119  3.7842  1.7731 -0.3612
 6186SOL    HW230195   3.538   2.984  13.015 -1.1680  0.8684 -0.7814
 6187SOL     OW30196   4.046   0.664  13.153 -0.1114 -0.5262 -0.6180
 6187SOL    HW130197   4.059   0.758  13.155 -3.2005 -0.1392  1.3077
 6187SOL    HW230198   4.118   0.636  13.210  0.2292  1.8956  0.1186
 6188SOL     OW30199   4.395   1.846   9.321  0.1530 -0.4073 -0.1855
 6188SOL    HW130200   4.363   1.810   9.404 -0.3182 -0.1376 -0.2504
 6188SOL    HW230201   4.426   1.771   9.269  0.9051  0.3942 -0.8874
 6189SOL     OW30202   3.235   3.980   7.593 -0.0893  0.5942  0.0918
 6189SOL    HW130203   3.277   3.984   7.508 -3.3701 -0.9581 -1.5872
 6189SOL    HW230204   3.272   3.894   7.613  2.2064  1.5378 -0.0947
 6190SOL     OW30205   4.596   2.692  16.567 -0.1232 -0.0209  0.2263
 6190SOL    HW130206   4.560   2.775  16.598  2.9388  1.4646 -0.2034
 6190SOL    HW230207   4.688   2.710  16.586  0.0114 -1.0406  0.5707
 6191SOL     OW30208   1.394   2.235   3.403  0.2304  0.0673 -0.5608
 6191SOL    HW130209   1.454   2.271   3.469 -1.3004 -1.4641  1.6941
 6191SOL    HW230210   1.407   2.142   3.426  0.4434  0.0453 -0.7755
 6192SOL     OW30211   0.282   0.870   3.611 -0.0230 -0.3341  0.5875
 6192SOL    HW130212   0.348   0.891   3.676 -0.8181  0.0705  1.2699
 6192SOL    HW230213   0.277   0.775   3.619  0.1183 -0.6305 -2.8348
 6193SOL     OW30214   1.839   2.190   9.175 -0.4912 -0.2060  0.1462
 6193SOL    HW130215   1.829   2.106   9.131 -0.4415  0.0396 -0.3426
 6193SOL    HW230216   1.806   2.181   9.264 -2.6253  1.0076 -0.5085
 6194SOL     OW30217   2.976   4.694  16.675  0.1288 -0.3661  0.1002
 6194SOL    HW130218   2.967   4.612  16.627  2.9599 -0.1789 -0.7512
 6194SOL    HW230219   3.039   4.665  16.741  0.7856 -0.5398 -0.6178
 6195SOL     OW30220   0.117   3.445  16.526 -0.6661 -0.2189  0.0431
 6195SOL    HW130221   0.032   3.478  16.495 -0.3803  1.3267  0.8807
 6195SOL    HW230222   0.107   3.443  16.621  1.5421 -0.9832  0.2484
 6196SOL     OW30223   4.211   3.940   5.747 -0.3926 -0.0471  0.0691
 6196SOL    HW130224   4.179   3.992   5.821  0.4307 -0.9690  1.0804
 6196SOL    HW230225   4.199   4.005   5.679  1.1947  1.1996  0.9662
 6197SOL     OW30226   4.000   0.256   9.119 -0.3950  0.4157  0.0894
 6197SOL    HW130227   3.922   0.206   9.142 -1.7740  1.1747 -3.0235
 6197SOL    HW230228   3.989   0.291   9.031  1.0766 -0.0361 -0.2642
 6198SOL     OW30229   4.686   3.312   7.318 -0.0406  0.3115  0.0821
 6198SOL    HW130230   4.651   3.259   7.390 -0.4530 -0.6372 -0.8229
 6198SOL    HW230231   0.035   3.345   7.344  0.2761 -0.8714  0.5156
 6199SOL     OW30232   3.807   3.558   8.478  0.1901 -0.4011  0.0833
 6199SOL    HW130233   3.870   3.576   8.549 -1.1178 -1.3328  1.4851
 6199SOL    HW230234   3.836   3.618   8.410  0.2742  0.4857  0.9054
 6200SOL     OW30235   2.454   0.126   3.042 -0.5188 -0.0252 -0.2532
 6200SOL    HW130236   2.486   0.216   3.034  2.5024 -0.9162  1.9215
 6200SOL    HW230237   2.520   0.080   2.991  0.1251  1.4889 -0.7562
 6201SOL     OW30238   0.509   3.888   1.892 -0.1765 -0.4091  0.6378
 6201SOL    HW130239   0.484   3.799   1.869  1.5021 -0.6426 -0.2788
 6201SOL    HW230240   0.558   3.881   1.975  2.4163  0.1475 -0.8455
 6202SOL     OW30241   4.084   0.398  14.944  0.7260  0.0287  0.3553
 6202SOL    HW130242   3.995   0.404  14.977  0.4301  2.2088 -0.8476
 6202SOL    HW230243   4.066   0.458  14.872 -2.7275 -3.3756 -1.6060
 6203SOL     OW30244   2.788   0.009  16.888  0.2054  0.0211 -0.1902
 6203SOL    HW130245   2.791   0.102  16.865 -0.7780  1.4624  5.3771
 6203SOL    HW230246   2.810   4.706  16.805  0.8022 -0.5673  0.2528
 6204SOL     OW30247   1.993   3.012   6.341  0.7439 -0.0403 -0.6289
 6204SOL    HW130248   1.905   3.048   6.351 -0.4882 -3.2195 -0.1324
 6204SOL    HW230249   2.007   3.027   6.247 -1.3367 -0.9430 -1.0765
 6205SOL     OW30250   4.454   1.487   5.014  0.1046 -0.3513 -0.2035
 6205SOL    HW130251   4.370   1.490   5.060 -0.0319  1.4375 -0.5559
 6205SOL    HW230252   4.452   1.575   4.976  2.0592  0.1987  0.9450
 6206SOL     OW30253   0.150   1.683   8.429  0.1270  0.2529 -0.2834
 6206SOL    HW130254   0.192   1.766   8.405 -2.5683  1.3173 -1.3666
 6206SOL    HW230255   0.100   1.717   8.503 -1.4675  0.3453 -1.3930
 6207SOL     OW30256   0.693   1.840  12.964  0.1630 -0.1658 -0.0212
 6207SOL    HW130257   0.645   1.902  13.018  1.6448  0.2395  0.8253
 6207SOL    HW230258   0.724   1.785  13.035  0.8902 -0.5531 -0.6332
 6208SOL     OW30259   2.153   0.390   7.452 -0.3388 -0.2299 -0.0804
 6208SOL    HW130260   2.236   0.343   7.465  1.3078  2.2225 -1.5645
 6208SOL    HW230261   2.148   0.396   7.356  0.5492 -1.7840 -0.2252
 6209SOL     OW30262   1.128   1.830   2.176 -0.1334  0.0116 -0.1521
 6209SOL    HW130263   1.071   1.787   2.240 -0.5349  0.7914  0.0208
 6209SOL    HW230264   1.155   1.764   2.113  0.3520 -0.6264  0.7190
 6210SOL     OW30265   3.666   0.099   9.692  0.0916  0.1822 -0.1202
 6210SOL    HW130266   3.748   0.066   9.656  0.1956 -2.0545  2.1877
 6210SOL    HW230267   3.628   0.147   9.619 -3.0449 -0.9342  0.7782
 6211SOL     OW30268   1.393   3.331   6.402  0.4382  0.2799  0.1169
 6211SOL    HW130269   1.387   3.375   6.486  1.3128  0.2652  0.1874
 6211SOL    HW230270   1.481   3.360   6.380  1.7253 -2.9190  1.0414
 6212SOL     OW30271   1.876   0.937   6.658  0.2486 -0.1221  0.4764
 6212SOL    HW130272   1.948   0.993   6.684  0.4694  0.2425 -0.9306
 6212SOL    HW230273   1.817   1.009   6.636 -0.4099 -1.2202 -1.3154
 6213SOL     OW30274   1.862   2.947  13.146  0.3333  0.3554 -0.1865
 6213SOL    HW130275   1.889   2.855  13.140  1.1245  0.5143  1.1248
 6213SOL    HW230276   1.930   2.976  13.206  1.7429 -1.4642 -0.8797
 6214SOL     OW30277   4.250   2.124   7.406  0.1891  0.1309 -0.2288
 6214SOL    HW130278   4.275   2.044   7.452 -0.6843 -0.6312 -1.0636
 6214SOL    HW230279   4.286   2.185   7.470  0.4271  0.2036 -0.4319
 6215SOL     OW30280   1.465   2.383  11.031  0.0078  0.5851 -0.1565
 6215SOL    HW130281   1.499   2.332  11.105  0.0371 -0.8236 -1.1315
 6215SOL    HW230282   1.550   2.393  10.987 -0.3077  1.4932 -0.5630
 6216SOL     OW30283   4.688   0.551   4.363  0.2095 -0.3317  0.1853
 6216SOL    HW130284   0.016   0.575   4.429  0.1044  0.5340 -0.0278
 6216SOL    HW230285   4.622   0.517   4.424 -1.7582  0.2042 -1.6544
 6217SOL     OW30286   3.342   3.803   5.576  0.0421  0.1981 -0.0354
 6217SOL    HW130287   3.296   3.839   5.651 -2.4066 -1.0358 -0.9466
 6217SOL    HW230288   3.265   3.773   5.529  0.1543 -0.3662  0.1405
 6218SOL     OW30289   1.233   2.071   5.169  0.6591 -0.0330 -0.2106
 6218SOL    HW130290   1.286   2.044   5.244  1.9115 -1.5279 -1.6396
 6218SOL    HW230291   1.300   2.091   5.103 -0.7196  0.7103 -1.3900
 6219SOL     OW30292   0.518   4.622  14.822 -0.0029  0.1169 -0.1319
 6219SOL    HW130293   0.501   4.623  14.728 -2.3149  0.7654  0.3048
 6219SOL    HW230294   0.501   4.529  14.837  2.1507  0.1426  2.4688
 6220SOL     OW30295   2.205   2.055   1.438 -0.0987  0.2396  0.2552
 6220SOL    HW130296   2.203   2.011   1.353  1.1240  1.1175 -0.2295
 6220SOL    HW230297   2.110   2.050   1.451  0.1844  0.3517  2.4198
 6221SOL     OW30298   0.453   3.324   2.154  0.4833 -0.1151 -0.0293
 6221SOL    HW130299   0.495   3.410   2.159 -0.3245  0.3657 -1.3382
 6221SOL    HW230300   0.377   3.335   2.210 -0.5091  1.0626 -1.5977
 6222SOL     OW30301   2.734   3.803  13.377 -0.0038 -0.5477 -0.6027
 6222SOL    HW130302   2.701   3.867  13.313 -0.2783 -0.0139  0.0633
 6222SOL    HW230303   2.651   3.781  13.420 -0.7028  0.3489 -1.4607
 6223SOL     OW30304   4.194   2.773  13.026  0.2910 -0.3184  0.2378
 6223SOL    HW130305   4.170   2.817  12.944 -2.1229  0.3296  1.3094
 6223SOL    HW230306   4.104   2.758  13.053 -0.4571  1.4449 -1.2600
 6224SOL     OW30307   0.249   2.813   8.931  0.3596 -0.1610 -0.2838
 6224SOL    HW130308   0.177   2.777   8.880  0.9751 -0.8642 -0.6522
 6224SOL    HW230309   0.320   2.810   8.868 -0.3167 -3.0239 -0.9243
 6225SOL     OW30310   4.216   1.923  13.470 -0.5336  0.1869  0.4847
 6225SOL    HW130311   4.250   1.864  13.538  1.0831  1.4980  0.8099
 6225SOL    HW230312   4.166   1.982  13.526 -1.5896 -0.4928  0.2688
 6226SOL     OW30313   0.921   3.755  11.517  0.1241 -0.1440  0.4099
 6226SOL    HW130314   0.918   3.664  11.486 -0.5154 -0.8077  2.4541
 6226SOL    HW230315   0.870   3.741  11.596  1.9692  1.5844  1.9070
 6227SOL     OW30316   4.668   2.245   0.361  0.1047 -0.1516  0.3570
 6227SOL    HW130317   4.576   2.251   0.336  0.5036 -1.2282 -1.3979
 6227SOL    HW230318   4.709   2.254   0.275  1.1133  1.3468  1.0043
 6228SOL     OW30319   4.033   2.699   8.882  0.5397 -0.0919  0.1066
 6228SOL    HW130320   4.081   2.712   8.964 -1.8792 -1.7268  1.7708
 6228SOL    HW230321   3.984   2.780   8.871  0.4032 -0.1370  0.3824
 6229SOL     OW30322   1.683   1.475   0.856 -0.5226 -0.5184  0.5626
 6229SOL    HW130323   1.664   1.500   0.947  0.9804 -0.5972  0.8924
 6229SOL    HW230324   1.648   1.548   0.806  0.7441  0.3789  0.9882
 6230SOL     OW30325   2.583   0.652  12.627 -1.0357  0.3217 -0.0646
 6230SOL    HW130326   2.558   0.585  12.563 -1.1733  2.4383 -2.2149
 6230SOL    HW230327   2.522   0.629  12.697  0.4442 -1.5548  0.6254
 6231SOL     OW30328   2.865   2.996   2.790  0.1459  0.0840 -0.2314
 6231SOL    HW130329   2.777   3.003   2.752 -0.4293 -2.5405  0.6115
 6231SOL    HW230330   2.857   2.917   2.843 -2.3210  0.3179 -0.2422
 6232SOL     OW30331   2.903   4.673   8.576 -0.5565 -0.1715 -0.5388
 6232SOL    HW130332   2.832   4.712   8.525 -1.1575 -0.3047  0.1909
 6232SOL    HW230333   2.863   4.684   8.662  2.1175  2.6624  0.3332
 6233SOL     OW30334   4.355   2.356   2.590 -0.2714  0.4837  0.2267
 6233SOL    HW130335   4.307   2.365   2.508 -0.2271 -0.5464  0.0826
 6233SOL    HW230336   4.431   2.309   2.556 -2.6623 -2.5762 -0.9356
 6234SOL     OW30337   0.586   1.899  15.780 -0.0319  0.3741  0.8571
 6234SOL    HW130338   0.515   1.839  15.803 -2.1601  1.8258 -1.8312
 6234SOL    HW230339   0.559   1.937  15.696  2.3225 -0.9871 -0.5271
 6235SOL     OW30340   0.301   0.371  16.685  0.4531 -1.0197  0.0892
 6235SOL    HW130341   0.329   0.297  16.740 -0.4210 -1.8139 -0.5394
 6235SOL    HW230342   0.290   0.433  16.757  0.1516 -0.0532 -0.7923
 6236SOL     OW30343   1.402   0.654   2.507  0.4273 -0.6567 -0.5354
 6236SOL    HW130344   1.497   0.655   2.519  0.8422 -2.0382 -3.6684
 6236SOL    HW230345   1.375   0.607   2.585  0.7032 -1.1305 -0.7275
 6237SOL     OW30346   2.331   2.880  13.875 -0.6910 -0.3512 -0.3953
 6237SOL    HW130347   2.349   2.905  13.785 -0.6733 -0.4638 -0.4228
 6237SOL    HW230348   2.376   2.798  13.893  0.0098  0.1061 -0.0267
 6238SOL     OW30349   4.056   0.205   7.492  0.2326 -0.4558  0.1680
 6238SOL    HW130350   4.119   0.209   7.564  1.7544  0.3775 -1.2142
 6238SOL    HW230351   4.014   0.291   7.486  0.1465 -0.5722 -0.9429
 6239SOL     OW30352   0.742   4.093   1.375  0.0355 -0.7082 -0.1419
 6239SOL    HW130353   0.748   4.146   1.454  0.8578 -3.4119  1.6175
 6239SOL    HW230354   0.836   4.102   1.360 -0.3039  0.5668 -1.4463
 6240SOL     OW30355   2.526   1.875   2.828  0.2194  0.0614 -0.4151
 6240SOL    HW130356   2.621   1.883   2.836  0.4055 -0.8773 -1.6081
 6240SOL    HW230357   2.515   1.895   2.735  2.3024  0.3904 -0.5907
 6241SOL     OW30358   3.425   1.822   7.049  0.3266 -0.0711  0.2470
 6241SOL    HW130359   3.480   1.816   6.970 -0.7710  0.9717 -0.5979
 6241SOL    HW230360   3.342   1.832   7.003  0.5567  1.4257  0.1587
 6242SOL     OW30361   0.999   2.629   8.464 -0.3389 -0.3317 -0.5234
 6242SOL    HW130362   0.971   2.607   8.553  0.3322  0.9408  0.0127
 6242SOL    HW230363   0.921   2.605   8.414 -0.3698 -1.5150  0.0803
 6243SOL     OW30364   1.667   4.265   1.955 -0.4717 -0.1487  1.1281
 6243SOL    HW130365   1.693   4.174   1.974 -2.9683 -0.7213  1.8364
 6243SOL    HW230366   1.582   4.274   1.999 -0.6657 -1.2512  0.9983
 6244SOL     OW30367   3.990   0.853   2.902  0.1024  0.1756 -0.7205
 6244SOL    HW130368   4.004   0.900   2.985  0.4809 -2.2412  0.5677
 6244SOL    HW230369   4.027   0.766   2.912  1.5928  1.1185  1.9324
 6245SOL     OW30370   2.663   3.152   5.743  0.0289 -0.3445 -0.4503
 6245SOL    HW130371   2.740   3.202   5.717 -1.5138  1.4054 -1.6625
 6245SOL    HW230372   2.699   3.065   5.760 -1.2155 -1.0401 -1.3323
 6246SOL     OW30373   4.483   2.397  14.552  0.6868 -0.2520 -0.2506
 6246SOL    HW130374   4.519   2.482  14.529  0.0041 -0.2355 -1.2531
 6246SOL    HW230375   4.395   2.398  14.513  0.3670 -0.4994  0.4622
 6247SOL     OW30376   1.936   0.095   0.692 -0.2082 -0.0830 -0.1480
 6247SOL    HW130377   1.956   0.142   0.773 -0.4290 -0.0634 -0.1061
 6247SOL    HW230378   1.934   0.002   0.714 -2.7298  0.2389  0.8895
 6248SOL     OW30379   2.353   0.808   7.125  0.5870  0.5175  0.2654
 6248SOL    HW130380   2.307   0.747   7.068  0.5385 -0.5581  1.4458
 6248SOL    HW230381   2.283   0.861   7.164 -0.6422 -1.1204  0.3029
 6249SOL     OW30382   2.531   3.887   7.379  0.0484  0.2536 -0.3695
 6249SOL    HW130383   2.474   3.852   7.447 -2.9834  0.8882 -2.5861
 6249SOL    HW230384   2.552   3.974   7.412  0.0506 -1.2093  3.4568
 6250SOL     OW30385   2.241   0.334  10.564 -0.2859  0.2789 -0.4023
 6250SOL    HW130386   2.198   0.320  10.480 -0.7631  0.0902 -0.1324
 6250SOL    HW230387   2.184   0.288  10.627  0.0443  0.4851  0.0519
 6251SOL     OW30388   3.388   2.339  14.674  0.1135 -0.4827  0.2366
 6251SOL    HW130389   3.381   2.352  14.579  1.6826 -0.7870  0.0799
 6251SOL    HW230390   3.345   2.254  14.670 -4.3020  1.8444 -2.6284
 6252SOL     OW30391   3.221   1.618   9.925 -0.2839  0.1459 -0.0452
 6252SOL    HW130392   3.221   1.706   9.888 -0.7890  0.8055  1.5563
 6252SOL    HW230393   3.221   1.632  10.020 -1.9515 -2.9537  0.4064
 6253SOL     OW30394   3.259   0.121   6.355  0.3708 -0.1482 -0.5540
 6253SOL    HW130395   3.313   0.154   6.426  0.0817  1.6082 -1.1490
 6253SOL    HW230396   3.247   0.195   6.295 -0.3962  0.0401 -0.1640
 6254SOL     OW30397   0.090   3.770   7.612 -0.7515 -0.5548 -0.2449
 6254SOL    HW130398   0.176   3.777   7.572 -0.6871  2.7262  0.4558
 6254SOL    HW230399   0.036   3.761   7.533 -0.5730  1.4673 -0.5984
 6255SOL     OW30400   0.176   1.385   4.187 -0.2906  0.1767 -0.1963
 6255SOL    HW130401   0.142   1.463   4.230 -0.2628  0.8703 -1.4458
 6255SOL    HW230402   0.094   1.341   4.165  0.7323 -1.4476 -0.7680
 6256SOL     OW30403   1.650   3.484  11.153 -0.0389 -0.8735 -0.1647
 6256SOL    HW130404   1.617   3.515  11.236  1.1061  1.4669 -0.5988
 6256SOL    HW230405   1.598   3.404  11.144 -1.0814 -0.4428  2.2670
 6257SOL     OW30406   0.676   1.562   8.074  0.0536  0.0483 -0.1453
 6257SOL    HW130407   0.674   1.518   7.989 -1.0786 -0.5766  0.2024
 6257SOL    HW230408   0.582   1.568   8.092 -0.0997 -1.0271 -0.5846
 6258SOL     OW30409   3.703   4.713  12.705  0.2633  0.1293 -0.4409
 6258SOL    HW130410   3.749   4.735  12.786 -0.6651 -3.4809  1.0903
 6258SOL    HW230411   3.776   4.730  12.646  0.5733 -1.4353 -0.5186
 6259SOL     OW30412   2.662   2.366   5.677 -0.2021  0.0014  0.3152
 6259SOL    HW130413   2.700   2.418   5.747  0.8446  0.8884 -0.9090
 6259SOL    HW230414   2.679   2.419   5.599  3.0233 -2.4137 -0.6101
 6260SOL     OW30415   2.379   0.186   1.205 -0.0459  0.1041 -0.4174
 6260SOL    HW130416   2.318   0.188   1.131  0.8850 -4.4849 -1.3206
 6260SOL    HW230417   2.338   0.233   1.278 -0.4810 -0.5120 -0.2697
 6261SOL     OW30418   0.418   3.445   7.172  0.6240  0.1224  0.0615
 6261SOL    HW130419   0.465   3.404   7.244 -2.1581 -1.2741  1.0832
 6261SOL    HW230420   0.470   3.420   7.095  2.2376  2.0974  0.5095
 6262SOL     OW30421   0.500   0.237  15.830  0.2054 -0.3704 -0.7704
 6262SOL    HW130422   0.543   0.178  15.892  0.6769  0.7164 -0.0540
 6262SOL    HW230423   0.420   0.264  15.874  0.2468 -1.6502  0.0952
 6263SOL     OW30424   3.252   1.914   9.082  0.7878 -0.0770 -0.6033
 6263SOL    HW130425   3.180   1.976   9.095  0.7902  0.1280 -1.5918
 6263SOL    HW230426   3.330   1.970   9.082  1.0756 -0.4770 -0.0236
 6264SOL     OW30427   0.462   2.775  10.748 -0.0910  0.4898  0.2534
 6264SOL    HW130428   0.445   2.722  10.671 -3.9466 -1.3216  2.3114
 6264SOL    HW230429   0.432   2.861  10.716  0.8688  0.2344 -1.3205
 6265SOL     OW30430   0.786   4.062   1.855  0.2390  0.4447 -0.0582
 6265SOL    HW130431   0.705   4.014   1.841  0.6244 -0.1761 -0.1556
 6265SOL    HW230432   0.834   4.024   1.781 -0.7860 -1.7793  0.4104
 6266SOL     OW30433   2.828   2.102   7.671 -0.5243  0.6473 -0.1545
 6266SOL    HW130434   2.846   2.051   7.750  1.5969 -1.1221 -1.8000
 6266SOL    HW230435   2.870   2.048   7.604  0.0768  0.5672  0.2809
 6267SOL     OW30436   3.593   1.285   5.708 -0.4790 -0.0833  0.2118
 6267SOL    HW130437   3.547   1.355   5.662  0.0091  0.4760  0.5757
 6267SOL    HW230438   3.527   1.216   5.711 -0.2532 -0.3428 -0.7433
 6268SOL     OW30439   2.441   2.442  13.068  0.1590  0.1233 -0.1689
 6268SOL    HW130440   2.478   2.363  13.108  1.4544  1.2632  0.8893
 6268SOL    HW230441   2.454   2.417  12.976 -1.8611  0.1733 -0.4679
 6269SOL     OW30442   3.018   2.801   8.130  0.7064  0.1044 -0.6368
 6269SOL    HW130443   2.994   2.866   8.196 -0.7946  0.4359 -1.4985
 6269SOL    HW230444   2.965   2.832   8.057 -1.1685 -0.8703  0.2996
 6270SOL     OW30445   3.679   0.171   7.308  0.2372 -0.1620  0.5006
 6270SOL    HW130446   3.762   0.151   7.266 -0.8805 -0.8657 -1.3761
 6270SOL    HW230447   3.681   0.120   7.389 -0.5312 -0.3717  0.3870
 6271SOL     OW30448   1.478   4.702  13.125 -0.2240  0.2116 -0.5654
 6271SOL    HW130449   1.474   4.607  13.134  1.2188 -0.0301 -2.4618
 6271SOL    HW230450   1.393   4.721  13.165  0.8378  1.2096  1.1942
 6272SOL     OW30451   3.881   0.824   3.400 -0.4000 -0.1334  0.2634
 6272SOL    HW130452   3.972   0.849   3.381  0.3059 -2.8793  0.1010
 6272SOL    HW230453   3.860   0.887   3.469 -0.2001  0.7296 -0.4617
 6273SOL     OW30454   0.598   2.057  17.623 -0.0011  0.2204 -0.0509
 6273SOL    HW130455   0.515   2.020  17.653 -0.2493  0.7244 -0.1055
 6273SOL    HW230456   0.585   2.152  17.624  0.7002  0.3342 -1.0965
 6274SOL     OW30457   3.993   4.344  13.969 -0.9131 -0.0722  0.0314
 6274SOL    HW130458   4.002   4.400  13.892  0.0316  1.1762  1.0396
 6274SOL    HW230459   4.030   4.262  13.937 -0.0503  0.3757 -0.1340
 6275SOL     OW30460   2.116   3.330   6.893 -0.0750 -0.2919  0.4825
 6275SOL    HW130461   2.098   3.253   6.947  3.4627 -0.9425  0.7604
 6275SOL    HW230462   2.029   3.336   6.854  0.3667 -0.5511 -0.5334
 6276SOL     OW30463   4.449   0.402  10.472 -0.3030 -0.3967 -0.1147
 6276SOL    HW130464   4.504   0.474  10.503 -1.4466  0.3785  0.1526
 6276SOL    HW230465   4.366   0.430  10.512 -0.3879 -0.6576 -0.1080
 6277SOL     OW30466   2.280   2.604   4.491  0.4432 -0.4769  0.4682
 6277SOL    HW130467   2.266   2.568   4.403  3.8557 -2.0479  0.5905
 6277SOL    HW230468   2.254   2.526   4.540 -0.1428  0.1804  1.2057
 6278SOL     OW30469   1.291   0.209   4.224 -0.2312 -0.8348  0.1490
 6278SOL    HW130470   1.309   0.117   4.241  2.9209 -0.1928  0.3483
 6278SOL    HW230471   1.363   0.247   4.276  0.2509 -2.5494  0.7158
 6279SOL     OW30472   3.415   3.950  11.507  0.7921  0.2287 -0.4033
 6279SOL    HW130473   3.493   4.001  11.486  0.4106  0.7657 -0.5228
 6279SOL    HW230474   3.413   3.956  11.603 -0.4641  0.5912 -0.4552
 6280SOL     OW30475   0.120   0.690   7.988 -0.2692 -0.2163 -0.5833
 6280SOL    HW130476   0.131   0.687   7.893 -1.8966 -0.4847 -0.7581
 6280SOL    HW230477   0.122   0.596   8.006  1.5120 -1.1114 -5.3899
 6281SOL     OW30478   2.066   0.265   1.266 -0.3225 -0.5421 -0.0153
 6281SOL    HW130479   2.121   0.275   1.188  0.0477 -0.0819  0.2968
 6281SOL    HW230480   2.115   0.314   1.333  2.7569 -0.1562 -2.5286
 6282SOL     OW30481   4.526   1.940  13.669 -0.3595 -0.6255  0.2148
 6282SOL    HW130482   4.436   1.909  13.656 -0.5422 -1.0622  2.5084
 6282SOL    HW230483   4.510   2.035  13.663 -2.4301 -0.7337  3.7912
 6283SOL     OW30484   0.677   3.571  16.552 -0.3203 -0.4333 -0.2030
 6283SOL    HW130485   0.739   3.635  16.588 -1.4089  0.9900 -0.8610
 6283SOL    HW230486   0.603   3.567  16.612  0.5341  2.0982  1.0359
 6284SOL     OW30487   2.427   0.741  12.165 -0.5376 -0.4597  0.1194
 6284SOL    HW130488   2.472   0.826  12.160 -0.6987 -0.4295 -0.9687
 6284SOL    HW230489   2.463   0.690  12.092 -3.5234 -0.4181 -1.3870
 6285SOL     OW30490   2.331   0.374   1.691  0.6115 -0.4214 -0.8556
 6285SOL    HW130491   2.413   0.335   1.720 -0.9558  0.1923  4.3506
 6285SOL    HW230492   2.338   0.461   1.729 -1.4312 -1.1303  1.1361
 6286SOL     OW30493   2.667   1.899   7.079  0.0686  0.2124 -0.6472
 6286SOL    HW130494   2.635   1.836   7.143 -0.2082  1.1147  0.1070
 6286SOL    HW230495   2.693   1.976   7.131 -0.8558 -0.7316  1.1996
 6287SOL     OW30496   0.183   2.334   3.842  0.1716  0.2434  0.5076
 6287SOL    HW130497   0.220   2.301   3.923 -1.0164  2.8511  2.0986
 6287SOL    HW230498   0.090   2.332   3.862 -0.2635  1.7720 -1.3550
 6288SOL     OW30499   1.416   0.953   0.332 -0.1100 -0.4326 -0.0517
 6288SOL    HW130500   1.384   0.988   0.415 -1.1384  0.1154 -0.6704
 6288SOL    HW230501   1.352   0.882   0.322 -1.1753  0.7594 -1.7122
 6289SOL     OW30502   2.163   0.046   1.565 -0.1300  0.0354  0.2028
 6289SOL    HW130503   2.128   0.027   1.478  0.1397  1.3059 -0.1740
 6289SOL    HW230504   2.104   4.735   1.623  0.5634 -1.2958 -0.1962
 6290SOL     OW30505   1.835   3.219   7.788  0.3371 -0.5429  0.0507
 6290SOL    HW130506   1.921   3.242   7.753  0.2360  1.6376  1.2907
 6290SOL    HW230507   1.786   3.292   7.751  0.2896 -1.3476 -1.4952
 6291SOL     OW30508   2.370   4.498   5.550 -0.0268 -0.2629 -0.4405
 6291SOL    HW130509   2.407   4.460   5.630  1.4470  2.4121  0.1693
 6291SOL    HW230510   2.423   4.577   5.544  0.9042 -0.8009  0.7609
 6292SOL     OW30511   0.946   1.144   6.642  0.4475  0.3206 -0.2551
 6292SOL    HW130512   0.990   1.180   6.719 -0.9919  1.7637 -0.1317
 6292SOL    HW230513   0.936   1.053   6.670 -0.6841  0.4044 -0.3967
 6293SOL     OW30514   0.194   2.643  14.046  0.2134  0.1250 -0.4005
 6293SOL    HW130515   0.194   2.729  14.087 -1.2068 -0.8955  1.7374
 6293SOL    HW230516   0.207   2.584  14.120 -0.4997 -0.4122 -0.7083
 6294SOL     OW30517   2.317   1.236   6.096  0.8931 -0.5738 -0.6607
 6294SOL    HW130518   2.255   1.204   6.162  1.2510  0.8562  0.3597
 6294SOL    HW230519   2.366   1.297   6.151 -2.7459 -0.1030  2.0197
 6295SOL     OW30520   2.161   2.469   6.504  0.8546  0.1252 -0.4073
 6295SOL    HW130521   2.098   2.400   6.483  0.1239  0.8951 -0.7175
 6295SOL    HW230522   2.121   2.535   6.560 -1.0554 -2.6274  1.4917
 6296SOL     OW30523   3.164   4.300  16.695  0.0014  0.2634 -0.9702
 6296SOL    HW130524   3.251   4.261  16.688  0.1793  0.3960  0.4790
 6296SOL    HW230525   3.123   4.251  16.767  0.8110 -1.1480 -1.4562
 6297SOL     OW30526   3.374   3.305   7.667 -0.1021  0.2109 -0.0346
 6297SOL    HW130527   3.409   3.356   7.740  0.0908 -0.8175  0.5966
 6297SOL    HW230528   3.356   3.368   7.597 -1.2664  0.3422  0.3753
 6298SOL     OW30529   1.761   0.873   1.943 -0.3494 -0.0423  0.0446
 6298SOL    HW130530   1.699   0.942   1.967 -1.4566  0.1469 -3.2751
 6298SOL    HW230531   1.843   0.921   1.951 -0.8254  0.8501 -0.3591
 6299SOL     OW30532   0.229   4.471   8.511  0.0141 -0.2876  0.2272
 6299SOL    HW130533   0.206   4.415   8.586 -0.7669 -0.8811 -0.4609
 6299SOL    HW230534   0.187   4.427   8.437 -0.4581 -0.8461  0.8242
 6300SOL     OW30535   1.401   3.816   1.545  0.0232 -0.1350 -0.5050
 6300SOL    HW130536   1.430   3.725   1.539  0.9905  0.0731  0.9636
 6300SOL    HW230537   1.456   3.846   1.618  0.0112 -1.0086 -0.1407
 6301SOL     OW30538   3.446   0.089  14.621  0.5662  0.0570 -0.5178
 6301SOL    HW130539   3.527   0.099  14.672 -1.0754  0.8078  1.9099
 6301SOL    HW230540   3.394   0.043  14.685  0.2912  2.7189  1.1717
 6302SOL     OW30541   3.822   3.414   1.817  0.1917 -0.5162  0.1794
 6302SOL    HW130542   3.851   3.338   1.768 -0.1005  0.5527 -1.6806
 6302SOL    HW230543   3.771   3.369   1.883  0.2917  1.6458  1.7432
 6303SOL     OW30544   2.910   2.040   1.678 -0.0179 -0.5771 -0.1852
 6303SOL    HW130545   2.902   2.012   1.770 -0.9457 -0.3271 -0.1976
 6303SOL    HW230546   2.865   2.124   1.688  2.0446  0.4232  0.8130
 6304SOL     OW30547   3.078   2.192   7.785  0.6884 -0.4806  0.5411
 6304SOL    HW130548   3.038   2.190   7.872 -0.7567 -1.7258 -0.1610
 6304SOL    HW230549   3.154   2.139   7.808  2.3529  1.7837  0.2592
 6305SOL     OW30550   2.116   3.076  11.739  0.0714 -0.1799  0.5203
 6305SOL    HW130551   2.188   3.135  11.715 -0.6403  0.8872  0.9993
 6305SOL    HW230552   2.136   3.053  11.830  1.2600 -2.4057 -0.3130
 6306SOL     OW30553   1.140   0.103   6.959  0.6985  0.0567 -0.4814
 6306SOL    HW130554   1.080   0.142   6.896  0.5214 -1.0298 -0.9865
 6306SOL    HW230555   1.231   0.126   6.940  0.7415  1.5493  1.5165
 6307SOL     OW30556   1.331   0.786  14.712  0.3359 -0.2857 -0.0041
 6307SOL    HW130557   1.281   0.714  14.750 -1.4530 -0.4373 -2.6271
 6307SOL    HW230558   1.401   0.740  14.665 -0.3351 -1.6653  0.3307
 6308SOL     OW30559   2.221   2.553   4.206  0.0635  0.4739  0.0070
 6308SOL    HW130560   2.145   2.598   4.168 -2.0590 -2.6152  0.6086
 6308SOL    HW230561   2.214   2.462   4.178 -3.2528  0.2351  1.6382
 6309SOL     OW30562   1.304   1.048  14.733 -0.2384  0.1506  0.1166
 6309SOL    HW130563   1.312   0.953  14.740 -0.9474  0.1055  0.2105
 6309SOL    HW230564   1.309   1.059  14.638  2.0422  2.0734  0.4604
 6310SOL     OW30565   0.415   3.376  11.107  0.2876 -0.1015  0.3732
 6310SOL    HW130566   0.434   3.288  11.074 -0.4754  0.3195 -1.2000
 6310SOL    HW230567   0.414   3.362  11.202 -1.6115 -0.8725  0.2554
 6311SOL     OW30568   1.125   3.284   4.589 -0.3710  0.1615  0.3663
 6311SOL    HW130569   1.171   3.271   4.506 -2.6672  1.5555 -1.1333
 6311SOL    HW230570   1.204   3.287   4.643  0.3587 -0.2919 -0.6611
 6312SOL     OW30571   2.842   1.121   8.402 -0.4900  0.0200  0.1506
 6312SOL    HW130572   2.929   1.086   8.419 -0.8173 -1.0288 -0.3253
 6312SOL    HW230573   2.783   1.051   8.375  0.9732 -0.5608 -1.5277
 6313SOL     OW30574   0.167   4.131   5.571  0.2677 -0.0148  0.0813
 6313SOL    HW130575   0.197   4.109   5.482 -3.1584  1.2846 -1.3960
 6313SOL    HW230576   0.201   4.220   5.578 -1.5952  0.6268  0.9394
 6314SOL     OW30577   1.426   4.110   7.482 -0.3080 -0.1323 -1.0020
 6314SOL    HW130578   1.348   4.092   7.429 -0.7577 -0.3438 -0.2583
 6314SOL    HW230579   1.382   4.142   7.560 -0.2451  0.3370 -1.1559
 6315SOL     OW30580   4.444   2.157   4.218  0.3089  0.0461  0.1408
 6315SOL    HW130581   4.493   2.091   4.266  0.6008  0.7161  0.7643
 6315SOL    HW230582   4.467   2.233   4.271  0.4784  0.3700 -0.3960
 6316SOL     OW30583   4.330   1.385  14.395  0.0199 -0.0199 -0.4282
 6316SOL    HW130584   4.264   1.383  14.326  0.1654 -0.4846 -0.5569
 6316SOL    HW230585   4.277   1.434  14.458  1.9383  1.7084 -0.1807
 6317SOL     OW30586   3.129   4.364   5.462  0.3531  0.0363  0.1327
 6317SOL    HW130587   3.176   4.376   5.380  1.6200 -0.6264  0.7613
 6317SOL    HW230588   3.110   4.457   5.479 -1.5356 -0.1527 -0.9338
 6318SOL     OW30589   3.936   1.144  15.890 -0.3334  0.1070  0.4221
 6318SOL    HW130590   3.845   1.115  15.892  0.5936 -2.7609  1.5924
 6318SOL    HW230591   3.981   1.109  15.968 -1.0973 -0.7526  0.4781
 6319SOL     OW30592   4.249   0.036   6.303  0.0279  0.0763 -0.5932
 6319SOL    HW130593   4.186   0.003   6.366  1.4262  1.2931  1.4274
 6319SOL    HW230594   4.282   0.120   6.336  0.6636 -1.0946  1.6738
 6320SOL     OW30595   1.291   4.162   8.390  0.2974 -0.0462  0.2144
 6320SOL    HW130596   1.371   4.204   8.357 -0.4320  0.0258 -1.4445
 6320SOL    HW230597   1.341   4.106   8.450  1.9774  1.4449  0.2226
 6321SOL     OW30598   2.640   2.479   7.875 -0.5500  0.0883 -0.2565
 6321SOL    HW130599   2.729   2.481   7.910 -0.4222  1.4063 -0.6555
 6321SOL    HW230600   2.647   2.418   7.801 -1.3569 -1.6018  1.0382
 6322SOL     OW30601   1.339   2.948   9.258 -0.6663 -0.0428  0.5961
 6322SOL    HW130602   1.369   3.000   9.332  0.1719 -0.3521  0.4663
 6322SOL    HW230603   1.299   2.872   9.300 -2.6233  0.0198 -1.1403
 6323SOL     OW30604   4.177   3.394  11.431  0.1473  0.8343  0.0034
 6323SOL    HW130605   4.259   3.428  11.394  1.2230 -1.4450  0.2804
 6323SOL    HW230606   4.121   3.466  11.460  1.9252  2.1472  0.1880
 6324SOL     OW30607   1.730   3.455  13.316  0.0956  0.4545  0.2639
 6324SOL    HW130608   1.709   3.371  13.275  0.4238  0.0362  0.9646
 6324SOL    HW230609   1.639   3.482  13.330  0.5290  1.6537  0.7898
 6325SOL     OW30610   0.612   1.470  16.868  0.4488  0.3179 -0.2155
 6325SOL    HW130611   0.531   1.432  16.834  0.8348 -1.3916  0.7544
 6325SOL    HW230612   0.571   1.552  16.898  0.7078 -0.0320  1.1050
 6326SOL     OW30613   0.238   2.250   5.948  0.3476 -0.2163  0.1984
 6326SOL    HW130614   0.239   2.186   5.877 -3.0548 -0.2266  0.1233
 6326SOL    HW230615   0.291   2.322   5.913  1.3577 -0.1226  1.9778
 6327SOL     OW30616   4.472   1.941  13.286 -0.3212 -0.1402  0.0152
 6327SOL    HW130617   4.378   1.944  13.304 -0.1561  0.0732  0.8586
 6327SOL    HW230618   4.492   2.030  13.258  0.6884 -0.5573 -0.6244
 6328SOL     OW30619   0.094   3.102   6.789 -0.0156  0.4354  0.3177
 6328SOL    HW130620   0.106   3.137   6.701  0.5868 -0.7889 -0.0804
 6328SOL    HW230621   0.009   3.141   6.812 -1.5224 -2.0534 -1.0890
 6329SOL     OW30622   3.557   0.951  16.979 -0.3573  0.0235 -0.6329
 6329SOL    HW130623   3.601   1.033  17.000 -1.0045  0.6789 -1.8263
 6329SOL    HW230624   3.522   0.926  17.065  0.2554  0.6088 -0.2114
 6330SOL     OW30625   2.866   2.568   8.565 -0.1538 -0.0852 -0.3060
 6330SOL    HW130626   2.805   2.556   8.638  1.0722 -0.6490  0.6342
 6330SOL    HW230627   2.894   2.477   8.554  3.0072  0.9704 -1.0736
 6331SOL     OW30628   3.879   2.489   2.280 -0.2284  0.0692 -0.4997
 6331SOL    HW130629   3.881   2.575   2.323  2.1629  0.3142 -1.0735
 6331SOL    HW230630   3.786   2.474   2.264 -0.0059 -0.3715 -1.3515
 6332SOL     OW30631   4.534   2.748   1.991  0.1823 -0.1375  0.4272
 6332SOL    HW130632   4.449   2.779   1.960  0.5792 -0.0546 -0.5961
 6332SOL    HW230633   4.508   2.675   2.047  1.2315 -1.3771 -0.6953
 6333SOL     OW30634   2.078   2.879  11.039 -0.3185  0.2448  0.8067
 6333SOL    HW130635   2.087   2.868  11.134  2.5841 -0.5378  0.4442
 6333SOL    HW230636   2.160   2.926  11.022 -1.4573  1.3607 -1.6789
 6334SOL     OW30637   4.451   3.765  12.564  0.0286 -0.0185  0.2555
 6334SOL    HW130638   4.494   3.687  12.529  2.3590  0.7277  1.4106
 6334SOL    HW230639   4.511   3.794  12.633  0.6410 -0.4289 -0.0984
 6335SOL     OW30640   1.803   0.113  14.503  0.4825 -1.0090 -0.1321
 6335SOL    HW130641   1.882   0.166  14.497 -0.5187  0.7392  1.9540
 6335SOL    HW230642   1.799   0.106  14.598  2.3252  1.9010  0.1524
 6336SOL     OW30643   3.837   3.812  13.436  0.5543  0.2482 -0.7329
 6336SOL    HW130644   3.793   3.897  13.427  0.3723  0.3522  1.2429
 6336SOL    HW230645   3.848   3.805  13.530 -0.9489  1.7394 -0.4536
 6337SOL     OW30646   1.300   2.150   6.356 -0.3267 -0.0615  0.1148
 6337SOL    HW130647   1.354   2.071   6.345 -0.1148 -0.0182  0.7842
 6337SOL    HW230648   1.237   2.145   6.285  0.7086 -0.6734 -0.7537
 6338SOL     OW30649   0.278   0.791  14.382  0.3701  0.4886 -0.0177
 6338SOL    HW130650   0.353   0.737  14.406  0.7421  1.2501  0.5320
 6338SOL    HW230651   0.318   0.858  14.327 -2.1659 -0.8749 -3.5500
 6339SOL     OW30652   2.118   4.669  11.108 -0.7516  0.2085  0.2361
 6339SOL    HW130653   2.126   4.584  11.064 -2.1826 -0.7815  1.9127
 6339SOL    HW230654   2.062   4.646  11.182  0.4175  1.5139  1.5465
 6340SOL     OW30655   3.611   1.413   2.509  0.0502  0.2016  0.4770
 6340SOL    HW130656   3.593   1.501   2.478  2.9518  0.3255 -0.8204
 6340SOL    HW230657   3.524   1.376   2.492  0.5679 -1.3345  1.1514
 6341SOL     OW30658   3.847   1.775   6.922 -0.0232  0.0318  0.2332
 6341SOL    HW130659   3.881   1.862   6.940  0.6455  0.5543 -3.4637
 6341SOL    HW230660   3.789   1.798   6.849 -0.2784  1.6873  0.9731
 6342SOL     OW30661   4.704   2.955   0.047  0.6737 -0.0677  0.1046
 6342SOL    HW130662   0.043   2.898   0.049 -0.5556 -1.7696 -1.0947
 6342SOL    HW230663   4.630   2.896   0.057  0.4665  0.2752  0.5789
 6343SOL     OW30664   1.391   0.889   7.515  0.7999 -0.0433  0.6694
 6343SOL    HW130665   1.416   0.805   7.552 -1.1695 -1.0768 -0.3567
 6343SOL    HW230666   1.381   0.860   7.424  2.4736 -0.8328  0.7306
 6344SOL     OW30667   1.810   3.208  13.163 -0.3980 -0.6420 -0.4929
 6344SOL    HW130668   1.781   3.229  13.074 -0.0930  1.1668 -0.1521
 6344SOL    HW230669   1.825   3.114  13.150 -0.6001 -1.1046  2.6310
 6345SOL     OW30670   4.473   1.068   2.101  0.4871 -0.2777 -0.6291
 6345SOL    HW130671   4.433   1.129   2.039  0.1900 -1.7458 -1.8737
 6345SOL    HW230672   4.522   1.131   2.155 -1.5145 -0.0808  0.9323
 6346SOL     OW30673   2.220   1.483   7.011  0.0802 -0.2160  0.5140
 6346SOL    HW130674   2.215   1.414   7.076 -2.1456 -1.7478 -1.2731
 6346SOL    HW230675   2.129   1.513   7.005 -0.0921 -1.4572 -3.5159
 6347SOL     OW30676   1.079   0.609   1.469  0.3243 -0.0407 -0.1318
 6347SOL    HW130677   1.069   0.572   1.381  2.7054  2.3940 -1.4247
 6347SOL    HW230678   1.047   0.699   1.463  0.8880  0.1319 -0.5201
 6348SOL     OW30679   2.320   3.267   4.541  0.0737 -0.6804 -0.3573
 6348SOL    HW130680   2.395   3.277   4.600  0.2360 -2.7382 -0.2431
 6348SOL    HW230681   2.362   3.215   4.473  0.6095 -1.3410  0.4880
 6349SOL     OW30682   0.065   1.319   8.708 -0.8971  0.0067  0.4037
 6349SOL    HW130683   4.726   1.267   8.684 -1.5308  0.5708  1.2201
 6349SOL    HW230684   0.141   1.280   8.665 -0.2216  1.1387  0.5749
 6350SOL     OW30685   0.526   2.570   2.785 -0.4772  0.6758 -0.1380
 6350SOL    HW130686   0.618   2.555   2.764 -0.1235  2.2851  0.3162
 6350SOL    HW230687   0.486   2.575   2.698 -1.2740  1.8719  0.2960
 6351SOL     OW30688   1.796   2.869   8.166 -0.4897 -0.1693 -0.0118
 6351SOL    HW130689   1.861   2.940   8.164 -0.3271 -0.3211 -0.1678
 6351SOL    HW230690   1.724   2.925   8.136  0.4753  1.0273 -0.1180
 6352SOL     OW30691   2.856   2.107   4.459  0.1569 -0.1749 -0.6549
 6352SOL    HW130692   2.946   2.121   4.429 -0.5035  0.2071 -2.4352
 6352SOL    HW230693   2.874   2.050   4.534 -0.4424  0.4652 -0.0339
 6353SOL     OW30694   1.351   1.695   8.478  0.6434 -0.1418  0.1542
 6353SOL    HW130695   1.282   1.639   8.515  1.6912 -2.0678 -0.8194
 6353SOL    HW230696   1.379   1.626   8.418 -1.1677  0.6744 -1.6519
 6354SOL     OW30697   3.353   0.765   4.446 -0.3865 -0.8379  0.0061
 6354SOL    HW130698   3.291   0.796   4.511  1.6712 -0.1525  1.6517
 6354SOL    HW230699   3.297   0.727   4.378 -2.7996 -0.3852  1.7442
 6355SOL     OW30700   4.308   1.734  12.068  0.0247  0.0827  0.5331
 6355SOL    HW130701   4.261   1.725  12.151 -0.3881 -0.2461  0.2621
 6355SOL    HW230702   4.369   1.802  12.096 -0.9861  1.3444 -0.2906
 6356SOL     OW30703   0.622   1.790   8.342  0.1027 -0.0226 -0.1999
 6356SOL    HW130704   0.708   1.766   8.307  1.3484  3.2444  0.6491
 6356SOL    HW230705   0.584   1.702   8.336  1.3567 -0.6199  0.5742
 6357SOL     OW30706   3.529   4.149   3.878  1.0744  0.6631  0.1541
 6357SOL    HW130707   3.588   4.078   3.852 -0.9137 -0.1858 -2.0644
 6357SOL    HW230708   3.494   4.178   3.794 -0.8322 -2.1847 -0.0288
 6358SOL     OW30709   3.731   0.508   4.527 -0.4137 -0.0022 -0.0255
 6358SOL    HW130710   3.718   0.601   4.542  0.4656  0.5444 -2.6072
 6358SOL    HW230711   3.661   0.465   4.575 -0.1327 -0.9497 -0.4576
 6359SOL     OW30712   2.771   3.574   4.599 -0.1966  0.2004 -0.1842
 6359SOL    HW130713   2.758   3.516   4.524 -0.1833 -1.3850  1.0296
 6359SOL    HW230714   2.765   3.504   4.665 -1.5313  0.7377  0.2607
 6360SOL     OW30715   4.052   0.891   7.864 -1.0230 -0.0009  0.3802
 6360SOL    HW130716   4.132   0.930   7.828 -1.2039 -1.4680 -1.6267
 6360SOL    HW230717   4.070   0.798   7.847  1.1798  0.6928 -1.1701
 6361SOL     OW30718   2.518   3.330   9.053 -0.5297 -0.0606 -0.0515
 6361SOL    HW130719   2.593   3.350   9.109  0.7761 -0.5761 -1.6023
 6361SOL    HW230720   2.502   3.239   9.078  0.2201 -0.1303  0.1607
 6362SOL     OW30721   2.097   3.987   6.809  0.1396  0.6549 -0.4205
 6362SOL    HW130722   2.107   4.016   6.719  1.8207  0.3237 -0.3410
 6362SOL    HW230723   2.015   4.028   6.836  0.7208  0.9501  0.9291
 6363SOL     OW30724   0.168   1.768   3.207 -0.9723  0.1635  0.0266
 6363SOL    HW130725   0.104   1.839   3.209 -0.7415  0.4157 -1.3125
 6363SOL    HW230726   0.172   1.751   3.301  0.0567  5.6419  0.9854
 6364SOL     OW30727   2.737   2.461  12.422 -0.2547  0.2480  0.2839
 6364SOL    HW130728   2.743   2.504  12.337 -0.1884 -0.9012 -0.2958
 6364SOL    HW230729   2.660   2.502  12.462 -0.3759  1.7681 -1.5319
 6365SOL     OW30730   1.428   4.601   6.499  0.8372  0.4065  0.0169
 6365SOL    HW130731   1.411   4.507   6.502  1.0749  0.2523 -3.1180
 6365SOL    HW230732   1.524   4.603   6.492  0.7632 -0.5807 -1.4019
 6366SOL     OW30733   3.369   0.273  17.438  0.1007 -0.2505 -0.5603
 6366SOL    HW130734   3.397   0.189  17.404 -0.4988 -1.1123  1.0619
 6366SOL    HW230735   3.358   0.255  17.532  0.9815  1.4532 -0.1365
 6367SOL     OW30736   1.917   4.081  10.067 -0.7980 -0.0638 -0.0035
 6367SOL    HW130737   1.920   4.074   9.972  0.3639  1.8660 -0.0959
 6367SOL    HW230738   1.927   3.994  10.107  1.0772  0.2694  0.2708
 6368SOL     OW30739   4.729   3.096   1.141  0.3678  0.3353  0.2462
 6368SOL    HW130740   4.644   3.072   1.177 -0.4868  2.2366 -0.4901
 6368SOL    HW230741   4.692   3.170   1.093 -0.6098 -0.7506 -0.6548
 6369SOL     OW30742   4.338   3.157   7.147 -0.4145 -0.3476  0.6228
 6369SOL    HW130743   4.272   3.180   7.081 -1.8506 -2.1844  1.4217
 6369SOL    HW230744   4.369   3.072   7.117 -1.0437 -0.9997  1.8303
 6370SOL     OW30745   3.584   2.016   7.785 -0.2938  0.3514 -0.3995
 6370SOL    HW130746   3.637   1.966   7.723 -0.4893 -1.7474  1.1534
 6370SOL    HW230747   3.634   2.020   7.867 -1.9389  2.2990  0.5155
 6371SOL     OW30748   0.708   0.734   0.964 -0.0657  0.3911 -1.2138
 6371SOL    HW130749   0.769   0.808   0.961  1.1894 -0.5911 -0.0640
 6371SOL    HW230750   0.661   0.759   0.884 -1.9529 -0.6447 -0.4122
 6372SOL     OW30751   3.265   4.508   6.018 -0.2126  0.6598  0.4910
 6372SOL    HW130752   3.292   4.599   6.012 -1.2188  0.9925  0.8794
 6372SOL    HW230753   3.196   4.501   5.951  1.5453 -1.6962 -1.0388
 6373SOL     OW30754   0.342   4.369   5.649 -0.1157  0.1393 -0.0945
 6373SOL    HW130755   0.391   4.345   5.728  0.1481 -0.2519 -0.3732
 6373SOL    HW230756   0.305   4.454   5.672 -2.0641 -1.0778  1.2416
 6374SOL     OW30757   1.067   1.825   7.042 -0.1744 -0.0311  0.1085
 6374SOL    HW130758   1.154   1.818   7.082 -0.5469 -2.5057  0.4812
 6374SOL    HW230759   1.052   1.746   6.989  0.8415 -0.1762  0.0304
 6375SOL     OW30760   1.308   1.492  17.509 -0.2411 -0.5662  0.2298
 6375SOL    HW130761   1.298   1.581  17.544 -0.1202 -0.9531  1.2600
 6375SOL    HW230762   1.284   1.501  17.417 -0.7447  1.0633  0.5293
 6376SOL     OW30763   4.058   3.141   6.736 -0.1754 -0.4291  0.8024
 6376SOL    HW130764   4.023   3.122   6.649  2.1997  2.1911 -0.7371
 6376SOL    HW230765   4.020   3.065   6.780 -0.2780 -0.2806  0.9696
 6377SOL     OW30766   3.934   1.717   9.335 -0.5631  0.3865  0.0861
 6377SOL    HW130767   3.940   1.785   9.268  1.5200 -1.8918 -2.0880
 6377SOL    HW230768   3.911   1.771   9.410  0.8789  0.0080  0.8217
 6378SOL     OW30769   0.719   2.731   2.599  0.5004  0.4413 -0.1344
 6378SOL    HW130770   0.728   2.636   2.612  0.0442  0.3681 -0.3608
 6378SOL    HW230771   0.798   2.755   2.551 -0.6491 -0.3922 -2.4217
 6379SOL     OW30772   2.209   4.338   6.869  0.0058  0.2380  0.2943
 6379SOL    HW130773   2.275   4.400   6.838 -0.0094 -0.4288 -1.0329
 6379SOL    HW230774   2.130   4.375   6.830  0.1615  0.2263 -0.0311
 6380SOL     OW30775   3.270   0.137   1.683 -0.5151 -0.8788 -0.0005
 6380SOL    HW130776   3.321   0.147   1.602  0.3532 -3.1905  0.2553
 6380SOL    HW230777   3.188   0.103   1.649 -0.7695 -0.0746 -0.2065
 6381SOL     OW30778   1.632   2.250   1.617  0.1658 -0.3595  0.0366
 6381SOL    HW130779   1.564   2.311   1.589 -0.1718 -1.2503 -1.0715
 6381SOL    HW230780   1.701   2.292   1.565 -1.7560  1.0947 -1.3226
 6382SOL     OW30781   1.377   1.080   9.097  1.0019  0.4346  0.1972
 6382SOL    HW130782   1.341   1.069   9.009  0.9007 -0.5456  0.3602
 6382SOL    HW230783   1.329   1.158   9.125 -0.7432 -0.5608 -0.0418
 6383SOL     OW30784   1.761   2.776   9.373 -0.5092 -0.1776  0.1590
 6383SOL    HW130785   1.770   2.811   9.284  0.9697  0.2995  0.5026
 6383SOL    HW230786   1.711   2.846   9.414 -1.2310 -1.7023  1.8526
 6384SOL     OW30787   4.216   3.879   4.337  0.2709 -0.2463 -0.1362
 6384SOL    HW130788   4.130   3.865   4.377 -0.2820  1.7317 -0.6414
 6384SOL    HW230789   4.202   3.952   4.277 -0.2694  0.2351  0.5640
 6385SOL     OW30790   1.064   1.269   3.444 -0.0673 -0.0065 -0.1882
 6385SOL    HW130791   0.976   1.240   3.469 -0.1837 -0.9577 -1.7498
 6385SOL    HW230792   1.051   1.353   3.400  0.2305  0.7177  1.1076
 6386SOL     OW30793   3.028   0.864   7.776 -0.0398  0.2700 -0.5959
 6386SOL    HW130794   2.944   0.866   7.731  0.1006 -1.4113 -0.9416
 6386SOL    HW230795   3.006   0.811   7.853 -2.3919  0.0181 -1.4382
 6387SOL     OW30796   2.796   4.615   9.216  0.2010 -0.0318  0.3989
 6387SOL    HW130797   2.807   4.703   9.253 -0.3280  0.1614  0.1072
 6387SOL    HW230798   2.720   4.589   9.269 -0.1957 -0.1660 -0.2319
 6388SOL     OW30799   4.495   4.111   6.181 -0.2386  0.3599 -0.5673
 6388SOL    HW130800   4.530   4.185   6.132  0.8519  0.6522  0.6532
 6388SOL    HW230801   4.483   4.048   6.110 -0.5700  0.9073 -0.9976
 6389SOL     OW30802   4.488   4.167   9.284 -0.8963 -0.0402  0.1461
 6389SOL    HW130803   4.561   4.122   9.241 -0.7341 -0.1693  0.5586
 6389SOL    HW230804   4.534   4.229   9.340  1.4736  0.3706 -2.2552
 6390SOL     OW30805   0.503   4.515   8.555  0.6293  0.5446  0.5310
 6390SOL    HW130806   0.497   4.602   8.595 -1.1270  0.7357 -0.1745
 6390SOL    HW230807   0.415   4.491   8.527  0.5714  1.0879  0.2307
 6391SOL     OW30808   0.693   0.930   1.879 -0.2600 -0.0282  0.3150
 6391SOL    HW130809   0.632   0.991   1.839 -0.3544 -0.4134 -0.1220
 6391SOL    HW230810   0.749   0.918   1.803  0.0979  2.1288  0.2395
 6392SOL     OW30811   3.071   1.004   0.872 -0.1025 -0.2321 -0.4608
 6392SOL    HW130812   2.983   1.042   0.868  0.1264  0.4909  1.1692
 6392SOL    HW230813   3.091   0.988   0.780 -1.9383 -1.4360 -0.6598
 6393SOL     OW30814   0.135   3.375   4.299  0.4061  0.2320  0.1804
 6393SOL    HW130815   0.090   3.292   4.284 -1.2899  0.6593  2.7683
 6393SOL    HW230816   0.223   3.350   4.272  0.1055 -0.9730  0.3137
 6394SOL     OW30817   3.676   3.286   7.065 -0.1047  0.5717  0.4113
 6394SOL    HW130818   3.750   3.302   7.006  0.4785 -0.2600  0.9054
 6394SOL    HW230819   3.698   3.200   7.101 -2.8434 -1.0770 -1.8716
 6395SOL     OW30820   0.571   1.021   3.088 -0.3634  0.1470  0.1477
 6395SOL    HW130821   0.563   1.005   3.182  0.8339 -0.9881  0.0528
 6395SOL    HW230822   0.485   1.015   3.046 -0.2124  0.2849 -0.1818
 6396SOL     OW30823   3.546   3.342   6.680 -0.2916  1.1536 -0.1135
 6396SOL    HW130824   3.530   3.434   6.660 -1.0070  1.1847  0.5833
 6396SOL    HW230825   3.513   3.340   6.770 -0.5671 -1.3948 -0.2491
 6397SOL     OW30826   0.094   1.137   8.424  0.0332 -0.2657  0.4637
 6397SOL    HW130827   0.139   1.188   8.357 -0.0363 -0.4793  0.2553
 6397SOL    HW230828   0.157   1.149   8.496  0.7402 -2.3214  0.2129
 6398SOL     OW30829   2.908   1.086   4.225 -0.3736  0.3368  0.1635
 6398SOL    HW130830   2.999   1.108   4.246  0.0123 -1.2495  0.1801
 6398SOL    HW230831   2.919   1.070   4.131  3.3147 -0.3582  0.6966
 6399SOL     OW30832   0.095   4.709   8.437  0.3700  0.7583 -0.4940
 6399SOL    HW130833   0.068   0.022   8.514  1.2639  1.5641 -0.7129
 6399SOL    HW230834   0.130   4.630   8.478 -0.6300  1.2690  1.3365
 6400SOL     OW30835   4.158   0.136   1.879  0.0902  0.1693 -0.6957
 6400SOL    HW130836   4.220   0.209   1.868  0.0461  0.0981 -1.4084
 6400SOL    HW230837   4.077   0.185   1.891 -0.1576  0.3247 -3.0578
 6401SOL     OW30838   4.053   1.821   9.079 -0.3777 -0.5734 -0.4144
 6401SOL    HW130839   4.000   1.871   9.017  0.8385  3.3640  1.7645
 6401SOL    HW230840   4.142   1.848   9.056 -0.5824 -0.9334 -1.6614
 6402SOL     OW30841   2.256   4.154   2.751  0.3844  0.7817 -0.2503
 6402SOL    HW130842   2.282   4.158   2.843  1.9291  0.9426 -0.6938
 6402SOL    HW230843   2.161   4.150   2.762  0.3885 -1.2420 -0.9435
 6403SOL     OW30844   0.933   4.197   5.836 -0.2521 -0.2301 -0.2674
 6403SOL    HW130845   0.943   4.205   5.931 -1.8433  0.6223 -0.1738
 6403SOL    HW230846   0.902   4.107   5.822  3.1661 -1.6301  1.0768
 6404SOL     OW30847   3.596   2.273   1.993 -0.7663 -0.3994  0.3289
 6404SOL    HW130848   3.535   2.319   1.937  2.2706  1.1906 -1.6557
 6404SOL    HW230849   3.668   2.270   1.931 -1.5044 -1.7932 -0.4510
 6405SOL     OW30850   1.590   2.961  11.059  0.1311 -0.3533 -0.0995
 6405SOL    HW130851   1.672   2.939  11.015 -1.5065 -1.3968 -2.6145
 6405SOL    HW230852   1.630   2.987  11.142 -0.4352  0.0397  0.0480
 6406SOL     OW30853   4.662   2.566   3.265  0.1727  0.0659  0.2131
 6406SOL    HW130854   0.011   2.603   3.249 -0.5853  1.2155 -1.2545
 6406SOL    HW230855   4.638   2.564   3.172 -1.2935 -0.5284  0.5986
 6407SOL     OW30856   4.463   2.358   1.929 -0.6973  0.3248 -0.0710
 6407SOL    HW130857   4.405   2.325   1.997 -0.3347  1.8870  1.0039
 6407SOL    HW230858   4.398   2.415   1.889 -1.6078 -0.7586 -0.1228
 6408SOL     OW30859   4.722   0.153   2.408  0.2532  0.4889  0.9519
 6408SOL    HW130860   0.062   0.102   2.387 -0.0017 -0.7478  2.9368
 6408SOL    HW230861   0.024   0.239   2.405  0.8860  0.1179 -1.1013
 6409SOL     OW30862   1.204   0.852  14.380 -0.2989 -0.5087  1.2431
 6409SOL    HW130863   1.162   0.809  14.305  1.1115  1.4595 -0.6609
 6409SOL    HW230864   1.159   0.799  14.446 -0.8813 -0.7667  0.6444
 6410SOL     OW30865   1.514   1.387   5.333 -0.2433 -0.5995 -0.9767
 6410SOL    HW130866   1.500   1.341   5.415  0.1455  1.1165  0.0571
 6410SOL    HW230867   1.574   1.328   5.287 -1.1840  0.4146 -3.5286
 6411SOL     OW30868   3.173   1.258   5.852  0.0828 -0.5594  0.1739
 6411SOL    HW130869   3.173   1.353   5.861 -1.7934 -0.2869 -2.3919
 6411SOL    HW230870   3.220   1.223   5.927  2.5352  1.5282 -0.3666
 6412SOL     OW30871   1.083   3.704   2.317  0.4178  0.3539  0.4706
 6412SOL    HW130872   1.106   3.707   2.409  0.7541  0.6889  0.3770
 6412SOL    HW230873   1.082   3.796   2.291 -1.6472  0.6428  1.6104
 6413SOL     OW30874   2.080   4.111   6.564 -0.3740 -0.6160  0.2813
 6413SOL    HW130875   2.123   4.138   6.483 -0.1873 -0.9373  0.2740
 6413SOL    HW230876   2.008   4.173   6.554 -0.0222 -0.2901 -0.2515
 6414SOL     OW30877   1.291   0.197   2.318  0.0105  0.8945 -0.4144
 6414SOL    HW130878   1.280   0.290   2.341 -1.3320  0.3215  1.2695
 6414SOL    HW230879   1.262   0.186   2.228  0.9724  0.3369 -0.6611
 6415SOL     OW30880   0.751   3.601   5.153 -0.2380  0.0612  0.1348
 6415SOL    HW130881   0.730   3.544   5.079 -0.7916  0.6133 -0.1344
 6415SOL    HW230882   0.802   3.676   5.120 -1.5758  0.8764 -0.1141
 6416SOL     OW30883   2.103   0.351   5.378 -0.2786  0.1666 -0.0818
 6416SOL    HW130884   2.083   0.304   5.297 -0.3546 -1.2008  0.7373
 6416SOL    HW230885   2.022   0.339   5.428  0.0796  1.4441  0.8084
 6417SOL     OW30886   2.394   3.653  13.182  0.1817 -0.2064 -0.6016
 6417SOL    HW130887   2.337   3.628  13.255 -0.9681 -0.6775 -1.6556
 6417SOL    HW230888   2.339   3.716  13.134  1.4639  1.1197 -0.3016
 6418SOL     OW30889   3.780   0.260   8.556  0.0640 -0.2092 -0.6211
 6418SOL    HW130890   3.803   0.168   8.572 -1.2467  0.0597  2.8465
 6418SOL    HW230891   3.690   0.258   8.522 -0.5976 -0.9844  1.1727
 6419SOL     OW30892   1.861   1.237  15.574  0.3497  0.3035 -0.8988
 6419SOL    HW130893   1.865   1.259  15.481  0.1719 -3.3737 -1.7720
 6419SOL    HW230894   1.784   1.285  15.606 -0.9294 -0.7645 -2.3932
 6420SOL     OW30895   4.586   0.805   2.899  0.2302  0.0481 -0.2083
 6420SOL    HW130896   4.649   0.760   2.954  1.0643  0.7484 -0.5940
 6420SOL    HW230897   4.637   0.877   2.861 -1.2301  0.9258 -0.5148
 6421SOL     OW30898   0.765   0.192   7.229  0.6762 -0.4219  0.0447
 6421SOL    HW130899   0.806   0.237   7.302  0.2440 -0.7952  0.5164
 6421SOL    HW230900   0.833   0.131   7.200  1.8297  0.7679  0.2989
 6422SOL     OW30901   2.046   2.582   3.421  0.5363  0.0299  0.0844
 6422SOL    HW130902   2.051   2.626   3.336  2.0518 -0.5279 -0.1064
 6422SOL    HW230903   1.955   2.553   3.418  1.1703 -1.9782 -0.4270
 6423SOL     OW30904   3.850   2.322   7.869 -0.1750  0.2723 -0.2905
 6423SOL    HW130905   3.779   2.372   7.831  0.3097  0.3455 -1.1052
 6423SOL    HW230906   3.901   2.290   7.794  1.2978  4.4535 -1.0914
 6424SOL     OW30907   3.370   2.368  16.917  0.6545  1.2256 -0.1059
 6424SOL    HW130908   3.279   2.343  16.898  0.6796  0.5400  0.6784
 6424SOL    HW230909   3.369   2.365  17.013  1.8763  1.1732 -0.0983
 6425SOL     OW30910   0.753   2.139   2.399  0.0825 -0.0782 -0.0457
 6425SOL    HW130911   0.666   2.177   2.385  0.5918  1.7877  1.8300
 6425SOL    HW230912   0.744   2.082   2.475  0.4843 -0.0712  0.0054
 6426SOL     OW30913   2.258   0.764   2.799 -0.4434  0.4835 -0.4890
 6426SOL    HW130914   2.215   0.821   2.735  2.0306  2.4914 -0.3667
 6426SOL    HW230915   2.180   0.716   2.827  0.2851 -0.5013 -0.1801
 6427SOL     OW30916   4.238   1.301   3.255  0.3461 -0.3422  0.1289
 6427SOL    HW130917   4.166   1.343   3.208  1.7596  0.5177 -1.2683
 6427SOL    HW230918   4.222   1.207   3.258 -1.4598 -0.0021  1.4731
 6428SOL     OW30919   2.436   0.392   7.302 -0.2388  0.0794  0.2203
 6428SOL    HW130920   2.409   0.484   7.313  0.4102  0.3127 -0.1442
 6428SOL    HW230921   2.357   0.356   7.263  0.0501 -3.0024  2.4738
 6429SOL     OW30922   2.556   3.828  13.029  0.3470 -0.9003 -0.4333
 6429SOL    HW130923   2.571   3.896  13.094 -1.4108  1.0729 -2.1033
 6429SOL    HW230924   2.522   3.762  13.089  2.5481 -1.5866  0.0572
 6430SOL     OW30925   0.117   3.891   9.234  0.7050 -0.1005  0.1455
 6430SOL    HW130926   0.185   3.824   9.241  1.1181  0.2191 -0.8542
 6430SOL    HW230927   0.129   3.935   9.318 -1.6743  1.4294 -0.3084
 6431SOL     OW30928   0.019   0.964   3.561  0.3310  0.3735  0.1559
 6431SOL    HW130929   0.025   0.988   3.469  1.4010  0.8396  0.3465
 6431SOL    HW230930   0.096   0.996   3.608  0.5240 -0.3094  0.3030
 6432SOL     OW30931   2.327   0.472   0.130 -0.0518 -0.1600  0.4466
 6432SOL    HW130932   2.408   0.487   0.178  1.2314  1.7079 -2.2527
 6432SOL    HW230933   2.266   0.444   0.198 -0.4252 -0.7732 -0.1379
 6433SOL     OW30934   1.177   0.269   5.370 -0.0154  0.0895 -0.5142
 6433SOL    HW130935   1.229   0.214   5.428 -3.4935 -2.6907 -0.0377
 6433SOL    HW230936   1.091   0.263   5.413  0.6925  0.4708  0.9735
 6434SOL     OW30937   0.140   3.320   1.382  0.4461 -0.2601  0.5589
 6434SOL    HW130938   0.155   3.264   1.458 -0.1171 -0.9575  0.1590
 6434SOL    HW230939   0.177   3.262   1.315  0.0423  0.9710 -0.7086
 6435SOL     OW30940   2.033   1.804   9.907 -0.5641 -0.6980 -0.3099
 6435SOL    HW130941   2.025   1.767   9.819 -1.7289 -0.2173 -0.4074
 6435SOL    HW230942   2.072   1.890   9.888  3.6857 -2.5480  0.0059
 6436SOL     OW30943   0.138   2.852   2.239 -0.0125  0.3062 -0.9708
 6436SOL    HW130944   0.044   2.862   2.252  0.0442 -0.2830 -0.0712
 6436SOL    HW230945   0.142   2.787   2.169  1.8745  1.2967 -1.7813
 6437SOL     OW30946   2.265   4.735   6.519 -0.1318 -0.2874 -0.6311
 6437SOL    HW130947   2.355   0.004   6.486 -0.2474 -1.7013 -1.2447
 6437SOL    HW230948   2.271   0.004   6.614  1.9485  0.5658 -0.8158
 6438SOL     OW30949   2.227   1.459   8.124  0.2525  0.4781 -0.6019
 6438SOL    HW130950   2.153   1.398   8.119 -0.5618  1.3009  1.5863
 6438SOL    HW230951   2.199   1.532   8.179 -1.6331  1.2044 -2.5233
 6439SOL     OW30952   0.834   2.899  13.872  0.2502  0.3218 -0.3472
 6439SOL    HW130953   0.773   2.967  13.899  1.6921  1.6364 -0.4218
 6439SOL    HW230954   0.770   2.834  13.841  1.6223 -0.8803 -0.6657
 6440SOL     OW30955   1.643   2.307   8.833 -0.2724 -0.3788  1.0928
 6440SOL    HW130956   1.700   2.365   8.783  0.0451 -1.0501  0.6686
 6440SOL    HW230957   1.655   2.229   8.779  0.3586  0.5692 -0.1340
 6441SOL     OW30958   2.363   4.243   4.141 -0.0872  0.3184 -0.0037
 6441SOL    HW130959   2.389   4.318   4.194 -0.0268  1.5109 -1.7049
 6441SOL    HW230960   2.415   4.239   4.061  0.2467 -1.2702  0.3074
 6442SOL     OW30961   2.918   0.375   6.377  0.1371 -0.2391 -0.1583
 6442SOL    HW130962   2.896   0.380   6.284 -0.1103  1.0874 -0.0237
 6442SOL    HW230963   3.012   0.392   6.379  0.2598 -0.9665  0.6916
 6443SOL     OW30964   4.106   1.954   3.573 -0.1198 -0.3415  0.2151
 6443SOL    HW130965   4.080   1.919   3.658  0.1880  2.0357  1.2796
 6443SOL    HW230966   4.195   1.986   3.587  0.6942 -3.1455  1.3928
 6444SOL     OW30967   1.368   0.797   7.253 -0.0566 -0.5450  0.3415
 6444SOL    HW130968   1.399   0.869   7.199 -1.2433 -0.7992 -0.6630
 6444SOL    HW230969   1.290   0.771   7.205  0.2009 -0.6714 -0.0122
 6445SOL     OW30970   0.719   0.565   3.632 -0.3365  0.4487  0.6663
 6445SOL    HW130971   0.779   0.504   3.591 -0.5667  2.8084 -3.1686
 6445SOL    HW230972   0.676   0.502   3.689  0.8957  0.4790  1.6290
 6446SOL     OW30973   0.954   4.026   7.277 -0.3561 -0.2475 -0.7251
 6446SOL    HW130974   0.913   3.943   7.301  0.2671 -0.9031 -1.9166
 6446SOL    HW230975   0.913   4.037   7.191 -1.3709  0.1772 -0.1973
 6447SOL     OW30976   2.703   2.458   5.975 -0.3251 -0.0760 -0.6989
 6447SOL    HW130977   2.661   2.506   6.046 -1.8073 -2.2459 -0.1117
 6447SOL    HW230978   2.671   2.369   5.984  0.9659 -0.4224  0.3847
 6448SOL     OW30979   3.210   2.523   8.440  0.1603 -0.3176  0.0669
 6448SOL    HW130980   3.291   2.473   8.426 -0.1539 -0.7198 -0.2662
 6448SOL    HW230981   3.156   2.459   8.486 -1.3986  0.3221 -0.8797
 6449SOL     OW30982   1.716   1.461  15.702  0.0525 -0.1066 -0.5034
 6449SOL    HW130983   1.745   1.531  15.760  2.1738 -1.9494  0.6702
 6449SOL    HW230984   1.628   1.433  15.729 -0.5396  3.1046  0.8811
 6450SOL     OW30985   2.180   1.541   4.456  0.0833  0.0145 -0.5390
 6450SOL    HW130986   2.263   1.578   4.486 -1.0768  1.5137  0.8771
 6450SOL    HW230987   2.220   1.459   4.427 -0.8786 -1.3123  1.8309
 6451SOL     OW30988   0.459   1.191  17.535 -0.0485 -0.3015 -0.1410
 6451SOL    HW130989   0.479   1.280  17.505  0.4886  0.6299  2.9980
 6451SOL    HW230990   0.365   1.202  17.548  0.0356  0.9740 -0.6034
 6452SOL     OW30991   1.570   4.684   5.568 -0.0926 -0.1480  0.2527
 6452SOL    HW130992   1.653   4.640   5.548 -0.9629 -0.7520 -2.0953
 6452SOL    HW230993   1.504   4.628   5.527 -1.2839  0.6282  1.1283
 6453SOL     OW30994   4.735   0.889  15.553  0.2928  0.3474  0.4892
 6453SOL    HW130995   0.033   0.975  15.575 -0.6728  1.0342 -0.6350
 6453SOL    HW230996   0.073   0.834  15.572 -1.5569 -2.7338 -1.1292
 6454SOL     OW30997   1.017   4.059   5.028 -0.0136  0.0259  0.2855
 6454SOL    HW130998   1.055   4.136   5.070 -0.9889  1.0736 -0.7759
 6454SOL    HW230999   0.952   4.107   4.978  0.6576 -0.6086 -1.1849
 6455SOL     OW31000   2.857   4.355   3.198  0.6179 -0.2989  0.3969
 6455SOL    HW131001   2.883   4.342   3.107  3.9678 -0.6848  1.4113
 6455SOL    HW231002   2.902   4.437   3.221 -0.7497  0.7617 -0.7326
 6456SOL     OW31003   1.469   4.477   4.816 -0.0233  0.4805  0.4143
 6456SOL    HW131004   1.469   4.482   4.911  1.6426  0.8041  0.3957
 6456SOL    HW231005   1.549   4.522   4.788 -0.0358  0.1901 -0.0853
 6457SOL     OW31006   3.029   4.399  12.091  0.3129 -0.0612 -0.2876
 6457SOL    HW131007   2.963   4.330  12.093  0.4259 -0.1157  1.1254
 6457SOL    HW231008   2.994   4.470  12.145  2.2823  0.7951 -0.1398
 6458SOL     OW31009   4.594   4.135   0.437  0.5024  0.3244 -0.4505
 6458SOL    HW131010   4.628   4.099   0.356  0.9391 -2.2394  0.8500
 6458SOL    HW231011   4.667   4.168   0.489  0.3438 -2.3372  1.4778
 6459SOL     OW31012   1.164   2.677   9.221 -0.0015  0.0726 -0.5555
 6459SOL    HW131013   1.154   2.698   9.314  1.6756 -1.6624  0.0254
 6459SOL    HW231014   1.245   2.627   9.230 -0.9045 -1.2338  0.3030
 6460SOL     OW31015   2.544   3.972  14.431 -0.3796  0.2139 -0.4798
 6460SOL    HW131016   2.527   3.969  14.337 -0.0823 -1.3434 -0.4755
 6460SOL    HW231017   2.468   3.938  14.477 -0.4798 -0.5822 -1.2470
 6461SOL     OW31018   1.470   4.021  13.172 -0.3777 -0.1626  0.0060
 6461SOL    HW131019   1.382   3.984  13.179 -0.1337 -0.1780  3.3502
 6461SOL    HW231020   1.465   4.084  13.101  1.7077 -0.8356 -0.7225
 6462SOL     OW31021   3.999   3.031   0.199  0.6829  0.0304  0.2691
 6462SOL    HW131022   4.026   2.993   0.115 -0.8898  0.4970 -0.4303
 6462SOL    HW231023   3.985   2.951   0.249 -1.1775 -0.0920 -0.4802
 6463SOL     OW31024   0.265   1.674   6.915 -0.2358 -0.0975  0.1235
 6463SOL    HW131025   0.215   1.724   6.980  0.6148 -0.3620  0.9951
 6463SOL    HW231026   0.258   1.586   6.953 -0.0759 -1.0992 -2.2113
 6464SOL     OW31027   2.486   0.232  10.634 -0.0502  0.2507 -0.9039
 6464SOL    HW131028   2.474   0.159  10.573 -1.2809  0.8514 -1.3926
 6464SOL    HW231029   2.408   0.284  10.612 -0.2743  0.0666 -0.5545
 6465SOL     OW31030   1.361   1.017   5.204  0.6908 -0.3875 -0.7898
 6465SOL    HW131031   1.287   1.078   5.204  2.1416  1.3658 -0.6928
 6465SOL    HW231032   1.343   0.955   5.275  0.2756  0.7641  0.0938
 6466SOL     OW31033   3.366   1.679   6.449  0.6577 -0.2563  0.4096
 6466SOL    HW131034   3.324   1.764   6.437  1.0455 -0.2054 -0.6420
 6466SOL    HW231035   3.375   1.678   6.544  2.2953  0.5126  0.2781
 6467SOL     OW31036   0.446   2.569   4.515 -0.1576  0.0907  0.0989
 6467SOL    HW131037   0.391   2.519   4.454  0.2648 -1.6818  1.1838
 6467SOL    HW231038   0.423   2.656   4.480  0.4760 -0.1216 -0.8473
 6468SOL     OW31039   0.633   0.080  16.019  0.1692 -0.1978  0.0290
 6468SOL    HW131040   0.694   0.007  16.030  0.6747  0.4658  1.6212
 6468SOL    HW231041   0.678   0.157  16.055  0.3740 -0.9344  1.3317
 6469SOL     OW31042   0.140   0.035   3.067  0.1907 -0.3596 -0.2875
 6469SOL    HW131043   0.109   4.704   3.125  2.6606  0.9314  2.5567
 6469SOL    HW231044   0.221   0.002   3.028  0.8596 -0.6363  1.3368
 6470SOL     OW31045   3.922   1.087  11.604 -0.2675  0.3827  0.0110
 6470SOL    HW131046   3.901   1.146  11.676 -1.4700 -1.4438  1.1757
 6470SOL    HW231047   3.938   1.006  11.653 -3.2908  0.6920  1.5036
 6471SOL     OW31048   4.446   1.104   7.825 -0.1828 -0.5647  0.3249
 6471SOL    HW131049   4.430   1.077   7.916  0.5296 -0.5712  0.4504
 6471SOL    HW231050   4.478   1.193   7.841  1.5573 -0.6706 -2.4977
 6472SOL     OW31051   4.364   1.870   8.652 -0.2043 -0.1940  0.2733
 6472SOL    HW131052   4.366   1.782   8.613 -2.7608 -0.8672  1.6155
 6472SOL    HW231053   4.376   1.851   8.745 -1.7282 -1.6483  0.1954
 6473SOL     OW31054   2.747   1.036   7.287  0.4149  0.3545  0.2584
 6473SOL    HW131055   2.805   1.087   7.343 -0.4696 -0.4326  1.9001
 6473SOL    HW231056   2.791   1.050   7.204 -0.5154  0.3081 -0.2463
 6474SOL     OW31057   0.857   0.491   1.017 -0.4386  0.0050 -0.3390
 6474SOL    HW131058   0.832   0.464   0.929 -0.5885  2.2225 -0.9702
 6474SOL    HW231059   0.817   0.578   1.013 -0.9685 -0.0946  2.7064
 6475SOL     OW31060   1.683   2.141   7.099  0.0743  0.1421  0.1279
 6475SOL    HW131061   1.602   2.186   7.079 -0.5651 -1.2905 -0.5451
 6475SOL    HW231062   1.730   2.182   7.026 -0.0566 -2.2433 -1.3124
 6476SOL     OW31063   2.320   0.727   5.791  0.3214 -0.3357 -0.0179
 6476SOL    HW131064   2.276   0.701   5.872 -0.4646 -1.7009 -0.8833
 6476SOL    HW231065   2.392   0.776   5.831  0.9020  0.1766 -1.6889
 6477SOL     OW31066   1.816   1.192   3.310  0.4589 -0.1326 -0.3395
 6477SOL    HW131067   1.853   1.269   3.267  1.6842 -0.2044  0.5821
 6477SOL    HW231068   1.757   1.227   3.377  0.5774  0.5357 -0.5841
 6478SOL     OW31069   0.636   3.547   6.278 -0.3956  0.1580 -0.2258
 6478SOL    HW131070   0.558   3.543   6.334  0.5718 -0.6849  1.0731
 6478SOL    HW231071   0.611   3.507   6.195  2.5963 -1.0678 -0.5364
 6479SOL     OW31072   0.852   3.570  17.644 -0.0683 -0.2578 -0.0291
 6479SOL    HW131073   0.802   3.632  17.696 -0.9304 -1.0206  0.0551
 6479SOL    HW231074   0.904   3.528  17.713 -0.2917  0.2972  0.4780
 6480SOL     OW31075   0.382   1.630   9.593  0.8909  0.1683 -0.3314
 6480SOL    HW131076   0.420   1.560   9.647  1.0972 -0.0460 -0.7552
 6480SOL    HW231077   0.312   1.582   9.549  0.9973 -1.2881  1.0979
 6481SOL     OW31078   0.606   0.884   5.116  0.0505 -0.1280 -0.5566
 6481SOL    HW131079   0.628   0.946   5.046  0.3190 -0.5458 -0.8481
 6481SOL    HW231080   0.551   0.817   5.074  0.2392  0.4048 -1.6717
 6482SOL     OW31081   0.989   0.727   5.138 -0.2961 -0.0217  0.5923
 6482SOL    HW131082   0.958   0.810   5.174  2.5881  0.3021  2.3604
 6482SOL    HW231083   1.013   0.679   5.217 -3.1965 -3.3364 -0.5173
 6483SOL     OW31084   3.248   0.462   8.856 -0.3536  0.2427 -0.1214
 6483SOL    HW131085   3.248   0.489   8.764  0.3063  0.1769 -0.1415
 6483SOL    HW231086   3.315   0.394   8.864 -0.6889  0.3427  3.5736
 6484SOL     OW31087   2.470   0.948   5.052 -0.3138  1.0545 -0.0887
 6484SOL    HW131088   2.555   0.907   5.036 -1.6334 -1.8147  0.2665
 6484SOL    HW231089   2.437   0.944   4.963  1.1077 -3.4009 -0.4424
 6485SOL     OW31090   2.271   3.965   3.694  0.6531  0.1102 -0.5059
 6485SOL    HW131091   2.297   3.888   3.643  2.7575  1.1323 -0.9761
 6485SOL    HW231092   2.298   3.943   3.783 -2.1627 -1.3482 -0.0068
 6486SOL     OW31093   3.785   2.427  13.785 -0.3090 -0.1487 -0.5132
 6486SOL    HW131094   3.703   2.468  13.812 -0.2541 -1.0882  1.0384
 6486SOL    HW231095   3.795   2.349  13.839  0.3162 -1.1347 -2.0418
 6487SOL     OW31096   4.339   3.362   5.624  0.5706 -0.1620  0.8040
 6487SOL    HW131097   4.280   3.389   5.555  0.8415  2.1684  1.4997
 6487SOL    HW231098   4.422   3.361   5.577  0.2167 -0.7977  0.1989
 6488SOL     OW31099   3.315   1.599   2.658  0.3684 -0.2252 -0.3678
 6488SOL    HW131100   3.355   1.685   2.671  1.0135 -1.0968  3.3621
 6488SOL    HW231101   3.391   1.543   2.641  2.5660  2.4059  0.7480
 6489SOL     OW31102   2.833   4.565  12.292  0.0325 -0.5154 -0.1355
 6489SOL    HW131103   2.795   4.576  12.379  0.8848  4.1593 -0.3458
 6489SOL    HW231104   2.812   4.650  12.253  0.6290  0.2664  1.2414
 6490SOL     OW31105   3.932   4.202   6.533  0.0762 -0.6914  0.4613
 6490SOL    HW131106   3.848   4.186   6.490  0.0603 -0.4471  0.4002
 6490SOL    HW231107   3.982   4.123   6.514 -0.0900 -0.7356  0.2090
 6491SOL     OW31108   4.652   0.933   7.675 -0.4581  0.2631  0.2560
 6491SOL    HW131109   0.004   0.962   7.656 -1.9537  2.5135 -3.4035
 6491SOL    HW231110   4.643   0.986   7.754  1.5869  0.0091  0.6597
 6492SOL     OW31111   0.746   1.614   6.221  0.0552 -0.7140  0.5440
 6492SOL    HW131112   0.727   1.522   6.241 -0.8907 -0.8398 -0.9976
 6492SOL    HW231113   0.742   1.647   6.311 -1.6382 -0.4618  0.3667
 6493SOL     OW31114   2.705   0.398   2.802 -0.8151  0.4299 -0.4741
 6493SOL    HW131115   2.761   0.466   2.765  1.0172  0.8796  3.1386
 6493SOL    HW231116   2.711   0.325   2.740 -0.1973 -0.1735  0.2977
 6494SOL     OW31117   4.592   4.660  17.331  0.1809 -0.1751 -0.1967
 6494SOL    HW131118   4.617   4.581  17.379  1.4501  0.3529  0.0082
 6494SOL    HW231119   4.671   4.660  17.277  0.7213  0.7718  0.5776
 6495SOL     OW31120   2.193   2.759   8.069 -0.4145 -0.4024  0.2079
 6495SOL    HW131121   2.283   2.732   8.089 -0.6485 -1.3406 -0.0061
 6495SOL    HW231122   2.179   2.819   8.142  0.5998 -1.9999  1.7245
 6496SOL     OW31123   3.347   0.267   1.055 -0.1005  0.2555 -0.1564
 6496SOL    HW131124   3.279   0.283   1.121  1.1486  1.4994  0.8322
 6496SOL    HW231125   3.342   0.339   0.992  1.1205  1.5039  1.1532
 6497SOL     OW31126   2.153   3.665   4.413  0.1435  0.6025 -0.0760
 6497SOL    HW131127   2.187   3.609   4.482 -0.5875  0.8279  0.4680
 6497SOL    HW231128   2.237   3.700   4.382 -1.3535  1.4762 -3.1107
 6498SOL     OW31129   3.746   3.917  14.994  0.2590  0.3098  0.9634
 6498SOL    HW131130   3.740   3.823  14.979 -0.6691  0.3852  0.8219
 6498SOL    HW231131   3.836   3.921  14.961  0.7530 -3.9136  1.8087
 6499SOL     OW31132   4.379   2.153  16.280  0.8889 -0.4861 -0.5113
 6499SOL    HW131133   4.373   2.072  16.229  0.8582  0.7575 -2.5135
 6499SOL    HW231134   4.303   2.149  16.338  2.1129  0.5219  1.1482
 6500SOL     OW31135   3.071   3.041   7.560  0.0699 -0.1943  0.5671
 6500SOL    HW131136   3.076   3.134   7.579 -0.7786 -0.2641  1.1507
 6500SOL    HW231137   3.060   3.006   7.649 -0.4383 -0.6973  0.3073
 6501SOL     OW31138   2.062   4.231  14.120  0.3537 -0.2247 -0.0220
 6501SOL    HW131139   2.136   4.262  14.171  2.1079 -1.6018 -1.7311
 6501SOL    HW231140   1.996   4.297  14.142  1.9433  1.7292 -1.0904
 6502SOL     OW31141   3.519   1.351   5.106  0.3492 -0.2988 -0.0731
 6502SOL    HW131142   3.552   1.413   5.171 -2.8431 -1.1346  2.3535
 6502SOL    HW231143   3.523   1.404   5.026 -0.8514 -1.5366 -0.9568
 6503SOL     OW31144   4.011   3.439   5.755  0.5973  0.1006  0.2316
 6503SOL    HW131145   4.052   3.507   5.703  1.2584 -1.5070 -1.3418
 6503SOL    HW231146   3.984   3.483   5.835 -1.9144 -0.2474 -0.4120
 6504SOL     OW31147   4.348   3.311   6.283  0.1573 -0.4678 -0.2881
 6504SOL    HW131148   4.414   3.356   6.336 -0.1304 -1.0821  0.5731
 6504SOL    HW231149   4.313   3.386   6.235  1.5506  0.4353  0.1251
 6505SOL     OW31150   3.745   0.195   1.333  0.0352  0.2123  0.2715
 6505SOL    HW131151   3.700   0.234   1.257  0.4450 -0.0131 -0.0875
 6505SOL    HW231152   3.831   0.237   1.334  0.1367 -0.0327  1.3897
 6506SOL     OW31153   2.885   3.314   9.476  0.2683 -0.4608 -0.9226
 6506SOL    HW131154   2.958   3.353   9.429  0.2709  0.2912 -0.2925
 6506SOL    HW231155   2.897   3.220   9.462  1.4878 -0.3639 -0.5119
 6507SOL     OW31156   3.714   2.710   3.488  0.2894  0.2994  0.1822
 6507SOL    HW131157   3.674   2.662   3.560  0.0574 -1.0147 -0.8214
 6507SOL    HW231158   3.749   2.646   3.426 -1.0820  0.3623 -0.6403
 6508SOL     OW31159   4.322   4.419   7.767 -0.1398  0.3388 -0.1779
 6508SOL    HW131160   4.416   4.419   7.750 -0.1364  1.7092 -0.1059
 6508SOL    HW231161   4.304   4.326   7.753  1.6673 -0.0405  0.0159
 6509SOL     OW31162   1.637   3.111   6.710 -0.3144  0.3569 -0.0750
 6509SOL    HW131163   1.605   3.129   6.798 -0.1151  1.4497 -0.2304
 6509SOL    HW231164   1.554   3.088   6.668 -0.3735 -0.9253  0.7493
 6510SOL     OW31165   2.814   3.433   6.616  0.0103  0.0459 -0.6017
 6510SOL    HW131166   2.859   3.387   6.687  0.4395 -2.4242 -2.4507
 6510SOL    HW231167   2.745   3.368   6.597 -0.0941  0.2405 -0.8854
 6511SOL     OW31168   1.449   2.612   6.917  0.5356 -0.1369 -0.3593
 6511SOL    HW131169   1.520   2.558   6.882  0.2459 -0.0094 -1.1527
 6511SOL    HW231170   1.379   2.549   6.937  2.3739 -1.8676  0.6161
 6512SOL     OW31171   4.616   1.032  15.771  0.3368 -0.2310  0.2719
 6512SOL    HW131172   4.700   1.042  15.814  0.6976  1.9748 -0.9590
 6512SOL    HW231173   4.631   0.955  15.716  0.5572 -1.3889  1.9529
 6513SOL     OW31174   3.762   0.134  16.426 -0.1330 -0.6640  0.0060
 6513SOL    HW131175   3.685   0.166  16.472  0.5735  0.7874  0.1902
 6513SOL    HW231176   3.825   0.207  16.428 -0.5499 -0.2625 -1.2194
 6514SOL     OW31177   1.771   3.985  17.424 -0.1827  0.0149  0.0017
 6514SOL    HW131178   1.693   3.950  17.380  0.9375 -3.9070  1.1113
 6514SOL    HW231179   1.847   3.953  17.376  0.7856  0.7704  1.0198
 6515SOL     OW31180   2.769   2.632   3.272 -0.4525  0.9667  0.2689
 6515SOL    HW131181   2.676   2.618   3.291 -0.3652 -2.0195 -1.5096
 6515SOL    HW231182   2.792   2.690   3.345 -0.6056 -1.3645  2.1553
 6516SOL     OW31183   2.469   1.232   8.336  0.2818  0.0826  0.1902
 6516SOL    HW131184   2.485   1.323   8.310 -1.1591  0.3216  0.1478
 6516SOL    HW231185   2.504   1.186   8.259 -0.9693  0.6364 -0.7100
 6517SOL     OW31186   2.750   0.475   3.047 -0.4851 -0.5447 -0.3657
 6517SOL    HW131187   2.674   0.434   3.087 -0.0070 -2.4438 -1.3958
 6517SOL    HW231188   2.732   0.458   2.954 -0.2188  0.2841 -0.5757
 6518SOL     OW31189   1.452   0.964   8.429 -0.2057  0.0062  0.2191
 6518SOL    HW131190   1.395   1.040   8.442  0.5464  0.2246  2.2385
 6518SOL    HW231191   1.425   0.943   8.339  1.0263  0.7248 -0.3140
 6519SOL     OW31192   2.810   2.970   5.078 -0.5359  0.4299 -0.4209
 6519SOL    HW131193   2.894   2.927   5.061 -0.8083 -1.0730  2.0844
 6519SOL    HW231194   2.744   2.906   5.052 -0.1164 -0.2033  0.0738
 6520SOL     OW31195   2.650   0.856  13.847  0.3087  0.4444 -0.1083
 6520SOL    HW131196   2.598   0.822  13.920 -0.4302  0.5368 -0.5975
 6520SOL    HW231197   2.724   0.864  13.908  0.8492 -2.6254 -0.3814
 6521SOL     OW31198   3.911   1.600   4.593 -0.0929 -0.3414  0.5710
 6521SOL    HW131199   3.999   1.571   4.569 -0.2908  1.0475 -1.8196
 6521SOL    HW231200   3.873   1.517   4.623  0.2235 -0.8142 -0.3165
 6522SOL     OW31201   2.545   3.642   6.659  0.0351 -0.1211  0.0855
 6522SOL    HW131202   2.463   3.691   6.652  1.3298  1.8487 -0.9920
 6522SOL    HW231203   2.514   3.552   6.675  2.0135 -1.0245 -1.1653
 6523SOL     OW31204   2.949   2.877   6.350  0.1887  0.6435 -0.5030
 6523SOL    HW131205   3.036   2.918   6.353  1.5487 -2.2226 -0.9940
 6523SOL    HW231206   2.912   2.898   6.435 -0.0285  0.1868 -0.4842
 6524SOL     OW31207   4.496   2.595  12.979  0.2325  0.0474  1.0270
 6524SOL    HW131208   4.491   2.680  13.022 -0.0469  0.6433 -0.2004
 6524SOL    HW231209   4.407   2.563  12.994  0.0475 -0.0613 -0.3482
 6525SOL     OW31210   0.090   1.089   0.063  0.2343 -0.2740 -0.0107
 6525SOL    HW131211   0.048   1.004   0.079  1.2074 -0.8695 -0.5869
 6525SOL    HW231212   0.022   1.146   0.025  2.7652  0.8308 -2.8729
 6526SOL     OW31213   3.438   3.688   4.084  0.0558  0.0574 -0.1171
 6526SOL    HW131214   3.497   3.660   4.014  0.9856  1.2744  0.1718
 6526SOL    HW231215   3.450   3.782   4.068  0.3571 -0.3160 -1.9786
 6527SOL     OW31216   0.221   4.194   2.313  0.7124 -0.3579  0.2986
 6527SOL    HW131217   0.262   4.156   2.391  0.6557 -2.4501 -0.6831
 6527SOL    HW231218   0.271   4.155   2.241  1.3406  1.3846 -0.1971
 6528SOL     OW31219   0.609   1.224   9.568 -0.1667  0.0233 -0.5007
 6528SOL    HW131220   0.556   1.206   9.491 -2.7946 -2.6862  1.9342
 6528SOL    HW231221   0.539   1.253   9.626 -1.2269 -4.0956  0.2296
 6529SOL     OW31222   3.150   2.759   4.607 -0.3579  0.8183 -0.0470
 6529SOL    HW131223   3.174   2.718   4.690  1.2616 -0.6846 -1.2470
 6529SOL    HW231224   3.194   2.844   4.601  0.2507  0.2246 -3.9829
 6530SOL     OW31225   1.139   1.386  10.750 -0.2247 -0.5117 -0.3962
 6530SOL    HW131226   1.100   1.461  10.796 -1.2271 -0.8681 -0.6823
 6530SOL    HW231227   1.230   1.416  10.758 -0.8774  1.4608 -0.1926
 6531SOL     OW31228   1.711   0.497   4.186  0.5433  0.0868  0.0294
 6531SOL    HW131229   1.705   0.542   4.271  0.6497  1.6531 -0.7884
 6531SOL    HW231230   1.621   0.477   4.161 -0.1703  1.1946  1.7260
 6532SOL     OW31231   3.683   2.825   5.869  0.9522  0.2948  0.0860
 6532SOL    HW131232   3.690   2.732   5.849 -1.2402  0.1895 -0.1952
 6532SOL    HW231233   3.712   2.860   5.785 -0.1515 -2.9666 -1.6122
 6533SOL     OW31234   2.116   2.463   7.868  0.0436  0.2767  0.2621
 6533SOL    HW131235   2.201   2.482   7.906  1.5220 -0.6295 -2.5960
 6533SOL    HW231236   2.058   2.450   7.943 -0.7896  1.8978 -0.0953
 6534SOL     OW31237   4.735   0.565   2.947  0.1051 -0.4722  0.6633
 6534SOL    HW131238   0.017   0.567   2.853 -1.6682 -0.4300  0.2709
 6534SOL    HW231239   0.081   0.537   2.981  0.8834  0.9729 -0.0592
 6535SOL     OW31240   0.025   4.559   6.792  0.7373 -0.8548 -0.4818
 6535SOL    HW131241   0.011   4.470   6.760 -1.5737 -0.3822 -0.8178
 6535SOL    HW231242   4.686   4.584   6.844  1.7738  2.0124 -0.2884
 6536SOL     OW31243   3.277   3.947   0.948  0.3546  0.9005  0.2989
 6536SOL    HW131244   3.367   3.914   0.937 -0.5119 -1.1193 -0.6840
 6536SOL    HW231245   3.302   4.032   0.984 -1.1335  0.9234  1.2580
 6537SOL     OW31246   0.940   2.374   7.881 -0.0099  0.4050 -0.1338
 6537SOL    HW131247   0.964   2.461   7.911  2.6586 -0.4027  0.1323
 6537SOL    HW231248   1.030   2.340   7.877  0.1064  0.8101 -0.9216
 6538SOL     OW31249   1.009   2.647  15.774  0.4715  0.2750 -0.3178
 6538SOL    HW131250   1.086   2.590  15.784  0.4252  0.2692  0.0214
 6538SOL    HW231251   0.953   2.585  15.727  2.2239 -0.6540 -1.1645
 6539SOL     OW31252   3.798   3.494  10.911  0.6833 -0.5247  0.3369
 6539SOL    HW131253   3.765   3.479  11.000  1.5415 -0.6186  0.6367
 6539SOL    HW231254   3.849   3.415  10.897 -0.0094 -1.1592  1.3447
 6540SOL     OW31255   0.580   4.442   6.912 -0.8164 -0.0257  0.6775
 6540SOL    HW131256   0.520   4.434   6.838 -1.3219  1.3133  0.9370
 6540SOL    HW231257   0.658   4.449   6.857 -0.7456 -0.7403  0.6907
 6541SOL     OW31258   1.308   3.330   7.096 -0.1052 -0.2818  0.3075
 6541SOL    HW131259   1.383   3.387   7.082 -1.7109  2.0989  1.3556
 6541SOL    HW231260   1.275   3.321   7.007 -0.9737  4.3540  0.2019
 6542SOL     OW31261   1.584   1.991   7.817  0.2829  0.0300 -0.5390
 6542SOL    HW131262   1.623   1.995   7.904 -1.8517  0.5721  0.3755
 6542SOL    HW231263   1.633   2.046   7.756  0.9324 -1.4198 -1.3278
 6543SOL     OW31264   4.473   1.948  11.779  0.0986 -0.0340  0.1152
 6543SOL    HW131265   4.415   2.010  11.824 -1.5020 -0.3573 -1.4854
 6543SOL    HW231266   4.408   1.878  11.767 -1.3587  1.4625 -0.6837
 6544SOL     OW31267   4.284   3.486  16.357  0.1194 -0.2934  0.2899
 6544SOL    HW131268   4.294   3.568  16.404 -1.4707  1.0321 -1.6876
 6544SOL    HW231269   4.206   3.502  16.305  0.5198  0.8860  0.0672
 6545SOL     OW31270   4.246   0.529   5.118 -0.1002  0.0238 -0.2402
 6545SOL    HW131271   4.164   0.572   5.144  0.1324  1.0858 -1.2970
 6545SOL    HW231272   4.208   0.452   5.074  1.5680  0.5321 -2.5336
 6546SOL     OW31273   3.003   2.135   8.059  0.0494 -0.2323  0.3607
 6546SOL    HW131274   2.992   2.150   8.153  3.0247 -0.6113  0.7772
 6546SOL    HW231275   2.976   2.044   8.053  2.1058 -0.8953  1.0288
 6547SOL     OW31276   2.062   2.807   4.846  0.1648 -0.4793  0.2327
 6547SOL    HW131277   2.070   2.877   4.911 -1.1245  0.1357 -0.2584
 6547SOL    HW231278   2.141   2.822   4.794  1.5509 -0.6994  2.2853
 6548SOL     OW31279   1.459   4.026   5.330  0.1096 -0.0032 -0.0876
 6548SOL    HW131280   1.394   3.965   5.298 -1.1086  1.2123  0.0699
 6548SOL    HW231281   1.452   4.105   5.276 -0.0358  0.7217  0.9843
 6549SOL     OW31282   4.586   1.835   2.341  0.0996 -0.5480 -0.0346
 6549SOL    HW131283   4.523   1.906   2.324 -0.9573 -1.4491  0.1302
 6549SOL    HW231284   4.632   1.831   2.258  1.2734 -1.1243  0.6447
 6550SOL     OW31285   4.387   3.844   5.193  0.0419 -0.5682  0.0848
 6550SOL    HW131286   4.308   3.790   5.193 -2.0124  2.4446  0.8716
 6550SOL    HW231287   4.434   3.796   5.261  0.1116 -1.0999 -0.3352
 6551SOL     OW31288   1.578   1.954   5.792  0.3766 -0.2558  0.3785
 6551SOL    HW131289   1.576   1.887   5.723 -1.7515  0.2916 -0.1112
 6551SOL    HW231290   1.648   1.933   5.854  1.9570  3.2379 -0.2288
 6552SOL     OW31291   0.689   0.806   4.229  0.1721 -0.0042  0.5438
 6552SOL    HW131292   0.689   0.752   4.308 -0.1717  1.8351  1.8068
 6552SOL    HW231293   0.741   0.880   4.258  1.5167 -0.8005  0.1549
 6553SOL     OW31294   0.397   1.595   7.794 -0.4443  0.1581  0.0116
 6553SOL    HW131295   0.369   1.595   7.885  0.9041  1.1146  0.4292
 6553SOL    HW231296   0.473   1.536   7.789 -0.2886  0.3469  0.1552
 6554SOL     OW31297   0.248   1.884   5.234  0.0777 -0.4022  0.6972
 6554SOL    HW131298   0.297   1.867   5.154  0.5530  1.1205  0.6564
 6554SOL    HW231299   0.277   1.973   5.256  1.6490 -0.2948 -1.7600
 6555SOL     OW31300   2.585   0.041  11.491  0.4487 -0.1455  0.2174
 6555SOL    HW131301   2.545   0.058  11.576 -1.4655 -0.1929 -0.6732
 6555SOL    HW231302   2.573   0.126  11.448  0.6812 -0.1126  0.2183
 6556SOL     OW31303   4.527   3.673   5.362  0.0172 -0.5755  0.1796
 6556SOL    HW131304   4.505   3.580   5.365 -1.1555 -0.2491  1.5601
 6556SOL    HW231305   4.525   3.695   5.455  1.4768 -0.2770  0.1419
 6557SOL     OW31306   1.495   3.176  13.639 -0.0695 -0.1302 -0.4003
 6557SOL    HW131307   1.478   3.188  13.546 -0.7947 -1.9631 -0.5066
 6557SOL    HW231308   1.431   3.239  13.672  0.7675  1.2118 -1.3357
 6558SOL     OW31309   0.385   2.717  13.841 -0.4751  0.3190 -0.6614
 6558SOL    HW131310   0.334   2.649  13.886 -2.3194  2.4384  0.5008
 6558SOL    HW231311   0.320   2.737  13.773 -0.7035  1.4828 -0.1094
 6559SOL     OW31312   2.167   1.276   2.777  0.3741  0.7915  0.2907
 6559SOL    HW131313   2.114   1.249   2.702  0.7194  0.5258  0.1428
 6559SOL    HW231314   2.253   1.248   2.746 -0.7734 -1.9745 -0.3279
 6560SOL     OW31315   4.120   2.578  16.909 -0.2248 -0.2567  0.4224
 6560SOL    HW131316   4.035   2.567  16.866 -0.1745 -0.6294  0.4192
 6560SOL    HW231317   4.143   2.488  16.931 -0.9579 -0.2825  1.0978
 6561SOL     OW31318   4.190   0.814  12.221 -0.1371  0.8699 -0.0001
 6561SOL    HW131319   4.276   0.838  12.256  0.7036 -1.4104 -0.5210
 6561SOL    HW231320   4.142   0.807  12.304 -0.1491  1.1215  0.0145
 6562SOL     OW31321   2.988   3.847   1.057  0.0347  0.4014  0.3829
 6562SOL    HW131322   3.081   3.867   1.065 -0.0628  1.9004 -1.9210
 6562SOL    HW231323   2.971   3.828   1.149 -2.9903 -0.3316 -0.3426
 6563SOL     OW31324   3.170   2.526   3.858 -0.0450 -0.1721  0.3757
 6563SOL    HW131325   3.168   2.551   3.766 -1.3894  1.3012  0.8053
 6563SOL    HW231326   3.087   2.561   3.890 -0.5737 -2.7210  1.7877
 6564SOL     OW31327   2.974   0.488   1.971 -0.6729 -0.3488 -0.2193
 6564SOL    HW131328   3.054   0.514   1.927 -1.0867  1.8046  0.3213
 6564SOL    HW231329   3.005   0.403   2.002 -0.9639 -0.5014 -0.3464
 6565SOL     OW31330   3.779   4.648  17.486  0.2530  0.1398 -0.4260
 6565SOL    HW131331   3.751   4.560  17.511 -1.4989  0.8637  0.1565
 6565SOL    HW231332   3.857   4.658  17.540 -0.3438 -1.0747  0.6647
 6566SOL     OW31333   2.401   0.997   2.996 -0.1614 -0.0690 -0.0494
 6566SOL    HW131334   2.481   1.014   3.046 -0.0460 -0.4871 -0.0914
 6566SOL    HW231335   2.430   0.935   2.929 -0.7144 -2.5147  2.0128
 6567SOL     OW31336   2.001   1.136   2.606  0.1173 -0.0320  0.2942
 6567SOL    HW131337   1.953   1.210   2.569  0.4389 -0.2096 -0.4674
 6567SOL    HW231338   1.936   1.093   2.661 -0.8784  1.3577  0.2040
 6568SOL     OW31339   1.051   1.594   6.893  0.3930 -0.1061 -0.1098
 6568SOL    HW131340   0.973   1.546   6.863 -0.9257  2.1420 -0.2781
 6568SOL    HW231341   1.101   1.588   6.813  1.0963 -0.2114  0.3406
 6569SOL     OW31342   0.827   3.536   4.212  0.8583 -0.2587  0.0533
 6569SOL    HW131343   0.898   3.576   4.262  0.9254  0.2201 -0.4281
 6569SOL    HW231344   0.811   3.460   4.268  0.3807 -0.0606  0.1819
 6570SOL     OW31345   1.904   4.329   4.144  0.0532  0.7582  0.0247
 6570SOL    HW131346   1.870   4.269   4.078  0.9345  0.3520 -0.0657
 6570SOL    HW231347   1.953   4.263   4.193  1.8078  2.4257  0.5511
 6571SOL     OW31348   2.531   0.147   8.391 -0.5099  0.4566  0.0745
 6571SOL    HW131349   2.477   0.072   8.370 -0.7434  0.3176  1.1552
 6571SOL    HW231350   2.474   0.208   8.345 -0.3758  3.0164  3.3170
 6572SOL     OW31351   4.439   3.998   1.657 -0.4051  0.4754  0.3499
 6572SOL    HW131352   4.355   4.034   1.628 -1.3635 -1.2923  0.9658
 6572SOL    HW231353   4.487   4.001   1.573  0.4967 -0.6705  0.8273
 6573SOL     OW31354   2.713   3.134  11.368  0.0717  0.3367 -0.1306
 6573SOL    HW131355   2.716   3.132  11.464  0.2835  0.8942 -0.1265
 6573SOL    HW231356   2.800   3.101  11.348  0.0189  0.0369  0.1326
 6574SOL     OW31357   1.844   3.305   8.490  0.4278 -0.4993 -0.6030
 6574SOL    HW131358   1.931   3.283   8.457  0.3327 -2.7333  0.6182
 6574SOL    HW231359   1.872   3.371   8.554 -0.3780 -0.8863  0.1501
 6575SOL     OW31360   0.290   0.425  14.959  0.6876  0.0040 -0.0586
 6575SOL    HW131361   0.370   0.402  15.007  1.7816  0.1318 -1.8211
 6575SOL    HW231362   0.264   0.509  14.998  0.4125 -0.3427  0.5065
 6576SOL     OW31363   4.313   1.453   3.484 -0.0168  0.4129  0.0426
 6576SOL    HW131364   4.288   1.432   3.394  0.4389  0.1434 -0.0170
 6576SOL    HW231365   4.308   1.547   3.464 -2.4970  0.8269  2.5091
 6577SOL     OW31366   3.755   3.770  16.361 -0.3854  0.5299  0.2605
 6577SOL    HW131367   3.772   3.864  16.372  0.2811  0.1546  2.4439
 6577SOL    HW231368   3.660   3.770  16.350  0.0087  1.2754 -3.2363
 6578SOL     OW31369   1.549   0.109   4.738 -0.5815 -0.4783  0.2580
 6578SOL    HW131370   1.577   0.085   4.650  1.2921 -0.3340  0.8122
 6578SOL    HW231371   1.633   0.106   4.783  0.0252  0.6267 -0.8442
 6579SOL     OW31372   4.004   0.378   8.037 -0.0423 -0.3134 -0.2721
 6579SOL    HW131373   3.991   0.440   8.109  0.6089 -2.5227  1.7477
 6579SOL    HW231374   4.079   0.412   7.990 -1.4508  2.1297 -0.7538
 6580SOL     OW31375   1.440   3.157   2.582 -0.1085  0.4462  0.1098
 6580SOL    HW131376   1.506   3.217   2.616  1.1482 -0.5526 -0.5606
 6580SOL    HW231377   1.359   3.207   2.589 -0.6786 -0.0747 -2.8773
 6581SOL     OW31378   0.609   3.568   2.184  0.1470 -0.2167  0.2488
 6581SOL    HW131379   0.602   3.562   2.279 -0.6390  0.8252  0.2604
 6581SOL    HW231380   0.700   3.598   2.176 -0.4780  1.7177  0.2465
 6582SOL     OW31381   3.662   3.766   2.660  0.7166 -0.2201  0.5919
 6582SOL    HW131382   3.709   3.788   2.741  1.7424 -0.9656  0.2024
 6582SOL    HW231383   3.662   3.851   2.617 -1.5825 -0.8592 -0.6518
 6583SOL     OW31384   2.076   0.294   1.615 -0.4633 -0.5200 -0.0760
 6583SOL    HW131385   2.151   0.341   1.652 -1.0230  1.4142 -1.3274
 6583SOL    HW231386   2.107   0.204   1.621 -0.3000 -0.4605 -0.0277
 6584SOL     OW31387   2.502   1.381   9.400  0.0132 -0.7275  0.3311
 6584SOL    HW131388   2.502   1.324   9.478 -0.3267  0.5975  1.2899
 6584SOL    HW231389   2.555   1.317   9.352  0.3870 -0.0258 -0.1837
 6585SOL     OW31390   0.872   3.603  13.186  0.7570  0.1228 -0.0874
 6585SOL    HW131391   0.840   3.554  13.110 -2.5677  3.0308 -0.5920
 6585SOL    HW231392   0.877   3.531  13.248 -0.4243 -0.0331 -0.1712
 6586SOL     OW31393   3.871   1.403   8.945  0.2269 -0.0466 -0.0068
 6586SOL    HW131394   3.848   1.353   8.866 -0.4897 -1.6979  1.2387
 6586SOL    HW231395   3.830   1.356   9.018 -2.4764  1.1821 -0.7598
 6587SOL     OW31396   3.937   2.141   1.248  0.1536 -0.4430 -0.5450
 6587SOL    HW131397   3.957   2.154   1.340  2.0328  1.3768 -1.2170
 6587SOL    HW231398   3.901   2.228   1.228 -2.4025 -0.8665  2.1931
 6588SOL     OW31399   3.085   1.625   4.745  0.4537  0.2153 -0.1686
 6588SOL    HW131400   3.031   1.576   4.808  0.4943 -0.3541 -0.5730
 6588SOL    HW231401   3.050   1.714   4.751  1.9668  0.8211 -0.3580
 6589SOL     OW31402   4.031   0.461   7.381 -0.0681 -0.1258  0.1696
 6589SOL    HW131403   3.946   0.448   7.424 -0.7548  2.2536 -0.4492
 6589SOL    HW231404   4.056   0.541   7.427  1.3998  0.6532 -2.0104
 6590SOL     OW31405   2.180   4.115   9.294 -0.1201  0.2409  0.1370
 6590SOL    HW131406   2.169   4.175   9.367 -2.3983  0.2232 -0.1820
 6590SOL    HW231407   2.194   4.179   9.225 -0.0553 -0.4536 -0.4995
 6591SOL     OW31408   2.415   0.450  14.308 -0.1048 -0.0140  0.0151
 6591SOL    HW131409   2.342   0.432  14.367 -0.7811  0.2753 -0.7396
 6591SOL    HW231410   2.453   0.525  14.353  0.5149  0.4837 -1.3345
 6592SOL     OW31411   2.992   1.004   5.116  0.2098  0.1213  0.4228
 6592SOL    HW131412   2.958   0.942   5.051 -0.2678  1.7012 -0.8344
 6592SOL    HW231413   3.076   1.030   5.078  0.5130  2.0297  2.3926
 6593SOL     OW31414   3.358   3.706   7.260  0.6897 -0.0833 -0.7940
 6593SOL    HW131415   3.303   3.665   7.193  0.6867 -2.6093  0.7466
 6593SOL    HW231416   3.445   3.671   7.243  0.1819 -2.6999  1.9746
 6594SOL     OW31417   4.247   3.053   5.264 -0.8141  0.0842  0.0241
 6594SOL    HW131418   4.173   3.092   5.218 -1.3761 -0.7716  0.1977
 6594SOL    HW231419   4.218   3.083   5.351 -0.5842  1.6767 -0.4418
 6595SOL     OW31420   3.079   1.038   2.205  0.4048  0.4268  0.0212
 6595SOL    HW131421   3.064   0.950   2.238  0.0445  0.6287  0.3898
 6595SOL    HW231422   3.054   1.015   2.115 -0.5591 -1.0538  0.6760
 6596SOL     OW31423   0.392   4.411   7.316 -0.0239  0.5285  0.0379
 6596SOL    HW131424   0.436   4.341   7.365 -2.0428 -1.8269 -1.5259
 6596SOL    HW231425   0.298   4.401   7.333  0.1439 -1.0919  0.0061
 6597SOL     OW31426   0.545   1.592   5.996  0.0299 -0.5375  0.5474
 6597SOL    HW131427   0.482   1.657   6.028  0.6552  0.9609 -1.2754
 6597SOL    HW231428   0.594   1.600   6.078  0.5480  0.1965  0.1682
 6598SOL     OW31429   0.744   0.415   3.340  0.0869 -0.6511 -0.1363
 6598SOL    HW131430   0.776   0.495   3.298  1.2210 -0.2866  1.4013
 6598SOL    HW231431   0.723   0.361   3.264 -2.7440 -0.0294  0.1869
 6599SOL     OW31432   3.564   0.049   3.361 -0.4648  0.1099  0.1362
 6599SOL    HW131433   3.554   4.726   3.287  0.1601  0.9953 -0.6684
 6599SOL    HW231434   3.612   4.723   3.415  0.7038  0.2634 -0.7163
 6600SOL     OW31435   3.716   0.124  14.698 -0.3426 -0.8415 -0.5091
 6600SOL    HW131436   3.747   0.170  14.621  0.9256  0.3513  0.7220
 6600SOL    HW231437   3.801   0.092  14.728 -0.5636 -0.2664  0.7240
 6601SOL     OW31438   4.200   4.701   1.533  0.2868  0.0696  0.3620
 6601SOL    HW131439   4.141   0.024   1.577 -0.7739 -1.3695  0.9305
 6601SOL    HW231440   4.170   4.621   1.577 -1.1090 -0.2386 -1.1680
 6602SOL     OW31441   0.690   2.164  10.662 -0.4542 -0.4984 -0.5252
 6602SOL    HW131442   0.750   2.239  10.670 -2.0569  0.5993  1.1939
 6602SOL    HW231443   0.755   2.095  10.649 -1.3502 -1.4362 -0.0091
 6603SOL     OW31444   0.045   1.983  12.163 -0.2609 -0.2996 -0.9794
 6603SOL    HW131445   0.109   1.911  12.159  1.0360  0.7639  0.5300
 6603SOL    HW231446   0.053   2.014  12.253 -1.2417 -1.0762 -0.6266
 6604SOL     OW31447   3.305   3.438  16.968  0.1508  1.0844 -0.1457
 6604SOL    HW131448   3.290   3.347  16.995  1.9084  0.9199  0.2557
 6604SOL    HW231449   3.215   3.464  16.947  0.5716  0.9199 -2.1612
 6605SOL     OW31450   4.354   2.274   3.682 -0.2014 -0.0932 -0.3845
 6605SOL    HW131451   4.445   2.254   3.659 -0.0655  0.0394  0.0407
 6605SOL    HW231452   4.304   2.209   3.632 -1.9555  1.8129 -1.1283
 6606SOL     OW31453   0.254   1.995   3.644  0.6883  0.3487  0.1934
 6606SOL    HW131454   0.190   1.923   3.645  1.3130 -0.1976  3.1782
 6606SOL    HW231455   0.252   2.004   3.740 -1.8670  1.0159  0.0852
 6607SOL     OW31456   4.619   2.281   1.078 -0.4381 -0.6432  0.3740
 6607SOL    HW131457   4.685   2.260   1.145  0.3823  0.9293  0.0415
 6607SOL    HW231458   4.601   2.374   1.094 -0.4730 -0.2904 -1.8000
 6608SOL     OW31459   0.326   0.130   7.648 -0.4028 -0.2489  0.3353
 6608SOL    HW131460   0.315   0.035   7.647 -2.1378 -0.0613  2.3248
 6608SOL    HW231461   0.412   0.143   7.606 -0.6847  0.1228 -0.1273
 6609SOL     OW31462   2.326   3.065   5.505 -0.3047  0.3521 -0.1283
 6609SOL    HW131463   2.277   3.107   5.435  2.8610  1.3248 -1.7890
 6609SOL    HW231464   2.406   3.038   5.459 -2.2929 -1.8570 -2.2710
 6610SOL     OW31465   3.838   0.497  13.057  0.6805 -0.0547  0.0904
 6610SOL    HW131466   3.913   0.550  13.084 -0.3815  1.1521  0.6432
 6610SOL    HW231467   3.881   0.420  13.018  1.2468 -0.0913  0.8066
 6611SOL     OW31468   2.357   2.031   0.954 -0.5434  0.1910  0.3609
 6611SOL    HW131469   2.263   2.038   0.966 -0.8698 -1.0613 -1.4731
 6611SOL    HW231470   2.395   2.038   1.042  0.0603 -0.7617  0.1759
 6612SOL     OW31471   0.709   2.983   8.962  0.0304 -0.0094 -0.6754
 6612SOL    HW131472   0.615   2.994   8.972  0.0492 -1.1161  0.7812
 6612SOL    HW231473   0.746   3.067   8.989 -2.1795  0.4411  1.0123
 6613SOL     OW31474   4.642   2.957  12.992 -0.3948  0.1153  0.1368
 6613SOL    HW131475   4.596   2.944  13.075 -1.2927 -0.2732 -0.4168
 6613SOL    HW231476   4.714   2.897  13.007  1.2779  2.1122  0.0888
 6614SOL     OW31477   3.878   4.506   8.970  0.1674  0.3159  0.1737
 6614SOL    HW131478   3.902   4.553   9.050 -1.3811  1.9347 -0.3056
 6614SOL    HW231479   3.957   4.469   8.931  0.1771 -0.4363  0.9232
 6615SOL     OW31480   2.262   3.978   5.388  0.1086  0.4708  0.0135
 6615SOL    HW131481   2.210   4.057   5.375 -0.4217  0.1346  0.1343
 6615SOL    HW231482   2.345   3.999   5.345  0.2237  2.2720  1.1152
 6616SOL     OW31483   3.722   1.838  16.896 -0.7193 -0.0472  0.7219
 6616SOL    HW131484   3.767   1.879  16.822  0.7364  0.1639  1.7192
 6616SOL    HW231485   3.640   1.807  16.856 -0.5560  0.5313 -0.0509
 6617SOL     OW31486   3.654   2.105   0.520 -0.3448 -0.0655  0.3737
 6617SOL    HW131487   3.576   2.060   0.553 -0.6468 -0.2076 -0.5532
 6617SOL    HW231488   3.641   2.106   0.425 -0.7951 -3.0280  0.4085
 6618SOL     OW31489   1.613   2.981   9.473  0.3633 -0.0599  0.3334
 6618SOL    HW131490   1.702   3.015   9.477  0.2756  0.0366  1.4357
 6618SOL    HW231491   1.567   3.030   9.542  1.1946 -0.6808  1.3209
 6619SOL     OW31492   0.211   2.148  16.726  0.1125 -0.1711  0.0484
 6619SOL    HW131493   0.280   2.167  16.789  1.6201  0.4516 -1.7900
 6619SOL    HW231494   0.242   2.061  16.701 -1.4798 -0.5377 -0.6634
 6620SOL     OW31495   1.113   0.658   7.460 -0.4641 -1.0439 -0.2541
 6620SOL    HW131496   1.099   0.637   7.367  1.5724  0.1793 -0.8423
 6620SOL    HW231497   1.173   0.587   7.484  0.6758 -0.0690 -0.2199
 6621SOL     OW31498   3.324   3.885   8.613  0.4950  0.1398 -0.0936
 6621SOL    HW131499   3.307   3.813   8.673 -0.7141  0.8525  0.4132
 6621SOL    HW231500   3.391   3.840   8.561  1.8060  1.3917  0.4789
 6622SOL     OW31501   4.549   3.922   1.894  0.0719  0.5574  0.0407
 6622SOL    HW131502   4.506   3.963   1.819 -0.4233 -0.6926 -0.3626
 6622SOL    HW231503   4.641   3.942   1.875 -0.0531  1.0569 -0.0227
 6623SOL     OW31504   1.219   1.348   4.968  0.2563  0.2580  0.2315
 6623SOL    HW131505   1.183   1.414   4.909 -0.6663 -1.5394 -1.2378
 6623SOL    HW231506   1.146   1.289   4.988  1.0126 -0.9784 -0.6212
 6624SOL     OW31507   2.565   1.893   9.855  0.0178  0.2647 -0.2009
 6624SOL    HW131508   2.500   1.824   9.863  1.9053 -1.6655 -1.4016
 6624SOL    HW231509   2.645   1.844   9.871  0.0545  0.6711  0.8509
 6625SOL     OW31510   3.276   1.598  13.425 -0.0652 -0.5523  0.0613
 6625SOL    HW131511   3.359   1.636  13.453 -0.5903  0.3663  0.3601
 6625SOL    HW231512   3.277   1.625  13.333  2.0265  1.5094  0.7186
 6626SOL     OW31513   2.120   2.956   4.041 -0.4893 -0.0039 -0.4657
 6626SOL    HW131514   2.067   2.947   4.120  0.2171 -1.8576 -0.2015
 6626SOL    HW231515   2.056   3.006   3.991  0.6639  1.4498 -0.4790
 6627SOL     OW31516   3.122   1.103   5.393 -0.4643 -0.0973 -0.0710
 6627SOL    HW131517   3.030   1.128   5.389 -0.3400  0.6846  1.6983
 6627SOL    HW231518   3.137   1.067   5.306 -0.8372  0.3843 -0.3360
 6628SOL     OW31519   2.850   2.031   6.091  0.3612 -0.7665  0.0240
 6628SOL    HW131520   2.922   2.036   6.028 -0.3886 -0.2405 -0.7946
 6628SOL    HW231521   2.910   2.051   6.163  1.6715 -2.0250 -0.7237
 6629SOL     OW31522   3.318   1.316  15.596  0.2272 -0.3679 -0.0510
 6629SOL    HW131523   3.263   1.375  15.648  1.9421  0.0978  1.2213
 6629SOL    HW231524   3.288   1.337  15.507 -0.3164  3.2235  1.0040
 6630SOL     OW31525   4.046   1.752  11.165 -0.1049 -0.1432 -0.3423
 6630SOL    HW131526   4.134   1.715  11.173 -0.1476 -0.2271 -0.2574
 6630SOL    HW231527   4.039   1.777  11.073  0.0120  1.5961  0.1051
 6631SOL     OW31528   4.564   1.113   1.145 -0.3711 -0.4473 -0.5107
 6631SOL    HW131529   4.629   1.180   1.127 -2.1533  0.8221 -2.1397
 6631SOL    HW231530   4.593   1.085   1.232  0.7838  0.3281 -0.6640
 6632SOL     OW31531   3.222   0.929   3.467  0.6378 -0.6455  0.0867
 6632SOL    HW131532   3.225   0.838   3.498  1.2352 -0.6570 -0.0082
 6632SOL    HW231533   3.313   0.938   3.439  0.5295 -0.1600 -0.1083
 6633SOL     OW31534   4.661   4.494  13.330 -0.0574  0.5296  0.1119
 6633SOL    HW131535   4.609   4.414  13.338  0.7394  0.1711  1.7769
 6633SOL    HW231536   4.720   4.470  13.402  0.0648 -0.1948 -0.2260
 6634SOL     OW31537   2.526   2.992   8.598  0.8024  0.0561 -0.4623
 6634SOL    HW131538   2.549   2.965   8.687 -1.0464 -1.0278 -0.2997
 6634SOL    HW231539   2.548   3.085   8.590 -1.3668  0.4283 -2.1159
 6635SOL     OW31540   3.006   2.301   1.897  0.4327  0.0736  0.2279
 6635SOL    HW131541   3.084   2.285   1.844 -0.4029 -0.4861 -0.8469
 6635SOL    HW231542   3.023   2.231   1.960 -0.8851 -1.6949 -1.3720
 6636SOL     OW31543   0.615   1.268   3.269 -0.6024  0.5968 -0.3705
 6636SOL    HW131544   0.524   1.298   3.266 -0.7433  0.3554  1.1260
 6636SOL    HW231545   0.641   1.309   3.187  0.6313  0.0867 -0.2476
 6637SOL     OW31546   3.465   1.596   3.411  0.2044 -0.5189 -0.7291
 6637SOL    HW131547   3.418   1.664   3.363  0.6701 -1.2823 -2.2746
 6637SOL    HW231548   3.443   1.609   3.503  0.7796  0.1729 -0.6900
 6638SOL     OW31549   3.599   3.135   7.576  0.0597  0.1312 -0.4018
 6638SOL    HW131550   3.517   3.179   7.601  0.3434  0.3139  0.2088
 6638SOL    HW231551   3.663   3.190   7.621 -0.7338  0.5483  0.2365
 6639SOL     OW31552   1.504   3.698  14.277 -0.0771 -0.1356  0.1235
 6639SOL    HW131553   1.445   3.769  14.300 -1.1562 -1.1990  0.6734
 6639SOL    HW231554   1.480   3.694  14.185 -1.0456 -1.0287  0.4163
 6640SOL     OW31555   2.168   0.880  12.738 -0.1595 -0.1334 -0.3707
 6640SOL    HW131556   2.215   0.803  12.705  0.4879  0.0997  0.0005
 6640SOL    HW231557   2.158   0.932  12.658  0.6400 -0.5833 -0.7744
 6641SOL     OW31558   3.417   3.038   2.924 -0.0688  0.3855 -0.0672
 6641SOL    HW131559   3.413   3.109   2.860  2.3894  1.2732  0.7564
 6641SOL    HW231560   3.472   2.977   2.876 -0.2654 -0.5951  0.9702
 6642SOL     OW31561   3.613   2.531   6.700 -0.4170  0.8976  0.3310
 6642SOL    HW131562   3.635   2.549   6.609  0.3137 -0.8508  0.1571
 6642SOL    HW231563   3.645   2.442   6.713  0.2314  1.2810  1.3923
 6643SOL     OW31564   0.992   1.882  16.739  0.4116 -0.2426 -0.1703
 6643SOL    HW131565   0.932   1.956  16.749  0.5367 -0.2613  0.7233
 6643SOL    HW231566   1.063   1.927  16.785  1.2579 -0.4377 -1.2751
 6644SOL     OW31567   2.521   0.713   2.777 -0.1567  0.2099  0.0829
 6644SOL    HW131568   2.524   0.617   2.785 -1.7894  0.2505  1.2626
 6644SOL    HW231569   2.427   0.732   2.782 -0.4444 -0.3944 -3.6018
 6645SOL     OW31570   2.430   0.003   7.455 -0.0629  0.3106  0.3366
 6645SOL    HW131571   2.483   0.058   7.398 -0.2445 -0.2244 -0.3454
 6645SOL    HW231572   2.486   4.675   7.495  0.6250  0.2901 -0.6892
 6646SOL     OW31573   1.316   2.194  14.831  0.3720  0.4504 -0.6579
 6646SOL    HW131574   1.244   2.134  14.844  2.0576 -1.8323 -1.8472
 6646SOL    HW231575   1.263   2.273  14.819  0.0288  0.3944  0.5273
 6647SOL     OW31576   1.292   0.172   4.796  0.3445  0.1105 -0.2163
 6647SOL    HW131577   1.385   0.151   4.798 -0.2656 -2.3957  1.2561
 6647SOL    HW231578   1.294   0.201   4.704 -0.7554  0.0290 -0.2684
 6648SOL     OW31579   3.309   2.801   5.074 -0.4101  0.0479  0.3081
 6648SOL    HW131580   3.373   2.730   5.086  1.7551  1.7016 -1.3851
 6648SOL    HW231581   3.306   2.834   5.164  2.4748 -0.5334  0.6428
 6649SOL     OW31582   4.410   0.838   2.475 -0.5192  0.1687  0.1757
 6649SOL    HW131583   4.436   0.773   2.540  0.7890  0.1511 -0.3565
 6649SOL    HW231584   4.316   0.848   2.490 -0.9182 -1.6106 -1.0945
 6650SOL     OW31585   1.103   0.088   1.836 -0.1572 -0.8753 -0.1097
 6650SOL    HW131586   1.121   0.092   1.930 -1.1077 -1.1137  0.0858
 6650SOL    HW231587   1.140   0.003   1.811  1.0664 -0.4465  0.2507
 6651SOL     OW31588   4.380   0.055   8.849  0.4933  0.0447  1.1378
 6651SOL    HW131589   4.452   4.729   8.854  1.5002  0.8135 -3.4509
 6651SOL    HW231590   4.367   0.082   8.940  1.7453 -1.6792  1.8233
 6652SOL     OW31591   0.712   1.481  15.570 -0.0478  0.1740  0.1713
 6652SOL    HW131592   0.780   1.528  15.619  0.9618  0.2581 -1.3110
 6652SOL    HW231593   0.762   1.456  15.492 -1.9539 -0.8250 -0.7080
 6653SOL     OW31594   0.545   4.326   4.041 -0.9010 -0.6867 -0.0771
 6653SOL    HW131595   0.612   4.377   4.086  0.6276 -0.2924 -2.7719
 6653SOL    HW231596   0.469   4.348   4.095 -0.3215 -1.1854  0.9236
 6654SOL     OW31597   1.971   2.096   3.954  0.0994 -0.3329 -0.0870
 6654SOL    HW131598   2.003   2.013   3.987 -0.5087 -1.9792 -3.6952
 6654SOL    HW231599   1.935   2.135   4.034  1.2868  3.1403 -1.2331
 6655SOL     OW31600   2.740   1.199   7.704  0.5205 -0.1859 -0.1095
 6655SOL    HW131601   2.814   1.256   7.727  1.3108 -0.7749 -1.1793
 6655SOL    HW231602   2.789   1.140   7.647 -2.2911 -0.8420 -1.8162
 6656SOL     OW31603   3.824   3.533  17.076 -0.1379  0.3162  0.1862
 6656SOL    HW131604   3.792   3.585  17.002  2.8691 -1.6335 -2.4960
 6656SOL    HW231605   3.892   3.481  17.033  0.1647 -0.1164  1.1801
 6657SOL     OW31606   4.535   1.276  16.843  0.2592  0.6117 -0.7678
 6657SOL    HW131607   4.550   1.183  16.825 -1.7001  0.5346 -1.9653
 6657SOL    HW231608   4.594   1.322  16.783 -0.3846  1.5098 -0.7049
 6658SOL     OW31609   3.453   0.638   6.926  0.1728 -0.4852  0.4051
 6658SOL    HW131610   3.418   0.561   6.880 -2.1011  1.0679 -0.4364
 6658SOL    HW231611   3.491   0.600   7.005 -0.8473  2.2587  2.2030
 6659SOL     OW31612   1.243   0.660   8.426  0.5570 -0.7677 -0.1192
 6659SOL    HW131613   1.176   0.719   8.392  0.0605 -0.0527  2.1432
 6659SOL    HW231614   1.199   0.575   8.428 -0.8522  0.0517  3.0599
 6660SOL     OW31615   3.417   1.194   3.626  0.2159 -0.9338 -0.6896
 6660SOL    HW131616   3.442   1.276   3.668 -1.7053 -1.2405  1.0716
 6660SOL    HW231617   3.348   1.219   3.566  0.1253 -0.6617 -0.4716
 6661SOL     OW31618   4.032   4.188  16.693  0.2041  0.1393 -0.9434
 6661SOL    HW131619   3.965   4.128  16.726 -0.1988 -0.1197 -2.2279
 6661SOL    HW231620   4.099   4.164  16.757 -0.1172  1.8853  0.0587
 6662SOL     OW31621   1.438   3.780   2.926  0.6578 -0.3256 -0.2886
 6662SOL    HW131622   1.373   3.846   2.948  2.0956  1.0832 -0.2256
 6662SOL    HW231623   1.426   3.707   2.987 -1.8678  0.4694  0.1690
 6663SOL     OW31624   0.585   1.111   1.583  0.5117  0.3792  0.2386
 6663SOL    HW131625   0.508   1.144   1.537 -0.7967 -1.2029  1.3068
 6663SOL    HW231626   0.661   1.158   1.549  2.6280 -2.2298  1.3825
 6664SOL     OW31627   0.064   0.075   5.349 -0.1755 -0.1142  0.1912
 6664SOL    HW131628   4.707   0.071   5.362 -0.2068 -1.0162 -0.3292
 6664SOL    HW231629   0.094   0.156   5.390 -0.3784 -0.7732  1.6342
 6665SOL     OW31630   0.236   3.797   8.935 -0.2494 -0.2960  0.2956
 6665SOL    HW131631   0.186   3.816   9.014  2.9798  0.6967  2.0739
 6665SOL    HW231632   0.211   3.863   8.870 -0.0318 -0.8514 -0.3537
 6666SOL     OW31633   4.379   2.168   1.668 -0.2335  0.5099  0.0573
 6666SOL    HW131634   4.433   2.217   1.730 -0.5714  0.6988  0.2000
 6666SOL    HW231635   4.363   2.083   1.709  0.5066 -0.0495 -0.8099
 6667SOL     OW31636   3.965   0.844  16.013  0.1274 -0.3180  0.5203
 6667SOL    HW131637   4.052   0.806  16.009 -0.4379 -1.3231 -1.9488
 6667SOL    HW231638   3.987   0.923  16.062 -1.2088  1.1470 -1.2191
 6668SOL     OW31639   3.758   3.036   8.542  0.5053 -0.0529 -0.3611
 6668SOL    HW131640   3.792   3.029   8.452  2.2748  0.6191  0.2425
 6668SOL    HW231641   3.780   3.128   8.557  0.0882 -0.1665  0.9429
 6669SOL     OW31642   3.918   3.585   3.212  0.2016  0.6175 -0.1500
 6669SOL    HW131643   4.011   3.563   3.211 -0.1650 -0.8974 -0.8471
 6669SOL    HW231644   3.910   3.672   3.173 -3.7165  0.5734  0.6128
 6670SOL     OW31645   0.591   3.584   8.702 -0.5130  0.2149  0.1352
 6670SOL    HW131646   0.615   3.634   8.623  0.0996 -0.1668  0.0757
 6670SOL    HW231647   0.660   3.614   8.761 -0.9915  0.4371  0.5715
 6671SOL     OW31648   0.028   1.299   3.289 -0.1159  0.1340 -0.4405
 6671SOL    HW131649   4.722   1.367   3.238 -1.2759 -1.6843 -1.8364
 6671SOL    HW231650   4.690   1.245   3.312  1.0731 -1.0133  0.8233
 6672SOL     OW31651   3.975   3.579   4.336  0.1353 -0.1549 -0.0108
 6672SOL    HW131652   3.915   3.561   4.264  1.1562  2.1701 -1.4270
 6672SOL    HW231653   3.973   3.674   4.341 -0.6487 -0.0707 -1.8592
 6673SOL     OW31654   1.302   4.666   3.067  0.0083 -0.2212  0.1668
 6673SOL    HW131655   1.367   4.638   3.002 -2.1774 -0.7650 -1.7773
 6673SOL    HW231656   1.241   4.594   3.079 -0.0740 -0.6606 -2.9035
 6674SOL     OW31657   3.303   2.024   7.824  0.4725 -0.2931 -0.3032
 6674SOL    HW131658   3.397   2.035   7.833 -0.0505  2.6760  1.6347
 6674SOL    HW231659   3.287   1.941   7.868 -1.1519  0.3598  0.3438
 6675SOL     OW31660   0.955   2.966   4.416 -0.0883 -0.0279 -0.3477
 6675SOL    HW131661   0.945   2.882   4.461 -0.1465 -0.4064 -1.0583
 6675SOL    HW231662   0.863   2.973   4.390  0.1464  0.6861 -0.9747
 6676SOL     OW31663   2.068   3.380   5.548 -0.1391  0.0451  0.3408
 6676SOL    HW131664   2.142   3.401   5.604  0.4320  0.3217 -0.5189
 6676SOL    HW231665   2.029   3.466   5.534  0.6188  0.1833 -0.9346
 6677SOL     OW31666   2.259   2.793  14.446  0.2980 -0.4993  0.5863
 6677SOL    HW131667   2.291   2.862  14.387  1.9042 -1.7390 -0.0031
 6677SOL    HW231668   2.264   2.720  14.384 -1.5160 -0.4479  0.3780
 6678SOL     OW31669   3.794   2.881   8.765  0.1192  0.8982  0.1402
 6678SOL    HW131670   3.800   2.961   8.817 -3.0203  0.6266  0.9352
 6678SOL    HW231671   3.817   2.909   8.677  1.1738  1.2054  0.5079
 6679SOL     OW31672   4.356   2.483   1.484 -0.2323 -0.0288 -0.3214
 6679SOL    HW131673   4.274   2.434   1.497  0.3929 -1.4411 -1.7911
 6679SOL    HW231674   4.339   2.555   1.545  0.5759 -1.5088  1.6425
 6680SOL     OW31675   0.322   0.041  14.914 -0.6473  0.1103  0.0400
 6680SOL    HW131676   0.385   4.738  14.854 -0.2000  0.2057  0.4445
 6680SOL    HW231677   0.338   4.735  14.997 -1.4582 -0.8873 -0.3276
 6681SOL     OW31678   0.144   1.358   2.476  0.2373  0.3277 -0.0313
 6681SOL    HW131679   0.134   1.342   2.382  2.7032  1.9684 -0.5976
 6681SOL    HW231680   0.209   1.429   2.476 -0.6076  1.0888 -2.1903
 6682SOL     OW31681   2.583   0.706   2.487 -0.1805 -0.0587 -0.0981
 6682SOL    HW131682   2.588   0.786   2.435  1.4914  0.0591  0.2511
 6682SOL    HW231683   2.562   0.735   2.576 -0.0744  1.8241 -0.7005
 6683SOL     OW31684   1.419   0.168   0.324  0.2725  0.0065  0.0744
 6683SOL    HW131685   1.397   0.147   0.415  2.4041  1.7200  1.0071
 6683SOL    HW231686   1.390   0.094   0.272 -0.7973 -1.0400  2.1450
 6684SOL     OW31687   0.407   0.885   7.796  0.0044 -0.0740  0.7045
 6684SOL    HW131688   0.433   0.828   7.869  1.4256  0.2751  0.4801
 6684SOL    HW231689   0.465   0.961   7.803  1.0237 -0.9547  2.0665
 6685SOL     OW31690   4.433   1.492   7.687  0.5195 -0.3879 -0.4629
 6685SOL    HW131691   4.368   1.452   7.628  0.1636  0.0998 -0.4062
 6685SOL    HW231692   4.450   1.422   7.750  2.0919  0.7940  0.3969
 6686SOL     OW31693   2.175   0.439   5.008 -0.2590  0.2341  0.0818
 6686SOL    HW131694   2.228   0.519   5.009 -1.0361  0.7378  0.9146
 6686SOL    HW231695   2.106   0.462   4.946  0.3199  0.0629 -0.6284
 6687SOL     OW31696   0.772   2.515  16.037 -0.3111 -0.2462 -0.0371
 6687SOL    HW131697   0.787   2.426  16.005 -0.3012  0.3106 -1.5542
 6687SOL    HW231698   0.719   2.507  16.117  1.0704  2.9316  1.1738
 6688SOL     OW31699   3.365   2.913   4.079 -0.2771  0.1854 -0.4434
 6688SOL    HW131700   3.446   2.948   4.043 -0.3418  1.5286  0.7174
 6688SOL    HW231701   3.386   2.834   4.129 -0.6953  1.1288  1.2187
 6689SOL     OW31702   0.071   2.213   4.471  0.8620  0.3481  0.4637
 6689SOL    HW131703   0.041   2.229   4.560 -2.1204 -2.6625  0.0053
 6689SOL    HW231704   0.165   2.210   4.491  0.3993  0.2986  2.6120
 6690SOL     OW31705   2.397   3.790   3.537 -0.6069  0.4713  0.2908
 6690SOL    HW131706   2.488   3.814   3.551 -0.3102 -0.8508  0.6557
 6690SOL    HW231707   2.377   3.830   3.452  0.2242  0.1857 -0.0328
 6691SOL     OW31708   4.324   0.939   9.341 -0.2617 -0.6371 -0.4728
 6691SOL    HW131709   4.304   1.032   9.335 -0.1089 -0.7168 -2.2379
 6691SOL    HW231710   4.352   0.910   9.254 -1.9484  0.5572 -1.4117
 6692SOL     OW31711   4.405   2.170  12.934  0.2900 -0.1042 -0.1865
 6692SOL    HW131712   4.439   2.176  13.023 -1.7695  0.4806  0.5722
 6692SOL    HW231713   4.384   2.077  12.930 -2.6845  0.5815 -0.8701
 6693SOL     OW31714   1.288   2.108   1.480  0.1690  0.3600 -0.6190
 6693SOL    HW131715   1.286   2.088   1.574  0.7251  0.5598 -0.5617
 6693SOL    HW231716   1.235   2.033   1.455 -1.1509  0.5607  1.5324
 6694SOL     OW31717   4.582   2.384  13.703  0.1493 -0.3759  0.3004
 6694SOL    HW131718   4.535   2.301  13.694 -2.6595  1.2463  0.0962
 6694SOL    HW231719   4.519   2.443  13.745 -0.1516  0.3164 -1.1558
 6695SOL     OW31720   0.615   3.988   2.387 -0.0267  0.0871  0.0978
 6695SOL    HW131721   0.666   4.069   2.381  2.5367 -1.5973 -1.0831
 6695SOL    HW231722   0.533   4.016   2.427  0.8555  2.1548  0.4435
 6696SOL     OW31723   2.705   2.070   0.116 -0.2009 -0.4213 -0.0457
 6696SOL    HW131724   2.793   2.042   0.091 -0.1916 -0.1709 -0.2955
 6696SOL    HW231725   2.710   2.166   0.125  0.1679 -0.5796  1.3806
 6697SOL     OW31726   1.325   2.855  12.950 -1.0792 -0.1578 -0.2090
 6697SOL    HW131727   1.397   2.915  12.931 -0.4061 -1.1214 -0.7551
 6697SOL    HW231728   1.319   2.806  12.868  0.0601  1.1542 -1.0837
 6698SOL     OW31729   3.548   3.095   9.212  0.5409 -0.0745 -0.2966
 6698SOL    HW131730   3.621   3.124   9.266  1.9011 -0.8576 -1.7268
 6698SOL    HW231731   3.481   3.083   9.279  0.0804  1.0631 -0.5464
 6699SOL     OW31732   0.978   4.643  16.691 -0.2370 -0.1745 -0.5268
 6699SOL    HW131733   0.971   0.001  16.690 -0.9989 -0.2293 -0.3696
 6699SOL    HW231734   0.967   4.622  16.599  2.3122  0.8913 -1.1011
 6700SOL     OW31735   3.074   3.158  13.498  0.9211 -0.5342 -0.0998
 6700SOL    HW131736   3.036   3.236  13.457 -1.5039 -1.9449 -0.4807
 6700SOL    HW231737   3.163   3.160  13.463  0.9739 -1.7496 -0.0369
 6701SOL     OW31738   3.840   4.545   6.728 -0.7138  0.3215 -0.1085
 6701SOL    HW131739   3.923   4.499   6.718 -0.2422  0.5524  2.9911
 6701SOL    HW231740   3.865   4.635   6.705 -1.6096  0.1740 -1.6984
 6702SOL     OW31741   4.428   4.681   0.517  0.1227 -1.0330  0.4707
 6702SOL    HW131742   4.447   4.679   0.611 -1.4388  2.7347  0.8617
 6702SOL    HW231743   4.393   0.031   0.504  0.1716 -0.8639  1.4979
 6703SOL     OW31744   0.158   0.797   4.908 -0.0510  0.1648 -0.3350
 6703SOL    HW131745   0.171   0.791   5.002 -0.5330  0.7415 -0.2327
 6703SOL    HW231746   0.173   0.892   4.898 -0.8339  0.2710 -0.4971
 6704SOL     OW31747   4.450   4.254   8.106  0.2553 -0.0540 -0.5319
 6704SOL    HW131748   4.538   4.285   8.083  0.8197 -2.4350 -1.6148
 6704SOL    HW231749   4.465   4.227   8.197  0.8551 -1.8600 -1.1622
 6705SOL     OW31750   4.723   4.132   8.188 -0.3142 -0.2227 -0.3794
 6705SOL    HW131751   0.035   4.183   8.125 -0.8822 -1.5940 -1.9177
 6705SOL    HW231752   0.024   4.044   8.188 -0.6121 -0.3621  1.7530
 6706SOL     OW31753   2.491   2.792   0.187 -0.1719 -0.1731  0.4922
 6706SOL    HW131754   2.423   2.849   0.151 -1.1776 -1.6358  0.0524
 6706SOL    HW231755   2.558   2.858   0.204  0.6183 -0.6786 -0.6784
 6707SOL     OW31756   2.827   2.576   7.014 -0.0059 -0.1434 -0.3036
 6707SOL    HW131757   2.845   2.659   7.059  1.8325 -0.5176 -0.3866
 6707SOL    HW231758   2.917   2.554   6.991 -0.0100  0.5518 -0.9829
 6708SOL     OW31759   2.271   3.526   0.526 -0.1188  0.1799 -0.1522
 6708SOL    HW131760   2.227   3.448   0.490  0.3367  0.1854 -0.7253
 6708SOL    HW231761   2.347   3.537   0.468  0.2562  0.4095  0.3923
 6709SOL     OW31762   4.439   2.557  13.307  0.8180 -0.4767  0.5749
 6709SOL    HW131763   4.444   2.652  13.317 -2.2131 -0.2143 -0.1088
 6709SOL    HW231764   4.426   2.525  13.396 -1.0998 -2.3283 -0.3590
 6710SOL     OW31765   0.598   2.793  10.997 -0.8208  0.8995 -0.7221
 6710SOL    HW131766   0.628   2.707  10.968 -1.5657  0.2517  0.4167
 6710SOL    HW231767   0.513   2.787  10.952  0.0181 -0.1193 -2.1431
 6711SOL     OW31768   2.075   4.370   1.788  0.7035  0.0861 -0.1483
 6711SOL    HW131769   1.986   4.387   1.819  1.5497  0.1339  2.2512
 6711SOL    HW231770   2.129   4.439   1.826  0.4403 -0.2330  0.8086
 6712SOL     OW31771   3.174   2.324  10.793 -0.2748 -0.0449  0.0010
 6712SOL    HW131772   3.267   2.325  10.815 -0.2309 -0.3994 -0.1692
 6712SOL    HW231773   3.158   2.230  10.798 -1.0904 -0.0901 -3.4977
 6713SOL     OW31774   1.963   4.326   0.386 -0.5329 -0.3083 -0.2005
 6713SOL    HW131775   1.901   4.321   0.459 -2.0366 -1.3486 -1.5481
 6713SOL    HW231776   2.040   4.366   0.427 -0.2943  1.8443 -2.7951
 6714SOL     OW31777   0.971   2.035   7.231  0.2621 -0.0286 -0.1123
 6714SOL    HW131778   0.986   1.990   7.314  2.4362  1.4751  0.2995
 6714SOL    HW231779   1.017   1.983   7.166  1.4808  1.0650 -0.1179
 6715SOL     OW31780   1.580   4.476   1.701 -0.0148  0.0027  0.0557
 6715SOL    HW131781   1.602   4.503   1.790 -0.0099  0.5923 -0.1244
 6715SOL    HW231782   1.658   4.507   1.654 -0.3300  1.1791  0.3018
 6716SOL     OW31783   0.342   2.020   5.616 -0.0746 -0.2713 -0.0774
 6716SOL    HW131784   0.437   2.031   5.621 -0.0830 -1.6759  3.0116
 6716SOL    HW231785   0.314   2.093   5.561 -0.2804 -0.6028 -0.4154
 6717SOL     OW31786   4.517   2.797   4.384 -0.0197 -0.7230 -0.2334
 6717SOL    HW131787   4.459   2.826   4.454  0.6652  2.4941 -0.9511
 6717SOL    HW231788   4.490   2.855   4.312  1.8585  0.3196 -0.1084
 6718SOL     OW31789   3.934   1.473   1.438 -0.2786 -0.1435 -0.4062
 6718SOL    HW131790   3.992   1.475   1.361 -2.2916  1.5765 -1.8881
 6718SOL    HW231791   3.892   1.388   1.422  0.4597 -0.6505  0.3192
 6719SOL     OW31792   1.736   2.416   4.442 -0.4133  0.3808 -0.3862
 6719SOL    HW131793   1.823   2.388   4.413 -0.4333  2.3784 -2.4302
 6719SOL    HW231794   1.735   2.376   4.528 -1.1133 -1.0985 -1.0740
 6720SOL     OW31795   2.115   1.878   8.664 -0.4177 -0.5204 -0.3626
 6720SOL    HW131796   2.034   1.928   8.680 -0.1456  0.0343 -0.7377
 6720SOL    HW231797   2.086   1.804   8.611 -1.9644 -1.5480  1.8852
 6721SOL     OW31798   3.600   0.218   7.608  0.2490 -0.1801  0.1443
 6721SOL    HW131799   3.543   0.150   7.643  1.8251 -1.0621  1.0380
 6721SOL    HW231800   3.548   0.247   7.533 -0.6911 -1.1864  0.4010
 6722SOL     OW31801   2.601   3.624  10.954  0.5092 -0.1295  0.2592
 6722SOL    HW131802   2.515   3.665  10.949  0.7161  0.2454 -0.2475
 6722SOL    HW231803   2.637   3.668  10.877 -1.9561  4.2382  1.6240
 6723SOL     OW31804   1.880   1.751  13.415  0.3402 -0.2456 -0.1328
 6723SOL    HW131805   1.792   1.720  13.393 -0.3150 -0.3845  2.6412
 6723SOL    HW231806   1.886   1.829  13.361 -0.1957 -0.2587 -0.2077
 6724SOL     OW31807   0.218   2.760  13.613  0.4862 -0.6950 -0.0002
 6724SOL    HW131808   0.165   2.712  13.677 -0.0383  0.2190  0.2527
 6724SOL    HW231809   0.143   2.796  13.565  0.5643  0.4772  0.7486
 6725SOL     OW31810   2.368   3.120   2.271  0.2411  0.2591 -0.4270
 6725SOL    HW131811   2.438   3.116   2.336 -0.3736 -0.1529  0.2116
 6725SOL    HW231812   2.351   3.211   2.245 -2.2145 -0.5540 -1.6366
 6726SOL     OW31813   3.413   0.160   2.902 -0.0908 -0.3666  0.0229
 6726SOL    HW131814   3.377   0.187   2.817 -0.6968 -0.7850  0.1485
 6726SOL    HW231815   3.342   0.187   2.959  0.1740 -0.0314  0.1915
 6727SOL     OW31816   4.545   3.886   6.870  0.1895 -0.3894 -0.1754
 6727SOL    HW131817   4.637   3.879   6.843  0.0830  0.4867 -0.7739
 6727SOL    HW231818   4.516   3.795   6.877 -2.6884  0.4982 -0.8218
 6728SOL     OW31819   3.055   4.551  16.244  0.4063  0.4875  0.7527
 6728SOL    HW131820   3.119   4.620  16.260  0.5101  0.3002  1.1452
 6728SOL    HW231821   2.979   4.608  16.250 -0.7601 -0.9643 -0.3034
 6729SOL     OW31822   2.825   1.448   4.271  0.0383  0.3415 -0.1019
 6729SOL    HW131823   2.891   1.424   4.206 -2.7378 -1.3044 -2.3001
 6729SOL    HW231824   2.874   1.485   4.345 -0.6051  0.1476  0.4153
 6730SOL     OW31825   2.196   3.208   3.168  0.2971 -0.2879  0.2869
 6730SOL    HW131826   2.262   3.181   3.232  1.7815 -0.3057 -1.2335
 6730SOL    HW231827   2.261   3.253   3.114  1.8755 -1.0267  1.5740
 6731SOL     OW31828   2.520   0.031   4.168  0.4986 -0.3557 -0.3185
 6731SOL    HW131829   2.578   0.005   4.096 -2.0510  1.3325 -3.0144
 6731SOL    HW231830   2.464   0.091   4.119  0.0426  0.1667  0.8643
 6732SOL     OW31831   4.219   3.489   4.706 -0.0187  0.3191  0.1275
 6732SOL    HW131832   4.299   3.478   4.654 -0.8163 -0.3253 -0.9667
 6732SOL    HW231833   4.154   3.453   4.645 -0.2293  0.8056  0.0691
 6733SOL     OW31834   3.163   1.291  13.316  0.0837 -0.4313  0.2286
 6733SOL    HW131835   3.208   1.340  13.385 -0.5303  0.0033  0.3209
 6733SOL    HW231836   3.147   1.207  13.358 -0.3423  0.1648  1.2436
 6734SOL     OW31837   4.153   4.250  11.176 -0.1562 -0.1233 -0.5886
 6734SOL    HW131838   4.093   4.213  11.112 -2.1386 -0.5133  1.5096
 6734SOL    HW231839   4.196   4.170  11.209 -0.4336  0.1368  0.3968
 6735SOL     OW31840   2.837   2.786   0.746  0.3363  0.3527 -0.2611
 6735SOL    HW131841   2.919   2.815   0.785  0.1085  0.1848  0.3426
 6735SOL    HW231842   2.783   2.855   0.782  1.4821  1.5996 -0.9256
 6736SOL     OW31843   0.525   1.276   5.683 -0.1448  0.5100  0.3917
 6736SOL    HW131844   0.599   1.268   5.744 -0.3251  0.3361  0.5881
 6736SOL    HW231845   0.578   1.248   5.609 -1.0095  0.6537 -0.2832
 6737SOL     OW31846   3.914   2.757   3.962  0.7659 -0.3246 -0.0418
 6737SOL    HW131847   3.948   2.841   3.932  2.7950 -0.9257  0.5873
 6737SOL    HW231848   3.993   2.702   3.962 -0.5697 -2.2236 -4.1999
 6738SOL     OW31849   1.220   3.913  17.339  0.1013 -0.6155  0.2728
 6738SOL    HW131850   1.162   3.914  17.414  0.1853  1.4837  0.3121
 6738SOL    HW231851   1.189   3.834  17.297 -2.6861 -0.7879  2.7138
 6739SOL     OW31852   2.278   3.345   8.191 -0.4771  0.5009 -0.2580
 6739SOL    HW131853   2.361   3.364   8.235 -0.4420 -0.7353  0.1891
 6739SOL    HW231854   2.289   3.388   8.106  1.7001 -0.4668 -0.4656
 6740SOL     OW31855   2.948   3.653   9.064 -0.0944  0.2547  0.2514
 6740SOL    HW131856   2.863   3.610   9.077 -0.0233  0.6917  2.0849
 6740SOL    HW231857   2.926   3.739   9.101 -2.0866 -0.8009  1.5130
 6741SOL     OW31858   3.826   3.712   9.493  0.1128  0.0752  0.8171
 6741SOL    HW131859   3.877   3.640   9.455  2.1539  0.2808  3.1597
 6741SOL    HW231860   3.743   3.697   9.449  0.4016  1.0633 -0.0636
 6742SOL     OW31861   0.692   2.390  15.699  0.3034  0.1447 -0.1361
 6742SOL    HW131862   0.713   2.301  15.726 -0.7936  0.6074  2.2469
 6742SOL    HW231863   0.768   2.410  15.644  0.9119 -2.0199 -0.0968
 6743SOL     OW31864   3.024   0.321   8.433 -0.2824 -0.7897 -0.1528
 6743SOL    HW131865   2.949   0.263   8.445 -0.4021 -0.6185 -0.0703
 6743SOL    HW231866   3.092   0.255   8.450  1.5237  0.9346 -0.7023
 6744SOL     OW31867   0.239   3.216   9.057 -0.5430 -0.5887  0.1401
 6744SOL    HW131868   0.295   3.161   9.113  0.2916  0.7047  0.5799
 6744SOL    HW231869   0.240   3.297   9.109 -0.7713 -0.0109 -0.7599
 6745SOL     OW31870   4.199   3.411   9.538 -0.1272  0.5083 -0.0740
 6745SOL    HW131871   4.201   3.507   9.536 -0.0050  0.4329 -2.9055
 6745SOL    HW231872   4.232   3.380   9.454  0.7667  1.7761 -0.1921
 6746SOL     OW31873   1.839   3.330   9.625 -0.1054  0.2825 -0.2791
 6746SOL    HW131874   1.751   3.322   9.664 -0.2125 -2.1747 -1.0722
 6746SOL    HW231875   1.856   3.423   9.643 -0.6338  0.1928  0.7072
 6747SOL     OW31876   4.574   4.559   2.893  0.4072  0.2765 -0.1638
 6747SOL    HW131877   4.611   4.559   2.805 -1.5115 -1.0610 -0.9836
 6747SOL    HW231878   4.588   4.651   2.918 -0.6691  0.3880  0.0590
 6748SOL     OW31879   1.792   2.230   4.921 -0.5856  0.5376 -0.2692
 6748SOL    HW131880   1.748   2.201   5.001 -2.0565 -0.8810 -1.5740
 6748SOL    HW231881   1.877   2.258   4.955 -1.0907  2.5323 -0.6762
 6749SOL     OW31882   2.443   1.797   5.606 -0.0430 -0.0836  0.7920
 6749SOL    HW131883   2.375   1.756   5.553  1.9450  0.0975 -1.9349
 6749SOL    HW231884   2.519   1.790   5.548 -1.1296 -0.5231 -0.5747
 6750SOL     OW31885   0.538   0.370   4.329  0.0219 -0.6236  0.1666
 6750SOL    HW131886   0.473   0.316   4.283 -1.1856  1.2666 -0.3587
 6750SOL    HW231887   0.501   0.370   4.417  0.7261 -0.2074  0.4665
 6751SOL     OW31888   3.780   2.020   3.763  0.7950  0.3308 -0.2038
 6751SOL    HW131889   3.874   2.029   3.752  0.9014 -2.5873 -1.7807
 6751SOL    HW231890   3.763   1.945   3.706  1.3072  2.1966 -2.8312
 6752SOL     OW31891   1.812   0.281   7.404  0.3460 -0.3659 -0.6632
 6752SOL    HW131892   1.864   0.201   7.398  0.3041 -0.4753  0.6487
 6752SOL    HW231893   1.743   0.271   7.338 -0.3424  1.1465 -0.1794
 6753SOL     OW31894   4.559   0.274  12.053 -0.3498 -0.2102  0.4192
 6753SOL    HW131895   4.645   0.303  12.024 -0.4990 -0.9357 -0.7540
 6753SOL    HW231896   4.510   0.307  11.977 -1.2321 -0.9339  0.6711
 6754SOL     OW31897   3.052   3.669   0.841 -0.0025 -0.2349 -0.4355
 6754SOL    HW131898   3.007   3.732   0.896  0.0430 -2.3318  2.0116
 6754SOL    HW231899   3.116   3.634   0.903 -1.7634 -3.7959 -0.6145
 6755SOL     OW31900   3.226   4.449   5.227 -0.2007  0.2138  0.1336
 6755SOL    HW131901   3.318   4.470   5.209  0.4284 -2.7914 -0.2760
 6755SOL    HW231902   3.194   4.437   5.137 -1.1838 -0.3058  0.5503
 6756SOL     OW31903   1.232   1.465   8.574 -0.5527  0.5688  0.0352
 6756SOL    HW131904   1.158   1.439   8.519  0.2128 -1.7358  0.0650
 6756SOL    HW231905   1.189   1.473   8.659 -0.2670  0.0253  0.2344
 6757SOL     OW31906   1.010   4.613   7.720 -0.5584  0.0053 -0.1638
 6757SOL    HW131907   1.033   4.576   7.635  2.3384  1.7439 -0.1739
 6757SOL    HW231908   0.992   4.534   7.771 -1.3817  0.4429  0.2204
 6758SOL     OW31909   2.448   3.785   6.000 -0.5246  0.4441 -0.9195
 6758SOL    HW131910   2.451   3.718   5.931  0.6293 -2.2170  1.7528
 6758SOL    HW231911   2.493   3.855   5.953 -0.3018  1.0680  0.2476
 6759SOL     OW31912   0.162   4.451   4.952 -0.1574 -0.4968 -0.3132
 6759SOL    HW131913   0.138   4.536   4.990  0.5069 -1.9548  3.3964
 6759SOL    HW231914   0.136   4.389   5.020  2.6102  0.0861  1.3068
 6760SOL     OW31915   2.151   3.313   9.257  0.0574  0.3777  0.1996
 6760SOL    HW131916   2.238   3.291   9.289  0.5596  1.0799 -0.6863
 6760SOL    HW231917   2.115   3.360   9.332 -0.0645  0.9460 -0.2110
 6761SOL     OW31918   0.846   4.450  12.637  0.4707  0.5843 -0.1762
 6761SOL    HW131919   0.884   4.526  12.594  1.1423 -1.5645 -3.3910
 6761SOL    HW231920   0.773   4.491  12.682 -1.0312 -0.5236 -1.6262
 6762SOL     OW31921   0.341   0.812   2.274  0.2943  0.1948 -0.5401
 6762SOL    HW131922   0.370   0.894   2.314  1.0131 -0.2177 -0.2076
 6762SOL    HW231923   0.307   0.845   2.191  0.6444  3.7495  0.7428
 6763SOL     OW31924   1.417   0.054   7.956  0.7204  0.2278 -0.3852
 6763SOL    HW131925   1.507   0.046   7.987  0.7872 -1.6954 -1.0316
 6763SOL    HW231926   1.407   0.149   7.951 -0.0683  0.1206 -0.8728
 6764SOL     OW31927   0.834   3.135   1.218 -0.4099 -0.0310 -0.2490
 6764SOL    HW131928   0.750   3.177   1.237  0.1047  0.5897  0.6437
 6764SOL    HW231929   0.891   3.211   1.226  0.6663 -0.7388 -1.0837
 6765SOL     OW31930   3.858   0.920  10.129  0.2729  0.0742  0.3732
 6765SOL    HW131931   3.772   0.936  10.168  0.6037  1.3655  0.5787
 6765SOL    HW231932   3.897   1.008  10.134 -1.0997  0.8034 -1.6828
 6766SOL     OW31933   1.747   4.656  11.431  0.6533 -0.0174 -0.1059
 6766SOL    HW131934   1.797   4.713  11.489 -1.8146 -0.0443  2.0483
 6766SOL    HW231935   1.662   4.695  11.413  1.3766  1.2290 -0.8252
 6767SOL     OW31936   1.351   3.217   4.754  0.2867 -0.7185 -0.3326
 6767SOL    HW131937   1.366   3.126   4.731 -1.1901 -1.1101  0.2326
 6767SOL    HW231938   1.309   3.210   4.840 -0.4448 -2.8856 -0.8759
 6768SOL     OW31939   1.162   3.234   5.242 -0.0504  0.1492  0.2298
 6768SOL    HW131940   1.084   3.274   5.278 -0.4771 -0.6733  0.2230
 6768SOL    HW231941   1.171   3.155   5.295 -2.7401 -0.8751 -0.8411
 6769SOL     OW31942   2.781   4.567   4.625  0.0130 -0.4230 -0.1102
 6769SOL    HW131943   2.819   4.569   4.713  3.5577 -0.6854 -1.6223
 6769SOL    HW231944   2.708   4.623   4.648 -2.0669 -1.5399 -3.8856
 6770SOL     OW31945   4.252   3.132  15.191  0.5194 -0.0266  0.5382
 6770SOL    HW131946   4.176   3.129  15.248  0.5003  1.5398  0.5838
 6770SOL    HW231947   4.213   3.108  15.107  1.1953 -1.3051  0.5828
 6771SOL     OW31948   4.283   2.082   9.300  0.1336 -0.0900  0.3888
 6771SOL    HW131949   4.329   1.998   9.300 -0.0289 -0.1792  0.8451
 6771SOL    HW231950   4.355   2.142   9.315 -1.4617  2.6509 -2.9123
 6772SOL     OW31951   1.600   0.329   6.919 -0.6117  0.3898  0.2098
 6772SOL    HW131952   1.638   0.261   6.863 -0.5180  0.6780 -0.0739
 6772SOL    HW231953   1.677   0.384   6.929 -0.9649  1.0346 -0.6192
 6773SOL     OW31954   0.085   4.627   4.750  0.1841 -0.0629  0.2454
 6773SOL    HW131955   0.011   4.568   4.734  0.4552 -0.3004 -0.1414
 6773SOL    HW231956   0.141   4.562   4.794 -0.6928 -0.6659  0.4744
 6774SOL     OW31957   1.366   1.532  10.794 -0.6317  0.1057 -0.5310
 6774SOL    HW131958   1.347   1.614  10.838  1.0120 -0.5221  1.3580
 6774SOL    HW231959   1.403   1.565  10.712 -1.1418  1.5484 -0.1657
 6775SOL     OW31960   0.603   1.125   7.193 -0.3213  0.1631  0.1185
 6775SOL    HW131961   0.672   1.133   7.258  0.7996  0.9782 -1.1743
 6775SOL    HW231962   0.537   1.180   7.235 -0.3651 -1.0467  1.6277
 6776SOL     OW31963   1.935   4.533  11.600 -0.5120  0.0294 -0.0203
 6776SOL    HW131964   1.861   4.513  11.657 -0.4157  0.6904  0.3419
 6776SOL    HW231965   1.967   4.612  11.644  0.4735  0.0543 -0.7724
 6777SOL     OW31966   1.673   4.605  15.528  0.0385 -0.6135  0.3948
 6777SOL    HW131967   1.703   4.624  15.439 -1.7614 -2.3931 -0.5743
 6777SOL    HW231968   1.702   4.514  15.535  0.3272 -0.5006  0.6512
 6778SOL     OW31969   4.472   1.518   1.995 -0.6370 -0.1131 -0.0044
 6778SOL    HW131970   4.501   1.492   2.082 -1.6667 -1.6216 -0.1134
 6778SOL    HW231971   4.467   1.433   1.950 -0.2322 -0.9185  1.4637
 6779SOL     OW31972   3.457   4.442   6.937 -0.0852 -0.1844 -0.0694
 6779SOL    HW131973   3.455   4.379   6.865  0.9598  1.1933 -1.2970
 6779SOL    HW231974   3.546   4.477   6.929 -0.0983  0.4877  2.5828
 6780SOL     OW31975   0.322   4.514   6.445  0.0537  0.8309  0.0263
 6780SOL    HW131976   0.253   4.575   6.421  1.0689  2.0857  0.3102
 6780SOL    HW231977   0.353   4.545   6.530 -1.2526 -0.8639  1.1287
 6781SOL     OW31978   2.802   0.062  12.163 -0.5423  0.1750 -0.5812
 6781SOL    HW131979   2.763   0.130  12.217  0.6072 -1.1735  1.9612
 6781SOL    HW231980   2.879   0.108  12.130  0.4087 -3.2659 -3.1464
 6782SOL     OW31981   1.976   4.123   2.750  0.1716 -0.4633 -0.3455
 6782SOL    HW131982   2.025   4.146   2.829 -1.3144  0.5998  0.2603
 6782SOL    HW231983   1.977   4.027   2.747 -0.6405 -0.4381 -1.4678
 6783SOL     OW31984   0.729   2.736   8.138 -0.1855 -0.1373 -0.0937
 6783SOL    HW131985   0.817   2.748   8.173 -0.5339  0.4155  0.5806
 6783SOL    HW231986   0.732   2.774   8.050 -1.4336 -0.8297 -0.4304
 6784SOL     OW31987   3.173   4.263   6.927 -0.2095  0.3137  0.1648
 6784SOL    HW131988   3.149   4.177   6.892 -1.0545  0.1785  1.0632
 6784SOL    HW231989   3.119   4.253   7.006 -0.6162 -0.9934 -0.2768
 6785SOL     OW31990   1.000   1.814   6.598 -0.3997  0.4824  0.0926
 6785SOL    HW131991   1.033   1.885   6.653  0.6371  1.9603 -2.4191
 6785SOL    HW231992   1.060   1.744   6.623  0.2015  0.0133 -2.6121
 6786SOL     OW31993   1.212   3.210   8.664  0.2794 -0.4569 -0.0145
 6786SOL    HW131994   1.131   3.169   8.696  0.0807  0.3489  0.5157
 6786SOL    HW231995   1.192   3.227   8.572  3.1794 -0.6234 -0.6677
 6787SOL     OW31996   0.883   1.265   1.121  0.2212 -0.0745 -0.2648
 6787SOL    HW131997   0.816   1.199   1.140 -0.7955  0.8958 -0.5433
 6787SOL    HW231998   0.862   1.275   1.029 -0.4172 -0.3836 -0.1514
 6788SOL     OW31999   4.053   0.973  13.164  0.0160 -0.4777 -0.0758
 6788SOL    HW132000   4.010   1.008  13.242  0.5442 -2.7774  1.2502
 6788SOL    HW232001   3.990   0.966  13.093 -1.7408  2.8613  1.1030
 6789SOL     OW32002   2.282   2.118   3.819  0.0264  0.0459 -0.1593
 6789SOL    HW132003   2.345   2.186   3.796  1.2725 -1.2662 -0.5906
 6789SOL    HW232004   2.331   2.053   3.868 -0.3799  1.7122  2.4486
 6790SOL     OW32005   3.463   2.228   4.936  0.2403 -0.3033  0.9768
 6790SOL    HW132006   3.501   2.241   4.849 -1.1403  1.0206  0.5757
 6790SOL    HW232007   3.403   2.302   4.933  0.4213 -0.1822  0.2281
 6791SOL     OW32008   0.304   1.568  17.243 -0.4990  0.1666  0.4139
 6791SOL    HW132009   0.231   1.511  17.217  0.3744 -1.5934  1.9143
 6791SOL    HW232010   0.365   1.508  17.285 -0.2206 -0.2523 -0.5863
 6792SOL     OW32011   1.006   2.783   4.987  0.1004  0.3441 -0.0784
 6792SOL    HW132012   1.084   2.727   4.988  1.0499  1.6942  0.3460
 6792SOL    HW232013   1.028   2.852   4.925  0.8257 -1.9256 -2.3914
 6793SOL     OW32014   4.085   3.538  10.864 -0.7582  0.0945 -0.0680
 6793SOL    HW132015   4.070   3.461  10.810 -0.7016  0.8858 -1.2041
 6793SOL    HW232016   4.062   3.500  10.949 -1.4031  0.0225 -0.2774
 6794SOL     OW32017   4.101   1.590   7.364  0.1774  0.4403  0.1082
 6794SOL    HW132018   4.170   1.614   7.302 -1.0196 -0.4927 -1.5884
 6794SOL    HW232019   4.158   1.541   7.424 -0.8333 -0.3349  0.4352
 6795SOL     OW32020   3.728   1.957   4.982  0.2518 -0.0447  0.2173
 6795SOL    HW132021   3.665   2.003   4.926  0.6913  0.1764 -0.0952
 6795SOL    HW232022   3.753   1.882   4.928 -0.9201 -0.7450  0.6524
 6796SOL     OW32023   4.205   3.984  10.837  0.3062 -0.5483 -0.2246
 6796SOL    HW132024   4.267   3.918  10.808  0.4246 -0.4370 -0.2250
 6796SOL    HW232025   4.207   4.033  10.755 -2.6606  0.8718  0.5446
 6797SOL     OW32026   1.220   4.216   7.614 -0.0134 -0.6124 -0.5309
 6797SOL    HW132027   1.149   4.273   7.584 -0.2960 -0.8616 -0.3264
 6797SOL    HW232028   1.274   4.283   7.656  0.0118 -0.0980 -1.3677
 6798SOL     OW32029   4.731   3.286   6.278  0.3137  0.6304  0.3261
 6798SOL    HW132030   4.671   3.269   6.206 -0.1632 -0.8025  1.0643
 6798SOL    HW232031   0.075   3.254   6.240 -0.1936  0.8319 -0.9097
 6799SOL     OW32032   2.122   1.013  12.487  0.4621  0.4367 -0.0226
 6799SOL    HW132033   2.094   0.955  12.415 -0.7855 -0.2100  0.9774
 6799SOL    HW232034   2.063   1.088  12.479 -1.6658 -1.1664  0.6038
 6800SOL     OW32035   3.230   4.378   2.134  0.1474  0.3603 -0.5847
 6800SOL    HW132036   3.206   4.459   2.090  2.3452  1.4794  0.2930
 6800SOL    HW232037   3.254   4.415   2.219  1.1709 -1.7584  0.0545
 6801SOL     OW32038   2.203   3.867  16.117 -0.2342 -0.1273  0.1780
 6801SOL    HW132039   2.236   3.937  16.173  1.3139  1.3826 -2.6115
 6801SOL    HW232040   2.282   3.824  16.083 -0.1300  0.1780  0.0377
 6802SOL     OW32041   2.183   2.507   3.673 -0.3719  0.1004  0.8894
 6802SOL    HW132042   2.154   2.550   3.592  3.2873 -1.8403 -1.4191
 6802SOL    HW232043   2.123   2.433   3.671 -0.0621 -0.1501  0.9235
 6803SOL     OW32044   0.837   0.965   0.977  0.1933 -0.4122 -0.0983
 6803SOL    HW132045   0.837   1.037   0.914 -2.9898  0.2865  0.7015
 6803SOL    HW232046   0.770   1.000   1.035 -0.2385  1.9470 -2.0228
 6804SOL     OW32047   2.280   3.023   7.756  0.0499 -0.1308  0.4371
 6804SOL    HW132048   2.254   3.025   7.848  0.4321 -1.6458  0.5806
 6804SOL    HW232049   2.271   2.930   7.736  0.9542 -0.3299  0.9603
 6805SOL     OW32050   3.699   2.517   5.785  0.5543 -0.1396  0.3584
 6805SOL    HW132051   3.613   2.478   5.769 -0.3274  1.0161  2.2097
 6805SOL    HW232052   3.759   2.444   5.797  0.6950 -0.1024 -0.1476
 6806SOL     OW32053   1.370   2.647   4.826  0.2518  0.0463 -0.4618
 6806SOL    HW132054   1.379   2.552   4.813 -1.6801 -0.1677 -0.1996
 6806SOL    HW232055   1.348   2.663   4.917 -3.1124 -0.2635 -1.1977
 6807SOL     OW32056   0.192   3.120  12.723  0.1278 -0.0931 -1.0169
 6807SOL    HW132057   0.102   3.086  12.722  0.0228  0.1262  1.1149
 6807SOL    HW232058   0.180   3.182  12.650  1.2122 -1.0067 -1.9635
 6808SOL     OW32059   1.185   3.847   3.024  0.0972 -0.0832 -0.1409
 6808SOL    HW132060   1.116   3.906   2.994 -0.4714  0.0726  1.4864
 6808SOL    HW232061   1.146   3.827   3.109 -0.9242 -1.6451 -0.9910
 6809SOL     OW32062   2.376   1.838   2.262 -0.5263 -0.2549  1.0219
 6809SOL    HW132063   2.325   1.773   2.310 -2.0912 -1.3385 -2.1101
 6809SOL    HW232064   2.355   1.820   2.170 -1.4041 -0.7314  1.3162
 6810SOL     OW32065   2.098   4.707  12.501 -0.1709 -0.1158  0.0800
 6810SOL    HW132066   2.154   0.046  12.489 -0.3504 -0.0196 -0.1401
 6810SOL    HW232067   2.138   4.669  12.579  2.9106  2.0958 -0.3954
 6811SOL     OW32068   0.872   4.133   4.797 -0.0657 -0.1734  0.1742
 6811SOL    HW132069   0.909   4.056   4.753  1.7304  0.5868  0.3388
 6811SOL    HW232070   0.794   4.091   4.831 -1.5009  1.2755 -1.3215
 6812SOL     OW32071   4.598   4.210   2.186  0.0755  0.6247 -0.0518
 6812SOL    HW132072   4.549   4.282   2.145  0.8550  1.4921  0.5453
 6812SOL    HW232073   4.552   4.139   2.140  1.0324 -0.1063  0.1316
 6813SOL     OW32074   3.728   3.807   2.038 -0.7047 -0.3810 -0.3464
 6813SOL    HW132075   3.748   3.865   1.964 -2.1331  0.7336  0.1384
 6813SOL    HW232076   3.667   3.752   1.988 -2.5675  0.8877  0.5327
 6814SOL     OW32077   1.369   1.493   1.887 -0.1126 -0.0835  0.2594
 6814SOL    HW132078   1.312   1.426   1.924 -0.3280  0.9369  1.7813
 6814SOL    HW232079   1.413   1.438   1.822 -0.0615  0.2396  0.0176
 6815SOL     OW32080   0.308   0.618   4.755 -0.7221 -0.3472  0.8542
 6815SOL    HW132081   0.377   0.604   4.820 -1.9612  1.2962  2.5339
 6815SOL    HW232082   0.259   0.688   4.799 -0.1765  1.1586 -0.9314
 6816SOL     OW32083   2.882   1.352  12.829  0.4230  0.3315  0.1666
 6816SOL    HW132084   2.869   1.298  12.907 -1.7442  0.6299  0.0093
 6816SOL    HW232085   2.863   1.442  12.856  3.0986  0.4169  1.6885
 6817SOL     OW32086   3.416   2.294   7.456  0.0371  0.1089  0.0296
 6817SOL    HW132087   3.506   2.261   7.458 -0.7319 -1.9107  1.0670
 6817SOL    HW232088   3.370   2.216   7.485  0.1259  0.3012  0.6869
 6818SOL     OW32089   0.225   3.844   8.234 -0.0626 -0.0816 -0.1719
 6818SOL    HW132090   0.264   3.820   8.318 -0.0944 -1.2241 -0.4794
 6818SOL    HW232091   0.287   3.909   8.204 -2.9975  2.0794 -1.5259
 6819SOL     OW32092   0.554   3.698  10.737  0.5045  0.1538  0.2707
 6819SOL    HW132093   0.569   3.648  10.817 -0.8258 -0.1095  0.3594
 6819SOL    HW232094   0.619   3.768  10.741  1.1828 -0.4788  0.3211
 6820SOL     OW32095   4.040   4.095   3.044 -0.3318 -0.1435  0.3714
 6820SOL    HW132096   4.038   4.109   3.139 -3.1340  0.0407  0.2996
 6820SOL    HW232097   4.070   4.175   3.002  1.7692 -0.1640  1.8533
 6821SOL     OW32098   2.736   1.871   7.868 -0.1971 -0.2802  0.0578
 6821SOL    HW132099   2.760   1.879   7.961 -2.0566  0.2534  0.4901
 6821SOL    HW232100   2.650   1.913   7.861 -0.1376  0.1269  1.7644
 6822SOL     OW32101   3.621   4.698   5.837  0.0987  0.6416 -0.0974
 6822SOL    HW132102   3.577   0.025   5.782  0.1541  0.3111 -0.5329
 6822SOL    HW232103   3.621   0.009   5.919  1.2105  1.5243 -0.6239
 6823SOL     OW32104   3.143   2.006   5.430 -0.3409  0.7360 -0.1230
 6823SOL    HW132105   3.225   1.964   5.454 -1.5453 -1.7135 -0.3801
 6823SOL    HW232106   3.101   1.949   5.366 -1.3968  1.1496  0.1956
 6824SOL     OW32107   3.679   0.344   2.447  0.7285  1.1154 -0.1078
 6824SOL    HW132108   3.733   0.279   2.494  0.4199  0.3509 -0.8127
 6824SOL    HW232109   3.594   0.302   2.463  2.3950 -2.0565  0.5495
 6825SOL     OW32110   4.675   0.833   4.699 -0.3137  0.8858  0.1183
 6825SOL    HW132111   4.585   0.861   4.717 -0.4937 -0.5815  1.5481
 6825SOL    HW232112   4.710   0.797   4.781  1.2913  1.1957 -0.4307
 6826SOL     OW32113   1.096   3.905   6.892  0.1394 -0.1695  0.3345
 6826SOL    HW132114   1.187   3.933   6.876 -0.9720  2.5223 -1.3937
 6826SOL    HW232115   1.097   3.835   6.956  0.9468 -0.9964 -0.5774
 6827SOL     OW32116   2.394   0.170   3.954  0.2552  0.4636 -0.3008
 6827SOL    HW132117   2.415   0.085   3.915 -0.1255 -0.0136  0.5316
 6827SOL    HW232118   2.301   0.154   3.965  0.4013 -0.6540 -0.7553
 6828SOL     OW32119   3.871   2.713   7.836 -0.0442  0.1210  0.4230
 6828SOL    HW132120   3.931   2.686   7.906  1.7247  1.3364 -0.6080
 6828SOL    HW232121   3.788   2.687   7.875  0.8666 -2.1435  0.8431
 6829SOL     OW32122   0.705   4.143  15.684  0.1463 -0.0176  0.0704
 6829SOL    HW132123   0.632   4.124  15.625 -0.9553 -0.5268  1.5910
 6829SOL    HW232124   0.774   4.090  15.643  2.0328  1.6664  1.0416
 6830SOL     OW32125   0.627   0.152  14.875  0.1681  0.1525  0.2041
 6830SOL    HW132126   0.558   0.115  14.930 -0.4677 -1.8028 -1.9309
 6830SOL    HW232127   0.620   0.089  14.804 -0.2595  1.3349 -0.8002
 6831SOL     OW32128   3.907   2.565   8.592 -0.4438 -0.2846 -0.5648
 6831SOL    HW132129   3.969   2.493   8.604  1.9941  1.6702 -1.4445
 6831SOL    HW232130   3.914   2.609   8.677  0.4990  0.6282 -1.1081
 6832SOL     OW32131   3.469   1.587   0.873  0.2235 -0.6156 -0.7476
 6832SOL    HW132132   3.392   1.530   0.872 -0.5800  0.4566 -0.1818
 6832SOL    HW232133   3.429   1.667   0.908  0.7971 -0.7408  0.2096
 6833SOL     OW32134   0.028   2.390  16.322 -0.4681  0.3328  0.3081
 6833SOL    HW132135   0.105   2.367  16.374  0.5863 -0.7052 -1.7160
 6833SOL    HW232136   4.699   2.327  16.350  0.4236 -0.5443  0.4619
 6834SOL     OW32137   4.275   0.350   8.287 -0.4504 -0.2612  0.1456
 6834SOL    HW132138   4.279   0.405   8.365 -0.2313 -0.5174  0.3154
 6834SOL    HW232139   4.200   0.292   8.302 -0.8202 -0.0677 -0.9654
 6835SOL     OW32140   0.966   1.471   5.249 -0.2728 -0.6176 -0.0609
 6835SOL    HW132141   0.985   1.563   5.233 -0.6383  0.1433  4.0078
 6835SOL    HW232142   1.049   1.429   5.270 -2.5350 -3.3266  3.4848
 6836SOL     OW32143   0.499   0.324  14.239 -0.2762 -0.7616 -0.0091
 6836SOL    HW132144   0.487   0.288  14.327  0.6509 -0.8994  0.0505
 6836SOL    HW232145   0.516   0.242  14.194 -1.1543 -1.4086  0.8453
 6837SOL     OW32146   3.397   4.302  12.613  0.1038  0.2947  0.1511
 6837SOL    HW132147   3.420   4.227  12.559  0.4411  0.0507  0.6347
 6837SOL    HW232148   3.394   4.262  12.699 -0.8864 -0.6677 -0.3305
 6838SOL     OW32149   2.370   4.532   2.239  0.0368  0.2309  0.1679
 6838SOL    HW132150   2.409   4.483   2.312  1.6918  1.1368 -0.0979
 6838SOL    HW232151   2.281   4.536   2.274 -0.1104 -0.3854 -0.1359
 6839SOL     OW32152   3.925   2.654  14.028  0.1912  0.1791  0.8012
 6839SOL    HW132153   3.940   2.597  14.103 -2.1165  0.5600  1.5245
 6839SOL    HW232154   3.830   2.655  14.034  0.2949  2.5728  1.9902
 6840SOL     OW32155   3.327   4.297   6.223 -0.4008  0.3745  0.7582
 6840SOL    HW132156   3.288   4.310   6.137  0.7571  0.3218  0.2255
 6840SOL    HW232157   3.257   4.305   6.288 -0.7020 -0.3968  0.5238
 6841SOL     OW32158   0.510   0.188   7.913 -0.2005  0.4794 -0.4039
 6841SOL    HW132159   0.492   0.279   7.889 -2.0183  0.0856 -0.4872
 6841SOL    HW232160   0.579   0.155   7.854 -1.4729 -2.6330 -0.1492
 6842SOL     OW32161   0.942   1.971  16.459 -0.4902 -0.1864  0.6760
 6842SOL    HW132162   0.950   2.056  16.502 -0.9597  0.0815  0.2278
 6842SOL    HW232163   0.985   1.917  16.525  1.0165  0.7513  0.4746
 6843SOL     OW32164   1.337   3.213   1.097 -0.1333 -0.2226 -0.1551
 6843SOL    HW132165   1.431   3.202   1.112  0.0626  2.6763  0.6457
 6843SOL    HW232166   1.305   3.125   1.074  0.8361 -0.5271 -0.3481
 6844SOL     OW32167   0.377   0.954   2.913  0.3083  0.7219  0.2143
 6844SOL    HW132168   0.350   0.990   2.829 -1.3400  0.5495  0.6612
 6844SOL    HW232169   0.380   0.860   2.894  1.3740  0.7790  0.0875
 6845SOL     OW32170   0.831   4.165   6.588  0.6647 -0.4115  0.8085
 6845SOL    HW132171   0.848   4.103   6.659 -0.0645  0.7821  2.0198
 6845SOL    HW232172   0.918   4.173   6.547 -0.4550 -0.8567 -1.6340
 6846SOL     OW32173   3.250   2.655   4.834 -0.0951 -0.3215  0.1047
 6846SOL    HW132174   3.273   2.707   4.911  0.5945  1.2061 -1.1360
 6846SOL    HW232175   3.334   2.612   4.815  0.2141 -1.1274  3.2667
 6847SOL     OW32176   3.366   1.848   2.632  0.2083 -0.0242 -0.4074
 6847SOL    HW132177   3.325   1.889   2.556  0.2067  0.8909  0.0818
 6847SOL    HW232178   3.459   1.837   2.614  0.5202  1.1523  0.4582
 6848SOL     OW32179   1.852   4.040  13.974  0.2011 -0.0394 -0.3554
 6848SOL    HW132180   1.822   3.949  13.967 -0.5426  0.3247 -2.0307
 6848SOL    HW232181   1.933   4.038  14.023  0.2680  1.3350 -0.4002
 6849SOL     OW32182   0.919   3.969   9.827 -1.1660 -0.3374 -0.3965
 6849SOL    HW132183   0.899   3.937   9.916  0.2647  1.3875  0.5420
 6849SOL    HW232184   0.894   4.061   9.832 -0.1977 -0.1488  1.0644
 6850SOL     OW32185   4.661   1.081   2.871 -0.1300  0.0998 -0.1644
 6850SOL    HW132186   4.690   1.135   2.798  1.8392  0.1674  0.6530
 6850SOL    HW232187   4.731   1.107   2.931  1.4124 -0.4409 -1.7463
 6851SOL     OW32188   2.844   2.423  16.410 -0.6643  0.1683 -0.2472
 6851SOL    HW132189   2.842   2.460  16.322  0.1464  1.1319  0.1488
 6851SOL    HW232190   2.797   2.486  16.465  1.4635  1.8775 -0.4261
 6852SOL     OW32191   0.151   2.644   2.071  0.4219 -0.4613 -0.6153
 6852SOL    HW132192   0.077   2.599   2.031  0.4372  0.3044 -1.4938
 6852SOL    HW232193   0.218   2.641   2.002  1.1542 -0.8250  0.0994
 6853SOL     OW32194   3.067   3.981   0.233 -0.3104  0.6813 -0.3368
 6853SOL    HW132195   3.120   4.045   0.186  0.3591 -2.0863 -3.2588
 6853SOL    HW232196   3.039   4.034   0.308 -2.0361  0.7482 -1.0243
 6854SOL     OW32197   2.426   0.203   6.973 -0.4336 -0.4348  0.3233
 6854SOL    HW132198   2.482   0.234   6.902 -0.8109 -0.1500  0.1439
 6854SOL    HW232199   2.473   0.242   7.046 -2.6410  0.1917  1.4202
 6855SOL     OW32200   2.045   2.715  12.045 -0.3100  0.0076  0.1722
 6855SOL    HW132201   2.079   2.801  12.019  0.7311 -1.1219 -2.1824
 6855SOL    HW232202   2.092   2.694  12.126  0.3553 -1.5756 -0.6241
 6856SOL     OW32203   0.088   4.028  10.517  0.5168 -0.2778  0.1146
 6856SOL    HW132204   0.102   3.946  10.470 -2.1384  0.4094 -1.8392
 6856SOL    HW232205   0.088   3.993  10.606  0.5865  0.6262  0.4775
 6857SOL     OW32206   4.520   4.313   1.594 -0.1563 -0.3127 -0.2131
 6857SOL    HW132207   4.460   4.334   1.665 -1.5102  0.7566 -1.6814
 6857SOL    HW232208   4.470   4.322   1.513  0.5053 -0.4415 -0.6347
 6858SOL     OW32209   2.192   1.240   7.142  0.5854  0.4438 -0.4418
 6858SOL    HW132210   2.158   1.152   7.157  0.5570  0.3870 -0.8254
 6858SOL    HW232211   2.285   1.224   7.160  0.2933 -0.8188 -0.1143
 6859SOL     OW32212   4.697   2.067   4.058 -0.3242 -0.3949  0.4949
 6859SOL    HW132213   4.734   1.988   4.097 -0.5413 -0.5444  0.3952
 6859SOL    HW232214   4.710   2.134   4.125 -1.4744 -1.5618  1.9065
 6860SOL     OW32215   1.770   2.698   6.272 -0.0218 -0.2406  0.5530
 6860SOL    HW132216   1.770   2.779   6.323  1.5461  0.0189  0.1570
 6860SOL    HW232217   1.822   2.636   6.324 -0.0639 -0.2872  0.5389
 6861SOL     OW32218   1.580   2.861   7.787 -0.1398  0.4642  0.2386
 6861SOL    HW132219   1.610   2.904   7.867  0.3042  0.4699  0.0698
 6861SOL    HW232220   1.657   2.869   7.730 -0.4010  0.9713 -0.0502
 6862SOL     OW32221   0.355   2.160  12.592 -0.0292  0.0287 -0.0063
 6862SOL    HW132222   0.273   2.203  12.569 -0.6087  0.0974  2.2112
 6862SOL    HW232223   0.392   2.220  12.657  0.0583 -0.1488  0.1076
 6863SOL     OW32224   2.558   0.237  15.420 -0.2619 -0.1560  0.1049
 6863SOL    HW132225   2.540   0.238  15.513 -2.4114 -1.7631 -0.3085
 6863SOL    HW232226   2.603   0.155  15.403 -1.4675 -1.1740  1.8706
 6864SOL     OW32227   0.067   2.767   8.730 -0.2542  0.0959  0.4068
 6864SOL    HW132228   0.028   2.805   8.652  1.5217 -0.2383 -0.6493
 6864SOL    HW232229   4.733   2.716   8.768  1.2380 -3.0738 -1.0005
 6865SOL     OW32230   1.512   2.558   6.206 -0.0029 -0.1775  0.1051
 6865SOL    HW132231   1.531   2.466   6.187 -2.6208 -0.8949  1.0368
 6865SOL    HW232232   1.599   2.598   6.200  0.0224 -0.4137 -0.9833
 6866SOL     OW32233   1.323   1.147   6.064  0.2813 -0.7724  0.5830
 6866SOL    HW132234   1.254   1.189   6.012  0.9810 -0.0404  0.2431
 6866SOL    HW232235   1.277   1.150   6.148  2.5728  1.0463  1.7544
 6867SOL     OW32236   1.390   0.873  11.215  0.5683  0.1502 -0.9350
 6867SOL    HW132237   1.330   0.815  11.170 -0.6780 -0.3906  1.4209
 6867SOL    HW232238   1.471   0.822  11.214 -0.1546 -1.0427  0.4245
 6868SOL     OW32239   2.777   3.748  16.122 -0.1082 -0.1816 -0.1436
 6868SOL    HW132240   2.729   3.820  16.162  0.7860 -0.7543  1.9250
 6868SOL    HW232241   2.712   3.677  16.115  0.0293 -0.6694  3.6171
 6869SOL     OW32242   2.446   1.619   4.339 -0.1787  0.4278 -0.5990
 6869SOL    HW132243   2.498   1.540   4.326  0.6380  1.1178 -1.4557
 6869SOL    HW232244   2.374   1.603   4.277  0.3012  0.4604 -1.1637
 6870SOL     OW32245   0.970   0.483   8.155 -0.1317 -0.1080 -0.3536
 6870SOL    HW132246   0.950   0.435   8.235 -0.3636 -0.7227 -0.7813
 6870SOL    HW232247   0.936   0.568   8.183 -2.6026 -0.6673 -1.5724
 6871SOL     OW32248   3.638   0.167   5.346 -0.2389 -0.0816  0.0920
 6871SOL    HW132249   3.550   0.202   5.364  0.2447 -0.5119  3.3137
 6871SOL    HW232250   3.688   0.203   5.419  1.6819 -0.4540 -1.0579
 6872SOL     OW32251   1.679   3.222   8.837  0.1593 -0.3026  0.2044
 6872SOL    HW132252   1.689   3.208   8.931  0.3866  1.5772  0.4590
 6872SOL    HW232253   1.584   3.215   8.837  0.0473  1.1586  0.4922
 6873SOL     OW32254   2.191   4.000  13.999 -0.5473 -0.2695  0.3767
 6873SOL    HW132255   2.141   4.079  14.022 -0.2310 -0.0755  0.3905
 6873SOL    HW232256   2.243   4.029  13.925  0.9568 -1.1099  1.0939
 6874SOL     OW32257   2.418   2.452   1.717 -0.0692 -0.7538  0.2532
 6874SOL    HW132258   2.334   2.498   1.715  0.3946  0.0794 -0.1128
 6874SOL    HW232259   2.396   2.389   1.649 -4.6364  1.0282  0.0311
 6875SOL     OW32260   2.526   1.263   5.515 -0.7232  0.4299 -0.0771
 6875SOL    HW132261   2.523   1.234   5.606 -1.5297  1.1458  0.1180
 6875SOL    HW232262   2.431   1.267   5.501 -0.5189  2.9647 -0.7414
 6876SOL     OW32263   3.831   0.335   4.323  0.2308 -0.6675  0.6827
 6876SOL    HW132264   3.756   0.281   4.297 -0.7814  1.1524 -0.2432
 6876SOL    HW232265   3.788   0.402   4.377 -1.6055  1.0446 -2.8887
 6877SOL     OW32266   3.442   2.470   6.035 -0.1242  0.6463  0.2161
 6877SOL    HW132267   3.446   2.489   6.129 -2.8406 -2.8846  1.0505
 6877SOL    HW232268   3.518   2.413   6.027  0.0783  0.7707  1.1661
 6878SOL     OW32269   4.072   0.574   2.527  0.2144 -0.2932 -0.1225
 6878SOL    HW132270   4.110   0.652   2.488 -0.3996 -0.1309 -0.3872
 6878SOL    HW232271   4.122   0.576   2.609 -0.1131 -0.6508  0.0863
 6879SOL     OW32272   3.399   4.005   2.370  0.7025  0.2645  0.2741
 6879SOL    HW132273   3.311   3.968   2.368  0.0871  1.7704 -0.4016
 6879SOL    HW232274   3.428   3.975   2.284 -2.3892 -1.4087 -0.1733
 6880SOL     OW32275   2.121   0.041   8.418 -0.3167  0.1036 -0.1746
 6880SOL    HW132276   2.075   0.095   8.482 -0.7483 -0.2223 -0.2119
 6880SOL    HW232277   2.101   0.099   8.344 -1.5716  0.8343  0.7277
 6881SOL     OW32278   2.291   1.245   7.573 -0.5613  0.0394  0.0034
 6881SOL    HW132279   2.278   1.336   7.545  0.6860 -0.4503 -2.1432
 6881SOL    HW232280   2.386   1.252   7.578 -0.7663  2.0437  1.5148
 6882SOL     OW32281   4.703   3.743   9.040 -0.1491  0.2596 -0.4867
 6882SOL    HW132282   4.695   3.755   9.135 -0.4512 -1.0078 -0.3447
 6882SOL    HW232283   4.678   3.651   9.031 -0.6410  0.3883 -0.4549
 6883SOL     OW32284   0.968   1.346   4.585  0.4014  0.6700  0.1853
 6883SOL    HW132285   1.019   1.274   4.548  0.3574  0.6346  0.1928
 6883SOL    HW232286   1.027   1.377   4.653 -0.8937  0.0848  1.5832
 6884SOL     OW32287   3.979   0.301  10.547  0.4766 -0.2490  0.0320
 6884SOL    HW132288   3.939   0.381  10.513  0.6764  0.0393  0.4849
 6884SOL    HW232289   3.908   0.240  10.527  1.5491 -1.1604 -1.0102
 6885SOL     OW32290   3.699   3.660  16.003  0.1684  0.5044  0.5838
 6885SOL    HW132291   3.702   3.577  15.955 -0.2991  1.2236 -0.6957
 6885SOL    HW232292   3.618   3.641  16.050  0.8944 -1.0971  1.1752
 6886SOL     OW32293   2.443   0.646   4.938  0.1450 -0.2530  0.0103
 6886SOL    HW132294   2.458   0.713   4.871  0.0036 -1.0275 -0.7911
 6886SOL    HW232295   2.504   0.685   5.002  0.1819  0.0408 -0.2028
 6887SOL     OW32296   0.148   2.285  12.183  0.0537  0.0425  0.2087
 6887SOL    HW132297   0.089   2.213  12.207  0.6034  0.4817  2.8800
 6887SOL    HW232298   0.185   2.303  12.269  0.1419  1.5402 -0.1461
 6888SOL     OW32299   4.660   1.752   9.150  0.1881 -0.8472 -0.2909
 6888SOL    HW132300   4.680   1.660   9.132 -2.4123 -1.3546 -0.6091
 6888SOL    HW232301   4.708   1.804   9.086 -2.7818 -0.1982 -2.0367
 6889SOL     OW32302   2.090   3.328   6.440 -0.5874  0.2582  0.2159
 6889SOL    HW132303   2.035   3.286   6.374 -0.3385 -0.5311  0.5162
 6889SOL    HW232304   2.090   3.269   6.515 -1.7754 -0.1513 -0.1038
 6890SOL     OW32305   0.940   1.741  16.257 -0.1919  0.5164 -0.3117
 6890SOL    HW132306   0.988   1.705  16.331  1.4661  3.0216 -0.1583
 6890SOL    HW232307   0.887   1.667  16.227  0.7913 -0.7339  1.0803
 6891SOL     OW32308   2.683   1.369   2.498  0.5489 -0.2722  0.1378
 6891SOL    HW132309   2.611   1.432   2.502 -0.4436 -1.3316 -1.1304
 6891SOL    HW232310   2.636   1.286   2.490 -1.6789  1.2351 -2.6084
 6892SOL     OW32311   4.214   2.202   8.067 -0.5589 -0.5110  0.3869
 6892SOL    HW132312   4.194   2.140   8.137 -1.0143 -2.0180 -1.0913
 6892SOL    HW232313   4.217   2.283   8.119  1.7850 -0.6059  0.3986
 6893SOL     OW32314   2.906   3.362   4.805  0.1199  0.3262  0.3821
 6893SOL    HW132315   2.979   3.309   4.835  0.9951  1.8664  0.9956
 6893SOL    HW232316   2.872   3.393   4.889 -0.3567 -2.0270  1.0606
 6894SOL     OW32317   2.678   3.701   4.858 -0.2185 -0.3800 -0.0600
 6894SOL    HW132318   2.660   3.608   4.867  0.1789 -0.5824 -1.3848
 6894SOL    HW232319   2.706   3.699   4.767 -0.9842  1.5037 -0.3421
 6895SOL     OW32320   4.411   2.836   7.451  0.4170  0.0038  0.0316
 6895SOL    HW132321   4.496   2.861   7.416  0.4353  0.3792  0.3359
 6895SOL    HW232322   4.413   2.741   7.441  0.1976 -0.1968  1.7900
 6896SOL     OW32323   1.001   0.494   2.255 -0.3244  0.1475 -0.5207
 6896SOL    HW132324   1.086   0.458   2.280  0.0194  0.1885 -1.6166
 6896SOL    HW232325   1.033   0.563   2.197 -2.0084  0.5057 -0.9985
 6897SOL     OW32326   0.877   2.452   1.611  0.1537  0.3330 -0.0881
 6897SOL    HW132327   0.962   2.490   1.631 -0.0710 -0.3537  2.1504
 6897SOL    HW232328   0.827   2.534   1.605 -0.9697 -0.4891 -1.7295
 6898SOL     OW32329   0.142   2.358   1.826  0.3992  0.0694  1.4328
 6898SOL    HW132330   0.080   2.431   1.833 -0.7870 -0.8953  0.8714
 6898SOL    HW232331   0.161   2.341   1.918  0.0698 -1.3000  1.2470
 6899SOL     OW32332   1.064   3.768   7.845 -0.1536  0.1854 -0.4399
 6899SOL    HW132333   1.015   3.714   7.782 -0.9185 -2.0911  2.0690
 6899SOL    HW232334   1.091   3.834   7.782 -0.6532 -0.0085 -0.8616
 6900SOL     OW32335   0.272   3.257   6.128 -0.0052  0.3650  0.2766
 6900SOL    HW132336   0.345   3.238   6.070  0.2778 -0.6856  0.9676
 6900SOL    HW232337   0.296   3.189   6.191 -0.0613  0.7061  0.6691
 6901SOL     OW32338   2.384   4.310   6.109  0.2933  0.1376  0.2592
 6901SOL    HW132339   2.399   4.223   6.144 -1.1790 -0.4033 -0.4609
 6901SOL    HW232340   2.438   4.363   6.167 -1.1354  2.1132 -0.2111
 6902SOL     OW32341   3.039   3.782   3.966  0.3908 -0.5824  0.1025
 6902SOL    HW132342   2.954   3.749   3.937  0.0130 -0.5620  1.1907
 6902SOL    HW232343   3.082   3.769   3.881  0.7790 -0.0663  0.2237
 6903SOL     OW32344   3.902   3.190  16.886 -0.1247  0.3481 -0.0579
 6903SOL    HW132345   3.962   3.206  16.959  1.3337  1.5158 -1.5147
 6903SOL    HW232346   3.888   3.278  16.851  1.9692  1.3704  1.6591
 6904SOL     OW32347   2.754   3.939   6.270  0.0445 -0.3296  0.0440
 6904SOL    HW132348   2.676   3.897   6.306 -0.1593 -0.4854 -0.5909
 6904SOL    HW232349   2.812   3.932   6.346 -1.3548  1.4652  1.2643
 6905SOL     OW32350   2.452   4.031  14.101  0.3342 -0.0388  0.3985
 6905SOL    HW132351   2.366   3.989  14.096  0.5977 -0.4587 -0.8035
 6905SOL    HW232352   2.423   4.122  14.092  0.1497 -0.1672 -0.3194
 6906SOL     OW32353   0.252   3.640  14.473 -0.3509  0.3606  0.6381
 6906SOL    HW132354   0.341   3.606  14.480 -0.6611 -0.6670 -0.4025
 6906SOL    HW232355   0.205   3.558  14.485  2.3002 -0.7159  3.4353
 6907SOL     OW32356   3.496   0.158   5.699 -0.3276 -0.7097 -0.2765
 6907SOL    HW132357   3.492   0.204   5.615  0.0693  0.8567  0.5734
 6907SOL    HW232358   3.472   0.226   5.761  2.0286  1.0232 -1.2663
 6908SOL     OW32359   4.649   4.089   2.616 -0.0070 -0.3597 -0.2421
 6908SOL    HW132360   4.569   4.050   2.580 -0.7911 -0.8390  2.0101
 6908SOL    HW232361   4.655   4.168   2.561  2.8356 -0.4273  0.0012
 6909SOL     OW32362   2.884   0.954  12.435 -0.4612  0.4392 -0.3016
 6909SOL    HW132363   2.808   1.009  12.452 -2.2437 -2.4192  0.9080
 6909SOL    HW232364   2.842   0.875  12.400 -2.5751  1.1907  0.5586
 6910SOL     OW32365   0.629   2.389   9.172 -0.6620 -0.2530 -0.0816
 6910SOL    HW132366   0.706   2.425   9.217 -0.1198  0.7735 -1.8270
 6910SOL    HW232367   0.564   2.454   9.201  3.0774  2.5188  2.1335
 6911SOL     OW32368   4.419   1.666   5.881  0.4180 -0.2151 -0.1281
 6911SOL    HW132369   4.460   1.654   5.795 -0.1198 -2.4556 -0.0835
 6911SOL    HW232370   4.326   1.686   5.873  0.2829 -0.1364  1.7693
 6912SOL     OW32371   2.788   3.764  15.050  0.1002 -0.3210  0.0029
 6912SOL    HW132372   2.715   3.793  14.996  0.2663 -1.2524 -0.7362
 6912SOL    HW232373   2.779   3.671  15.026  1.5107 -0.3504 -0.4261
 6913SOL     OW32374   3.572   0.393  14.482 -0.3865 -0.3367  0.2272
 6913SOL    HW132375   3.573   0.394  14.578 -1.2577  0.0221  0.2376
 6913SOL    HW232376   3.663   0.375  14.458  0.3200 -0.3955  2.8922
 6914SOL     OW32377   3.063   3.637   6.375  0.5685 -0.0210  0.3608
 6914SOL    HW132378   3.095   3.595   6.454 -1.0697  2.0247  2.0983
 6914SOL    HW232379   3.143   3.678   6.343 -0.8488  0.8815 -2.0137
 6915SOL     OW32380   0.368   3.226   9.534 -0.1112 -0.2066  0.0954
 6915SOL    HW132381   0.405   3.140   9.552 -2.4717 -1.1844  0.3498
 6915SOL    HW232382   0.383   3.227   9.440  0.2045  0.6008  0.1493
 6916SOL     OW32383   0.982   2.294   7.104  0.0777  0.4253  0.0212
 6916SOL    HW132384   0.910   2.264   7.048 -0.5834  0.1732  1.0154
 6916SOL    HW232385   0.991   2.214   7.156 -1.4018 -0.0953 -0.5298
 6917SOL     OW32386   1.859   2.810   1.621  0.1249 -0.0549  0.8845
 6917SOL    HW132387   1.898   2.848   1.543 -2.1148  0.8728  0.2316
 6917SOL    HW232388   1.872   2.891   1.670 -1.8511  0.4651  0.5211
 6918SOL     OW32389   0.625   1.176   4.200 -0.2854  0.0621  0.2437
 6918SOL    HW132390   0.579   1.093   4.187 -0.6785  0.2291  0.5655
 6918SOL    HW232391   0.551   1.236   4.186 -0.8221 -0.8764 -0.9941
 6919SOL     OW32392   2.809   3.688   6.693 -0.4356  0.5941  0.4393
 6919SOL    HW132393   2.810   3.598   6.659 -3.6904  1.2691 -1.4377
 6919SOL    HW232394   2.714   3.690   6.705 -0.5937  1.2094 -0.9467
 6920SOL     OW32395   2.605   4.674   2.841  0.5214 -0.0742 -0.0776
 6920SOL    HW132396   2.546   4.599   2.839 -0.0647  0.4368 -1.9671
 6920SOL    HW232397   2.610   4.691   2.747 -0.3551 -1.1280 -0.3118
 6921SOL     OW32398   2.900   2.221   2.954 -0.1252  0.2734  0.0827
 6921SOL    HW132399   2.817   2.202   2.998  0.8685 -0.3066  1.7162
 6921SOL    HW232400   2.938   2.280   3.019  1.4221 -1.2579  0.5510
 6922SOL     OW32401   0.628   3.228   5.657  0.0362 -0.4751 -0.0688
 6922SOL    HW132402   0.684   3.216   5.734  0.3965 -0.4326 -0.3251
 6922SOL    HW232403   0.646   3.319   5.633  1.9139 -1.3070 -1.7455
 6923SOL     OW32404   1.544   1.308  17.746 -0.6772 -0.1758  0.0596
 6923SOL    HW132405   1.620   1.331  17.693  0.1668 -3.3763 -0.1059
 6923SOL    HW232406   1.479   1.281  17.680 -0.2969  2.5266 -1.3984
 6924SOL     OW32407   4.087   1.276   9.139  0.5383  0.0359 -0.5550
 6924SOL    HW132408   4.046   1.328   9.208  1.4669 -1.0162  0.7879
 6924SOL    HW232409   4.075   1.337   9.066  0.8085  1.0868  0.2897
 6925SOL     OW32410   1.964   3.631   2.994  0.2844  0.1386 -0.1945
 6925SOL    HW132411   2.011   3.588   3.065  2.1625  1.2481 -0.7638
 6925SOL    HW232412   2.034   3.630   2.928 -0.0140  1.0098 -0.5300
 6926SOL     OW32413   1.785   0.113   1.532 -0.0223  0.1070  0.4145
 6926SOL    HW132414   1.828   0.152   1.608  0.0781 -0.9681  0.9180
 6926SOL    HW232415   1.701   0.157   1.526 -0.4387 -0.9746 -1.7309
 6927SOL     OW32416   1.753   3.713   6.392  0.4248 -0.1263  0.0110
 6927SOL    HW132417   1.832   3.674   6.354  0.1379 -1.8389  1.2034
 6927SOL    HW232418   1.740   3.784   6.329  1.4474 -0.8059 -0.9708
 6928SOL     OW32419   1.760   3.180   6.301  0.2033  0.1263 -0.1216
 6928SOL    HW132420   1.728   3.264   6.269  0.8220  1.0031  1.5611
 6928SOL    HW232421   1.684   3.134   6.266  1.0082 -2.8971  2.0641
 6929SOL     OW32422   3.612   2.075   5.440 -0.9506  0.9269 -0.0689
 6929SOL    HW132423   3.551   2.002   5.427  1.4325 -1.6868  3.4460
 6929SOL    HW232424   3.587   2.139   5.373  0.1927  0.1182 -1.2829
 6930SOL     OW32425   2.804   3.540   7.395 -0.7844 -0.5032 -0.0353
 6930SOL    HW132426   2.784   3.553   7.488 -1.2039 -0.6755 -0.0994
 6930SOL    HW232427   2.808   3.445   7.396  3.5398 -0.2890  2.7354
 6931SOL     OW32428   0.716   3.123   7.733  0.4944 -0.3332 -0.0415
 6931SOL    HW132429   0.691   3.117   7.825  2.0947  3.1407  0.6203
 6931SOL    HW232430   0.632   3.102   7.692 -0.1473 -0.8683  1.5530
 6932SOL     OW32431   3.142   0.057  12.408  0.8511  0.0443 -0.4376
 6932SOL    HW132432   3.081   0.101  12.467 -0.5810 -0.6043 -1.4163
 6932SOL    HW232433   3.192   0.131  12.375  2.0426 -0.3791  0.4112
 6933SOL     OW32434   1.221   3.936   3.560 -0.5870  0.0100  0.3991
 6933SOL    HW132435   1.245   3.954   3.469  1.3421  2.8140  1.4572
 6933SOL    HW232436   1.130   3.911   3.542 -0.1498  0.9077 -3.1108
 6934SOL     OW32437   4.163   3.340   8.082 -0.3583  0.1421  0.4212
 6934SOL    HW132438   4.119   3.287   8.148 -3.9180  0.0274 -2.0419
 6934SOL    HW232439   4.186   3.280   8.011  0.7160  0.4728  0.4824
 6935SOL     OW32440   2.538   2.559   5.353 -0.8461 -0.4018  0.4982
 6935SOL    HW132441   2.531   2.479   5.301 -1.0600  0.3282 -0.6084
 6935SOL    HW232442   2.621   2.542   5.397 -0.1530  0.3201 -0.5411
 6936SOL     OW32443   0.770   2.301   3.058 -0.4716  0.5607  0.1668
 6936SOL    HW132444   0.775   2.396   3.070 -0.2158  0.4506  0.8860
 6936SOL    HW232445   0.683   2.296   3.017  0.1358 -0.2204 -1.0323
 6937SOL     OW32446   2.484   3.411  11.801 -0.0198 -0.2286 -0.1588
 6937SOL    HW132447   2.513   3.371  11.883 -2.1217  0.3560  0.8942
 6937SOL    HW232448   2.562   3.412  11.746 -0.6289 -0.4523 -1.0376
 6938SOL     OW32449   1.762   3.683   8.804 -0.4223  0.5270  0.3279
 6938SOL    HW132450   1.673   3.651   8.796 -0.0102  0.0804 -2.5592
 6938SOL    HW232451   1.750   3.762   8.855  1.5494  1.4897 -0.6883
 6939SOL     OW32452   2.475   4.376   6.359 -0.1956 -0.3003  0.2813
 6939SOL    HW132453   2.486   4.470   6.341  1.0703 -0.6046 -0.5588
 6939SOL    HW232454   2.508   4.364   6.448 -0.1370  0.1589  0.3203
 6940SOL     OW32455   2.947   2.556   6.683  0.2640 -0.2059 -0.6665
 6940SOL    HW132456   3.009   2.518   6.745  0.7722  0.0704 -1.0114
 6940SOL    HW232457   2.914   2.474   6.646  4.7797 -1.8133 -1.1103
 6941SOL     OW32458   1.437   4.435  13.170 -0.5545  0.7336 -0.3561
 6941SOL    HW132459   1.465   4.435  13.079  0.6193  2.4860  0.0144
 6941SOL    HW232460   1.347   4.402  13.173  0.6201 -2.4973  0.1515
 6942SOL     OW32461   1.231   4.366  17.602 -0.0248 -0.2851 -0.0396
 6942SOL    HW132462   1.240   4.460  17.590  1.2816 -0.4909 -0.6317
 6942SOL    HW232463   1.165   4.361  17.672 -0.6455 -0.2592 -0.6220
 6943SOL     OW32464   2.355   3.971   7.741  0.0958 -0.1646 -0.2868
 6943SOL    HW132465   2.358   3.900   7.677  0.6185 -1.8745  1.6545
 6943SOL    HW232466   2.431   3.938   7.790 -0.5358 -0.5329  0.4455
 6944SOL     OW32467   2.409   3.202  13.490 -0.6147 -0.3060 -0.2632
 6944SOL    HW132468   2.389   3.283  13.536 -0.3054 -2.0023  2.8460
 6944SOL    HW232469   2.420   3.225  13.397 -1.6927 -2.4585 -0.9300
 6945SOL     OW32470   4.263   2.084   7.109 -0.3311  0.1389  0.7171
 6945SOL    HW132471   4.223   2.162   7.071  0.3296  0.4469  0.6609
 6945SOL    HW232472   4.248   2.091   7.204  2.2964 -0.1448  1.1664
 6946SOL     OW32473   2.254   2.431   8.745 -0.1923  0.4903  0.4857
 6946SOL    HW132474   2.295   2.494   8.686 -3.4331  3.0451  0.9450
 6946SOL    HW232475   2.305   2.350   8.738 -1.3943 -0.3010  0.7909
 6947SOL     OW32476   1.920   1.077   2.023 -0.9783  0.1025 -0.9412
 6947SOL    HW132477   2.000   1.122   1.997 -1.4199  2.2512  1.4368
 6947SOL    HW232478   1.905   1.113   2.110  1.1433  0.1638 -0.5953
 6948SOL     OW32479   3.473   3.336   0.543 -0.2618  0.1949 -0.3097
 6948SOL    HW132480   3.547   3.310   0.488 -0.1236 -1.1703  0.5071
 6948SOL    HW232481   3.503   3.425   0.560  0.6967  0.3964 -2.9846
 6949SOL     OW32482   3.456   4.303   5.938 -0.1916 -0.2174 -0.1542
 6949SOL    HW132483   3.406   4.367   5.989  1.5007  0.6659  0.3767
 6949SOL    HW232484   3.449   4.342   5.851  1.4524  0.5471  0.0499
 6950SOL     OW32485   2.727   1.195   8.744 -0.4249  0.1394 -0.2559
 6950SOL    HW132486   2.807   1.170   8.698 -1.4184 -1.8125 -0.9495
 6950SOL    HW232487   2.661   1.161   8.683 -2.2842 -2.5718  3.2495
 6951SOL     OW32488   0.548   0.379   1.941  0.1808 -0.3008 -0.0393
 6951SOL    HW132489   0.510   0.421   2.018 -1.3111 -0.8630 -0.4653
 6951SOL    HW232490   0.475   0.342   1.892 -0.7528  0.4713  0.7702
 6952SOL     OW32491   1.347   2.752   6.097  0.0054  0.0295  0.2477
 6952SOL    HW132492   1.411   2.768   6.027  1.2140  2.1283  1.8456
 6952SOL    HW232493   1.380   2.670   6.135 -0.1024  0.2500  0.8173
 6953SOL     OW32494   2.639   3.887   5.631  0.5457  0.3481 -0.4681
 6953SOL    HW132495   2.578   3.855   5.566 -0.6449  2.0967 -0.2185
 6953SOL    HW232496   2.582   3.917   5.702 -0.1051 -0.9520 -0.4414
 6954SOL     OW32497   0.208   3.507   8.890  0.2250  0.0200 -0.5896
 6954SOL    HW132498   0.194   3.512   8.985  1.0971  2.4175 -0.5918
 6954SOL    HW232499   0.204   3.601   8.873 -2.1106 -0.2374 -1.5509
 6955SOL     OW32500   4.601   4.347   7.737  0.1501  0.0006  0.2908
 6955SOL    HW132501   4.689   4.375   7.711  0.4103  0.7609  1.9750
 6955SOL    HW232502   4.607   4.253   7.718  0.8602 -0.3337  2.1477
 6956SOL     OW32503   2.746   3.438   2.358 -0.1186  0.4384  0.3445
 6956SOL    HW132504   2.686   3.511   2.371  2.0896  2.6156 -1.6909
 6956SOL    HW232505   2.706   3.388   2.288  0.8328  0.7658 -0.4390
 6957SOL     OW32506   2.228   3.961  17.174 -0.0654  0.2232 -0.2769
 6957SOL    HW132507   2.260   4.033  17.120 -1.0107  0.0969 -1.0174
 6957SOL    HW232508   2.219   3.895  17.105 -0.1954  0.3236 -0.3569
 6958SOL     OW32509   3.865   2.123   4.220 -0.2212  0.2739  0.1841
 6958SOL    HW132510   3.932   2.094   4.159  0.4776  0.8041  0.6978
 6958SOL    HW232511   3.850   2.212   4.188  0.4284  1.0025  1.8896
 6959SOL     OW32512   1.410   2.388   7.716 -0.2172 -0.3240 -0.3483
 6959SOL    HW132513   1.374   2.476   7.709 -0.5588 -0.6279 -2.5592
 6959SOL    HW232514   1.451   2.396   7.802 -0.9318  1.1906 -0.1585
 6960SOL     OW32515   2.328   0.575   8.307 -0.1120  0.1450  0.1927
 6960SOL    HW132516   2.337   0.479   8.300 -1.0240 -0.1627  3.1416
 6960SOL    HW232517   2.391   0.608   8.370  0.3002 -0.8990  0.3314
 6961SOL     OW32518   2.965   2.218  13.153 -0.1251 -0.4306 -0.5159
 6961SOL    HW132519   3.034   2.249  13.093 -0.1450 -0.2029 -0.4211
 6961SOL    HW232520   2.966   2.292  13.213  1.0875 -0.8572 -0.0114
 6962SOL     OW32521   2.685   3.446   2.629  0.7061 -0.1770 -0.3563
 6962SOL    HW132522   2.738   3.428   2.551  1.5341 -1.7042  0.5545
 6962SOL    HW232523   2.648   3.358   2.630  1.0137 -0.3241 -1.6660
 6963SOL     OW32524   4.302   1.574   2.484  0.3707 -0.0336  0.1175
 6963SOL    HW132525   4.303   1.480   2.505  0.2587  0.0483  0.4820
 6963SOL    HW232526   4.215   1.587   2.447  0.0505  1.7984  1.5027
 6964SOL     OW32527   2.381   0.118   5.975 -0.1433  0.1158 -0.1333
 6964SOL    HW132528   2.397   0.026   5.953  3.2823  0.6883 -0.1796
 6964SOL    HW232529   2.451   0.167   5.931  0.6410 -0.6265  0.2843
 6965SOL     OW32530   2.115   2.552   5.296 -0.1058 -0.7804 -0.4568
 6965SOL    HW132531   2.093   2.459   5.303 -0.1941 -0.8753 -1.9833
 6965SOL    HW232532   2.028   2.570   5.262 -0.2899 -0.5230  0.1590
 6966SOL     OW32533   1.386   0.402  12.065 -0.4608  0.0462 -0.2511
 6966SOL    HW132534   1.312   0.435  12.117 -1.3406 -3.3721  0.7171
 6966SOL    HW232535   1.450   0.406  12.136 -0.7437  1.2503 -0.0560
 6967SOL     OW32536   1.384   1.754  12.313  0.2383  0.5050 -0.5781
 6967SOL    HW132537   1.302   1.704  12.306 -0.6134  1.8297 -0.2383
 6967SOL    HW232538   1.418   1.710  12.390  0.1513  1.8826  0.2495
 6968SOL     OW32539   1.330   3.689   6.413 -0.3278  0.0452  0.1516
 6968SOL    HW132540   1.384   3.620   6.450  0.3231  0.4652 -0.0231
 6968SOL    HW232541   1.240   3.657   6.409 -0.4264  0.3840 -0.4594
 6969SOL     OW32542   0.744   2.008   6.467 -0.2550 -0.2465 -0.4448
 6969SOL    HW132543   0.833   2.025   6.498 -1.1958  1.4859  1.3158
 6969SOL    HW232544   0.746   1.913   6.477  1.5517 -0.0710  0.8943
 6970SOL     OW32545   4.732   1.324   0.380  0.1713  0.0799  0.1417
 6970SOL    HW132546   4.698   1.353   0.465  3.1357 -0.2975  1.4653
 6970SOL    HW232547   4.700   1.234   0.379 -0.5813  0.3072  2.3286
 6971SOL     OW32548   4.547   3.002   1.757 -0.1706 -0.2601  0.6846
 6971SOL    HW132549   4.553   3.095   1.736  0.2284 -0.3240  0.5111
 6971SOL    HW232550   4.569   3.003   1.850  0.4663  2.2008  0.5076
 6972SOL     OW32551   2.117   4.653   9.046 -0.3171 -0.8681  0.8049
 6972SOL    HW132552   2.137   4.730   9.098  0.1504  0.1063 -0.8055
 6972SOL    HW232553   2.135   4.584   9.110 -0.0708 -1.1780  0.3983
 6973SOL     OW32554   0.310   3.361   5.845 -0.5965  0.3583  0.0793
 6973SOL    HW132555   0.248   3.304   5.799 -0.0766  0.1130 -0.3070
 6973SOL    HW232556   0.288   3.437   5.792 -1.4360  0.2157  0.2056
 6974SOL     OW32557   0.214   4.680   7.103 -0.1885 -0.1496  0.1359
 6974SOL    HW132558   0.182   4.663   7.192  2.2533 -1.0192  0.8502
 6974SOL    HW232559   0.293   4.733   7.113 -0.0728 -0.2847 -0.0880
 6975SOL     OW32560   4.493   2.052   2.725 -0.1649 -0.2611 -0.2918
 6975SOL    HW132561   4.496   2.109   2.802  2.2309  0.9691 -1.3061
 6975SOL    HW232562   4.575   2.079   2.684  0.5552 -2.0788 -0.0254
 6976SOL     OW32563   3.829   0.445  16.910  0.1547  0.2937 -0.1046
 6976SOL    HW132564   3.755   0.494  16.874 -1.2994 -2.0568 -0.2934
 6976SOL    HW232565   3.792   0.360  16.935 -0.2183  0.8266  1.1659
 6977SOL     OW32566   2.524   4.648   6.318 -0.4172 -0.1740  0.5818
 6977SOL    HW132567   2.464   4.696   6.261 -0.0712  0.9814  1.1981
 6977SOL    HW232568   2.608   4.687   6.294 -0.7465 -1.1881 -2.2271
 6978SOL     OW32569   1.676   0.320  16.420  0.4133 -0.5387  0.7667
 6978SOL    HW132570   1.661   0.227  16.402  0.1719 -0.2014 -0.7513
 6978SOL    HW232571   1.592   0.352  16.454  1.3077 -1.0504  3.4795
 6979SOL     OW32572   2.435   2.340   5.897 -0.8458  0.0376 -0.2508
 6979SOL    HW132573   2.472   2.270   5.951  0.5297  0.5437 -0.5370
 6979SOL    HW232574   2.485   2.332   5.815 -0.6278 -0.6062 -0.0545
 6980SOL     OW32575   3.795   2.852   4.707 -0.0347  0.0584  0.0683
 6980SOL    HW132576   3.772   2.777   4.762  0.1735  0.2060  0.3558
 6980SOL    HW232577   3.806   2.816   4.619 -0.4868  0.0207  0.0278
 6981SOL     OW32578   3.987   3.290   7.273  0.1515 -0.2724  0.1941
 6981SOL    HW132579   4.081   3.282   7.262  0.2268  0.5544  0.2518
 6981SOL    HW232580   3.952   3.222   7.215  0.4748  1.2444 -1.7421
 6982SOL     OW32581   1.145   2.641   6.673 -0.3110  0.1182  0.0707
 6982SOL    HW132582   1.241   2.646   6.671 -0.3705  1.7096  1.2379
 6982SOL    HW232583   1.119   2.572   6.734 -1.2722  3.0230  2.9565
 6983SOL     OW32584   1.885   3.605   4.613  0.0741  0.1056 -0.5388
 6983SOL    HW132585   1.830   3.668   4.660 -0.5343 -1.0454  0.2766
 6983SOL    HW232586   1.966   3.617   4.663 -0.3141  3.2964 -0.6543
 6984SOL     OW32587   0.450   2.309   6.358 -0.0813 -0.6036 -0.2074
 6984SOL    HW132588   0.525   2.288   6.302 -0.8995 -1.3446 -1.0294
 6984SOL    HW232589   0.458   2.234   6.417 -1.4458 -1.3097 -0.9044
 6985SOL     OW32590   0.852   3.665   5.620 -0.5366 -0.2384  0.2200
 6985SOL    HW132591   0.804   3.587   5.649 -0.3127 -0.9649 -1.3320
 6985SOL    HW232592   0.794   3.685   5.547  1.5603 -0.4351 -1.5132
 6986SOL     OW32593   4.204   4.599   6.047  0.8902  0.3111  0.5031
 6986SOL    HW132594   4.224   4.693   6.041  2.9874 -0.2480 -1.1100
 6986SOL    HW232595   4.252   4.589   6.129  0.2579  0.9675  0.9565
 6987SOL     OW32596   2.807   3.643   0.744 -0.2588  0.5073 -0.0964
 6987SOL    HW132597   2.899   3.665   0.760  0.2013 -2.3810  1.2564
 6987SOL    HW232598   2.783   3.697   0.669  1.4895  0.2619 -0.8229
 6988SOL     OW32599   2.791   2.415  13.898  0.3561  0.2927 -0.2726
 6988SOL    HW132600   2.717   2.440  13.842 -0.0455 -2.6481 -1.0737
 6988SOL    HW232601   2.793   2.485  13.962 -1.5864 -0.5150  0.6520
 6989SOL     OW32602   3.150   1.100   7.265  0.0404  0.2592  0.0512
 6989SOL    HW132603   3.179   1.132   7.350  2.1111  0.0642 -0.5757
 6989SOL    HW232604   3.225   1.104   7.204  0.2232 -0.7134  0.2199
 6990SOL     OW32605   0.302   2.387   2.676 -0.1986 -0.1253  0.3311
 6990SOL    HW132606   0.212   2.358   2.694 -0.0295 -1.3768 -0.8762
 6990SOL    HW232607   0.295   2.482   2.665 -0.0360 -0.0699  0.6833
 6991SOL     OW32608   0.056   1.844   3.755 -0.2731 -0.3682  0.2228
 6991SOL    HW132609   0.079   1.800   3.837 -0.5213  0.5367  0.7719
 6991SOL    HW232610   0.053   1.768   3.697 -1.3509  0.2816 -0.5803
 6992SOL     OW32611   0.705   0.225   6.533  0.5000  0.0475  0.0297
 6992SOL    HW132612   0.694   0.131   6.536 -2.2344  0.4146  1.1121
 6992SOL    HW232613   0.743   0.237   6.446  0.3173  1.2188  0.1035
 6993SOL     OW32614   3.581   2.751   8.359  0.3925  0.4305 -1.1309
 6993SOL    HW132615   3.496   2.712   8.340  1.1139 -0.3534 -2.6895
 6993SOL    HW232616   3.633   2.674   8.380 -1.0064 -0.1807  0.1256
 6994SOL     OW32617   4.556   2.191   2.943  0.0100  0.2467 -0.3295
 6994SOL    HW132618   4.630   2.216   2.998  0.1895 -1.7164  0.3230
 6994SOL    HW232619   4.477   2.204   2.996 -0.4246  1.1952 -1.2015
 6995SOL     OW32620   2.960   3.452   8.830  0.1367  0.4113 -0.3111
 6995SOL    HW132621   2.887   3.395   8.808 -0.9024  1.1709  1.1152
 6995SOL    HW232622   2.925   3.507   8.900  1.3126  0.0214  0.5783
 6996SOL     OW32623   4.419   0.949   8.799  0.0250  0.0236 -0.4419
 6996SOL    HW132624   4.361   0.873   8.801 -1.6087  1.2885  0.1178
 6996SOL    HW232625   4.378   1.021   8.847 -0.1633  0.9322 -1.9707
 6997SOL     OW32626   3.834   2.912   6.348 -0.6072  0.5954 -0.5417
 6997SOL    HW132627   3.748   2.899   6.388 -1.2599 -0.5037 -2.3002
 6997SOL    HW232628   3.884   2.944   6.423 -1.0525  1.7959 -0.7528
 6998SOL     OW32629   2.477   0.406   5.724  0.0439  0.3638  0.5012
 6998SOL    HW132630   2.396   0.407   5.673  1.5054  4.0904 -1.7786
 6998SOL    HW232631   2.548   0.418   5.661 -0.5483 -4.2259 -1.0409
 6999SOL     OW32632   1.233   0.834   1.305 -0.2958  0.1137 -0.7094
 6999SOL    HW132633   1.150   0.825   1.259  0.0946 -0.0861 -1.3723
 6999SOL    HW232634   1.202   0.804   1.390 -1.9306 -0.5045 -1.5433
 7000SOL     OW32635   1.083   2.326   1.228 -0.3018 -0.3576  0.0642
 7000SOL    HW132636   1.124   2.401   1.270 -0.5448 -0.5614  0.6589
 7000SOL    HW232637   1.070   2.273   1.307 -1.5726 -2.5261 -1.5847
 7001SOL     OW32638   3.274   1.140   7.018 -0.0441 -0.5720 -0.3722
 7001SOL    HW132639   3.227   1.148   6.935  0.1019  0.2632 -0.3708
 7001SOL    HW232640   3.282   1.045   7.019  0.1000 -0.5520  0.7929
 7002SOL     OW32641   1.543   0.488  12.311 -0.0554  0.7406 -0.1328
 7002SOL    HW132642   1.630   0.449  12.324  0.5260  1.2378 -2.5461
 7002SOL    HW232643   1.492   0.457  12.386 -0.7325  0.4088 -0.7359
 7003SOL     OW32644   2.768   2.043  13.203  0.2984 -0.3838 -0.1114
 7003SOL    HW132645   2.748   2.078  13.290  0.7202 -3.7469  1.3153
 7003SOL    HW232646   2.831   2.112  13.181 -0.7489 -0.2664 -2.7606
 7004SOL     OW32647   1.025   1.488  13.581  0.2263  0.2784  0.3636
 7004SOL    HW132648   1.112   1.475  13.619  0.9662 -0.1681 -1.4935
 7004SOL    HW232649   0.959   1.447  13.637  0.0120  3.1448  2.2778
 7005SOL     OW32650   3.442   0.005   1.048  0.3162 -0.1543  0.7968
 7005SOL    HW132651   3.417   0.097   1.053 -0.0604 -0.3226  1.9235
 7005SOL    HW232652   3.359   4.717   1.009  1.0487 -1.0583 -0.1738
 7006SOL     OW32653   0.076   4.114   2.840 -0.4999 -0.3041 -0.4493
 7006SOL    HW132654   0.016   4.103   2.767 -0.7024  2.3064 -0.6764
 7006SOL    HW232655   0.014   4.153   2.902  0.7218 -0.3021  0.7829
 7007SOL     OW32656   0.368   1.245  15.987  0.2044  0.1066  0.6647
 7007SOL    HW132657   0.421   1.289  15.920 -0.1840  0.0114  0.2928
 7007SOL    HW232658   0.432   1.183  16.024 -0.1358 -0.8449 -0.3191
 7008SOL     OW32659   1.925   1.538  14.862  0.5899  0.2629 -0.0433
 7008SOL    HW132660   1.932   1.531  14.957  0.8671  1.0130 -0.0108
 7008SOL    HW232661   2.000   1.493  14.822  1.1761 -0.7535  2.1640
 7009SOL     OW32662   0.521   2.052   7.288 -0.7165  0.4283  0.0968
 7009SOL    HW132663   0.509   1.972   7.238 -0.5647  1.3746 -1.4555
 7009SOL    HW232664   0.593   2.030   7.347  1.5064  1.0765 -2.3437
 7010SOL     OW32665   3.670   1.800   3.618 -0.1145  0.4072 -0.0103
 7010SOL    HW132666   3.585   1.786   3.659  0.9349 -1.7025  1.4725
 7010SOL    HW232667   3.727   1.729   3.647 -0.3998 -0.4920 -1.6333
 7011SOL     OW32668   1.449   4.432   3.233 -0.2599  0.1431  0.3577
 7011SOL    HW132669   1.373   4.485   3.257 -0.3431  0.3541 -0.3746
 7011SOL    HW232670   1.441   4.367   3.303 -0.9490  0.6099  0.7073
 7012SOL     OW32671   3.490   4.097   1.389  0.1306 -0.1147  0.2305
 7012SOL    HW132672   3.537   4.179   1.402 -1.8343  1.3565 -2.0344
 7012SOL    HW232673   3.418   4.108   1.452 -0.0227  1.2139 -0.1713
 7013SOL     OW32674   4.693   2.679   3.635 -0.2368 -0.1716  0.1948
 7013SOL    HW132675   4.734   2.649   3.716  0.4228 -1.2721 -0.5436
 7013SOL    HW232676   4.618   2.624   3.613 -0.3926 -0.3040  1.0530
 7014SOL     OW32677   1.417   2.399   4.723  0.2105  0.6918  0.0976
 7014SOL    HW132678   1.470   2.428   4.649  0.3841  1.4744  0.5373
 7014SOL    HW232679   1.337   2.372   4.677 -0.8036  2.1053  1.0472
 7015SOL     OW32680   1.826   0.125   4.780 -0.5430 -0.2600  0.2033
 7015SOL    HW132681   1.860   0.118   4.691 -0.2523  0.5852  0.2461
 7015SOL    HW232682   1.874   0.054   4.823  1.9313  2.0026  1.2134
 7016SOL     OW32683   0.183   2.531   4.284 -0.3047  0.1174  0.2986
 7016SOL    HW132684   0.222   2.560   4.201  1.7345 -2.0908  0.5008
 7016SOL    HW232685   0.157   2.619   4.313 -0.6197 -0.2251  1.0374
 7017SOL     OW32686   4.330   0.907   8.293 -0.1409 -0.8282  0.0729
 7017SOL    HW132687   4.417   0.878   8.320  0.3024  0.5249  0.1161
 7017SOL    HW232688   4.322   0.990   8.341 -1.1149  0.8446 -2.9730
 7018SOL     OW32689   4.299   2.337   7.580 -0.5165 -0.5720 -1.0229
 7018SOL    HW132690   4.224   2.395   7.570  0.0211  0.3892  0.4671
 7018SOL    HW232691   4.268   2.289   7.656 -1.2025  0.8290 -0.4290
 7019SOL     OW32692   0.612   2.071   5.669 -0.4543  0.3899 -0.0041
 7019SOL    HW132693   0.639   2.161   5.652 -2.3815  1.5834  3.3343
 7019SOL    HW232694   0.675   2.016   5.622 -0.0942  1.6003 -0.9547
 7020SOL     OW32695   0.422   2.983   8.263  0.0172 -0.5311 -0.6996
 7020SOL    HW132696   0.457   2.894   8.271 -1.1820 -0.9887 -0.5541
 7020SOL    HW232697   0.415   3.005   8.356 -3.7123 -0.1433 -1.0536
 7021SOL     OW32698   1.604   1.784  16.173  0.2979  0.0559  0.0493
 7021SOL    HW132699   1.597   1.781  16.078  0.1286 -0.8614  0.1000
 7021SOL    HW232700   1.695   1.816  16.176  0.0948  0.4968  1.5099
 7022SOL     OW32701   0.161   1.759   5.617 -0.5942  0.4178 -0.2992
 7022SOL    HW132702   0.247   1.797   5.631 -1.3318  2.8009 -2.2419
 7022SOL    HW232703   0.168   1.743   5.523 -0.4909  1.6378 -0.4986
 7023SOL     OW32704   2.868   4.343  16.201 -0.1683 -0.1284 -0.5858
 7023SOL    HW132705   2.936   4.312  16.141  0.9096  0.9925  0.0594
 7023SOL    HW232706   2.915   4.382  16.274 -2.4563 -0.1235  0.8866
 7024SOL     OW32707   2.724   2.376   5.077 -0.3707  0.1001 -0.3099
 7024SOL    HW132708   2.636   2.342   5.063  0.2403 -1.3640 -0.6810
 7024SOL    HW232709   2.759   2.372   4.988 -1.3922  0.5314 -0.7202
 7025SOL     OW32710   0.605   4.690   0.976 -0.0861 -0.2167  0.0734
 7025SOL    HW132711   0.657   4.649   1.045  1.0445  1.1317  0.0172
 7025SOL    HW232712   0.555   0.013   1.030 -0.6186 -0.2861 -0.3360
 7026SOL     OW32713   0.431   0.523   0.692 -0.2724  0.0432 -0.3333
 7026SOL    HW132714   0.459   0.451   0.635 -0.2963 -0.3273  0.1227
 7026SOL    HW232715   0.510   0.576   0.702  0.0128 -0.9466  2.7994
 7027SOL     OW32716   3.890   0.768   4.161 -0.3976 -0.5696  0.3480
 7027SOL    HW132717   3.943   0.760   4.240  1.0089  1.1697 -0.4140
 7027SOL    HW232718   3.809   0.800   4.199 -0.8819 -0.3452 -0.8664
 7028SOL     OW32719   3.254   3.508   7.454  0.0212  0.2846  0.2745
 7028SOL    HW132720   3.188   3.565   7.493  1.6503 -1.2104  5.2296
 7028SOL    HW232721   3.322   3.574   7.442 -1.7451  1.7749 -1.4206
 7029SOL     OW32722   1.439   2.727   8.726  0.2474 -0.2579 -0.3537
 7029SOL    HW132723   1.464   2.655   8.668  1.1179 -1.8615  2.0269
 7029SOL    HW232724   1.525   2.761   8.753  0.8122 -0.6846 -1.6085
 7030SOL     OW32725   0.472   3.137   8.883 -0.2231  0.0621  0.4210
 7030SOL    HW132726   0.490   3.228   8.861  1.0613 -0.5363 -1.0221
 7030SOL    HW232727   0.382   3.133   8.916  0.1055 -0.0288  1.2918
 7031SOL     OW32728   2.567   3.140  10.319 -0.5705 -0.0316 -0.3022
 7031SOL    HW132729   2.564   3.122  10.413  0.2395 -3.7643 -0.9737
 7031SOL    HW232730   2.477   3.130  10.287 -0.7026  2.4318 -0.6683
 7032SOL     OW32731   0.507   0.526   8.799 -0.9913 -0.2163  1.2416
 7032SOL    HW132732   0.528   0.466   8.871  0.5716  1.1799  1.9459
 7032SOL    HW232733   0.534   0.474   8.723  1.9172  2.9315  0.1564
 7033SOL     OW32734   3.596   4.181  16.482  0.0219  0.2721  0.0452
 7033SOL    HW132735   3.576   4.161  16.391  0.3997  0.7193 -0.1357
 7033SOL    HW232736   3.684   4.144  16.479 -0.9152 -1.9041 -0.8142
 7034SOL     OW32737   3.592   0.163   9.159 -0.4621  0.4309 -0.0768
 7034SOL    HW132738   3.673   0.133   9.118 -0.9181  1.7541 -1.9480
 7034SOL    HW232739   3.612   0.249   9.194 -1.0587  0.5862 -0.1107
 7035SOL     OW32740   2.980   3.014   6.051  0.5427 -0.2115 -0.0013
 7035SOL    HW132741   3.075   3.014   6.038  0.5971 -0.4056  0.4048
 7035SOL    HW232742   2.980   3.064   6.133 -1.7168 -0.9327  0.4412
 7036SOL     OW32743   2.770   1.131   1.815  0.0370  0.4086 -0.2774
 7036SOL    HW132744   2.709   1.203   1.800 -0.7179  0.2269  1.8370
 7036SOL    HW232745   2.828   1.147   1.740  0.5819 -1.7280 -0.3135
 7037SOL     OW32746   0.839   0.115  12.300 -0.0960  0.6000 -0.2450
 7037SOL    HW132747   0.787   0.087  12.224  2.2987  0.7926 -1.9529
 7037SOL    HW232748   0.856   0.206  12.276  0.0738  1.1844  2.1526
 7038SOL     OW32749   3.537   3.265  10.597 -0.0916 -0.3331  0.3323
 7038SOL    HW132750   3.528   3.318  10.676  0.7152 -1.0056  0.8702
 7038SOL    HW232751   3.567   3.182  10.633 -0.3606 -0.9129 -0.7616
 7039SOL     OW32752   0.973   3.802   3.504 -0.4881 -0.0723  0.0332
 7039SOL    HW132753   0.883   3.832   3.520 -0.2065  0.1399  1.2360
 7039SOL    HW232754   0.978   3.727   3.563 -1.7541 -2.5072 -2.9775
 7040SOL     OW32755   4.225   1.875   7.590  0.4523  0.3834 -0.0931
 7040SOL    HW132756   4.239   1.818   7.665  1.2904 -0.0107 -0.5426
 7040SOL    HW232757   4.136   1.905   7.606  1.1756  2.4043  0.0518
 7041SOL     OW32758   1.194   1.441   0.997 -0.1680 -0.2463  0.8597
 7041SOL    HW132759   1.179   1.521   0.946  3.4944  2.4593  4.0818
 7041SOL    HW232760   1.239   1.384   0.934 -0.1543 -0.9720  1.5299
 7042SOL     OW32761   0.837   2.268  15.981  0.4408 -0.9779 -0.1236
 7042SOL    HW132762   0.925   2.247  15.950  0.0839 -1.3194 -0.8981
 7042SOL    HW232763   0.798   2.199  15.927 -0.4546  0.7931 -1.7408
 7043SOL     OW32764   1.886   3.580   2.326 -0.3145  0.0793  0.0547
 7043SOL    HW132765   1.793   3.604   2.324  0.2720  2.4180  0.6373
 7043SOL    HW232766   1.864   3.489   2.344 -0.1573 -0.6099 -3.1246
 7044SOL     OW32767   3.845   0.825   8.079  0.8323 -0.5375  0.0971
 7044SOL    HW132768   3.866   0.810   7.987 -0.5710  2.6761 -0.7433
 7044SOL    HW232769   3.905   0.899   8.086  0.5011 -0.1081 -1.6715
 7045SOL     OW32770   4.653   3.330  17.414 -0.2624  0.1295  0.6731
 7045SOL    HW132771   4.678   3.406  17.466  1.0273 -0.5222  1.0384
 7045SOL    HW232772   4.678   3.248  17.458  0.2683 -0.8217 -1.3878
 7046SOL     OW32773   0.550   2.233  16.724  0.1700 -0.0297  0.0445
 7046SOL    HW132774   0.509   2.319  16.736 -0.4400 -0.5300  1.5511
 7046SOL    HW232775   0.512   2.177  16.791 -1.1290 -0.2413 -0.8693
 7047SOL     OW32776   0.799   1.556  14.615 -0.1328  0.0977  0.3232
 7047SOL    HW132777   0.805   1.470  14.657 -2.6370 -0.6548 -0.8005
 7047SOL    HW232778   0.719   1.549  14.561 -0.3689 -1.1150  0.8300
 7048SOL     OW32779   4.600   2.744   6.617  0.2725 -0.0288  0.8185
 7048SOL    HW132780   4.533   2.745   6.685 -0.9252 -0.1010 -0.3851
 7048SOL    HW232781   4.670   2.761   6.681 -0.2891 -0.7800  1.6398
 7049SOL     OW32782   2.578   1.413   0.277  0.1738  0.4871 -0.4974
 7049SOL    HW132783   2.515   1.343   0.295 -1.3364  2.1636  0.6579
 7049SOL    HW232784   2.620   1.377   0.198  0.0861 -0.5872 -0.0467
 7050SOL     OW32785   1.081   1.191   8.638 -0.2225 -0.0920  0.8538
 7050SOL    HW132786   1.125   1.199   8.723 -1.6338  1.2959  1.4697
 7050SOL    HW232787   1.148   1.211   8.574 -0.6648 -1.2044  0.0471
 7051SOL     OW32788   4.652   0.797   2.316  0.1683 -0.0303 -0.8601
 7051SOL    HW132789   4.630   0.735   2.247 -0.3678 -1.1187  0.3056
 7051SOL    HW232790   4.568   0.817   2.356  1.0293 -0.8240  1.3088
 7052SOL     OW32791   1.344   3.085   4.068 -0.2806  0.1040  0.4409
 7052SOL    HW132792   1.336   3.168   4.115  0.4107 -0.9240  2.3951
 7052SOL    HW232793   1.419   3.097   4.010 -1.2232 -0.8917 -0.9988
 7053SOL     OW32794   1.636   0.387   1.065 -0.4840  0.3948  0.1221
 7053SOL    HW132795   1.715   0.362   1.112  0.4680  1.0443 -1.1196
 7053SOL    HW232796   1.668   0.446   0.997  1.7450 -1.4240 -0.3880
 7054SOL     OW32797   3.442   0.449  16.384 -0.7682 -0.5675  0.1581
 7054SOL    HW132798   3.504   0.515  16.354  1.3798 -1.8197  1.8262
 7054SOL    HW232799   3.361   0.474  16.340 -0.2549  0.9477  0.0683
 7055SOL     OW32800   1.426   0.595   6.150  0.0062  0.4256 -0.2893
 7055SOL    HW132801   1.463   0.603   6.062  1.5964 -0.8019  0.2535
 7055SOL    HW232802   1.340   0.560   6.127 -0.4232  1.1150  0.3032
 7056SOL     OW32803   1.783   3.831   2.222  0.7068  0.0391 -0.5767
 7056SOL    HW132804   1.772   3.926   2.227  1.0169  0.0303  0.2654
 7056SOL    HW232805   1.787   3.807   2.314  0.3034  0.7979 -0.3679
 7057SOL     OW32806   2.652   0.492  16.799  0.2600 -0.1078  0.2965
 7057SOL    HW132807   2.715   0.422  16.808  0.4691  0.0709  0.2231
 7057SOL    HW232808   2.718   0.561  16.786 -2.1847  2.1907 -0.0700
 7058SOL     OW32809   1.911   0.813   1.621 -0.0243 -0.1769  0.2019
 7058SOL    HW132810   1.850   0.886   1.621  0.9429  0.6169  1.6081
 7058SOL    HW232811   1.878   0.749   1.684  2.4310 -1.8426 -0.1892
 7059SOL     OW32812   2.658   3.999   2.777 -0.2806  0.2139 -0.0339
 7059SOL    HW132813   2.671   3.907   2.752 -1.9978  0.4394 -1.7584
 7059SOL    HW232814   2.645   4.033   2.689  2.2706  0.4295 -0.3433
 7060SOL     OW32815   4.105   2.430   4.416  0.1391  0.1673 -0.2748
 7060SOL    HW132816   4.042   2.403   4.349 -0.9357  2.5409 -0.2182
 7060SOL    HW232817   4.128   2.347   4.458 -3.2975 -1.1423 -0.9208
 7061SOL     OW32818   2.661   2.236  12.214 -0.1398 -0.8117 -0.2258
 7061SOL    HW132819   2.647   2.320  12.258 -0.0028 -1.1251  0.4130
 7061SOL    HW232820   2.755   2.221  12.221  0.4291  2.9856  0.2076
 7062SOL     OW32821   3.713   3.640  14.416  0.4234 -0.2863 -0.1199
 7062SOL    HW132822   3.646   3.586  14.457 -1.1829  1.2881 -0.7058
 7062SOL    HW232823   3.748   3.706  14.477  0.8090 -1.9731  1.5084
 7063SOL     OW32824   1.118   4.188   2.283 -0.0656 -1.0878 -0.4395
 7063SOL    HW132825   1.026   4.204   2.261  0.6195  1.3206 -1.4643
 7063SOL    HW232826   1.110   4.122   2.352  1.1447 -1.4422 -0.6352
 7064SOL     OW32827   3.958   1.157   6.828  0.5251 -0.2370 -0.1676
 7064SOL    HW132828   3.996   1.100   6.761 -1.7801 -0.1183 -1.5649
 7064SOL    HW232829   4.008   1.130   6.905  0.8706 -0.5938 -0.5192
 7065SOL     OW32830   3.225   3.818  16.492  0.5272  0.1675 -0.5746
 7065SOL    HW132831   3.191   3.748  16.435 -1.1378 -0.2357  0.9035
 7065SOL    HW232832   3.149   3.861  16.531  0.6336  0.2297 -0.4400
 7066SOL     OW32833   0.643   2.891   2.252  0.2228 -0.3856 -0.1720
 7066SOL    HW132834   0.627   2.810   2.299 -1.7028 -0.5539 -1.1142
 7066SOL    HW232835   0.628   2.869   2.160 -0.8921  1.1462 -0.3653
 7067SOL     OW32836   3.834   2.185  17.170 -0.0429  0.3759  0.0099
 7067SOL    HW132837   3.821   2.242  17.095 -1.0280  2.2535  1.5954
 7067SOL    HW232838   3.928   2.168  17.156 -0.3270 -1.2596  0.1023
 7068SOL     OW32839   4.626   0.773   7.256 -0.4977 -0.4675 -0.1900
 7068SOL    HW132840   4.644   0.782   7.163  0.0724 -0.7521 -0.1072
 7068SOL    HW232841   4.643   0.679   7.265 -0.9887 -0.6332 -0.9859
 7069SOL     OW32842   0.686   2.320   6.588 -0.6398 -0.4133 -0.1018
 7069SOL    HW132843   0.690   2.224   6.595 -2.2343 -0.2583  2.9283
 7069SOL    HW232844   0.742   2.346   6.515  0.7382 -1.5066  0.5541
 7070SOL     OW32845   3.092   3.115   2.926  0.1710  0.2255  0.0441
 7070SOL    HW132846   3.063   3.093   3.014  0.9434  1.1257  0.5148
 7070SOL    HW232847   3.013   3.092   2.877 -1.6039  0.3783  2.8494
 7071SOL     OW32848   2.428   1.651  15.285 -0.1485  0.0347 -0.3022
 7071SOL    HW132849   2.435   1.603  15.202 -0.4731 -0.7602  0.1269
 7071SOL    HW232850   2.335   1.651  15.306  0.4535 -2.0608  2.3304
 7072SOL     OW32851   4.464   0.440   7.557 -0.0282  0.2387 -0.0231
 7072SOL    HW132852   4.547   0.402   7.528  1.2008  2.4608  0.5657
 7072SOL    HW232853   4.458   0.398   7.642  0.2039  0.5885  0.1688
 7073SOL     OW32854   3.121   3.307  12.701  0.0773  0.0063 -0.1641
 7073SOL    HW132855   3.135   3.306  12.607  0.2894  1.2632 -0.1385
 7073SOL    HW232856   3.087   3.218  12.714  1.0499 -0.5086 -1.1574
 7074SOL     OW32857   0.810   3.568   8.179 -0.4555  0.3051  0.4356
 7074SOL    HW132858   0.780   3.493   8.128  0.2786 -0.5740  1.2938
 7074SOL    HW232859   0.844   3.522   8.256 -2.7545 -1.7761  0.2272
 7075SOL     OW32860   1.384   0.563   3.409 -0.0695  0.0883 -0.4966
 7075SOL    HW132861   1.367   0.483   3.358  0.7347 -1.5642  1.8547
 7075SOL    HW232862   1.450   0.592   3.346  1.3157  0.7689  1.2758
 7076SOL     OW32863   2.048   2.481   6.108 -0.0825 -0.3373  0.0035
 7076SOL    HW132864   2.108   2.548   6.142  0.4511 -0.2043 -1.2032
 7076SOL    HW232865   2.010   2.525   6.032  0.1765  0.2296  0.2007
 7077SOL     OW32866   3.907   3.156   6.497  0.6816  0.0101  0.3033
 7077SOL    HW132867   3.877   3.243   6.521 -0.4791 -0.9124  2.2253
 7077SOL    HW232868   3.927   3.164   6.404  1.7947 -1.0910  0.4376
 7078SOL     OW32869   0.520   2.241   1.653  0.3132 -0.1010 -0.0319
 7078SOL    HW132870   0.495   2.296   1.727 -5.0410 -1.9821 -0.4564
 7078SOL    HW232871   0.553   2.303   1.588  0.4365  1.1180  1.1878
 7079SOL     OW32872   3.376   4.490  17.288 -0.0263  0.2132  0.6676
 7079SOL    HW132873   3.390   4.572  17.336  0.3555 -0.9816  2.5698
 7079SOL    HW232874   3.291   4.501  17.245 -0.2036 -0.9696  0.7370
 7080SOL     OW32875   1.179   2.569   1.327  0.4734 -0.2949 -0.0775
 7080SOL    HW132876   1.123   2.623   1.383 -0.6371  0.5083 -1.9792
 7080SOL    HW232877   1.218   2.638   1.274  1.9985 -1.0003  0.1466
 7081SOL     OW32878   1.505   3.730   9.363 -0.1986  0.3026  0.3879
 7081SOL    HW132879   1.444   3.709   9.293  1.7887  1.3658 -1.6502
 7081SOL    HW232880   1.446   3.741   9.437 -0.0253  0.6920  0.4673
 7082SOL     OW32881   1.730   0.957   4.344 -0.3394  0.2989 -0.1125
 7082SOL    HW132882   1.797   0.939   4.410 -0.7718  1.5684  0.6698
 7082SOL    HW232883   1.659   0.966   4.407  1.6380  1.1744  1.9820
 7083SOL     OW32884   2.808   0.055   1.452 -0.2448 -0.7588  0.3092
 7083SOL    HW132885   2.766   0.084   1.371 -0.3165  1.3671  1.0893
 7083SOL    HW232886   2.746   0.086   1.518 -0.7290 -1.1215  0.0262
 7084SOL     OW32887   0.116   0.179   4.224 -0.4302  0.7162 -0.3904
 7084SOL    HW132888   0.140   0.256   4.172  0.7974 -0.0432 -0.9514
 7084SOL    HW232889   0.021   0.172   4.215 -0.2527 -0.1458 -1.5035
 7085SOL     OW32890   3.653   3.147  13.003  0.1467  0.3171 -0.1806
 7085SOL    HW132891   3.682   3.222  13.054 -0.0715  0.3218 -0.0664
 7085SOL    HW232892   3.637   3.186  12.917 -0.7174 -0.2616 -0.2856
 7086SOL     OW32893   2.208   2.443   7.621  0.4897 -0.1120  0.1137
 7086SOL    HW132894   2.158   2.480   7.693  0.8708 -0.6000  0.6269
 7086SOL    HW232895   2.137   2.388   7.589  0.2059  0.3808 -0.0953
 7087SOL     OW32896   0.019   2.636  15.654  0.8044 -0.2889  0.4012
 7087SOL    HW132897   0.074   2.568  15.614  2.1785  1.8642 -1.3512
 7087SOL    HW232898   4.715   2.595  15.729  2.4110 -0.0703  1.4065
 7088SOL     OW32899   0.828   1.138   3.070 -0.4956 -0.0625 -0.5717
 7088SOL    HW132900   0.834   1.133   3.165 -3.4445  0.3322 -0.3804
 7088SOL    HW232901   0.751   1.087   3.048 -0.7359  0.5271 -1.0885
 7089SOL     OW32902   1.490   2.983   5.058  0.3588 -0.2297 -0.9235
 7089SOL    HW132903   1.408   3.028   5.038 -0.6426 -0.8249  1.8155
 7089SOL    HW232904   1.539   2.996   4.977  1.0087 -1.1024 -0.6779
 7090SOL     OW32905   3.763   0.114   4.552  0.2268  0.4034 -0.1040
 7090SOL    HW132906   3.694   0.146   4.494 -0.2849 -0.7100 -0.1087
 7090SOL    HW232907   3.712   0.045   4.593  0.7366 -1.4796 -2.6610
 7091SOL     OW32908   3.994   1.813   8.744 -0.2900  0.2947  0.2117
 7091SOL    HW132909   4.049   1.848   8.815 -0.7676  0.7893  0.3394
 7091SOL    HW232910   3.907   1.843   8.769  0.6544  2.5810  0.8089
 7092SOL     OW32911   2.225   2.482  12.625 -0.1970  0.0952 -0.1707
 7092SOL    HW132912   2.192   2.550  12.565 -0.8148 -0.1092 -0.0669
 7092SOL    HW232913   2.310   2.464  12.585  0.4969  3.3739 -0.1962
 7093SOL     OW32914   0.441   3.820   6.248  0.2656  0.5858  0.0059
 7093SOL    HW132915   0.423   3.902   6.203  1.9505  2.1157  2.1008
 7093SOL    HW232916   0.536   3.810   6.248 -0.1498 -3.4580  2.7484
 7094SOL     OW32917   1.749   0.234  15.443  0.2285 -0.2050  0.0874
 7094SOL    HW132918   1.704   0.182  15.509  0.2084  1.5570  1.4686
 7094SOL    HW232919   1.721   0.321  15.472 -0.8711  0.3571 -2.6539
 7095SOL     OW32920   1.942   4.274   8.046 -0.5410  0.0104  0.3555
 7095SOL    HW132921   2.033   4.303   8.054 -1.3133  2.6294 -0.2685
 7095SOL    HW232922   1.900   4.355   8.019 -0.0486 -0.0534 -0.6237
 7096SOL     OW32923   1.067   2.173   5.359  0.8004  0.1049  0.9051
 7096SOL    HW132924   1.133   2.145   5.296 -0.5303 -0.6597 -0.1621
 7096SOL    HW232925   1.122   2.193   5.434  0.9200 -0.5049  0.9838
 7097SOL     OW32926   2.863   4.099  16.647  0.0858 -0.1028 -0.2870
 7097SOL    HW132927   2.889   4.070  16.735 -1.1037 -1.1215 -0.2566
 7097SOL    HW232928   2.937   4.079  16.591 -1.7052 -1.6767 -2.1082
 7098SOL     OW32929   4.232   1.626   5.430 -0.3392  0.3411  0.1515
 7098SOL    HW132930   4.159   1.670   5.385  1.5789 -0.0484 -3.2535
 7098SOL    HW232931   4.235   1.541   5.388 -2.5561  0.3714 -0.1102
 7099SOL     OW32932   2.788   2.280   7.059 -0.1454  0.5295 -0.4259
 7099SOL    HW132933   2.838   2.294   7.140 -0.9783  0.9644  0.0088
 7099SOL    HW232934   2.813   2.358   7.010 -2.0154  1.1501 -0.4002
 7100SOL     OW32935   4.163   4.446  12.000 -0.2686 -0.3096 -0.4785
 7100SOL    HW132936   4.139   4.450  11.907 -0.1254  1.3162 -0.4352
 7100SOL    HW232937   4.141   4.534  12.030  0.5279 -0.5016  0.6660
 7101SOL     OW32938   1.814   4.282  11.172 -0.0586  0.6079  0.0234
 7101SOL    HW132939   1.833   4.219  11.241  0.2478  0.6746 -0.0016
 7101SOL    HW232940   1.859   4.359  11.207  1.8280  0.2173 -1.5183
 7102SOL     OW32941   3.178   4.524   8.812  0.2384  0.2780 -0.5161
 7102SOL    HW132942   3.128   4.600   8.841  1.6872  0.2661  1.9594
 7102SOL    HW232943   3.153   4.458   8.876 -0.2186  2.4677  1.5318
 7103SOL     OW32944   1.989   0.015   2.583  0.1221  0.2454  0.9883
 7103SOL    HW132945   1.987   0.013   2.488 -0.2420  2.5123  0.9532
 7103SOL    HW232946   1.909   4.703   2.603  0.0283  0.3606  0.8999
 7104SOL     OW32947   0.321   1.343  16.996 -0.3093 -0.1551  0.1817
 7104SOL    HW132948   0.288   1.263  16.957 -0.2794 -2.0075  3.9966
 7104SOL    HW232949   0.300   1.413  16.933 -2.2365 -0.4734  0.5032
 7105SOL     OW32950   0.480   1.189   6.536 -0.1464 -0.0466 -0.5860
 7105SOL    HW132951   0.447   1.207   6.624 -0.9289  1.9554 -1.2655
 7105SOL    HW232952   0.456   1.266   6.483  0.0381  1.4193  1.4731
 7106SOL     OW32953   4.009   1.164   7.993  0.1785  0.3013 -0.4778
 7106SOL    HW132954   4.036   1.232   7.932  0.9609 -2.1875 -2.8927
 7106SOL    HW232955   3.984   1.101   7.925  1.8816 -1.0580  0.1622
 7107SOL     OW32956   0.890   3.083   4.129 -0.2570 -0.5277 -0.4258
 7107SOL    HW132957   0.947   3.158   4.113 -2.0529  0.7872 -0.7152
 7107SOL    HW232958   0.960   3.020   4.145 -0.2802 -0.6197 -0.6822
 7108SOL     OW32959   4.680   1.406  16.637 -0.3371  0.7565 -0.1274
 7108SOL    HW132960   4.633   1.485  16.610 -1.2844  0.1101 -0.3525
 7108SOL    HW232961   4.675   1.356  16.556 -1.8138 -0.2442  0.5814
 7109SOL     OW32962   3.986   2.261  10.625 -0.0550 -0.1585 -0.0879
 7109SOL    HW132963   4.025   2.259  10.712  2.6657  0.8565 -1.2916
 7109SOL    HW232964   4.057   2.277  10.563  0.3150  3.9889  1.4093
 7110SOL     OW32965   0.976   3.415   1.977  0.0963  0.1029 -0.1473
 7110SOL    HW132966   1.015   3.499   1.956  2.1562 -1.3684 -2.1570
 7110SOL    HW232967   0.970   3.431   2.071  4.0037 -0.9681  0.2822
 7111SOL     OW32968   0.488   3.077   2.998 -0.6397  0.2858 -0.3542
 7111SOL    HW132969   0.534   3.012   3.052 -0.2075  1.4319  0.6546
 7111SOL    HW232970   0.509   3.053   2.908 -0.5874  1.2967 -0.6069
 7112SOL     OW32971   1.006   2.381   3.201  0.4669  0.6344  0.1762
 7112SOL    HW132972   1.068   2.309   3.193 -1.6096 -1.1562  0.1318
 7112SOL    HW232973   0.926   2.345   3.161  1.0159 -1.9784  1.4528
 7113SOL     OW32974   1.704   2.782  12.941  0.1011  0.1775 -0.2970
 7113SOL    HW132975   1.719   2.782  13.036  3.0525  1.2106 -0.7683
 7113SOL    HW232976   1.784   2.833  12.927  0.5405 -1.1648 -2.6102
 7114SOL     OW32977   0.539   0.585  10.789  0.3915  0.2233 -0.8202
 7114SOL    HW132978   0.485   0.530  10.732  1.5004  0.6188 -2.2484
 7114SOL    HW232979   0.516   0.668  10.746 -2.6171 -0.6886 -0.9614
 7115SOL     OW32980   2.309   3.741   2.050  0.0145  0.2129  0.5451
 7115SOL    HW132981   2.278   3.706   1.966 -1.5824  1.6041  0.5498
 7115SOL    HW232982   2.231   3.751   2.106 -0.0287  1.3223  0.2966
 7116SOL     OW32983   1.019   2.912   7.130 -0.6527  0.2040  0.3479
 7116SOL    HW132984   1.062   2.946   7.051 -2.0670 -1.0345 -0.9768
 7116SOL    HW232985   0.967   2.985   7.164 -2.6114  1.2953 -4.8834
 7117SOL     OW32986   4.466   1.938   7.052 -0.0302 -0.4242 -0.1858
 7117SOL    HW132987   4.386   1.987   7.066  1.1961  2.1274 -2.1152
 7117SOL    HW232988   4.507   1.945   7.138 -0.9885 -0.0393  0.2328
 7118SOL     OW32989   3.115   0.695   3.097  0.0831  1.0114  0.6412
 7118SOL    HW132990   3.151   0.775   3.058 -2.0101  1.0678 -1.1549
 7118SOL    HW232991   3.099   0.725   3.186  2.2022 -0.3743  1.4888
 7119SOL     OW32992   1.535   1.923  12.493  0.0155  0.9499  0.3924
 7119SOL    HW132993   1.455   1.871  12.486  0.0168  1.1420 -1.1356
 7119SOL    HW232994   1.507   1.959  12.577 -0.7442 -0.0022  0.5409
 7120SOL     OW32995   4.086   3.242  16.320  0.4032 -0.5281  0.1961
 7120SOL    HW132996   4.136   3.315  16.357  0.9402 -0.3436 -0.9183
 7120SOL    HW232997   4.142   3.215  16.247  0.6338 -1.9611  0.9016
 7121SOL     OW32998   1.784   3.929   5.563  0.2865 -0.0962 -0.3238
 7121SOL    HW132999   1.754   3.980   5.638  0.8199  0.0956 -0.2396
 7121SOL    HW233000   1.826   3.860   5.615 -0.8350  1.2849  2.4053
 7122SOL     OW33001   4.348   2.359  12.093  0.0167 -0.0358  0.0073
 7122SOL    HW133002   4.320   2.448  12.110  0.1874 -0.0425  0.3130
 7122SOL    HW233003   4.437   2.359  12.126  0.6859  0.3873 -1.7887
 7123SOL     OW33004   3.693   0.080  14.975 -0.1742  0.1455 -0.2919
 7123SOL    HW133005   3.745   0.001  14.961  0.4265 -0.2944  4.2217
 7123SOL    HW233006   3.617   0.073  14.917 -0.8753 -1.9633  0.8912
 7124SOL     OW33007   2.420   1.078  10.130 -0.1097  0.1452 -0.0284
 7124SOL    HW133008   2.472   1.020  10.187  0.1361  1.5653  1.1901
 7124SOL    HW233009   2.355   1.111  10.191  0.9438 -0.6552  1.5413
 7125SOL     OW33010   1.001   2.762   1.464 -0.0550  0.4156 -0.3583
 7125SOL    HW133011   1.000   2.840   1.408  1.3260 -0.5333 -1.6941
 7125SOL    HW233012   0.917   2.759   1.509 -0.1000  1.7556 -0.3459
 7126SOL     OW33013   1.935   4.174   2.426  0.1057  0.7461 -0.0829
 7126SOL    HW133014   2.027   4.148   2.431  0.6701  2.5661 -1.0325
 7126SOL    HW233015   1.929   4.194   2.519  0.9205 -0.9917  0.3472
 7127SOL     OW33016   0.713   0.950  13.491 -0.1495  0.3854 -0.0304
 7127SOL    HW133017   0.767   0.934  13.414 -0.2835 -2.0384  0.3689
 7127SOL    HW233018   0.749   0.875  13.540  1.2424  0.9436 -0.2071
 7128SOL     OW33019   2.620   1.802   3.709 -0.1150 -0.0997 -0.2841
 7128SOL    HW133020   2.674   1.730   3.676  0.4302  0.3246 -0.3227
 7128SOL    HW233021   2.575   1.760   3.783 -0.2437  0.9516  0.2502
 7129SOL     OW33022   0.272   2.998   2.444  0.3115 -0.1286  0.1286
 7129SOL    HW133023   0.357   2.955   2.453 -0.0145 -0.7687  0.1755
 7129SOL    HW233024   0.237   2.942   2.375 -0.8374 -0.3370  0.8847
 7130SOL     OW33025   0.425   0.123   7.147  0.1063 -0.0478 -0.6077
 7130SOL    HW133026   0.459   0.212   7.154  1.6023 -0.6561 -0.1629
 7130SOL    HW233027   0.509   0.078   7.147  0.0182 -0.2561  1.4225
 7131SOL     OW33028   3.811   0.245   5.561 -0.0950 -0.1771 -0.0265
 7131SOL    HW133029   3.790   0.294   5.641 -1.8240 -0.0472 -0.5664
 7131SOL    HW233030   3.843   0.313   5.502 -0.5729 -0.3876 -0.5163
 7132SOL     OW33031   4.066   2.503   4.799  0.4525 -0.0803  0.1464
 7132SOL    HW133032   4.161   2.499   4.800  0.4261 -0.6199  0.6894
 7132SOL    HW233033   4.043   2.428   4.854 -1.1320 -0.6507 -1.2846
 7133SOL     OW33034   4.147   1.959   3.853 -0.0150  0.6264  0.0159
 7133SOL    HW133035   4.213   1.975   3.920  0.0349 -2.4625  0.6964
 7133SOL    HW233036   4.163   1.867   3.828 -0.1116  1.0395 -1.6178
 7134SOL     OW33037   0.327   4.011   5.952  0.4024 -0.0982  0.0140
 7134SOL    HW133038   0.270   4.040   5.881 -1.5419  0.4496  1.7767
 7134SOL    HW233039   0.263   3.978   6.015  0.4783 -0.5973 -0.1693
 7135SOL     OW33040   1.165   3.474   9.170  0.5399  0.0720 -0.3803
 7135SOL    HW133041   1.235   3.539   9.182  1.0719 -0.4538 -0.6111
 7135SOL    HW233042   1.214   3.403   9.212  0.2014 -1.6200 -2.8893
 7136SOL     OW33043   4.707   2.179  15.887 -0.1350 -0.1143  0.6557
 7136SOL    HW133044   4.709   2.273  15.907  1.1704  0.0551 -0.2040
 7136SOL    HW233045   0.024   2.180  15.808 -0.5457  0.4683  0.3803
 7137SOL     OW33046   3.172   1.882   9.870  0.0068 -0.0123 -0.2649
 7137SOL    HW133047   3.086   1.923   9.882 -1.7121 -3.4420 -0.9032
 7137SOL    HW233048   3.230   1.928   9.931 -1.2958  1.0775  0.1606
 7138SOL     OW33049   1.844   4.288   6.484 -0.5654  0.7016  0.6936
 7138SOL    HW133050   1.774   4.224   6.474 -0.2718  0.5424 -0.2689
 7138SOL    HW233051   1.826   4.359   6.423 -1.7597  1.1337  1.5452
 7139SOL     OW33052   1.068   0.002   0.399  0.0328  0.5956 -0.4847
 7139SOL    HW133053   1.093   0.006   0.491 -0.5204  1.1926 -0.3645
 7139SOL    HW233054   1.153   4.704   0.371 -0.2163 -0.6825  0.3930
 7140SOL     OW33055   1.518   1.555   1.612  0.2681  0.0417  0.0605
 7140SOL    HW133056   1.452   1.495   1.577 -2.0219  3.2331 -1.1248
 7140SOL    HW233057   1.518   1.632   1.555 -1.3499 -0.1412 -0.1903
 7141SOL     OW33058   3.078   2.810   3.216  0.4242 -0.5421  0.2990
 7141SOL    HW133059   3.140   2.805   3.288  2.6642  0.1238 -1.5796
 7141SOL    HW233060   3.120   2.757   3.148  0.1244  0.8245 -0.9698
 7142SOL     OW33061   0.990   2.231   8.500 -0.5128 -0.5310 -0.1877
 7142SOL    HW133062   0.905   2.211   8.539 -1.9318  0.1642 -2.9709
 7142SOL    HW233063   1.050   2.171   8.545  0.4178  0.1170 -0.5634
 7143SOL     OW33064   4.118   1.098   8.762 -0.0305  0.3362 -0.0632
 7143SOL    HW133065   4.056   1.106   8.690 -0.2390  0.6933  0.1564
 7143SOL    HW233066   4.142   1.006   8.750  1.0532  0.5517  0.4033
 7144SOL     OW33067   4.171   3.819   2.762  0.2234  0.5699  0.1696
 7144SOL    HW133068   4.105   3.887   2.778  0.5259  1.3093 -1.7747
 7144SOL    HW233069   4.250   3.850   2.805  0.1622  1.0739 -0.0891
 7145SOL     OW33070   3.032   1.797   5.248 -0.1270 -0.7281  0.0279
 7145SOL    HW133071   3.037   1.733   5.319 -0.2265 -0.5145  0.2266
 7145SOL    HW233072   2.988   1.747   5.179  2.5432  0.0706 -2.2506
 7146SOL     OW33073   2.927   4.727   8.260  0.2291 -0.3032 -0.0693
 7146SOL    HW133074   2.916   0.079   8.292  0.6723 -0.1762 -0.2781
 7146SOL    HW233075   2.839   4.699   8.234 -0.0834  1.2226 -0.6724
 7147SOL     OW33076   1.718   2.833   6.054  0.4361 -0.0966 -0.3267
 7147SOL    HW133077   1.715   2.900   6.121 -0.0781 -0.4882  0.0437
 7147SOL    HW233078   1.733   2.761   6.116 -0.2395  1.5287  1.6976
 7148SOL     OW33079   0.245   4.019   3.633  0.0493  0.8498  0.6085
 7148SOL    HW133080   0.338   4.034   3.651  0.6281 -1.6834 -0.1218
 7148SOL    HW233081   0.201   4.071   3.699 -1.6204  1.9147 -1.3596
 7149SOL     OW33082   4.105   1.942  13.211 -0.2395  0.2393 -0.0524
 7149SOL    HW133083   4.133   1.947  13.302  0.3035 -0.8308 -0.1641
 7149SOL    HW233084   4.181   1.967  13.158 -0.2266  1.2113  0.4346
 7150SOL     OW33085   2.805   1.288  10.353 -0.6100  0.1235  0.0998
 7150SOL    HW133086   2.750   1.217  10.319 -1.2468  1.2899 -1.2865
 7150SOL    HW233087   2.807   1.340  10.273 -0.5085  0.7768  0.5257
 7151SOL     OW33088   4.202   2.987   3.574 -0.0082 -0.0695 -0.4946
 7151SOL    HW133089   4.257   2.926   3.524  0.3340  1.6214 -2.1672
 7151SOL    HW233090   4.132   2.924   3.594  0.4037 -0.7057 -1.0409
 7152SOL     OW33091   2.689   2.064   3.707  0.2218  0.1378  0.0621
 7152SOL    HW133092   2.677   1.969   3.700 -0.9928  0.1344  2.4313
 7152SOL    HW233093   2.709   2.053   3.800 -0.3941 -0.8725  0.0783
 7153SOL     OW33094   3.935   0.303   2.934  0.4337  0.0439 -0.6549
 7153SOL    HW133095   3.858   0.280   2.881 -0.0036  1.5807 -0.6936
 7153SOL    HW233096   3.923   0.398   2.930  0.6750  0.1039  0.1308
 7154SOL     OW33097   3.530   1.066   6.288 -0.0237  0.0064 -0.1631
 7154SOL    HW133098   3.437   1.085   6.303 -0.9576 -1.7817 -3.7607
 7154SOL    HW233099   3.566   1.154   6.275  0.7294  0.2875  3.9375
 7155SOL     OW33100   4.432   2.826   4.771 -0.5786  0.2040  0.0217
 7155SOL    HW133101   4.404   2.758   4.709 -1.8930 -0.0517  0.8795
 7155SOL    HW233102   4.508   2.775   4.799 -0.9902 -0.5473 -0.2232
 7156SOL     OW33103   0.805   3.161   2.765 -0.1667 -0.2795 -0.2235
 7156SOL    HW133104   0.854   3.080   2.753  0.4055 -0.1840  1.4112
 7156SOL    HW233105   0.872   3.228   2.746  0.1624 -0.0998  1.5100
 7157SOL     OW33106   1.974   3.437  13.482 -0.4533  0.8176  0.1085
 7157SOL    HW133107   1.994   3.343  13.484  1.2498  1.1297 -1.8696
 7157SOL    HW233108   1.898   3.442  13.423 -0.0994  2.4697 -0.2114
 7158SOL     OW33109   3.307   0.616   6.555 -0.1127  0.5301  0.4068
 7158SOL    HW133110   3.371   0.685   6.576 -0.0265  0.8064 -0.7868
 7158SOL    HW233111   3.313   0.560   6.633 -1.9855 -0.0756  0.0982
 7159SOL     OW33112   0.850   4.108  13.706 -0.2466  0.0783 -0.4759
 7159SOL    HW133113   0.759   4.124  13.730  0.2549  2.5015 -0.1685
 7159SOL    HW233114   0.886   4.064  13.783  1.2784  0.1484 -1.1316
 7160SOL     OW33115   1.826   3.681   8.537  0.5384 -0.4332 -0.6198
 7160SOL    HW133116   1.833   3.651   8.628  0.2648  0.9154 -0.1539
 7160SOL    HW233117   1.802   3.773   8.547  0.3690 -0.7373  2.0154
 7161SOL     OW33118   2.235   4.498   4.810  0.3404 -0.3787  0.6647
 7161SOL    HW133119   2.179   4.421   4.814  0.4741 -0.5531 -0.8156
 7161SOL    HW233120   2.295   4.468   4.742 -0.7602 -1.3666  0.1256
 7162SOL     OW33121   1.889   2.144   2.583  0.1734  0.0311 -0.2000
 7162SOL    HW133122   1.978   2.126   2.611  0.3840  1.0320 -0.2063
 7162SOL    HW233123   1.896   2.110   2.493 -1.1013 -1.6709  0.3426
 7163SOL     OW33124   2.037   2.514   8.844  0.5272  0.3965 -0.0557
 7163SOL    HW133125   2.003   2.559   8.766 -0.8456  0.6722  0.7017
 7163SOL    HW233126   2.121   2.486   8.808  0.1357  0.5472 -1.1089
 7164SOL     OW33127   0.656   2.472   7.450  0.5147 -0.6715 -0.2198
 7164SOL    HW133128   0.748   2.466   7.473  0.6064  2.6142  0.2117
 7164SOL    HW233129   0.649   2.396   7.392 -0.4217 -0.5705 -0.2513
 7165SOL     OW33130   3.877   4.170  13.703  0.4240  0.0100  0.2867
 7165SOL    HW133131   3.837   4.085  13.723  1.1467  0.0718  2.0297
 7165SOL    HW233132   3.810   4.213  13.649  0.0766  0.0464  0.7420
 7166SOL     OW33133   0.598   2.521   6.761 -0.4084  0.2533  0.0220
 7166SOL    HW133134   0.631   2.461   6.693  0.3767  2.7940 -1.8279
 7166SOL    HW233135   0.515   2.540   6.717 -1.0176 -0.2315  0.9844
 7167SOL     OW33136   0.585   3.993   8.507 -0.3501 -0.2700  0.4110
 7167SOL    HW133137   0.555   4.038   8.585 -0.2963 -0.7473  0.7035
 7167SOL    HW233138   0.573   4.072   8.453  1.2522 -0.7219 -0.6155
 7168SOL     OW33139   0.538   4.172   5.157 -0.1033  0.6717 -0.0354
 7168SOL    HW133140   0.499   4.258   5.141  0.0132  0.8429  0.5786
 7168SOL    HW233141   0.479   4.120   5.102 -2.8506  0.9896  2.6063
 7169SOL     OW33142   4.506   4.281  13.606  0.6686  0.0764  0.1591
 7169SOL    HW133143   4.463   4.267  13.691  0.6962  0.7455  0.2867
 7169SOL    HW233144   4.434   4.283  13.543  1.0461 -1.8674 -0.3256
 7170SOL     OW33145   1.606   1.227   8.809 -0.0288 -0.4123 -0.2028
 7170SOL    HW133146   1.551   1.283   8.755 -0.3990  0.5788  1.2051
 7170SOL    HW233147   1.646   1.284   8.875  0.3155  1.1640 -1.7592
 7171SOL     OW33148   1.803   1.983   1.144 -0.3685 -0.2578 -0.9041
 7171SOL    HW133149   1.817   1.891   1.168  0.2209 -0.2313 -1.1466
 7171SOL    HW233150   1.765   2.010   1.228  0.2738  0.6985 -0.9171
 7172SOL     OW33151   2.311   4.712   9.289 -0.6021  0.2000  0.7938
 7172SOL    HW133152   2.271   0.034   9.352  0.4815  1.8885 -0.1432
 7172SOL    HW233153   2.245   4.645   9.268  0.8002 -0.9517  0.0115
 7173SOL     OW33154   0.828   1.798   7.921 -0.2242 -0.8529 -0.3804
 7173SOL    HW133155   0.855   1.764   8.007 -0.2116 -0.4957 -0.2448
 7173SOL    HW233156   0.859   1.888   7.927 -0.8331 -0.9037  3.7065
 7174SOL     OW33157   0.493   2.209  12.364 -0.2467  0.3819 -0.6119
 7174SOL    HW133158   0.459   2.177  12.447  1.8851 -0.3746 -0.0449
 7174SOL    HW233159   0.583   2.177  12.362  0.4207  2.2700 -0.6664
 7175SOL     OW33160   1.190   1.836   4.988  0.2859  0.4318  0.3967
 7175SOL    HW133161   1.144   1.918   4.972 -0.9106 -0.5340 -1.1489
 7175SOL    HW233162   1.218   1.860   5.077  1.0665 -0.8055  0.4915
 7176SOL     OW33163   3.302   3.239   3.106 -0.0558 -0.8844 -0.1568
 7176SOL    HW133164   3.225   3.296   3.101  2.0819  2.1174  1.7557
 7176SOL    HW233165   3.300   3.188   3.024  2.3843 -3.4930  1.4126
 7177SOL     OW33166   0.858   3.359   8.363 -0.5986  0.4452  0.0610
 7177SOL    HW133167   0.874   3.403   8.447 -1.9576 -1.2699  1.2116
 7177SOL    HW233168   0.809   3.284   8.396 -0.2537  0.5482  0.8113
 7178SOL     OW33169   0.156   3.554   4.506  0.1127  0.5339  0.2302
 7178SOL    HW133170   0.111   3.619   4.451  2.0558  1.4508 -0.2722
 7178SOL    HW233171   0.132   3.483   4.447  2.8191 -0.2013  0.0576
 7179SOL     OW33172   1.862   2.520   2.436 -0.1884 -0.0974 -0.6249
 7179SOL    HW133173   1.863   2.473   2.519 -1.6711  0.6586 -0.1600
 7179SOL    HW233174   1.778   2.494   2.398  0.6346 -2.0762 -1.0867
 7180SOL     OW33175   1.370   2.107   2.296  0.1242  0.0284 -0.4385
 7180SOL    HW133176   1.451   2.153   2.276 -0.2567  1.8173  2.0840
 7180SOL    HW233177   1.391   2.041   2.362 -0.7027  1.1703  0.9714
 7181SOL     OW33178   2.380   0.380   5.355  0.2849 -0.2356 -0.5631
 7181SOL    HW133179   2.285   0.368   5.363  0.4711 -0.0005  1.8037
 7181SOL    HW233180   2.387   0.473   5.377  1.4925 -0.4691  0.0183
 7182SOL     OW33181   0.967   1.482  16.401 -0.6186  0.2712 -0.1436
 7182SOL    HW133182   1.033   1.522  16.458  0.2327 -1.0236 -0.2127
 7182SOL    HW233183   0.910   1.445  16.468 -0.0877 -2.6996 -1.3022
 7183SOL     OW33184   2.523   1.305   3.533  0.1103  0.2749  0.3762
 7183SOL    HW133185   2.593   1.241   3.513 -2.7785 -2.4150 -1.1081
 7183SOL    HW233186   2.457   1.250   3.575  0.1801 -0.9963 -1.1675
 7184SOL     OW33187   1.019   2.905   7.879  0.1348 -0.3095 -0.2944
 7184SOL    HW133188   1.101   2.925   7.924  0.6674  1.1611 -1.9145
 7184SOL    HW233189   0.966   2.982   7.897 -0.1709 -0.4964 -0.3956
 7185SOL     OW33190   0.776   4.647   4.610 -0.4496  0.4826  0.1649
 7185SOL    HW133191   0.725   4.718   4.571 -2.8183 -1.7799 -0.8299
 7185SOL    HW233192   0.857   4.650   4.558  0.3717  0.7096  1.4389
 7186SOL     OW33193   3.291   4.132   5.117  0.1689  0.6828  0.0745
 7186SOL    HW133194   3.360   4.065   5.117  0.5718  1.0960 -2.6663
 7186SOL    HW233195   3.324   4.195   5.181  0.3228 -0.2059  0.8628
 7187SOL     OW33196   1.397   2.916   3.364  0.2805 -0.0282  0.0242
 7187SOL    HW133197   1.411   2.997   3.414 -1.3996 -0.0855  0.5818
 7187SOL    HW233198   1.485   2.908   3.328  0.0133  0.7029 -0.7848
 7188SOL     OW33199   2.277   4.246   5.840  0.4576 -0.1895  0.0281
 7188SOL    HW133200   2.199   4.300   5.846  2.3822  2.5341  0.7123
 7188SOL    HW233201   2.315   4.256   5.927  0.7380 -0.8225 -0.0208
 7189SOL     OW33202   1.913   1.159   1.477  0.8048  0.3148 -0.1072
 7189SOL    HW133203   1.937   1.123   1.392 -0.1043  2.8760 -1.4511
 7189SOL    HW233204   1.824   1.125   1.485  0.8886  0.4491  1.4637
 7190SOL     OW33205   4.319   0.865  12.664 -0.5033  0.5961  0.4686
 7190SOL    HW133206   4.375   0.788  12.659 -0.4700  0.5320  1.7341
 7190SOL    HW233207   4.319   0.881  12.759  1.1334 -0.7222  0.6750
 7191SOL     OW33208   3.136   1.141   6.761  0.1731 -0.1066  0.3477
 7191SOL    HW133209   3.080   1.166   6.688  0.7717 -1.7551 -0.6689
 7191SOL    HW233210   3.123   1.046   6.771 -2.2274  0.1696 -0.0355
 7192SOL     OW33211   0.822   2.651   6.837 -0.4038 -0.6483  0.1497
 7192SOL    HW133212   0.750   2.593   6.813 -1.3210  0.2186  0.7787
 7192SOL    HW233213   0.786   2.689   6.918 -2.2735 -1.0045 -0.5140
 7193SOL     OW33214   2.107   1.740   3.549  0.1329 -0.2508  0.3318
 7193SOL    HW133215   2.095   1.835   3.542  3.2960  0.0118 -1.6067
 7193SOL    HW233216   2.200   1.744   3.571  1.2370 -0.4719 -4.4020
 7194SOL     OW33217   3.415   3.415   2.062 -0.2599 -0.2317  0.0699
 7194SOL    HW133218   3.359   3.387   2.134  0.5489 -0.6187  0.5562
 7194SOL    HW233219   3.351   3.447   1.999 -0.7901  0.0790  0.7617
 7195SOL     OW33220   1.759   1.714   4.491 -0.2068 -0.2051 -0.3961
 7195SOL    HW133221   1.665   1.706   4.477 -0.1984  0.9629 -1.0790
 7195SOL    HW233222   1.786   1.779   4.427 -0.0469 -0.7767 -0.9142
 7196SOL     OW33223   0.955   4.255   6.111  0.0234 -0.4472 -0.4003
 7196SOL    HW133224   1.006   4.332   6.137 -0.0814 -0.0242 -1.4523
 7196SOL    HW233225   0.892   4.242   6.182  0.9073  0.2887  0.5127
 7197SOL     OW33226   3.582   3.843   4.355 -0.0686  0.3975  0.0277
 7197SOL    HW133227   3.621   3.770   4.306 -0.3272  1.0187 -1.1035
 7197SOL    HW233228   3.497   3.855   4.313 -0.2374 -1.8350 -0.2724
 7198SOL     OW33229   3.165   0.319   4.619 -0.6113  0.7275 -0.4328
 7198SOL    HW133230   3.108   0.360   4.554 -0.1730  1.5154 -0.3232
 7198SOL    HW233231   3.247   0.339   4.574  0.1816 -1.2974  0.1065
 7199SOL     OW33232   2.767   2.001  13.537 -0.1448 -0.6138 -0.2552
 7199SOL    HW133233   2.806   2.076  13.581 -4.7261  0.7577  1.4321
 7199SOL    HW233234   2.718   2.057  13.476 -2.1363 -0.7289  1.2404
 7200SOL     OW33235   2.985   0.257   2.868 -0.6319 -0.2042 -0.0497
 7200SOL    HW133236   2.975   0.197   2.942  1.9788 -0.9586 -0.3211
 7200SOL    HW233237   2.963   0.192   2.801 -0.4800 -1.2397  0.9054
 7201SOL     OW33238   1.764   0.696   7.917  0.3323 -0.0628  0.0626
 7201SOL    HW133239   1.847   0.685   7.870  0.0009  0.9345 -0.7631
 7201SOL    HW233240   1.781   0.697   8.011  0.3175 -1.0530  0.0763
 7202SOL     OW33241   2.303   3.102   9.735 -0.0811  0.7231  0.2483
 7202SOL    HW133242   2.212   3.073   9.741  0.1433 -0.3362 -1.5133
 7202SOL    HW233243   2.304   3.197   9.728 -0.1655  0.5469 -2.1964
 7203SOL     OW33244   1.278   4.233  10.359  0.4973  0.3901 -0.3170
 7203SOL    HW133245   1.211   4.268  10.417  2.2903 -0.0362  2.0093
 7203SOL    HW233246   1.358   4.276  10.389 -0.5175  2.3859 -0.4964
 7204SOL     OW33247   3.615   0.088  16.163 -0.3313  0.4526  0.1441
 7204SOL    HW133248   3.565   0.071  16.243  1.4156  1.3625  1.4331
 7204SOL    HW233249   3.648   0.177  16.179  1.8427 -0.6144  1.6260
 7205SOL     OW33250   0.303   1.967   4.319  0.4182  0.2538 -0.0900
 7205SOL    HW133251   0.393   1.987   4.293  0.9020 -1.4491  0.3126
 7205SOL    HW233252   0.268   1.923   4.241 -0.5345  0.3595  0.2766
 7206SOL     OW33253   1.828   4.211  13.754 -0.3521  0.6491 -0.4328
 7206SOL    HW133254   1.757   4.193  13.693  0.5073 -0.7959 -1.0106
 7206SOL    HW233255   1.829   4.129  13.804 -1.0787 -0.6916 -2.6505
 7207SOL     OW33256   4.496   3.233  12.314 -0.6743  0.1884 -0.5707
 7207SOL    HW133257   4.474   3.209  12.224 -1.3977  0.2390 -0.4079
 7207SOL    HW233258   4.571   3.291  12.306 -0.4008  0.1693  1.7272
 7208SOL     OW33259   4.699   4.003   3.275  0.2475  0.3848  0.1284
 7208SOL    HW133260   4.628   3.944   3.300 -1.7342  2.5192 -0.5132
 7208SOL    HW233261   0.030   3.949   3.237  0.4022 -1.2143  2.6590
 7209SOL     OW33262   1.670   2.865  15.156 -0.2114 -0.4884  0.2353
 7209SOL    HW133263   1.707   2.790  15.110 -0.2317  0.0001 -0.5748
 7209SOL    HW233264   1.578   2.843  15.144 -0.1662 -1.9361  2.5240
 7210SOL     OW33265   2.042   0.998   5.804 -0.0946  0.5713 -0.0748
 7210SOL    HW133266   1.963   1.044   5.832 -2.0780 -3.4540  0.8711
 7210SOL    HW233267   2.037   0.991   5.709 -2.3386  0.5428  0.0531
 7211SOL     OW33268   2.184   3.842   5.608  0.0210  0.4303 -0.4455
 7211SOL    HW133269   2.236   3.907   5.656  0.2849  0.7383 -1.1290
 7211SOL    HW233270   2.214   3.869   5.521  0.5686  2.6449  0.4245
 7212SOL     OW33271   3.995   1.699   1.591  0.0601  0.1960  0.0475
 7212SOL    HW133272   3.998   1.624   1.533 -2.1237 -0.7964  1.2271
 7212SOL    HW233273   4.013   1.772   1.531 -0.7063 -2.7085 -3.6786
 7213SOL     OW33274   3.166   2.967   2.596 -0.3538  0.2501  0.5135
 7213SOL    HW133275   3.131   2.971   2.507 -0.2188  0.0032  0.4509
 7213SOL    HW233276   3.157   3.055   2.633  2.7598  0.5895  0.4971
 7214SOL     OW33277   4.312   1.730   8.893  0.0090 -0.1720  0.3165
 7214SOL    HW133278   4.240   1.669   8.909 -0.5854  0.8609  1.6738
 7214SOL    HW233279   4.381   1.665   8.907  0.8105  0.3470 -1.3295
 7215SOL     OW33280   0.318   3.039   3.277 -0.6815  0.0150 -0.5099
 7215SOL    HW133281   0.387   3.015   3.339 -0.0471  0.1561 -1.1635
 7215SOL    HW233282   0.289   3.116   3.325 -0.4517 -2.1125  3.0181
 7216SOL     OW33283   2.153   1.399   2.455  0.0928 -0.0979  0.3986
 7216SOL    HW133284   2.066   1.413   2.493 -0.6806 -3.5128 -0.0404
 7216SOL    HW233285   2.129   1.383   2.364 -1.4306 -2.6946  1.2481
 7217SOL     OW33286   2.957   3.406   3.875  0.3595 -0.0228 -1.0148
 7217SOL    HW133287   2.975   3.375   3.786 -2.2435  0.5139 -1.7256
 7217SOL    HW233288   3.050   3.414   3.897  0.2313  0.0793 -0.5096
 7218SOL     OW33289   3.620   3.065  12.731  0.2531 -0.2646  0.2950
 7218SOL    HW133290   3.566   3.136  12.695  0.4832  0.8247  2.0667
 7218SOL    HW233291   3.584   2.981  12.702  0.0529 -0.5147  1.2636
 7219SOL     OW33292   0.867   1.632   3.309 -0.2908 -0.5035  0.2123
 7219SOL    HW133293   0.935   1.565   3.312 -0.1338 -0.3691 -0.3975
 7219SOL    HW233294   0.904   1.698   3.251  1.0363 -0.2657  1.3203
 7220SOL     OW33295   0.074   0.094   3.437 -0.2696 -0.3009 -0.6093
 7220SOL    HW133296   0.129   0.025   3.474 -0.0611 -0.3653 -1.0463
 7220SOL    HW233297   4.735   0.083   3.493  1.1506 -0.4621  1.3225
 7221SOL     OW33298   1.988   1.249  12.467 -0.2095  0.3476 -0.6735
 7221SOL    HW133299   1.958   1.247  12.558  1.5342  0.7356 -0.0791
 7221SOL    HW233300   2.038   1.330  12.471  1.9418 -1.0255  0.7954
 7222SOL     OW33301   4.716   1.856  17.643  0.2673  0.1627  0.8674
 7222SOL    HW133302   0.044   1.897  17.700  1.2528 -2.2076  1.4230
 7222SOL    HW233303   4.690   1.920  17.576  3.1007  0.2487 -0.1579
 7223SOL     OW33304   3.380   0.634   5.436 -0.3067  0.2096 -0.2953
 7223SOL    HW133305   3.312   0.685   5.391 -0.2737  0.3459 -0.1897
 7223SOL    HW233306   3.414   0.590   5.358 -1.4475 -1.8279  0.3389
 7224SOL     OW33307   2.070   2.878   9.111  0.0130  0.2184  0.3608
 7224SOL    HW133308   1.993   2.935   9.119  1.3529  2.3096 -1.6422
 7224SOL    HW233309   2.128   2.938   9.064  0.9583  0.5752  2.0147
 7225SOL     OW33310   3.659   0.314   0.424 -0.2110  0.2182 -0.0149
 7225SOL    HW133311   3.618   0.263   0.354 -2.1389 -0.5894  1.7226
 7225SOL    HW233312   3.596   0.317   0.496  1.2422  2.1471  1.1685
 7226SOL     OW33313   4.311   1.920  13.024 -1.0611 -0.4149 -0.2327
 7226SOL    HW133314   4.325   1.833  13.062  1.0819 -0.3438 -0.8940
 7226SOL    HW233315   4.338   1.886  12.939 -0.6307 -0.0827 -0.2257
 7227SOL     OW33316   3.091   2.215  14.376 -0.2286 -0.0979  0.0277
 7227SOL    HW133317   3.032   2.139  14.380 -1.3763  0.7988 -0.1020
 7227SOL    HW233318   3.100   2.223  14.281 -0.6669 -1.7394 -0.1596
 7228SOL     OW33319   1.648   2.779   7.064  0.1741 -0.2258 -0.5226
 7228SOL    HW133320   1.614   2.833   7.135  4.1017  1.8711 -0.2350
 7228SOL    HW233321   1.571   2.732   7.030 -1.0732  1.3993  0.0818
 7229SOL     OW33322   2.203   4.027  17.447  0.3168 -0.9276  0.4418
 7229SOL    HW133323   2.252   4.031  17.364 -1.5620  0.1860 -0.5962
 7229SOL    HW233324   2.244   4.105  17.485 -2.2577 -0.2727  1.8676
 7230SOL     OW33325   0.229   0.992   9.064  0.4482 -0.3216 -0.5641
 7230SOL    HW133326   0.257   0.997   9.155 -1.2581  0.5735 -0.0942
 7230SOL    HW233327   0.226   0.897   9.055  0.0939 -0.1534 -2.4291
 7231SOL     OW33328   1.007   4.163   2.715 -0.1211 -0.3576  0.0202
 7231SOL    HW133329   1.077   4.215   2.676  0.6915 -1.2301  0.2974
 7231SOL    HW233330   0.960   4.228   2.768 -1.4548 -1.2847 -0.0378
 7232SOL     OW33331   4.349   2.595   7.992  0.0800 -0.4357 -0.5435
 7232SOL    HW133332   4.398   2.533   7.938  0.6160  0.0205 -0.5782
 7232SOL    HW233333   4.353   2.672   7.936 -0.6617  1.6958  2.3299
 7233SOL     OW33334   4.066   4.227   7.154  0.3788 -0.1578  0.0327
 7233SOL    HW133335   4.012   4.164   7.105  1.2442 -1.1591  0.3798
 7233SOL    HW233336   4.020   4.309   7.135  1.7407  0.8121  1.0111
 7234SOL     OW33337   2.952   0.607  13.772  0.0164  0.1208  0.0685
 7234SOL    HW133338   2.905   0.664  13.834  0.1881  2.6243 -2.1124
 7234SOL    HW233339   2.885   0.543  13.747 -0.6390 -0.0422  2.1864
 7235SOL     OW33340   1.814   4.645   7.731 -0.7884  0.0149  0.1437
 7235SOL    HW133341   1.900   4.666   7.694 -1.4890  0.7397 -1.0602
 7235SOL    HW233342   1.752   4.651   7.658  0.3996 -0.6569 -0.9234
 7236SOL     OW33343   1.179   3.531   3.670  0.0587 -0.2824  0.4856
 7236SOL    HW133344   1.145   3.475   3.600 -0.2393 -2.8007  2.6319
 7236SOL    HW233345   1.211   3.470   3.737  1.2478  2.2186  2.1830
 7237SOL     OW33346   1.929   3.895   4.396 -0.0891  0.4023  0.1732
 7237SOL    HW133347   2.002   3.880   4.456  1.0614 -0.3375 -1.3974
 7237SOL    HW233348   1.962   3.976   4.356 -2.0949  1.7501  1.2437
 7238SOL     OW33349   3.415   1.750   8.919 -0.0210 -0.6673 -0.9858
 7238SOL    HW133350   3.360   1.823   8.947 -0.0222 -1.4616  1.1270
 7238SOL    HW233351   3.494   1.750   8.974  1.0516 -3.3142 -2.5200
 7239SOL     OW33352   0.077   1.498  16.369  0.4243 -0.1342  0.3034
 7239SOL    HW133353   0.028   1.578  16.388 -0.4100 -1.1916  2.6315
 7239SOL    HW233354   0.118   1.528  16.288 -2.9475 -0.2027 -1.4246
 7240SOL     OW33355   0.627   2.386   1.089  0.2473  0.2286  0.2756
 7240SOL    HW133356   0.706   2.369   1.037  0.5736 -0.5174  1.0265
 7240SOL    HW233357   0.657   2.443   1.159  0.3255 -0.6459  0.9487
 7241SOL     OW33358   3.907   1.439   7.186 -0.0324  0.3393 -0.3734
 7241SOL    HW133359   3.879   1.387   7.262 -1.0869  0.5042 -0.6508
 7241SOL    HW233360   3.959   1.510   7.225 -1.3620  1.8438 -1.3767
 7242SOL     OW33361   2.239   2.343   9.018 -0.2897  0.2849 -0.1458
 7242SOL    HW133362   2.171   2.288   9.056  0.1010 -0.7570 -0.9606
 7242SOL    HW233363   2.175   2.399   8.974  0.4182  1.4262  0.2574
 7243SOL     OW33364   2.397   2.131   4.622 -0.5185  0.9071  0.3796
 7243SOL    HW133365   2.478   2.082   4.635  0.1620  1.7421 -0.7234
 7243SOL    HW233366   2.331   2.070   4.655  1.5011  0.2748  3.2284
 7244SOL     OW33367   1.673   2.821   3.696 -0.2556 -0.0241  0.4956
 7244SOL    HW133368   1.709   2.756   3.757  0.7681  1.5030  1.5032
 7244SOL    HW233369   1.735   2.812   3.623 -0.4544 -1.1719  0.4533
 7245SOL     OW33370   4.483   2.760  17.705 -0.5235  0.1270 -0.0595
 7245SOL    HW133371   4.500   2.678   0.003  0.2757  0.0296 -0.5178
 7245SOL    HW233372   4.462   2.719  17.621 -1.4510  1.7551 -0.6110
 7246SOL     OW33373   4.532   1.288  16.191 -0.2522 -0.0358  0.5641
 7246SOL    HW133374   4.513   1.241  16.110  2.0070 -1.8443  1.0680
 7246SOL    HW233375   4.625   1.273  16.206  0.0601 -0.2435 -1.6394
 7247SOL     OW33376   1.780   4.272   7.197  0.8955 -0.2506 -0.5053
 7247SOL    HW133377   1.775   4.197   7.137  1.4785 -0.5866 -0.1359
 7247SOL    HW233378   1.845   4.230   7.254  0.4975 -0.5462 -0.2708
 7248SOL     OW33379   4.411   0.124   5.704  0.5620  0.1536  0.0358
 7248SOL    HW133380   4.347   0.195   5.712 -1.7300 -1.5633 -3.2474
 7248SOL    HW233381   4.475   0.158   5.642 -1.8297  1.6685 -1.5865
 7249SOL     OW33382   4.300   1.147   8.404  0.4747 -0.6405 -0.2287
 7249SOL    HW133383   4.394   1.164   8.400  0.2571  0.4493 -0.6866
 7249SOL    HW233384   4.268   1.225   8.450  0.2866 -1.5125  1.1354
 7250SOL     OW33385   0.344   0.761   6.001  0.0130 -0.1352 -0.5103
 7250SOL    HW133386   0.260   0.800   5.978 -0.6978 -0.9190  0.7977
 7250SOL    HW233387   0.389   0.846   6.000  1.2958 -0.8105  1.1877
 7251SOL     OW33388   2.043   3.177  13.438 -0.4686 -0.0665 -0.1798
 7251SOL    HW133389   2.042   3.103  13.378 -1.2558  0.9759 -1.4388
 7251SOL    HW233390   2.099   3.231  13.382  1.9111 -2.2906  0.0207
 7252SOL     OW33391   2.928   2.015  11.378 -0.1082 -0.4374 -0.5547
 7252SOL    HW133392   2.937   1.972  11.463  0.3986  0.4671 -0.1420
 7252SOL    HW233393   3.014   2.056  11.368 -0.0229 -0.2655  0.9727
 7253SOL     OW33394   2.461   4.641   3.858  0.1877 -0.2310 -0.0495
 7253SOL    HW133395   2.524   4.576   3.886 -0.2575 -0.9031 -0.6306
 7253SOL    HW233396   2.386   4.582   3.865  0.1781 -0.0426  1.5064
 7254SOL     OW33397   2.091   0.576   1.789  0.8393  0.2674  0.5827
 7254SOL    HW133398   2.113   0.515   1.859 -1.8183 -2.2086 -0.7096
 7254SOL    HW233399   1.998   0.587   1.810  0.9743  2.3598  0.0684
 7255SOL     OW33400   2.245   1.619   8.769 -0.2006  0.3475 -0.0765
 7255SOL    HW133401   2.338   1.638   8.761  0.4413 -2.9059 -0.1524
 7255SOL    HW233402   2.210   1.708   8.778  0.2221  0.6475 -1.4075
 7256SOL     OW33403   1.754   3.982  15.856 -0.5866  0.4422 -0.1470
 7256SOL    HW133404   1.753   3.887  15.867  1.6585  0.4876  0.3033
 7256SOL    HW233405   1.835   4.008  15.899 -1.4676  1.5686  0.8525
 7257SOL     OW33406   0.305   2.847   3.721 -0.4677 -0.2785 -0.6090
 7257SOL    HW133407   0.216   2.872   3.697 -0.3943 -0.4427 -1.0509
 7257SOL    HW233408   0.299   2.754   3.697  2.9961 -0.6126 -0.1472
 7258SOL     OW33409   3.850   2.879  16.454  0.1529  0.2063 -0.4890
 7258SOL    HW133410   3.865   2.788  16.430  0.3238 -0.0649  0.6837
 7258SOL    HW233411   3.767   2.889  16.408  0.0598 -0.4492 -0.4495
 7259SOL     OW33412   3.932   4.625   5.834  0.3008 -0.0399  0.0138
 7259SOL    HW133413   3.920   4.719   5.848  1.6819  0.3643 -1.5617
 7259SOL    HW233414   3.844   4.611   5.870  0.2605  0.7399  0.2251
 7260SOL     OW33415   4.096   0.179   2.342  0.1904 -0.4170 -1.0333
 7260SOL    HW133416   4.063   0.259   2.302 -2.4026 -0.4226  1.1117
 7260SOL    HW233417   4.192   0.180   2.336  0.2201 -0.4256 -0.5767
 7261SOL     OW33418   3.418   0.513   1.721  0.2193 -0.2497  0.1883
 7261SOL    HW133419   3.465   0.522   1.638 -1.3696  1.1686 -0.5411
 7261SOL    HW233420   3.493   0.489   1.776  1.3116  0.9049 -0.7854
 7262SOL     OW33421   0.525   4.010   3.686 -0.1981  0.1799  0.2306
 7262SOL    HW133422   0.569   4.055   3.758  1.7067 -0.7792 -0.3410
 7262SOL    HW233423   0.519   3.919   3.715  0.2516 -0.0851 -0.5238
 7263SOL     OW33424   0.638   1.455   3.072  0.1369 -0.4378  0.8880
 7263SOL    HW133425   0.549   1.492   3.076 -0.3622 -1.5994  0.3387
 7263SOL    HW233426   0.650   1.447   2.978  0.0535  2.1182  0.6542
 7264SOL     OW33427   0.036   0.110  13.774  0.4975  0.4395  0.1048
 7264SOL    HW133428   0.128   0.120  13.798  0.3794  2.3545 -0.2533
 7264SOL    HW233429   0.001   0.196  13.799  0.3496  0.4379 -0.0899
 7265SOL     OW33430   4.707   1.443  15.715  0.2423  0.3381 -0.1786
 7265SOL    HW133431   4.664   1.392  15.647  2.4057  0.0859 -1.3453
 7265SOL    HW233432   4.694   1.533  15.686 -2.6162  0.4018  1.3063
 7266SOL     OW33433   3.271   3.509   7.076  0.2382 -0.7013 -0.0191
 7266SOL    HW133434   3.179   3.519   7.101 -0.0523 -1.3207 -0.8473
 7266SOL    HW233435   3.300   3.424   7.107 -0.1823 -0.2571  1.6028
 7267SOL     OW33436   4.328   1.245   2.776  0.2213  0.2788 -0.4771
 7267SOL    HW133437   4.402   1.197   2.813 -1.9537 -1.6592  1.3770
 7267SOL    HW233438   4.328   1.315   2.842 -1.3322 -1.2256  1.1173
 7268SOL     OW33439   3.316   4.281   8.528  0.1367  0.5324  0.7208
 7268SOL    HW133440   3.399   4.240   8.507 -0.8660 -1.1123  0.0194
 7268SOL    HW233441   3.301   4.350   8.464 -0.7500 -1.5944 -1.3552
 7269SOL     OW33442   4.252   1.810  11.713 -0.1709  0.5057  0.1515
 7269SOL    HW133443   4.258   1.728  11.664 -1.6372 -0.0815  0.9561
 7269SOL    HW233444   4.201   1.778  11.787 -1.5533  2.2325 -0.0700
 7270SOL     OW33445   3.703   0.557   3.536  0.2596  0.5045  0.3050
 7270SOL    HW133446   3.612   0.554   3.507  0.5550 -1.3499 -0.4083
 7270SOL    HW233447   3.718   0.463   3.528  0.1368  0.5707 -0.6190
 7271SOL     OW33448   2.960   3.195   1.869  0.6231  0.0492 -0.1517
 7271SOL    HW133449   2.986   3.236   1.787  2.3718 -0.3026  0.2394
 7271SOL    HW233450   2.997   3.109   1.850  0.4787 -0.0251 -0.0993
 7272SOL     OW33451   4.052   0.707   8.510 -0.0016 -0.2959 -0.0243
 7272SOL    HW133452   4.037   0.614   8.527 -2.1854  0.5842  2.7254
 7272SOL    HW233453   4.094   0.703   8.424 -0.6817 -1.6061 -0.2936
 7273SOL     OW33454   2.190   4.528   4.362  0.3343 -0.2202  0.0813
 7273SOL    HW133455   2.099   4.525   4.334  0.2647 -0.2298  0.3120
 7273SOL    HW233456   2.242   4.538   4.282 -1.2153  0.4534 -0.8503
 7274SOL     OW33457   4.440   3.707  16.724 -0.1347  0.1959 -0.0434
 7274SOL    HW133458   4.398   3.621  16.723 -0.9194  0.6084 -2.1274
 7274SOL    HW233459   4.429   3.727  16.631 -2.9459  0.5478  0.3855
 7275SOL     OW33460   2.344   4.221   3.669 -0.3709 -0.1682  0.5164
 7275SOL    HW133461   2.309   4.133   3.655 -0.4953  0.0987 -0.9375
 7275SOL    HW233462   2.417   4.213   3.608 -2.7272  0.4321 -2.4030
 7276SOL     OW33463   1.186   2.232   5.614  0.1426  0.0135  0.1841
 7276SOL    HW133464   1.115   2.294   5.629 -1.6594 -1.2356 -3.2776
 7276SOL    HW233465   1.255   2.286   5.653  0.4389 -1.9412  2.3676
 7277SOL     OW33466   4.504   3.953   5.958 -0.1297 -0.3801 -0.0644
 7277SOL    HW133467   4.485   3.967   5.865  1.0651  1.1884 -0.0577
 7277SOL    HW233468   4.578   3.892   5.950  2.8651  3.4589 -1.3413
 7278SOL     OW33469   0.576   4.645  10.318  0.2269 -0.6837 -0.3236
 7278SOL    HW133470   0.585   4.625  10.411 -1.6737 -1.1410 -0.2525
 7278SOL    HW233471   0.671   4.647  10.303  0.4024  1.3823  1.0653
 7279SOL     OW33472   3.230   4.543   4.720  0.4355 -0.1732  0.2606
 7279SOL    HW133473   3.181   4.492   4.655  0.3439 -0.1489  0.3103
 7279SOL    HW233474   3.213   4.633   4.692 -0.6101 -0.3041  0.4654
 7280SOL     OW33475   0.313   0.036   2.596  0.3307  0.2401  0.4540
 7280SOL    HW133476   0.387   0.096   2.602 -1.9793  2.9171  2.2062
 7280SOL    HW233477   0.253   0.079   2.657  0.9159  0.8420  0.6085
 7281SOL     OW33478   4.310   3.491   3.402  0.0669  0.3478 -0.2613
 7281SOL    HW133479   4.270   3.486   3.315  0.6053  0.5177 -0.5156
 7281SOL    HW233480   4.301   3.400   3.431  1.7260 -0.1205 -1.2321
 7282SOL     OW33481   2.032   3.644  14.244  0.4884 -0.2662 -0.0188
 7282SOL    HW133482   1.944   3.608  14.254  0.1979  0.2388 -0.8507
 7282SOL    HW233483   2.029   3.670  14.152 -2.5909  1.0969  0.4648
 7283SOL     OW33484   0.082   2.994  14.698  0.6678 -0.5620  0.0461
 7283SOL    HW133485   0.018   2.967  14.763 -0.4525  0.8947 -0.4425
 7283SOL    HW233486   0.126   2.911  14.682  1.0484 -0.5188  0.8639
 7284SOL     OW33487   2.645   0.089  14.029 -0.1016 -0.1188 -0.1400
 7284SOL    HW133488   2.559   0.048  14.032 -0.1063 -0.0300  1.1208
 7284SOL    HW233489   2.647   0.147  14.105  0.8793 -0.2890 -0.0354
 7285SOL     OW33490   3.020   2.547   2.000  0.0356 -0.3316  0.5082
 7285SOL    HW133491   3.002   2.460   1.966  0.3466  0.0268 -0.5831
 7285SOL    HW233492   3.113   2.549   2.024 -0.2496 -0.1352  1.6324
 7286SOL     OW33493   1.756   4.004   8.004  0.6824  0.3420  0.0389
 7286SOL    HW133494   1.772   4.092   7.971 -2.0002 -0.0400 -2.2681
 7286SOL    HW233495   1.674   3.983   7.959  1.8540 -2.9742 -0.5303
 7287SOL     OW33496   4.368   4.664   9.576  0.2758 -0.2471 -0.3491
 7287SOL    HW133497   4.427   4.704   9.512  1.9402 -2.1510  0.0154
 7287SOL    HW233498   4.413   4.686   9.658  0.3919 -0.7582 -0.2799
 7288SOL     OW33499   4.011   2.703  13.713 -0.2142  0.2937  0.4446
 7288SOL    HW133500   4.008   2.626  13.656 -0.8500  0.4136  0.3195
 7288SOL    HW233501   3.918   2.712  13.732 -0.7459  2.0471 -3.0680
 7289SOL     OW33502   2.193   1.106   6.783 -0.0248  0.1282  0.2087
 7289SOL    HW133503   2.114   1.125   6.834  0.7886 -0.9419  1.8740
 7289SOL    HW233504   2.248   1.052   6.839 -0.9177 -0.9475  0.0518
 7290SOL     OW33505   0.348   4.413   8.036 -0.1766  0.1530  0.4947
 7290SOL    HW133506   0.285   4.486   8.035 -0.1352  0.1919  0.6338
 7290SOL    HW233507   0.425   4.456   7.998 -0.7032  1.3942  0.8087
 7291SOL     OW33508   1.468   4.506  14.016 -0.2275  0.0145 -0.2638
 7291SOL    HW133509   1.536   4.452  13.976 -1.1786 -2.3405  1.3051
 7291SOL    HW233510   1.511   4.591  14.019 -0.9071  0.3788 -1.0826
 7292SOL     OW33511   4.275   1.553   4.255 -0.3596  0.0908  0.0641
 7292SOL    HW133512   4.265   1.648   4.252 -0.1942  0.1031 -0.1310
 7292SOL    HW233513   4.360   1.551   4.211 -1.1713  2.3750 -1.5822
 7293SOL     OW33514   1.381   0.855   2.278  0.3821 -0.2473 -0.3976
 7293SOL    HW133515   1.409   0.832   2.367 -1.0232  1.2127  0.4278
 7293SOL    HW233516   1.441   0.798   2.230  3.6567  2.0782  0.8938
 7294SOL     OW33517   3.640   4.124  11.408  0.2083  0.1695  0.0883
 7294SOL    HW133518   3.583   4.201  11.407  1.1306  0.8310 -1.1193
 7294SOL    HW233519   3.707   4.150  11.345  0.9313 -0.7144  0.4872
 7295SOL     OW33520   2.657   3.718   1.036 -0.1718 -1.1575  0.3082
 7295SOL    HW133521   2.702   3.637   1.010 -0.8794 -1.1945 -0.8457
 7295SOL    HW233522   2.639   3.762   0.953  0.5930  0.0441  0.7998
 7296SOL     OW33523   0.796   3.850   4.703  0.3720  0.3039 -0.6466
 7296SOL    HW133524   0.857   3.781   4.676 -0.8567 -1.0882  0.0661
 7296SOL    HW233525   0.741   3.856   4.625 -2.1035 -0.6982  0.9961
 7297SOL     OW33526   3.575   1.359  15.722 -0.1829  0.5602 -0.6802
 7297SOL    HW133527   3.547   1.434  15.773 -2.7410 -0.2758 -0.8762
 7297SOL    HW233528   3.496   1.325  15.680  2.1654 -0.3537 -4.3854
 7298SOL     OW33529   2.105   4.236  15.793 -0.2153  0.0333  0.1322
 7298SOL    HW133530   2.137   4.212  15.707 -1.4234  0.6463 -0.4885
 7298SOL    HW233531   2.162   4.311  15.810  0.0526 -0.2153  0.3251
 7299SOL     OW33532   0.112   2.234  15.629 -0.4507  0.0886  0.4753
 7299SOL    HW133533   0.163   2.315  15.635  0.9968 -0.6473 -2.0766
 7299SOL    HW233534   0.176   2.169  15.660 -1.0957 -0.7067  0.1433
 7300SOL     OW33535   4.521   3.828   0.484  0.1722 -0.4811 -0.8472
 7300SOL    HW133536   4.502   3.919   0.507 -0.3657 -0.8776  0.2903
 7300SOL    HW233537   4.521   3.792   0.572 -0.0264  1.1553 -0.1839
 7301SOL     OW33538   3.751   0.693   3.774 -0.4050  0.2901 -0.3555
 7301SOL    HW133539   3.732   0.647   3.692 -2.4126  0.4818  0.0178
 7301SOL    HW233540   3.675   0.748   3.790 -0.4755 -0.5978  2.3840
 7302SOL     OW33541   0.774   0.385   8.672 -0.0005  0.0250  0.0498
 7302SOL    HW133542   0.789   0.303   8.625  1.1610 -0.8775  1.9764
 7302SOL    HW233543   0.734   0.351   8.752  0.4005 -0.9594 -0.1655
 7303SOL     OW33544   4.724   0.195   7.923 -0.7375  0.2153 -0.1948
 7303SOL    HW133545   4.661   0.131   7.956 -0.3876  0.1852  0.4185
 7303SOL    HW233546   0.067   0.149   7.948 -1.7066 -1.9271 -1.0164
 7304SOL     OW33547   1.040   0.473   4.841  0.0474 -0.1935 -0.0023
 7304SOL    HW133548   0.965   0.413   4.841  0.7649 -1.0917 -0.8056
 7304SOL    HW233549   1.083   0.447   4.922  1.7573  2.2289 -0.1314
 7305SOL     OW33550   2.576   3.195  13.812  0.5390 -0.0174  0.3405
 7305SOL    HW133551   2.595   3.287  13.792  2.1174 -0.9212 -2.2748
 7305SOL    HW233552   2.572   3.162  13.723  0.4792 -1.3644  0.8330
 7306SOL     OW33553   2.020   1.706   7.677 -0.2566  0.0869  0.0478
 7306SOL    HW133554   1.958   1.756   7.624 -0.8684 -0.1984  0.4960
 7306SOL    HW233555   1.980   1.717   7.763  2.5099  1.1231  1.1940
 7307SOL     OW33556   1.829   4.386   7.526  0.0295 -0.3032  0.3966
 7307SOL    HW133557   1.885   4.331   7.581 -0.6905 -1.0927  0.3394
 7307SOL    HW233558   1.749   4.394   7.578  0.0373 -1.8311  0.6534
 7308SOL     OW33559   3.238   1.156   7.498  0.4783 -0.6340  0.1847
 7308SOL    HW133560   3.280   1.209   7.565  0.3017  1.3944 -1.2762
 7308SOL    HW233561   3.224   1.075   7.547 -0.7306 -1.1426 -0.9651
 7309SOL     OW33562   2.633   1.927   1.895  0.4136  0.1903 -0.1762
 7309SOL    HW133563   2.710   1.984   1.898  1.0315 -0.7634  1.7965
 7309SOL    HW233564   2.594   1.965   1.816 -2.8583  0.1809  1.4096
 7310SOL     OW33565   3.911   0.113   5.120  0.0677 -0.1326  0.2777
 7310SOL    HW133566   3.953   0.068   5.046 -0.2755  1.4982 -0.8909
 7310SOL    HW233567   3.930   0.045   5.186 -0.7940  1.2450  1.9338
 7311SOL     OW33568   4.164   0.970   9.831  0.0930 -0.0638  0.7787
 7311SOL    HW133569   4.198   1.014   9.909 -0.1047 -0.6859  1.2176
 7311SOL    HW233570   4.249   0.940   9.797 -1.4356 -0.4199 -2.7702
 7312SOL     OW33571   0.572   4.558   3.342  0.3252 -0.3542 -0.1375
 7312SOL    HW133572   0.512   4.523   3.275 -0.4277 -0.4478  0.5931
 7312SOL    HW233573   0.548   4.504   3.417  1.0485 -1.4916 -0.7242
 7313SOL     OW33574   0.737   4.257   9.298 -0.5750  0.1666 -0.2487
 7313SOL    HW133575   0.687   4.241   9.378 -1.4353 -2.4782 -1.3274
 7313SOL    HW233576   0.766   4.348   9.310  0.1850  0.1279 -1.7889
 7314SOL     OW33577   1.051   0.666   2.491 -0.2778 -0.5161 -0.1967
 7314SOL    HW133578   1.141   0.650   2.463 -0.1245  1.0918 -0.6302
 7314SOL    HW233579   1.047   0.761   2.501 -1.9791 -0.4628 -1.3258
 7315SOL     OW33580   4.165   2.436   3.369  0.0962  0.0137 -0.1564
 7315SOL    HW133581   4.232   2.425   3.301  1.2054 -0.5678  1.0379
 7315SOL    HW233582   4.139   2.527   3.354  1.5407  0.6733  1.4544
 7316SOL     OW33583   4.049   0.512   9.278  0.6157  0.1965  0.2099
 7316SOL    HW133584   4.026   0.435   9.226  2.3275  0.3622 -0.8252
 7316SOL    HW233585   3.961   0.549   9.283  1.4780  2.3608 -0.5284
 7317SOL     OW33586   1.019   0.601  17.148 -0.7810  0.4006 -0.2051
 7317SOL    HW133587   0.948   0.566  17.095 -0.7379  0.3331 -0.2187
 7317SOL    HW233588   1.088   0.550  17.105 -0.4849 -0.5891  1.4384
 7318SOL     OW33589   0.400   4.398   5.920  0.3379  0.0714  0.6241
 7318SOL    HW133590   0.347   4.454   5.976  0.6223  1.8786 -0.8827
 7318SOL    HW233591   0.411   4.316   5.968 -0.6513 -0.8294 -0.6942
 7319SOL     OW33592   3.653   2.327  14.812  0.1021  0.2462 -0.2318
 7319SOL    HW133593   3.567   2.356  14.781 -0.1428  0.9270  1.0787
 7319SOL    HW233594   3.637   2.333  14.906 -0.8775 -0.5811 -0.3420
 7320SOL     OW33595   3.548   0.689  16.048 -0.2175  0.8492 -0.0772
 7320SOL    HW133596   3.574   0.600  16.025 -2.4411 -0.0763  0.9913
 7320SOL    HW233597   3.481   0.710  15.983  1.1203 -0.0587 -1.7396
 7321SOL     OW33598   1.690   1.439   5.699 -0.5183 -0.7125  0.5752
 7321SOL    HW133599   1.597   1.459   5.716 -0.9696  1.3032 -4.1312
 7321SOL    HW233600   1.724   1.466   5.785 -0.8365 -0.4764  0.6292
 7322SOL     OW33601   3.676   1.089   8.828  0.8558 -0.0928  0.2067
 7322SOL    HW133602   3.731   1.091   8.907 -0.7736 -0.9002  1.3647
 7322SOL    HW233603   3.694   1.176   8.793  1.6892 -1.6042 -3.1117
 7323SOL     OW33604   2.745   4.431   2.333  0.4278  0.8965  0.0024
 7323SOL    HW133605   2.739   4.526   2.324 -1.5392  0.6398 -1.3108
 7323SOL    HW233606   2.755   4.406   2.241  1.0929 -0.0081  0.3082
 7324SOL     OW33607   3.709   2.707   7.151 -0.1124 -0.3062 -0.1447
 7324SOL    HW133608   3.646   2.680   7.084 -0.8758  0.4259  0.2679
 7324SOL    HW233609   3.675   2.654   7.223  0.0636 -1.0457 -0.6112
 7325SOL     OW33610   4.498   3.160   9.506 -0.0850 -0.0239  0.2018
 7325SOL    HW133611   4.421   3.137   9.558 -0.2788 -1.2220 -0.6200
 7325SOL    HW233612   4.495   3.256   9.501  1.2771  0.0133  0.1288
 7326SOL     OW33613   2.831   3.502   5.056  0.0544 -0.2530  0.3275
 7326SOL    HW133614   2.792   3.415   5.057 -0.6113  0.0558  0.9115
 7326SOL    HW233615   2.749   3.552   5.058 -0.5457 -1.2915  1.3478
 7327SOL     OW33616   3.870   0.452   4.916  0.1114 -0.0310 -0.1040
 7327SOL    HW133617   3.913   0.516   4.860  2.6116 -1.9591 -0.3557
 7327SOL    HW233618   3.879   0.373   4.862 -2.2554  0.3168 -1.0485
 7328SOL     OW33619   3.999   4.018   2.775 -0.3893  0.0856  0.9325
 7328SOL    HW133620   3.990   4.100   2.725  0.4323  0.5642  1.5684
 7328SOL    HW233621   4.027   4.031   2.865  1.0110 -0.3960  0.5679
 7329SOL     OW33622   3.373   4.351   3.978 -0.0191 -0.2785 -0.9390
 7329SOL    HW133623   3.432   4.425   3.992  0.7376 -1.1877  0.7186
 7329SOL    HW233624   3.434   4.285   3.945 -0.4128 -0.8803 -0.4505
 7330SOL     OW33625   3.623   0.307   6.974 -0.0286  0.5655 -0.0401
 7330SOL    HW133626   3.712   0.275   6.988 -0.2366  0.3826  0.9062
 7330SOL    HW233627   3.615   0.361   7.053  0.2488  0.3916  0.1058
 7331SOL     OW33628   2.378   1.221   0.246  0.0323 -0.1069 -0.4825
 7331SOL    HW133629   2.444   1.153   0.243 -0.6474 -0.7922 -0.1481
 7331SOL    HW233630   2.306   1.177   0.292  0.7648 -0.0264  0.7591
 7332SOL     OW33631   2.848   0.853   4.674 -0.4094 -0.2994 -0.8364
 7332SOL    HW133632   2.900   0.902   4.611 -1.4245  0.8252 -0.8140
 7332SOL    HW233633   2.762   0.853   4.631 -1.1408  0.0016  0.6120
 7333SOL     OW33634   1.948   1.718   3.877 -0.2149 -0.4321  0.4205
 7333SOL    HW133635   2.022   1.677   3.831 -0.5339 -0.7991  0.2378
 7333SOL    HW233636   1.992   1.774   3.941 -1.0492 -0.5707  1.1053
 7334SOL     OW33637   1.838   0.080  15.103 -0.2844 -0.1751 -0.0686
 7334SOL    HW133638   1.786   0.146  15.148 -0.1502  0.4973 -0.9098
 7334SOL    HW233639   1.917   0.130  15.084  0.2661 -0.4326  1.5650
 7335SOL     OW33640   3.449   4.287   1.719 -0.4584 -0.0755  0.3820
 7335SOL    HW133641   3.483   4.199   1.698 -0.7893 -0.1376  0.1140
 7335SOL    HW233642   3.367   4.286   1.670 -1.0370  1.6168  1.3482
 7336SOL     OW33643   4.255   4.669   7.883 -0.1758 -0.2320  0.1555
 7336SOL    HW133644   4.290   4.582   7.864  1.3457  0.2114  0.8822
 7336SOL    HW233645   4.163   4.646   7.883 -0.0691 -0.6502 -0.4500
 7337SOL     OW33646   2.814   3.528   6.314 -0.3570  0.2178 -0.6409
 7337SOL    HW133647   2.900   3.565   6.334  0.4661 -2.7287  1.3043
 7337SOL    HW233648   2.779   3.502   6.400  0.8716  0.6991  0.0052
 7338SOL     OW33649   0.955   3.186  15.556  0.1287 -0.2106 -0.1554
 7338SOL    HW133650   0.932   3.274  15.525  0.0264 -0.2315 -0.1389
 7338SOL    HW233651   0.941   3.189  15.650 -0.7116  2.1762 -0.3479
 7339SOL     OW33652   3.698   2.981   0.675  0.4795  0.5062  0.5278
 7339SOL    HW133653   3.775   3.030   0.645  0.2647  2.2349  2.8416
 7339SOL    HW233654   3.648   2.957   0.597  0.8146  0.5887  0.2854
 7340SOL     OW33655   2.493   4.729   4.437 -0.1922 -0.3087 -0.0753
 7340SOL    HW133656   2.468   0.078   4.468  2.6493  1.4907 -2.8626
 7340SOL    HW233657   2.488   0.009   4.343  0.1534  1.2612  0.2210
 7341SOL     OW33658   3.596   4.098   4.978  0.1598  0.3772 -0.1838
 7341SOL    HW133659   3.514   4.048   4.979  0.5568 -0.2722 -0.5080
 7341SOL    HW233660   3.645   4.039   4.922 -0.4756  0.3100 -0.6615
 7342SOL     OW33661   4.296   0.738   3.204 -0.5479  0.0295  0.2774
 7342SOL    HW133662   4.250   0.821   3.195  0.2575  0.4540  0.0720
 7342SOL    HW233663   4.351   0.749   3.282 -0.4834  0.7310  0.1267
 7343SOL     OW33664   1.848   1.302  10.423 -0.1907  0.1187  0.3706
 7343SOL    HW133665   1.910   1.280  10.492  1.1289 -0.6616 -1.0345
 7343SOL    HW233666   1.809   1.215  10.414  1.0420 -0.2560 -1.6007
 7344SOL     OW33667   0.882   3.830   8.127  0.1521  0.0908  0.1212
 7344SOL    HW133668   0.859   3.741   8.153 -1.4140 -0.2149 -2.3844
 7344SOL    HW233669   0.946   3.817   8.056 -0.3107  3.5099 -0.9176
 7345SOL     OW33670   2.779   3.107   2.120 -0.2340 -0.3798 -0.2042
 7345SOL    HW133671   2.714   3.174   2.139 -1.0570 -0.9938 -0.8562
 7345SOL    HW233672   2.831   3.141   2.047 -2.6622 -0.3406 -1.9064
 7346SOL     OW33673   3.688   0.905   4.293  0.6604  0.1168  0.0214
 7346SOL    HW133674   3.611   0.961   4.301 -0.1351 -0.8166 -1.1796
 7346SOL    HW233675   3.644   0.821   4.282  1.1467 -0.2118  0.5874
 7347SOL     OW33676   3.424   0.840   6.635  0.2387  0.4186 -0.2870
 7347SOL    HW133677   3.462   0.927   6.645 -0.3392  0.2562  3.3701
 7347SOL    HW233678   3.438   0.805   6.723  2.3212 -0.0606 -0.8289
 7348SOL     OW33679   0.413   4.431   2.081 -0.4697 -0.1714 -0.2156
 7348SOL    HW133680   0.369   4.357   2.122 -2.7690  1.6472  0.6180
 7348SOL    HW233681   0.422   4.416   1.987 -1.1551 -0.4481 -0.2381
 7349SOL     OW33682   4.165   2.850   8.147  0.3249 -0.1093 -0.0901
 7349SOL    HW133683   4.195   2.798   8.222 -2.3693  2.8085  2.9880
 7349SOL    HW233684   4.248   2.855   8.100  2.3540 -1.9119  3.2821
 7350SOL     OW33685   2.187   1.558  10.031  0.0366  0.4309 -0.8781
 7350SOL    HW133686   2.265   1.555   9.976  1.1831  1.1119  0.7039
 7350SOL    HW233687   2.176   1.653  10.030  0.5539  0.4355 -3.6236
 7351SOL     OW33688   0.755   0.580   2.307 -0.4239 -0.1193 -0.1784
 7351SOL    HW133689   0.836   0.533   2.285 -1.9486 -3.7738  1.9481
 7351SOL    HW233690   0.690   0.544   2.247 -0.2336  0.5213 -0.7674
 7352SOL     OW33691   4.420   3.586   2.785  0.1515 -0.0199 -0.0413
 7352SOL    HW133692   4.328   3.573   2.761  0.2893 -1.2470  0.1181
 7352SOL    HW233693   4.461   3.579   2.698  1.5055  0.6798  0.5479
 7353SOL     OW33694   3.290   1.031   0.001 -0.0894  0.2452  1.0569
 7353SOL    HW133695   3.361   0.994   0.053  0.5853 -1.5949 -1.1733
 7353SOL    HW233696   3.340   1.040  17.669 -1.8295  3.1553  0.2886
 7354SOL     OW33697   1.158   3.603   6.814  0.3805 -0.5058  0.4734
 7354SOL    HW133698   1.103   3.531   6.846  0.8154 -0.3483  1.5803
 7354SOL    HW233699   1.086   3.660   6.787  0.6901 -0.5859 -0.4923
 7355SOL     OW33700   1.806   0.443   0.588  0.2398  0.0061 -0.0878
 7355SOL    HW133701   1.748   0.375   0.553 -1.5532  0.7513  1.4548
 7355SOL    HW233702   1.829   0.412   0.676 -1.8039 -0.8919  0.1201
 7356SOL     OW33703   2.500   3.295   5.958 -0.1434  0.3742 -0.5031
 7356SOL    HW133704   2.580   3.317   6.006 -0.2649 -1.1009  0.3654
 7356SOL    HW233705   2.537   3.272   5.873  1.0108  0.1584  0.0572
 7357SOL     OW33706   0.273   1.790   1.912 -0.2867  0.2451  0.3720
 7357SOL    HW133707   0.361   1.769   1.944 -0.4410 -1.1743 -0.1349
 7357SOL    HW233708   0.288   1.877   1.875  0.4920 -0.4903 -1.0721
 7358SOL     OW33709   0.734   2.538   6.272 -0.2147  0.4797  0.4941
 7358SOL    HW133710   0.638   2.538   6.271 -0.2218  0.4220  1.1294
 7358SOL    HW233711   0.753   2.471   6.206  0.4605 -1.4013  2.5992
 7359SOL     OW33712   4.019   1.411  15.898 -0.0784 -0.2891 -0.0542
 7359SOL    HW133713   3.997   1.320  15.878 -3.1376  0.5469 -0.4465
 7359SOL    HW233714   4.028   1.439  15.807 -2.7603  1.7450  0.3252
 7360SOL     OW33715   4.183   1.099   1.749 -0.1489 -0.2077 -0.1342
 7360SOL    HW133716   4.113   1.093   1.814 -0.8574 -0.5158 -0.9326
 7360SOL    HW233717   4.186   1.007   1.725  2.3927 -0.3079  0.5449
 7361SOL     OW33718   3.279   4.180   3.093  0.5540 -0.3036 -0.2547
 7361SOL    HW133719   3.200   4.219   3.055  1.6981  2.3388  0.0835
 7361SOL    HW233720   3.337   4.180   3.016  0.4158 -1.5328 -0.3585
 7362SOL     OW33721   3.270   3.059   9.309  0.2263 -0.0963  0.0265
 7362SOL    HW133722   3.233   3.023   9.228 -1.9547  0.8904  0.5973
 7362SOL    HW233723   3.199   3.035   9.369  0.3204 -0.1511  0.1170
 7363SOL     OW33724   1.768   3.819   6.673  0.0980 -0.5121 -0.0951
 7363SOL    HW133725   1.745   3.762   6.600  0.4056  0.2137 -0.7500
 7363SOL    HW233726   1.862   3.801   6.673 -0.0909 -1.5801  2.2831
 7364SOL     OW33727   3.278   0.287   7.530 -0.7160 -0.4705 -0.5376
 7364SOL    HW133728   3.216   0.230   7.575 -1.8722 -0.9113 -2.6671
 7364SOL    HW233729   3.276   0.260   7.438  1.2360 -0.8468 -0.4594
 7365SOL     OW33730   3.537   4.226   8.924 -0.1958  0.0074 -0.2477
 7365SOL    HW133731   3.454   4.271   8.910  0.1617  0.2881 -1.4303
 7365SOL    HW233732   3.546   4.259   9.013  0.1686 -1.4574  0.2499
 7366SOL     OW33733   3.659   2.242  11.400  0.4673  0.2859 -0.4411
 7366SOL    HW133734   3.652   2.335  11.422 -2.3507 -1.0728  4.2597
 7366SOL    HW233735   3.699   2.212  11.481 -1.6463 -0.3285  0.3675
 7367SOL     OW33736   4.484   0.739   4.082  0.5461 -0.0137 -0.6548
 7367SOL    HW133737   4.538   0.770   4.155 -0.6322  2.2328 -0.7203
 7367SOL    HW233738   4.487   0.644   4.089  1.2161  0.0721  0.2291
 7368SOL     OW33739   4.650   0.498   7.252 -0.0423 -0.2567 -0.0133
 7368SOL    HW133740   0.007   0.509   7.236 -0.1259 -0.5678 -0.7516
 7368SOL    HW233741   4.645   0.438   7.326  1.0735 -0.6392 -0.2414
 7369SOL     OW33742   1.557   4.382   7.325  0.1450  0.5956  0.3822
 7369SOL    HW133743   1.632   4.342   7.281  0.3655  0.3670  0.9651
 7369SOL    HW233744   1.489   4.360   7.262 -0.8255  0.4845  1.4731
 7370SOL     OW33745   1.234   4.001   3.285  0.2420  0.0128  1.1094
 7370SOL    HW133746   1.314   4.023   3.237 -0.5646 -2.1756 -1.2586
 7370SOL    HW233747   1.192   3.945   3.220 -0.2845  0.6697  0.8853
 7371SOL     OW33748   1.782   1.187   4.208 -0.1489 -0.4534 -0.0009
 7371SOL    HW133749   1.868   1.196   4.249 -1.2523  4.7210  1.2006
 7371SOL    HW233750   1.765   1.100   4.244  1.0020 -0.5352  0.3368
 7372SOL     OW33751   4.614   2.354  12.143  0.3958 -0.4397  0.4293
 7372SOL    HW133752   4.628   2.283  12.080 -0.0680 -0.0292 -0.1322
 7372SOL    HW233753   4.702   2.357  12.181  0.6307  0.9617 -0.2178
 7373SOL     OW33754   2.711   4.670   0.494  0.4028 -0.1537 -0.0505
 7373SOL    HW133755   2.725   0.026   0.510 -1.8429  0.2818 -0.6310
 7373SOL    HW233756   2.669   4.659   0.579  1.0710  1.8910  0.5673
 7374SOL     OW33757   2.439   2.820   1.995 -0.6272 -0.2769  0.1980
 7374SOL    HW133758   2.456   2.726   2.003  0.7680 -0.1410 -1.3338
 7374SOL    HW233759   2.507   2.853   2.054 -0.4359 -0.3693  0.0255
 7375SOL     OW33760   4.208   2.771  16.587 -0.3946 -0.3116  0.9725
 7375SOL    HW133761   4.255   2.780  16.670  0.6801 -0.0494  0.3503
 7375SOL    HW233762   4.178   2.861  16.573  3.2733  0.9102  0.9476
 7376SOL     OW33763   4.504   2.709   8.466 -0.4232 -0.3849  0.0417
 7376SOL    HW133764   4.573   2.663   8.419  0.6003 -0.0047  1.1792
 7376SOL    HW233765   4.544   2.794   8.482 -2.3092  0.5188 -0.0560
 7377SOL     OW33766   2.638   2.949   6.064 -0.5011 -0.1590 -0.0285
 7377SOL    HW133767   2.688   2.969   5.985 -1.1089 -0.1119 -0.4012
 7377SOL    HW233768   2.638   2.853   6.068 -1.3747 -0.1654 -0.1020
 7378SOL     OW33769   2.668   2.788   2.399  0.0705  0.1771 -0.5645
 7378SOL    HW133770   2.723   2.716   2.369 -1.2760 -1.3373  0.6027
 7378SOL    HW233771   2.641   2.821   2.313  4.1420  1.3963 -1.3639
 7379SOL     OW33772   2.663   3.212   4.203 -0.3343 -0.3808  0.0675
 7379SOL    HW133773   2.667   3.269   4.127 -1.1372  1.4633  1.4174
 7379SOL    HW233774   2.689   3.130   4.160  1.3328  0.6213 -0.8061
 7380SOL     OW33775   3.287   0.636   5.916 -0.1248  0.3305 -0.6239
 7380SOL    HW133776   3.296   0.631   6.011  0.0867 -1.0182 -0.7173
 7380SOL    HW233777   3.290   0.730   5.894 -0.9565  0.4743 -0.0940
 7381SOL     OW33778   0.719   3.075   8.210 -0.0796  0.6953  0.4284
 7381SOL    HW133779   0.813   3.061   8.199 -0.5722 -0.1088 -2.8966
 7381SOL    HW233780   0.710   3.062   8.304  2.2668 -2.0210  0.2616
 7382SOL     OW33781   3.260   2.563  10.571  0.0717  0.1099 -1.1622
 7382SOL    HW133782   3.330   2.562  10.506  1.1513 -0.0465  0.0148
 7382SOL    HW233783   3.195   2.524  10.513 -1.2653 -0.2433  0.5871
 7383SOL     OW33784   1.746   2.988  13.570 -0.4601 -0.1006 -0.1196
 7383SOL    HW133785   1.800   3.057  13.531  0.4158 -0.0727  1.1093
 7383SOL    HW233786   1.676   3.043  13.605 -0.2758 -1.4852  2.4260
 7384SOL     OW33787   3.828   3.764   5.729 -0.0418 -0.2458  0.2195
 7384SOL    HW133788   3.782   3.820   5.791  0.6079 -0.4157  0.8550
 7384SOL    HW233789   3.899   3.738   5.788  0.0724  0.7544  0.5149
 7385SOL     OW33790   0.343   2.019   8.869  0.6052  0.4872  0.1413
 7385SOL    HW133791   0.427   2.060   8.852 -0.1458  1.4033 -1.3864
 7385SOL    HW233792   0.357   1.942   8.814 -1.4526  0.4485 -0.3435
 7386SOL     OW33793   4.228   0.512  10.828 -0.6265 -0.6545  0.1520
 7386SOL    HW133794   4.137   0.543  10.824  0.1824  1.7887  0.7497
 7386SOL    HW233795   4.230   0.510  10.923  0.9005 -0.5016  0.1210
 7387SOL     OW33796   2.668   3.477   9.546  0.3972 -0.0704 -0.6876
 7387SOL    HW133797   2.742   3.424   9.518  1.4740  0.0058  1.9466
 7387SOL    HW233798   2.694   3.568   9.533  0.2635  0.4591  2.7399
 7388SOL     OW33799   1.535   4.606   2.870 -0.5373 -0.1319  0.8233
 7388SOL    HW133800   1.613   4.551   2.883  0.0571  0.7265  0.9284
 7388SOL    HW233801   1.581   4.687   2.848  1.2061 -1.6492 -1.1204
 7389SOL     OW33802   2.232   4.546   5.993  0.1949  0.3766  0.2641
 7389SOL    HW133803   2.326   4.562   5.997 -0.0338  2.2352 -1.9036
 7389SOL    HW233804   2.190   4.627   6.024  1.4004  0.7751  0.8580
 7390SOL     OW33805   1.349   2.047   4.463 -0.3406  0.2861 -0.1861
 7390SOL    HW133806   1.338   2.138   4.435  2.3936  0.0515 -1.9991
 7390SOL    HW233807   1.301   2.039   4.546 -0.4955  2.6028 -0.0433
 7391SOL     OW33808   2.828   0.389   3.578 -0.1021 -0.3803 -0.4089
 7391SOL    HW133809   2.838   0.448   3.653 -1.8859 -0.7335  0.1040
 7391SOL    HW233810   2.816   0.309   3.629  4.1593 -0.0046  1.2382
 7392SOL     OW33811   4.521   3.017   1.279  0.1096  0.0648  0.4104
 7392SOL    HW133812   4.583   2.946   1.296  0.0077  0.2424  1.5016
 7392SOL    HW233813   4.444   2.963   1.262 -0.4453  0.7967  0.5830
 7393SOL     OW33814   0.789   0.890   6.258  0.2459  0.4805 -0.3062
 7393SOL    HW133815   0.746   0.962   6.304  0.3541  1.4367 -1.7074
 7393SOL    HW233816   0.714   0.831   6.248  1.3886 -1.5050  2.8039
 7394SOL     OW33817   2.338   0.114   6.255 -0.2185 -0.6712  0.3752
 7394SOL    HW133818   2.336   0.137   6.162 -1.7797 -3.8191 -0.3580
 7394SOL    HW233819   2.253   0.075   6.272  0.2604 -1.6843  0.4551
 7395SOL     OW33820   1.174   1.810  17.581 -0.0210 -0.3910  0.2486
 7395SOL    HW133821   1.130   1.780  17.661 -2.3412 -0.6089 -1.1181
 7395SOL    HW233822   1.234   1.873  17.621 -1.3850 -0.2028  2.0023
 7396SOL     OW33823   2.953   1.402   9.387 -0.6084  0.5308  0.3052
 7396SOL    HW133824   2.992   1.351   9.316  0.7451 -1.2025  2.2791
 7396SOL    HW233825   2.985   1.339   9.452 -0.6154  0.0739 -0.1312
 7397SOL     OW33826   3.436   4.440   8.723  0.0521  0.1763  0.1388
 7397SOL    HW133827   3.352   4.473   8.755 -0.5094 -0.9508 -0.1798
 7397SOL    HW233828   3.406   4.354   8.693 -1.1641  1.1697 -1.4351
 7398SOL     OW33829   2.868   1.710   5.036  0.0327  0.3988  0.7268
 7398SOL    HW133830   2.897   1.759   4.959  2.3584 -1.1793  0.5915
 7398SOL    HW233831   2.774   1.730   5.033 -0.0405  0.0493  0.6126
 7399SOL     OW33832   0.741   4.390   3.811  0.1841  0.2427 -0.2186
 7399SOL    HW133833   0.749   4.482   3.835 -0.7489  0.1987  0.2441
 7399SOL    HW233834   0.705   4.344   3.886 -0.8776  1.0880 -0.2214
 7400SOL     OW33835   1.912   2.861   7.004 -0.2256 -0.3006 -0.3817
 7400SOL    HW133836   1.889   2.886   6.915  3.4730 -0.7463 -1.4562
 7400SOL    HW233837   1.824   2.836   7.031  0.5095 -1.0155  1.3611
 7401SOL     OW33838   2.924   3.065  10.880 -0.1363 -0.4122  0.1670
 7401SOL    HW133839   2.854   3.127  10.862 -0.2003 -0.4401  0.3262
 7401SOL    HW233840   2.995   3.119  10.915 -0.1755 -0.2468 -0.0084
 7402SOL     OW33841   0.755   0.558   3.072  0.2792  0.2681 -0.5209
 7402SOL    HW133842   0.753   0.639   3.020  1.1755  1.4658  1.3266
 7402SOL    HW233843   0.793   0.500   3.006 -0.0749 -0.9941  0.3879
 7403SOL     OW33844   1.447   3.179   7.551  0.0153  0.1666  0.3637
 7403SOL    HW133845   1.385   3.136   7.610 -0.0465 -1.5028 -0.9505
 7403SOL    HW233846   1.398   3.201   7.472 -0.2670 -4.6672 -0.8290
 7404SOL     OW33847   1.776   3.049   8.481  0.1406 -0.0013  0.8854
 7404SOL    HW133848   1.855   2.995   8.492 -1.8262 -2.5729  2.1784
 7404SOL    HW233849   1.802   3.141   8.484 -0.7925  0.2506  0.9842
 7405SOL     OW33850   1.567   1.071   2.110  0.2137 -0.1159  0.4519
 7405SOL    HW133851   1.580   0.978   2.126  0.6474 -0.3433 -1.2345
 7405SOL    HW233852   1.635   1.121   2.156 -0.2446  0.4671  0.5012
 7406SOL     OW33853   2.104   2.069   9.849  0.4141 -0.1150  0.0200
 7406SOL    HW133854   2.134   2.131   9.915 -1.7014 -0.2139  1.0890
 7406SOL    HW233855   2.102   2.123   9.769 -0.7431 -1.8543 -1.1375
 7407SOL     OW33856   2.179   4.465   8.122 -0.0896 -0.2419  0.4774
 7407SOL    HW133857   2.189   4.555   8.092 -0.6617 -0.2873  0.1406
 7407SOL    HW233858   2.144   4.491   8.207  0.4212 -0.5897  0.7972
 7408SOL     OW33859   0.298   1.212   8.604 -0.3509 -0.1607 -0.7368
 7408SOL    HW133860   0.331   1.278   8.542 -0.3451 -0.5514 -1.1525
 7408SOL    HW233861   0.372   1.194   8.661 -1.4445 -0.8219  0.4628
 7409SOL     OW33862   2.336   3.869   2.626 -0.6554 -0.6704 -0.0944
 7409SOL    HW133863   2.336   3.773   2.634 -0.5700 -0.7178 -0.6773
 7409SOL    HW233864   2.427   3.880   2.654 -0.1475  0.1933 -2.1188
 7410SOL     OW33865   3.743   2.764   2.892 -0.3446 -0.0122 -0.3080
 7410SOL    HW133866   3.649   2.744   2.898 -1.1263  3.3427 -1.2922
 7410SOL    HW233867   3.755   2.726   2.805  1.3338  1.1086 -0.5741
 7411SOL     OW33868   0.080   1.694   5.303 -0.8208 -0.5294 -0.2651
 7411SOL    HW133869   4.734   1.732   5.329 -0.2308 -0.4090  1.4384
 7411SOL    HW233870   0.121   1.772   5.264  1.4422 -2.1086 -1.0525
 7412SOL     OW33871   3.200   3.499   0.270 -0.2490  0.2157 -0.3917
 7412SOL    HW133872   3.292   3.523   0.267  0.2112 -1.6952 -1.0338
 7412SOL    HW233873   3.156   3.579   0.240 -0.3409  0.0312 -0.7375
 7413SOL     OW33874   1.410   1.117   4.873 -0.1462  0.4398  0.8455
 7413SOL    HW133875   1.439   1.072   4.953  0.7353  1.1010  0.8958
 7413SOL    HW233876   1.344   1.182   4.899  0.1022  0.8325  0.4839
 7414SOL     OW33877   3.489   0.956   3.547 -0.6207 -0.0931  0.4704
 7414SOL    HW133878   3.476   1.048   3.569 -2.2186 -0.3594  0.6254
 7414SOL    HW233879   3.438   0.918   3.619  0.8545 -0.5911  1.2701
 7415SOL     OW33880   3.863   2.201   2.300  0.9746 -0.4245  0.4101
 7415SOL    HW133881   3.904   2.148   2.368  0.6016  1.1456  1.8629
 7415SOL    HW233882   3.875   2.289   2.338 -1.2692  0.5472 -1.1289
 7416SOL     OW33883   4.040   3.607   2.193  0.0525 -0.6256 -0.8764
 7416SOL    HW133884   3.971   3.650   2.244 -0.5926 -0.4969 -1.8601
 7416SOL    HW233885   4.037   3.522   2.239  0.2246 -0.6745 -0.9576
 7417SOL     OW33886   2.414   2.585  13.295  0.1067 -0.3013  0.2585
 7417SOL    HW133887   2.427   2.513  13.356 -0.7613  0.5418  1.4452
 7417SOL    HW233888   2.424   2.534  13.215 -1.1101 -0.4576  0.2077
 7418SOL     OW33889   1.583   3.718   6.087 -0.0380 -0.6190  0.0419
 7418SOL    HW133890   1.642   3.793   6.085  0.1289 -0.7462  0.1543
 7418SOL    HW233891   1.518   3.757   6.145 -0.0722 -0.3840 -0.1588
 7419SOL     OW33892   2.479   3.948  12.782  0.2861  0.4061  0.0215
 7419SOL    HW133893   2.528   4.030  12.777 -0.5514  0.7709 -2.0129
 7419SOL    HW233894   2.492   3.923  12.874  2.3095  3.2640  0.5322
 7420SOL     OW33895   1.441   1.357  11.508  0.8692 -0.0252  0.2846
 7420SOL    HW133896   1.530   1.384  11.530  0.0407  1.0436  2.3784
 7420SOL    HW233897   1.439   1.380  11.415 -1.6868 -1.0610  0.0765
 7421SOL     OW33898   0.472   0.256   2.621  0.9248  0.0296  0.8761
 7421SOL    HW133899   0.529   0.246   2.697  0.1879  2.5599  1.7630
 7421SOL    HW233900   0.386   0.280   2.656  1.1496 -1.3127  2.3496
 7422SOL     OW33901   2.345   2.697   5.174 -0.5652  0.0930 -0.2745
 7422SOL    HW133902   2.418   2.665   5.227  1.4154  0.1411 -2.9212
 7422SOL    HW233903   2.278   2.694   5.242  0.6560  1.2428  0.9734
 7423SOL     OW33904   0.613   0.244   3.484 -0.2744 -0.6157  0.0702
 7423SOL    HW133905   0.678   0.297   3.437 -2.3294  2.9777  1.2823
 7423SOL    HW233906   0.670   0.203   3.549 -0.0651  2.6574  1.9388
 7424SOL     OW33907   2.780   4.518  11.786 -0.1507 -0.3958  0.4491
 7424SOL    HW133908   2.817   4.605  11.773 -1.3791  0.0385 -0.1253
 7424SOL    HW233909   2.729   4.530  11.867  1.4466 -0.0025  1.4024
 7425SOL     OW33910   1.967   2.219   1.256  0.1000  0.4445 -0.5293
 7425SOL    HW133911   2.007   2.149   1.204 -1.1079  0.5422 -1.5965
 7425SOL    HW233912   2.027   2.292   1.240  1.9602 -0.9169  0.2628
 7426SOL     OW33913   3.354   4.498   7.909 -0.2375 -0.0691  0.7832
 7426SOL    HW133914   3.435   4.514   7.861 -0.5060 -3.1925 -0.7505
 7426SOL    HW233915   3.348   4.403   7.923 -0.8824  0.0382  1.2159
 7427SOL     OW33916   4.057   4.724   7.310  0.1179 -0.5780 -0.8023
 7427SOL    HW133917   4.151   0.000   7.323  0.0322  0.6754 -1.5251
 7427SOL    HW233918   4.020   0.066   7.346  0.2961 -0.4006 -1.0088
 7428SOL     OW33919   1.202   1.832   1.622 -0.0288  0.2530  0.2874
 7428SOL    HW133920   1.193   1.833   1.717 -0.8117  1.7255  0.2010
 7428SOL    HW233921   1.124   1.785   1.593 -0.0017  0.7020 -0.5057
 7429SOL     OW33922   3.647   2.982   0.944 -0.0419  0.3690  0.6731
 7429SOL    HW133923   3.742   2.972   0.954  0.1909  1.6545 -0.2229
 7429SOL    HW233924   3.640   2.976   0.849  2.7904  0.8958  0.4069
 7430SOL     OW33925   1.015   1.307   6.241  0.2437  0.3911 -0.4903
 7430SOL    HW133926   1.054   1.220   6.234  1.8927  1.3219 -2.9243
 7430SOL    HW233927   0.999   1.308   6.335 -2.1363  3.0308 -0.9170
 7431SOL     OW33928   1.291   2.883   8.563 -0.4502 -0.6430  0.8710
 7431SOL    HW133929   1.342   2.826   8.621 -0.0777 -1.8973 -0.6697
 7431SOL    HW233930   1.356   2.943   8.527 -0.2544 -2.0178 -1.0732
 7432SOL     OW33931   0.647   0.389  12.287 -0.2185  0.0185  0.1184
 7432SOL    HW133932   0.682   0.433  12.365 -1.6857 -1.1227  1.4452
 7432SOL    HW233933   0.723   0.393  12.229  0.8691  1.1439  1.6061
 7433SOL     OW33934   3.724   0.333   1.640  0.0220 -0.0549 -0.4352
 7433SOL    HW133935   3.655   0.307   1.699 -0.6979  1.5592 -0.5629
 7433SOL    HW233936   3.683   0.358   1.557  0.9599  0.1854 -0.8395
 7434SOL     OW33937   2.287   4.495  17.650  0.9410  0.3901 -0.1251
 7434SOL    HW133938   2.325   4.579  17.677  0.3796  0.8752 -0.8680
 7434SOL    HW233939   2.193   4.503  17.668  0.9352 -0.3407  0.1903
 7435SOL     OW33940   1.389   4.088   2.779 -0.3710 -0.2943  0.4964
 7435SOL    HW133941   1.476   4.059   2.806 -0.1408  1.8470  1.9998
 7435SOL    HW233942   1.366   4.145   2.853 -2.1012 -0.1790 -0.1390
 7436SOL     OW33943   0.305   0.391  11.242 -0.3984  0.3223 -0.0510
 7436SOL    HW133944   0.399   0.388  11.255 -0.1351 -0.8522 -2.0694
 7436SOL    HW233945   0.301   0.454  11.170  0.6296  1.9876  1.3689
 7437SOL     OW33946   0.516   4.448   6.243 -0.1003  0.1617 -0.5877
 7437SOL    HW133947   0.499   4.442   6.337 -1.2284  0.9613 -0.7475
 7437SOL    HW233948   0.430   4.455   6.203 -0.2713  1.5783  0.0059
 7438SOL     OW33949   1.330   1.789  16.648 -0.0644  0.1788 -0.2451
 7438SOL    HW133950   1.394   1.832  16.704  1.0659 -0.3108 -1.1524
 7438SOL    HW233951   1.335   1.697  16.674  0.0562  0.4262  0.6039
 7439SOL     OW33952   4.595   1.514   6.789  0.4054 -0.5390 -0.4339
 7439SOL    HW133953   4.571   1.529   6.698  1.1024 -0.1384 -0.5477
 7439SOL    HW233954   4.612   1.602   6.821  1.0236 -0.6034 -0.5893
 7440SOL     OW33955   1.913   1.098   0.984 -0.0210  0.1577  0.2372
 7440SOL    HW133956   1.819   1.080   0.974  0.5703 -1.3248 -2.6430
 7440SOL    HW233957   1.910   1.053   1.069 -1.4580 -0.4641 -0.1323
 7441SOL     OW33958   2.474   1.910   4.306 -0.6313 -0.8476  0.5748
 7441SOL    HW133959   2.396   1.961   4.328 -0.2711  1.1870 -2.8573
 7441SOL    HW233960   2.446   1.819   4.321  1.1914 -1.9596 -2.8293
 7442SOL     OW33961   1.304   3.367   7.941 -0.2584 -1.0271 -0.2069
 7442SOL    HW133962   1.231   3.382   8.002  0.8177 -2.0127  1.3229
 7442SOL    HW233963   1.271   3.300   7.881 -0.5209 -1.6144  0.5870
 7443SOL     OW33964   1.085   1.678  16.546  0.2606 -0.3900  0.2708
 7443SOL    HW133965   1.044   1.673  16.632 -0.8496  0.1205 -0.2252
 7443SOL    HW233966   1.175   1.705  16.564 -0.6286 -0.1606  4.2090
 7444SOL     OW33967   0.254   1.267  15.187  0.3525 -0.2007 -0.3740
 7444SOL    HW133968   0.244   1.179  15.153 -0.5497 -0.6451  1.0055
 7444SOL    HW233969   0.189   1.258  15.257  0.3020 -1.3751 -0.5832
 7445SOL     OW33970   2.781   1.674   8.708 -0.0222  0.3371 -0.1863
 7445SOL    HW133971   2.789   1.585   8.745  0.0642  0.3522 -0.1675
 7445SOL    HW233972   2.858   1.666   8.652  0.7383 -0.6065  0.9826
 7446SOL     OW33973   1.262   4.096   0.388 -0.2557 -0.2003  0.5408
 7446SOL    HW133974   1.303   4.078   0.304 -1.6307 -0.0626 -0.1478
 7446SOL    HW233975   1.188   4.151   0.361  0.3024 -0.5818 -1.7279
 7447SOL     OW33976   2.172   4.480  13.097  0.1123  0.1280  0.1901
 7447SOL    HW133977   2.084   4.495  13.061  0.7533  2.3320 -0.4462
 7447SOL    HW233978   2.237   4.514  13.035  0.2575 -1.1964 -0.3773
 7448SOL     OW33979   2.700   3.156  14.255  0.1139 -0.3244  0.2970
 7448SOL    HW133980   2.691   3.090  14.323 -1.5005  0.8021  1.1878
 7448SOL    HW233981   2.645   3.230  14.282  0.1295 -0.4847  0.7556
 7449SOL     OW33982   1.929   1.543   8.767 -0.1168 -0.3770  0.0610
 7449SOL    HW133983   1.956   1.527   8.676 -0.3815 -0.8162  0.0618
 7449SOL    HW233984   2.003   1.522   8.823 -0.8298 -1.2582  0.6739
 7450SOL     OW33985   4.679   4.416   8.005  0.4017  0.1804 -0.0009
 7450SOL    HW133986   0.022   4.366   7.997  0.5841  0.5709 -0.6191
 7450SOL    HW233987   4.650   4.386   7.919  0.2468  0.1907  0.0470
 7451SOL     OW33988   1.482   1.218   7.148  0.0738 -0.2135 -0.1510
 7451SOL    HW133989   1.456   1.276   7.077 -2.6714 -2.1276 -0.7343
 7451SOL    HW233990   1.510   1.141   7.097 -0.0495 -1.1829  1.2471
 7452SOL     OW33991   2.270   4.104  13.121  0.0772  0.4026 -0.3033
 7452SOL    HW133992   2.338   4.171  13.109  1.2388 -0.5027  1.1912
 7452SOL    HW233993   2.302   4.070  13.205 -3.3003  1.1096  1.2679
 7453SOL     OW33994   4.597   3.707  11.977  0.0881  0.7678 -0.3706
 7453SOL    HW133995   4.520   3.762  11.963 -0.4936 -0.1588 -0.8274
 7453SOL    HW233996   4.552   3.628  12.007 -1.1254  0.9315 -1.7659
 7454SOL     OW33997   2.752   1.828   5.579  0.0419 -0.4662  0.2079
 7454SOL    HW133998   2.722   1.918   5.570  1.6558  0.0368 -0.0415
 7454SOL    HW233999   2.733   1.798   5.490  2.1286 -2.3961  0.4191
 7455SOL     OW34000   1.458   3.566   7.809  0.2657  0.2588  0.3793
 7455SOL    HW134001   1.417   3.500   7.864  1.0394  0.3815  1.1076
 7455SOL    HW234002   1.511   3.601   7.881 -0.1613 -0.7866  1.2025
 7456SOL     OW34003   4.531   3.547   1.717  0.7014  0.0029 -0.4608
 7456SOL    HW134004   4.597   3.602   1.675 -0.8394  2.1254 -0.1243
 7456SOL    HW234005   4.460   3.564   1.655  0.4149  0.8914  0.1128
 7457SOL     OW34006   0.534   0.947   5.376  1.0220 -0.2375  1.0757
 7457SOL    HW134007   0.568   0.916   5.292  1.5358  2.1555  0.3884
 7457SOL    HW234008   0.439   0.949   5.361  1.3864  0.2125 -1.1166
 7458SOL     OW34009   1.715   3.560  16.968 -0.4777 -0.2150 -0.4013
 7458SOL    HW134010   1.668   3.574  16.886  0.0056  1.1974 -0.4351
 7458SOL    HW234011   1.730   3.649  16.999 -2.1096 -0.1656  0.2224
 7459SOL     OW34012   2.995   2.558   7.497 -0.3491 -0.2223 -0.1385
 7459SOL    HW134013   2.905   2.573   7.468  0.9819  2.8147 -2.7458
 7459SOL    HW234014   2.983   2.478   7.548  1.8772 -1.3001 -1.2921
 7460SOL     OW34015   3.566   3.033   4.790 -0.0911 -0.0223  0.3114
 7460SOL    HW134016   3.626   2.959   4.778  1.0329  1.0313 -0.5385
 7460SOL    HW234017   3.599   3.110   4.744 -3.0740  0.0226 -1.7702
 7461SOL     OW34018   0.008   1.207   4.085 -0.2366 -0.0700 -0.0765
 7461SOL    HW134019   4.702   1.208   4.000  2.6819  1.6448 -1.5435
 7461SOL    HW234020   0.097   1.186   4.056 -0.1409 -0.3183  0.3996
 7462SOL     OW34021   1.622   0.525   1.468  0.5372  0.5092  0.2395
 7462SOL    HW134022   1.663   0.518   1.382 -0.0256 -2.0070  0.1660
 7462SOL    HW234023   1.704   0.526   1.517 -0.0396 -1.4382  1.2309
 7463SOL     OW34024   1.395   0.455   4.949  0.3242 -0.1435 -0.3520
 7463SOL    HW134025   1.435   0.414   4.872  2.6333 -0.2284  0.8933
 7463SOL    HW234026   1.341   0.387   4.987  3.7593 -2.1116  0.9858
 7464SOL     OW34027   1.573   2.947  12.240 -0.2300  0.2802 -0.5276
 7464SOL    HW134028   1.504   2.913  12.182  0.0400 -1.0364 -0.0606
 7464SOL    HW234029   1.541   3.036  12.257  1.6321  1.3187 -2.3369
 7465SOL     OW34030   0.837   2.796  15.214  0.2116 -0.1561  0.1150
 7465SOL    HW134031   0.886   2.874  15.240  2.1434 -0.6978 -1.9303
 7465SOL    HW234032   0.789   2.824  15.136  0.0218 -1.4034 -0.2196
 7466SOL     OW34033   3.818   0.045  12.945  0.0712  0.3431  0.7489
 7466SOL    HW134034   3.869   0.015  13.020  1.9582 -1.3230 -1.1926
 7466SOL    HW234035   3.857   0.130  12.926 -1.9157  1.4504  1.6820
 7467SOL     OW34036   0.967   3.831  14.476 -0.1734 -0.5198 -0.0230
 7467SOL    HW134037   1.018   3.850  14.554  1.0850 -1.4852 -0.5976
 7467SOL    HW234038   0.985   3.736  14.473 -0.0628 -0.4493 -2.1566
 7468SOL     OW34039   0.042   4.248   7.113 -0.0634  0.0392 -0.2018
 7468SOL    HW134040   0.118   4.286   7.069 -1.3753 -0.9672 -3.3388
 7468SOL    HW234041   4.727   4.325   7.088  2.6588  2.2834  0.9221
 7469SOL     OW34042   0.817   3.514  15.315  0.3675 -0.1379 -0.3524
 7469SOL    HW134043   0.727   3.524  15.284 -0.8653 -0.1789  3.1818
 7469SOL    HW234044   0.834   3.448  15.248 -1.9553 -2.2041  1.0775
 7470SOL     OW34045   2.896   2.664   2.211  0.3334 -0.1135  0.1274
 7470SOL    HW134046   2.974   2.694   2.257 -0.4932 -0.1780  1.5782
 7470SOL    HW234047   2.931   2.611   2.140 -0.5954 -1.4560  0.6636
 7471SOL     OW34048   4.123   4.005   6.474  0.0733  0.2371  0.0986
 7471SOL    HW134049   4.173   3.944   6.421  1.3703  2.3521 -1.1177
 7471SOL    HW234050   4.187   4.077   6.472  0.3542  0.0253  1.1419
 7472SOL     OW34051   1.304   2.446   7.263 -0.3026 -0.0955 -0.5220
 7472SOL    HW134052   1.226   2.503   7.265  0.6164  1.0733  1.7263
 7472SOL    HW234053   1.273   2.359   7.289  0.2562  0.1535  0.9949
 7473SOL     OW34054   2.403   0.525  14.023  0.1096  0.3774  0.3332
 7473SOL    HW134055   2.409   0.482  14.109  1.6928 -1.9317 -0.9270
 7473SOL    HW234056   2.447   0.604  14.053  0.3007  0.2927  0.2772
 7474SOL     OW34057   2.610   1.348   2.084  0.2066  0.0979  0.2689
 7474SOL    HW134058   2.531   1.324   2.133 -0.7636 -0.5198 -1.5821
 7474SOL    HW234059   2.668   1.275   2.099 -0.5719 -1.0440 -2.3103
 7475SOL     OW34060   0.672   0.079  12.074  0.1270  0.2406  0.2318
 7475SOL    HW134061   0.719   0.035  12.003  0.4529  0.1984  0.4732
 7475SOL    HW234062   0.667   0.168  12.037 -0.2607  0.8217  1.6851
 7476SOL     OW34063   0.488   1.596   2.200 -0.1328 -0.2868 -0.2319
 7476SOL    HW134064   0.466   1.689   2.190  1.2876  0.1080  0.3602
 7476SOL    HW234065   0.583   1.606   2.199 -0.1952  0.3560  0.2311
 7477SOL     OW34066   2.599   0.301   1.408  0.1514  0.0417 -0.0879
 7477SOL    HW134067   2.536   0.245   1.362 -0.7371  2.0222 -1.2549
 7477SOL    HW234068   2.620   0.262   1.493 -2.2766  2.0831  1.4348
 7478SOL     OW34069   0.184   1.121  12.620 -0.2036  0.1857 -0.0378
 7478SOL    HW134070   0.211   1.196  12.673  0.6049  0.2735 -0.5748
 7478SOL    HW234071   0.263   1.067  12.620  1.0838  2.0731 -0.9426
 7479SOL     OW34072   1.746   1.407   8.955  0.3246 -0.2558 -0.0268
 7479SOL    HW134073   1.775   1.465   9.026  0.9751  0.1858 -0.6592
 7479SOL    HW234074   1.813   1.434   8.893 -0.0676 -0.5781 -0.5816
 7480SOL     OW34075   1.104   4.566   8.401  0.2559 -0.4278 -0.1814
 7480SOL    HW134076   1.059   4.484   8.379 -1.8905  0.8586 -0.6276
 7480SOL    HW234077   1.194   4.536   8.394  0.7159  0.7278  0.7517
 7481SOL     OW34078   2.950   0.959   3.945 -0.0250  0.3476 -0.1422
 7481SOL    HW134079   3.004   0.968   3.866  1.7824  2.7477  1.3644
 7481SOL    HW234080   2.869   0.924   3.908 -1.4045  2.8754  0.4594
 7482SOL     OW34081   4.170   2.180   1.120  0.3965 -0.4779  0.0429
 7482SOL    HW134082   4.225   2.234   1.177 -0.0578  0.7845 -0.6961
 7482SOL    HW234083   4.088   2.177   1.169  0.8541 -1.1929  0.7660
 7483SOL     OW34084   1.428   1.946   6.978 -0.0180  0.1190 -0.6990
 7483SOL    HW134085   1.342   1.973   6.946 -0.5585  0.9449  1.4624
 7483SOL    HW234086   1.476   2.029   6.981  0.9764 -0.4611 -0.3693
 7484SOL     OW34087   1.218   1.346   7.588  0.5067  0.3143  0.1222
 7484SOL    HW134088   1.136   1.312   7.551  0.6334 -1.5832  1.5845
 7484SOL    HW234089   1.249   1.384   7.506  2.2526  1.7924  1.4895
 7485SOL     OW34090   0.726   1.223   8.027 -0.4645  0.1089 -0.7059
 7485SOL    HW134091   0.778   1.291   7.985  0.0646  0.4385  0.4857
 7485SOL    HW234092   0.789   1.172   8.078 -1.2564 -1.2581 -1.0806
 7486SOL     OW34093   0.322   2.841   9.372  0.1876  0.0719  0.0393
 7486SOL    HW134094   0.349   2.751   9.389  1.7241  1.0966  3.0288
 7486SOL    HW234095   0.330   2.883   9.457 -0.8567  3.6158 -1.6160
 7487SOL     OW34096   3.679   3.899   4.782  0.5524  0.3759  0.6225
 7487SOL    HW134097   3.592   3.862   4.797 -0.9488  3.8473  0.3832
 7487SOL    HW234098   3.687   3.910   4.687  1.0055 -1.1975  0.4711
 7488SOL     OW34099   1.079   4.584   6.767 -0.2770  0.3250 -0.3239
 7488SOL    HW134100   1.136   4.541   6.704 -0.3338 -2.2292  1.3936
 7488SOL    HW234101   1.115   4.669   6.792  1.9823 -0.9101  0.5849
 7489SOL     OW34102   1.521   4.429   9.103  0.2557  0.5130 -0.0457
 7489SOL    HW134103   1.454   4.375   9.061 -0.4270  0.6031  0.9295
 7489SOL    HW234104   1.524   4.387   9.188  1.3103 -1.4329 -1.0503
 7490SOL     OW34105   1.096   2.534   6.946 -0.2793  0.6279 -0.0703
 7490SOL    HW134106   1.005   2.543   6.917 -0.6290 -0.5904  0.6824
 7490SOL    HW234107   1.090   2.502   7.036  0.9539 -1.7458 -0.8506
 7491SOL     OW34108   4.285   3.515  15.260 -0.5304  0.1626 -0.2780
 7491SOL    HW134109   4.376   3.513  15.290 -0.8759  0.8844  0.8295
 7491SOL    HW234110   4.245   3.526  15.347  2.1570  0.8561  0.8625
 7492SOL     OW34111   4.632   2.418  17.328 -0.1759  0.4450 -0.2532
 7492SOL    HW134112   4.606   2.508  17.342  0.7780  0.7254 -0.2987
 7492SOL    HW234113   4.619   2.414  17.233 -1.7789  0.1472 -0.0324
 7493SOL     OW34114   2.673   2.155   3.453  0.4518 -0.4849  0.1722
 7493SOL    HW134115   2.645   2.065   3.439 -0.9271  0.4217 -2.8605
 7493SOL    HW234116   2.682   2.154   3.549  2.0087 -0.1788  0.0319
 7494SOL     OW34117   2.473   2.624   2.480 -0.8283  0.3249  0.3442
 7494SOL    HW134118   2.436   2.613   2.392  0.4100 -0.1250 -0.1104
 7494SOL    HW234119   2.533   2.695   2.456  0.6037 -1.3630 -0.9712
 7495SOL     OW34120   1.061   1.457   2.247 -0.5079  0.0506 -0.0307
 7495SOL    HW134121   0.986   1.459   2.187 -0.5610 -1.8876 -0.0185
 7495SOL    HW234122   1.130   1.421   2.192  1.1177  0.4778  1.7487
 7496SOL     OW34123   4.344   3.475   1.441  0.3859 -0.0459  0.5932
 7496SOL    HW134124   4.361   3.566   1.467 -0.3489  0.2877 -0.0745
 7496SOL    HW234125   4.427   3.441   1.409  0.4790  0.6266  0.1253
 7497SOL     OW34126   4.110   2.093  17.172  0.0168  0.9554 -0.2850
 7497SOL    HW134127   4.201   2.094  17.201 -0.4293  5.0080  1.0149
 7497SOL    HW234128   4.095   1.998  17.165 -0.3424  0.8311  2.0475
 7498SOL     OW34129   3.870   2.069   6.935  0.4335  0.4951 -0.1940
 7498SOL    HW134130   3.872   2.101   7.025  1.0039  0.5171 -0.2156
 7498SOL    HW234131   3.843   2.146   6.885 -0.8829 -0.5840 -1.1636
 7499SOL     OW34132   4.471   0.287   7.766  0.4860  0.2067  0.6266
 7499SOL    HW134133   4.550   0.236   7.782 -0.1248 -0.8052  0.4670
 7499SOL    HW234134   4.455   0.309   7.857  0.2779  2.0961  0.1298
 7500SOL     OW34135   4.410   4.325   5.750 -0.2007  0.0377  0.1899
 7500SOL    HW134136   4.462   4.262   5.699  0.0717  1.3061 -1.0861
 7500SOL    HW234137   4.363   4.265   5.808 -0.5180  0.5892  0.5023
 7501SOL     OW34138   0.984   1.672   2.017  0.2085  0.1691  0.0745
 7501SOL    HW134139   0.925   1.707   1.951  1.1883  0.4099 -0.6842
 7501SOL    HW234140   1.053   1.638   1.960  0.8523 -0.0762  1.0009
 7502SOL     OW34141   1.841   1.063   2.823 -0.2554 -0.5267  0.0014
 7502SOL    HW134142   1.894   1.075   2.902  0.8019  1.2808 -0.9673
 7502SOL    HW234143   1.755   1.097   2.849 -0.9058 -2.0576 -0.1450
 7503SOL     OW34144   3.404   1.381   3.823 -0.0735  0.2670 -0.9586
 7503SOL    HW134145   3.328   1.325   3.838  1.2363 -0.7415  1.8572
 7503SOL    HW234146   3.378   1.463   3.864  0.3572  0.4044 -0.9602
 7504SOL     OW34147   0.457   3.419   7.927  0.5925  0.0731  0.1178
 7504SOL    HW134148   0.417   3.506   7.935  0.8925  0.0881  1.6202
 7504SOL    HW234149   0.439   3.372   8.009 -3.4330  1.1507 -0.1531
 7505SOL     OW34150   4.599   0.117   5.927  0.1529  0.6668 -0.2512
 7505SOL    HW134151   4.530   0.073   5.879  0.9566  0.3992 -1.1641
 7505SOL    HW234152   4.643   0.160   5.854  1.5142  1.8676  1.2550
 7506SOL     OW34153   1.751   3.682   9.583 -0.3551 -0.0010  0.1381
 7506SOL    HW134154   1.832   3.658   9.628  0.1117  0.9063 -0.2153
 7506SOL    HW234155   1.790   3.732   9.511 -0.7090 -0.5042 -0.4115
 7507SOL     OW34156   0.385   4.323   0.733  0.1570 -0.0485  0.1343
 7507SOL    HW134157   0.420   4.239   0.703 -1.1910 -0.3339 -0.6308
 7507SOL    HW234158   0.463   4.375   0.748 -0.0636 -0.0124  1.1399
 7508SOL     OW34159   1.454   0.967   1.220 -0.7492 -0.1959 -0.7115
 7508SOL    HW134160   1.393   0.911   1.267  0.7181  0.4824  2.0341
 7508SOL    HW234161   1.500   0.904   1.165 -0.2421  0.0459 -0.5705
 7509SOL     OW34162   2.015   2.689   3.164 -0.6876 -0.6325 -0.0805
 7509SOL    HW134163   2.089   2.747   3.147  0.4281 -2.4010 -1.1502
 7509SOL    HW234164   2.030   2.613   3.108  0.6024  0.5398 -1.3207
 7510SOL     OW34165   4.437   2.372   0.233 -0.3939 -0.3217  0.0624
 7510SOL    HW134166   4.511   2.412   0.187 -1.6964  2.6089  0.5324
 7510SOL    HW234167   4.379   2.344   0.162 -0.3800  0.1672 -0.1484
 7511SOL     OW34168   0.237   1.920  15.148 -0.0012  0.2180 -0.0100
 7511SOL    HW134169   0.208   2.011  15.141 -1.3976 -0.1584  0.8806
 7511SOL    HW234170   0.266   1.909  15.238 -3.0704  0.3050  1.0103
 7512SOL     OW34171   4.124   4.251  15.877 -0.2859  0.0924 -0.0575
 7512SOL    HW134172   4.074   4.298  15.944  2.8374  0.2159  2.1687
 7512SOL    HW234173   4.063   4.202  15.821  0.0595 -0.5084  0.1069
 7513SOL     OW34174   2.334   4.289   5.341  0.1115  0.0800 -0.7076
 7513SOL    HW134175   2.339   4.359   5.406  1.1694  0.1049 -0.8252
 7513SOL    HW234176   2.241   4.274   5.324 -0.2521  0.1300  1.2693
 7514SOL     OW34177   0.372   2.498   5.904  0.0766  0.0976 -0.6871
 7514SOL    HW134178   0.447   2.470   5.957 -1.0203  1.5702  1.6248
 7514SOL    HW234179   0.342   2.567   5.962 -0.0799  0.2138 -0.9059
 7515SOL     OW34180   0.100   2.631  14.509  0.1098  0.1319  0.4045
 7515SOL    HW134181   0.144   2.621  14.593  1.6119  1.2641 -0.2445
 7515SOL    HW234182   0.006   2.625  14.527  0.4066  2.3251  2.5762
 7516SOL     OW34183   2.500   1.697   8.648  0.5908  0.0738 -0.5112
 7516SOL    HW134184   2.594   1.703   8.665  0.4866  0.4008 -0.0542
 7516SOL    HW234185   2.485   1.604   8.665 -1.6625  1.0710  3.1212
 7517SOL     OW34186   1.859   1.670  11.151 -0.5240 -0.0253 -0.6334
 7517SOL    HW134187   1.826   1.580  11.155  0.0575 -0.3471 -3.0859
 7517SOL    HW234188   1.835   1.696  11.240 -0.7391  0.8637 -0.9524
 7518SOL     OW34189   0.030   0.249   3.144  0.5031  0.3712 -0.3454
 7518SOL    HW134190   0.006   0.230   3.235 -0.9472  1.3884 -0.5141
 7518SOL    HW234191   0.098   0.187   3.119  1.1832  1.1932 -0.5475
 7519SOL     OW34192   0.782   2.660   5.559 -0.1265  0.5185 -0.1158
 7519SOL    HW134193   0.740   2.579   5.587  0.5580 -0.5627 -2.2376
 7519SOL    HW234194   0.837   2.678   5.635 -0.1326 -0.2723  0.0720
 7520SOL     OW34195   0.179   3.580   1.460 -0.0711 -0.4577  0.1027
 7520SOL    HW134196   0.264   3.623   1.456 -1.1698  1.5905 -0.8001
 7520SOL    HW234197   0.202   3.510   1.399  0.7696  0.0191 -0.1304
 7521SOL     OW34198   1.364   0.973  13.970  0.2305  0.2918  0.6297
 7521SOL    HW134199   1.299   0.904  13.958 -1.1126  1.9992 -1.7339
 7521SOL    HW234200   1.416   0.938  14.043 -0.1719  1.4975  1.4892
 7522SOL     OW34201   2.502   4.219   3.887 -0.5962  0.0681 -0.4180
 7522SOL    HW134202   2.570   4.152   3.887 -0.7809 -0.1073 -1.7456
 7522SOL    HW234203   2.454   4.193   3.809 -1.6842 -0.3014  0.3804
 7523SOL     OW34204   1.909   0.994   1.240 -0.7080  0.3050  0.2718
 7523SOL    HW134205   1.849   0.928   1.275  1.5853 -2.1226 -0.3820
 7523SOL    HW234206   1.991   0.945   1.244 -1.3583 -0.7682  0.6661
 7524SOL     OW34207   0.990   1.116   7.430  0.1779 -0.0423  0.2347
 7524SOL    HW134208   1.062   1.112   7.367 -0.4464 -0.7752 -0.4393
 7524SOL    HW234209   1.006   1.032   7.475  0.7523 -0.5227 -0.8681
 7525SOL     OW34210   1.861   1.630   9.114 -0.3134  0.1769  0.5244
 7525SOL    HW134211   1.869   1.721   9.088  0.4107 -0.0433 -0.0257
 7525SOL    HW234212   1.950   1.610   9.143  0.3701  2.3932 -0.0735
 7526SOL     OW34213   2.163   0.768   8.192  0.2159  0.3279 -0.9269
 7526SOL    HW134214   2.218   0.730   8.123 -0.4853 -2.1245 -0.1251
 7526SOL    HW234215   2.179   0.689   8.244  1.5081  0.8728 -0.4814
 7527SOL     OW34216   1.655   3.626   8.269  0.1706  0.7063  0.0506
 7527SOL    HW134217   1.681   3.534   8.278  0.5647  0.8545  0.4231
 7527SOL    HW234218   1.712   3.667   8.334 -0.8908  0.8929  0.8539
 7528SOL     OW34219   1.614   1.705  13.628 -0.3070  0.1611 -0.0863
 7528SOL    HW134220   1.682   1.661  13.679 -1.4133 -0.2543  1.0158
 7528SOL    HW234221   1.550   1.720  13.697 -0.0912  0.6538  0.0090
 7529SOL     OW34222   3.385   2.248  10.565  0.6100  0.4198 -0.1254
 7529SOL    HW134223   3.334   2.318  10.605  0.1645 -0.1277  0.2654
 7529SOL    HW234224   3.438   2.298  10.504  1.7225 -0.9591 -0.2902
 7530SOL     OW34225   2.243   4.271  16.061  0.6255  0.4499  0.0434
 7530SOL    HW134226   2.210   4.194  16.108 -1.6892  0.9641 -0.7410
 7530SOL    HW234227   2.187   4.278  15.984  0.5256  0.6274  0.1314
 7531SOL     OW34228   0.294   1.254   3.252  0.5639 -0.5909 -0.3824
 7531SOL    HW134229   0.295   1.173   3.303 -2.3173  0.2062  0.9238
 7531SOL    HW234230   0.202   1.271   3.272  0.6639 -1.7889  1.1048
 7532SOL     OW34231   3.823   2.663   6.208 -0.9789  0.2127 -0.6117
 7532SOL    HW134232   3.852   2.742   6.254 -1.1202  0.1445 -0.4073
 7532SOL    HW234233   3.731   2.684   6.196 -1.2013  0.9931  2.3224
 7533SOL     OW34234   1.604   1.107   8.047  0.6511  0.6179 -0.1179
 7533SOL    HW134235   1.567   1.085   7.961 -1.5877  1.2090  0.6972
 7533SOL    HW234236   1.696   1.112   8.022  1.0280 -0.2265  1.0957
 7534SOL     OW34237   1.979   2.539   4.804  0.2518 -0.1846  0.5012
 7534SOL    HW134238   1.983   2.634   4.791  0.2290 -0.4034 -1.2011
 7534SOL    HW234239   2.021   2.530   4.889  1.2371 -0.3215  0.0061
 7535SOL     OW34240   0.866   1.571   8.720  0.0069  0.1201  0.3021
 7535SOL    HW134241   0.881   1.529   8.635 -0.3740 -0.3167  0.4488
 7535SOL    HW234242   0.873   1.494   8.777 -0.7462  1.2139  1.8923
 7536SOL     OW34243   0.014   0.315  16.437 -0.2850 -0.0554  0.0269
 7536SOL    HW134244   4.657   0.319  16.427 -0.1082 -1.6831 -2.4721
 7536SOL    HW234245   0.025   0.391  16.494  1.0171  0.6261 -1.1392
 7537SOL     OW34246   3.033   4.094   6.566 -0.3149  0.3660  0.6557
 7537SOL    HW134247   2.972   4.161   6.596 -1.7588 -0.7778  0.2818
 7537SOL    HW234248   2.963   4.037   6.533  0.4904 -0.3078  0.1136
 7538SOL     OW34249   3.504   1.117   6.707 -0.0459 -0.2499 -0.1647
 7538SOL    HW134250   3.573   1.170   6.747  1.8301 -2.5231 -0.3508
 7538SOL    HW234251   3.439   1.187   6.703 -0.0895 -0.2124  1.4176
 7539SOL     OW34252   2.024   1.181   7.520 -0.0232  0.3761  0.3462
 7539SOL    HW134253   2.024   1.127   7.441 -1.0131 -0.3418  0.8406
 7539SOL    HW234254   2.119   1.195   7.525 -0.0486  0.2535  1.1580
 7540SOL     OW34255   1.502   0.438   8.579 -0.2149 -0.4367  0.5195
 7540SOL    HW134256   1.505   0.532   8.566 -0.9739 -0.5542 -0.5764
 7540SOL    HW234257   1.430   0.429   8.641  0.0048 -0.4146  0.7746
 7541SOL     OW34258   0.416   1.552   9.192 -0.1025 -0.0725  0.1324
 7541SOL    HW134259   0.374   1.491   9.131 -1.5851  0.4890  0.5869
 7541SOL    HW234260   0.481   1.590   9.133  0.1025  1.2560  1.2033
 7542SOL     OW34261   2.481   0.288   4.503  0.0613 -0.2476 -0.4292
 7542SOL    HW134262   2.575   0.292   4.483 -0.1202  0.7549 -1.0528
 7542SOL    HW234263   2.482   0.304   4.598  1.4523 -1.2377 -0.2673
 7543SOL     OW34264   1.169   3.006   3.220  0.4386  0.2524 -0.9471
 7543SOL    HW134265   1.245   2.955   3.247 -0.7987 -1.1218 -0.1156
 7543SOL    HW234266   1.171   3.075   3.287  0.4922  1.5229 -2.2430
 7544SOL     OW34267   1.197   1.343   2.042  0.2541  0.0430  0.6160
 7544SOL    HW134268   1.108   1.332   2.009 -0.5096  2.1998  1.9806
 7544SOL    HW234269   1.229   1.254   2.057  3.8108  1.2767  0.3878
 7545SOL     OW34270   2.596   4.332  12.183 -0.2594 -0.5305  0.2178
 7545SOL    HW134271   2.540   4.370  12.115  0.4594  2.2009  1.1270
 7545SOL    HW234272   2.637   4.409  12.222 -0.7001 -0.5355  0.6846
 7546SOL     OW34273   3.356   1.140  16.871 -0.6970 -0.1052  0.5624
 7546SOL    HW134274   3.432   1.089  16.899 -0.6811  0.7930  2.1667
 7546SOL    HW234275   3.327   1.112  16.784 -4.3404 -0.3889  1.8710
 7547SOL     OW34276   2.073   1.558  15.095  0.5851 -0.3652 -0.1743
 7547SOL    HW134277   2.089   1.560  15.189  1.2227  2.0644 -0.3474
 7547SOL    HW234278   2.160   1.581  15.064  0.0474 -0.7440 -2.0105
 7548SOL     OW34279   0.874   0.026  14.159  0.2472 -0.3569  0.1747
 7548SOL    HW134280   0.789   4.727  14.187  0.7670 -2.1628 -0.5859
 7548SOL    HW234281   0.918   4.736  14.239  2.3096  1.3356 -0.3850
 7549SOL     OW34282   0.469   2.048   6.451  0.1212 -0.0273 -0.4456
 7549SOL    HW134283   0.450   2.002   6.369 -0.5680 -1.1155  0.3363
 7549SOL    HW234284   0.563   2.028   6.458  0.1911  1.5417  2.8333
 7550SOL     OW34285   1.067   4.236   3.433 -0.0423 -0.1306 -0.2256
 7550SOL    HW134286   1.118   4.167   3.390 -1.7811 -0.5646 -1.6124
 7550SOL    HW234287   1.127   4.311   3.434 -0.3322  0.0883  1.3510
 7551SOL     OW34288   3.489   2.379  10.348  0.0515 -0.2657 -0.6339
 7551SOL    HW134289   3.498   2.296  10.301  0.3018 -1.4837  1.5599
 7551SOL    HW234290   3.438   2.437  10.291 -0.3872 -0.2962 -0.2687
 7552SOL     OW34291   0.800   1.433  12.877 -0.3503  0.1970 -0.1610
 7552SOL    HW134292   0.796   1.465  12.967  0.6764 -0.7335  0.2188
 7552SOL    HW234293   0.872   1.482  12.838 -1.0688 -0.0718 -1.8541
 7553SOL     OW34294   2.626   3.469  13.614  0.1275  0.6926  0.3976
 7553SOL    HW134295   2.671   3.385  13.612  1.3067  1.2504  3.1093
 7553SOL    HW234296   2.534   3.446  13.608 -0.1727  2.4950 -1.8343
 7554SOL     OW34297   0.281   2.915   9.809  0.1991 -0.1011 -0.3292
 7554SOL    HW134298   0.263   3.000   9.850 -0.0982 -0.5195  0.3985
 7554SOL    HW234299   0.246   2.861   9.879 -0.0095 -1.4335 -1.4631
 7555SOL     OW34300   2.320   1.487   7.867  0.2697 -0.4140  0.1581
 7555SOL    HW134301   2.279   1.480   7.953 -0.0407 -2.4776 -0.1557
 7555SOL    HW234302   2.271   1.420   7.819  2.8550 -2.9214  1.0317
 7556SOL     OW34303   0.125   1.043   7.453 -0.1146  0.3290 -0.0556
 7556SOL    HW134304   0.147   0.951   7.467  0.3502  0.3938 -0.3613
 7556SOL    HW234305   0.127   1.070   7.545 -0.8117  0.9664 -0.2225
 7557SOL     OW34306   1.110   3.619  15.967 -0.3389 -0.8979 -0.0330
 7557SOL    HW134307   1.136   3.614  16.059 -0.4612  0.1691  0.0648
 7557SOL    HW234308   1.048   3.692  15.973  0.5257 -0.1717  0.1231
 7558SOL     OW34309   1.987   2.707   9.509 -0.1979  0.2543  0.2529
 7558SOL    HW134310   1.898   2.732   9.486 -0.3738  0.2128  0.9102
 7558SOL    HW234311   1.984   2.628   9.563  1.3473 -1.0544 -1.5571
 7559SOL     OW34312   4.164   3.079  14.927 -0.3905  0.4194  0.3808
 7559SOL    HW134313   4.078   3.117  14.945 -0.1736  0.9385  0.3236
 7559SOL    HW234314   4.170   3.097  14.833 -1.0980 -1.3187 -0.0116
 7560SOL     OW34315   3.292   3.842   2.118 -0.5306 -0.3075 -0.5525
 7560SOL    HW134316   3.311   3.792   2.038 -1.8532 -0.1284 -0.9857
 7560SOL    HW234317   3.217   3.898   2.097 -0.3403 -0.3986 -1.4577
 7561SOL     OW34318   0.754   4.445   3.063 -0.0802 -0.9177 -0.2616
 7561SOL    HW134319   0.676   4.410   3.107 -0.6320  0.4635 -0.1573
 7561SOL    HW234320   0.811   4.442   3.139  0.3103 -0.0509 -0.5251
 7562SOL     OW34321   1.489   1.662  10.564 -0.3777 -0.3726 -0.3200
 7562SOL    HW134322   1.566   1.605  10.562 -1.2090 -1.5115 -0.1310
 7562SOL    HW234323   1.482   1.692  10.473  0.9720 -0.4085 -0.4282
 7563SOL     OW34324   4.178   2.566   7.200  0.0317  0.1026  0.7282
 7563SOL    HW134325   4.224   2.606   7.126  0.5305  0.8726  1.4524
 7563SOL    HW234326   4.096   2.540   7.158 -0.4411  0.6946  1.2934
 7564SOL     OW34327   1.424   4.339   3.533  0.0958  0.3616 -0.1941
 7564SOL    HW134328   1.498   4.288   3.499 -1.7419 -2.3305 -0.1967
 7564SOL    HW234329   1.396   4.280   3.604 -1.6936 -1.2288 -2.2269
 7565SOL     OW34330   1.347   1.961   5.397 -0.6445  0.2694  1.2011
 7565SOL    HW134331   1.403   2.031   5.430  0.2283  0.1285  0.0121
 7565SOL    HW234332   1.331   1.924   5.483 -1.2258 -1.9250  0.1517
 7566SOL     OW34333   2.176   4.677   3.369 -0.2830 -0.6781 -0.3841
 7566SOL    HW134334   2.236   4.654   3.440 -2.0866 -0.3959  1.2487
 7566SOL    HW234335   2.183   0.033   3.349 -1.9099 -0.5870 -0.5762
 7567SOL     OW34336   1.586   4.698   7.268  0.1921 -0.1496  0.3371
 7567SOL    HW134337   1.560   4.642   7.195  0.9855 -0.8987  0.6362
 7567SOL    HW234338   1.665   4.649   7.291 -0.6522 -1.7515 -0.2084
 7568SOL     OW34339   2.086   3.624  15.020  0.2883  0.8868  0.0882
 7568SOL    HW134340   2.069   3.708  15.064  0.5687  0.7830  0.3957
 7568SOL    HW234341   2.114   3.656  14.934 -4.2543  0.8478 -1.3976
 7569SOL     OW34342   0.157   3.469   9.151 -0.0438 -0.2704 -0.0828
 7569SOL    HW134343   0.188   3.474   9.242 -0.5297  1.1469  0.0160
 7569SOL    HW234344   0.082   3.413   9.169 -0.0794  0.3380  1.7026
 7570SOL     OW34345   1.491   2.696   3.994 -0.4060 -0.0175 -0.4807
 7570SOL    HW134346   1.430   2.760   3.958  0.5426  1.2315  0.1276
 7570SOL    HW234347   1.522   2.750   4.066 -0.7320  0.2610 -0.5469
 7571SOL     OW34348   3.877   1.614   5.665 -0.1966 -0.0665  0.6702
 7571SOL    HW134349   3.792   1.648   5.689 -0.4848 -1.3124  1.4146
 7571SOL    HW234350   3.853   1.527   5.634  1.1172 -0.5299  0.9292
 7572SOL     OW34351   2.408   2.617  10.067  0.0808 -0.0851 -0.2711
 7572SOL    HW134352   2.417   2.711  10.048 -1.3077  0.5840  2.4668
 7572SOL    HW234353   2.385   2.617  10.160 -2.1114  0.5238 -0.8063
 7573SOL     OW34354   0.636   4.378   4.651 -0.3668 -0.2240 -0.2981
 7573SOL    HW134355   0.641   4.465   4.691 -2.6515  0.2565 -1.0668
 7573SOL    HW234356   0.620   4.338   4.737  2.0042 -1.7019 -0.5384
 7574SOL     OW34357   4.005   3.762  15.109 -0.6322 -0.6861 -0.2861
 7574SOL    HW134358   3.989   3.768  15.203 -0.7407 -1.0535 -0.2804
 7574SOL    HW234359   4.014   3.667  15.098 -0.2871 -0.6735 -0.1155
 7575SOL     OW34360   3.322   0.769   5.156 -0.3135  0.5527  0.0038
 7575SOL    HW134361   3.247   0.762   5.215  0.1498 -0.6618  0.4453
 7575SOL    HW234362   3.279   0.743   5.075 -0.4886  0.2354  0.1989
 7576SOL     OW34363   0.341   2.580   1.457  0.5078 -0.1716  0.6594
 7576SOL    HW134364   0.349   2.567   1.363 -0.5058 -0.2464  0.5866
 7576SOL    HW234365   0.279   2.653   1.464 -0.9713 -1.3511 -0.2959
 7577SOL     OW34366   0.622   0.254   2.868  0.2519 -0.5063  0.0885
 7577SOL    HW134367   0.713   0.272   2.892  0.5059 -0.4914 -0.8670
 7577SOL    HW234368   0.593   0.220   2.952  0.5811  1.1076  0.8516
 7578SOL     OW34369   4.358   4.355   9.113  0.0035  0.1151  0.1576
 7578SOL    HW134370   4.389   4.311   9.192 -0.1593 -0.1652  0.0642
 7578SOL    HW234371   4.405   4.309   9.043 -2.5401 -2.6253  0.2744
 7579SOL     OW34372   1.784   0.547   6.876 -0.5217 -0.0531  0.2936
 7579SOL    HW134373   1.790   0.579   6.966  0.5942  0.2049  0.1224
 7579SOL    HW234374   1.868   0.562   6.832 -0.1577 -1.8094  0.3841
 7580SOL     OW34375   1.820   3.691   7.789  0.0737  0.7465 -0.3897
 7580SOL    HW134376   1.840   3.658   7.877  0.0325  2.7521  0.3614
 7580SOL    HW234377   1.863   3.775   7.804  1.8349 -0.5259  1.7320
 7581SOL     OW34378   2.846   2.155   9.482 -0.6605 -0.5506  0.4097
 7581SOL    HW134379   2.762   2.191   9.509 -1.0465 -0.0371 -1.4871
 7581SOL    HW234380   2.846   2.073   9.532  0.0459 -0.5995  0.3342
 7582SOL     OW34381   0.735   0.428   6.343  0.1615  0.5926 -0.0533
 7582SOL    HW134382   0.790   0.482   6.286  0.7650  1.8607  1.7234
 7582SOL    HW234383   0.725   0.485   6.420 -1.1902  0.0820  0.1420
 7583SOL     OW34384   1.220   1.111   7.264  0.4737  0.7966 -0.0218
 7583SOL    HW134385   1.211   1.191   7.212  0.4798  0.5271 -0.4374
 7583SOL    HW234386   1.313   1.113   7.287  0.7121  2.7623 -1.1329
 7584SOL     OW34387   4.144   4.498   5.168  0.4342 -0.2005  0.3574
 7584SOL    HW134388   4.050   4.483   5.164  0.1096  1.7767  0.3330
 7584SOL    HW234389   4.172   4.508   5.077  0.6860  0.8475  0.5430
 7585SOL     OW34390   0.935   4.029   9.495  1.1472 -0.9613 -0.0660
 7585SOL    HW134391   0.861   4.035   9.435  0.5929 -1.3933  0.5669
 7585SOL    HW234392   0.960   4.116   9.526  2.4818 -1.3369 -0.0848
 7586SOL     OW34393   2.079   3.333  10.352  0.5461 -0.2374 -0.0924
 7586SOL    HW134394   2.136   3.259  10.331 -0.1123 -1.0230  0.8499
 7586SOL    HW234395   2.005   3.284  10.389  1.9344 -1.7753  0.6774
 7587SOL     OW34396   1.059   3.278  10.042  0.2583 -0.1092  0.3845
 7587SOL    HW134397   1.052   3.236  10.128  0.6968  0.7351  0.8400
 7587SOL    HW234398   1.154   3.270  10.036  0.0778 -0.4083 -1.8202
 7588SOL     OW34399   1.085   0.582   5.372 -0.6285 -0.0984  0.3508
 7588SOL    HW134400   1.079   0.527   5.450  2.2319  2.0662  2.1458
 7588SOL    HW234401   1.048   0.662   5.411  0.5671  0.3836  0.4987
 7589SOL     OW34402   4.541   3.770   2.975 -0.1622 -0.2412 -0.0695
 7589SOL    HW134403   4.625   3.727   2.992 -0.2985 -0.6928 -0.5764
 7589SOL    HW234404   4.500   3.719   2.905 -0.0156 -1.7554  0.9496
 7590SOL     OW34405   0.607   3.469   9.158  0.1999  0.5711  0.3146
 7590SOL    HW134406   0.590   3.535   9.091  0.7023 -0.4646 -0.8166
 7590SOL    HW234407   0.623   3.391   9.106  1.4200  0.3426  1.0341
 7591SOL     OW34408   0.462   3.563   2.906 -0.6156  0.3165 -0.1444
 7591SOL    HW134409   0.515   3.490   2.876  1.2668  0.4187  2.9083
 7591SOL    HW234410   0.494   3.561   2.996  0.0542 -0.5557 -0.4037
 7592SOL     OW34411   1.518   3.916  14.590  0.2517  0.1029  0.4138
 7592SOL    HW134412   1.451   3.853  14.618  0.4598  0.3267  1.3762
 7592SOL    HW234413   1.569   3.918  14.670  2.0812 -1.2620 -0.7157
 7593SOL     OW34414   0.443   3.604   1.962 -0.1090 -0.2699 -0.2428
 7593SOL    HW134415   0.352   3.619   1.988 -0.6509 -3.1762 -0.4753
 7593SOL    HW234416   0.493   3.605   2.044 -0.4615  1.4856 -0.0441
 7594SOL     OW34417   3.327   3.889   8.043 -0.6895  0.0357 -0.5081
 7594SOL    HW134418   3.410   3.936   8.053 -1.4236  1.2060  0.1146
 7594SOL    HW234419   3.343   3.829   7.971 -0.1078  1.5805 -1.6592
 7595SOL     OW34420   3.765   0.834   7.187 -0.2935 -0.8085  0.0116
 7595SOL    HW134421   3.848   0.872   7.158  0.8783 -3.3331  0.0267
 7595SOL    HW234422   3.752   0.753   7.137  1.3877 -1.8519  1.2337
 7596SOL     OW34423   4.420   1.224   6.776  0.4799  0.2518 -0.0189
 7596SOL    HW134424   4.458   1.232   6.863  0.0989  1.2152  0.0675
 7596SOL    HW234425   4.348   1.168   6.802  0.1046  0.2500 -1.0670
 7597SOL     OW34426   3.842   4.449   5.443  0.0728  0.0892 -0.0278
 7597SOL    HW134427   3.824   4.396   5.366  0.1074  2.0763 -1.4020
 7597SOL    HW234428   3.753   4.461   5.478  0.5410  1.2159  0.7785
 7598SOL     OW34429   3.150   2.185   4.490 -0.1424  0.6360 -0.1264
 7598SOL    HW134430   3.237   2.183   4.450 -0.7094  1.8719 -1.3875
 7598SOL    HW234431   3.143   2.273   4.525 -2.5398  0.5110 -0.3381
 7599SOL     OW34432   0.868   0.709   5.876 -0.2137  0.3575  0.0056
 7599SOL    HW134433   0.870   0.625   5.830 -0.4519 -0.1212  0.8593
 7599SOL    HW234434   0.799   0.755   5.830  0.1173  2.0418  1.2069
 7600SOL     OW34435   3.377   0.271  12.323 -0.3030  0.2236  0.2274
 7600SOL    HW134436   3.338   0.263  12.410  2.1476 -1.1189  1.1916
 7600SOL    HW234437   3.423   0.354  12.330 -0.8891  0.4961  0.8697
 7601SOL     OW34438   0.435   4.661  12.727 -1.0441  0.4982 -0.0377
 7601SOL    HW134439   0.439   4.643  12.633  1.6670  0.8790 -0.0113
 7601SOL    HW234440   0.510   4.610  12.758  0.5320  0.8942 -3.2033
 7602SOL     OW34441   3.105   2.593   0.530 -0.5717  0.0241 -0.2474
 7602SOL    HW134442   3.189   2.597   0.484 -0.9786  0.4463 -0.9609
 7602SOL    HW234443   3.123   2.525   0.594 -0.3798  0.2621 -0.0453
 7603SOL     OW34444   0.358   3.549   4.153  0.8550  1.0583  0.5475
 7603SOL    HW134445   0.281   3.605   4.145  0.3700  0.3583  0.3079
 7603SOL    HW234446   0.424   3.609   4.120 -0.9612  2.2523 -0.9265
 7604SOL     OW34447   0.726   3.879  16.926  0.6882  0.3113 -0.2897
 7604SOL    HW134448   0.691   3.958  16.968  1.7280  0.6679 -0.0977
 7604SOL    HW234449   0.715   3.805  16.986 -0.5563  0.8896  0.2011
 7605SOL     OW34450   1.657   2.070   8.679  0.3913 -0.1472  0.0902
 7605SOL    HW134451   1.592   2.024   8.626 -2.3365  0.8758  2.5122
 7605SOL    HW234452   1.733   2.014   8.668 -0.9709 -1.6086 -1.8677
 7606SOL     OW34453   0.631   2.440   8.704 -0.2277 -0.6092  0.3544
 7606SOL    HW134454   0.584   2.515   8.668 -1.1845 -1.6019 -0.4795
 7606SOL    HW234455   0.564   2.377   8.729 -0.2914 -0.7790 -0.2352
 7607SOL     OW34456   4.247   0.526  11.452  0.1476  0.1504 -0.3990
 7607SOL    HW134457   4.333   0.519  11.410  0.1616  0.4940 -0.4257
 7607SOL    HW234458   4.197   0.450  11.422  1.2574 -0.6631 -0.1955
 7608SOL     OW34459   1.596   1.878  14.952 -0.2923  0.0788 -0.1561
 7608SOL    HW134460   1.689   1.854  14.954 -0.2343  0.1049 -3.4080
 7608SOL    HW234461   1.600   1.965  14.912 -0.3478  0.1229 -0.0665
 7609SOL     OW34462   2.181   1.761   7.960  0.2839  0.2200 -0.4369
 7609SOL    HW134463   2.203   1.691   7.899 -0.7269 -1.2110  0.8303
 7609SOL    HW234464   2.086   1.758   7.966  0.3966 -0.1935  1.3030
 7610SOL     OW34465   0.255   1.452  15.657  0.0300 -0.6569  0.2008
 7610SOL    HW134466   0.166   1.446  15.622  0.5085 -0.7764 -0.9737
 7610SOL    HW234467   0.258   1.532  15.710 -0.5904 -0.2722 -0.3430
 7611SOL     OW34468   3.393   2.969   4.546  0.2284  0.0227  0.0133
 7611SOL    HW134469   3.432   2.937   4.465  0.1864 -0.7837  0.3032
 7611SOL    HW234470   3.471   2.994   4.596  1.1222 -2.3147 -0.1973
 7612SOL     OW34471   2.812   1.418   3.927 -0.5668  0.0854 -0.8164
 7612SOL    HW134472   2.767   1.337   3.951  0.3579  0.2408  1.4644
 7612SOL    HW234473   2.891   1.420   3.981  0.5464 -0.5953 -2.4000
 7613SOL     OW34474   3.669   1.688   9.064 -0.1892  0.1388  0.5171
 7613SOL    HW134475   3.738   1.679   9.130  0.2521 -0.8540 -0.0849
 7613SOL    HW234476   3.658   1.783   9.072 -2.3821 -0.2711  2.5892
 7614SOL     OW34477   2.451   4.430   2.463 -0.0681 -0.3631 -0.0599
 7614SOL    HW134478   2.542   4.401   2.470 -0.3072 -0.9765  0.5835
 7614SOL    HW234479   2.436   4.416   2.557 -1.2203  0.1212 -0.1796
 7615SOL     OW34480   3.959   0.763  11.507 -0.4986  0.1599  0.2736
 7615SOL    HW134481   3.872   0.726  11.495  0.5030 -2.3365  0.5520
 7615SOL    HW234482   3.945   0.804  11.592  0.0860  0.6186  0.1473
 7616SOL     OW34483   1.493   4.070   1.772  0.5685  0.7801 -0.3369
 7616SOL    HW134484   1.563   4.124   1.809 -1.3384  2.6210  0.5341
 7616SOL    HW234485   1.427   4.074   1.841  0.5398 -1.3800 -0.2358
 7617SOL     OW34486   2.340   4.279  17.453  0.4640  0.5348  0.3113
 7617SOL    HW134487   2.357   4.344  17.522 -2.1193  1.6114 -0.0742
 7617SOL    HW234488   2.295   4.333  17.388  1.4666  2.5429  1.2822
 7618SOL     OW34489   2.905   4.432   8.437  0.3889  0.0959 -0.3045
 7618SOL    HW134490   2.915   4.494   8.510 -0.8148  3.6300 -3.1632
 7618SOL    HW234491   2.991   4.436   8.394  0.3006  0.9883 -0.4075
 7619SOL     OW34492   2.430   3.390   9.996 -0.1415  0.2400 -0.4881
 7619SOL    HW134493   2.437   3.447   9.920  3.8258  2.5822  1.6301
 7619SOL    HW234494   2.521   3.392  10.026 -0.2277 -0.0407 -0.2109
 7620SOL     OW34495   4.704   4.558  12.834 -0.2000 -0.2661  0.0057
 7620SOL    HW134496   0.057   4.570  12.861 -0.7279  1.7484  0.8859
 7620SOL    HW234497   4.665   4.641  12.861  0.5476 -0.4674  1.7411
 7621SOL     OW34498   3.978   1.242  16.881  0.2568 -0.0530  0.7742
 7621SOL    HW134499   4.067   1.256  16.848 -1.8459  1.8814 -4.0195
 7621SOL    HW234500   3.987   1.153  16.914 -0.4386 -0.1940  0.5789
 7622SOL     OW34501   4.043   0.109   8.082 -0.2104 -0.2300  0.1529
 7622SOL    HW134502   4.139   0.105   8.073 -0.1532  0.4693  0.3920
 7622SOL    HW234503   4.030   0.204   8.072  0.6876 -0.2546 -1.2794
 7623SOL     OW34504   0.900   0.245   4.440 -0.1526  0.2127 -0.3299
 7623SOL    HW134505   0.936   0.263   4.353  0.3498  0.4328 -0.0811
 7623SOL    HW234506   0.941   0.160   4.457  2.4085  1.0251 -2.3502
 7624SOL     OW34507   2.095   3.586   3.804  0.4208  0.1524  0.5601
 7624SOL    HW134508   2.101   3.498   3.841  0.5091 -0.6810 -1.4368
 7624SOL    HW234509   2.182   3.597   3.765 -0.3087  3.7892 -0.1088
 7625SOL     OW34510   2.380   0.217   5.088 -0.8379 -0.1864  0.1895
 7625SOL    HW134511   2.330   0.299   5.094 -0.5862  0.1343 -2.0449
 7625SOL    HW234512   2.351   0.196   5.000  1.8539 -0.0376 -0.7398
 7626SOL     OW34513   4.002   1.374   6.438 -0.3917  0.4212  0.3401
 7626SOL    HW134514   3.929   1.390   6.498  1.2404  2.1625  1.8567
 7626SOL    HW234515   4.073   1.423   6.479  2.9316 -3.2003 -1.1416
 7627SOL     OW34516   4.513   2.350  16.935 -0.7775  0.4794  0.5743
 7627SOL    HW134517   4.471   2.436  16.931  3.1749  2.5510  2.6180
 7627SOL    HW234518   4.550   2.339  16.847  0.6663  0.6028  1.1573
 7628SOL     OW34519   4.512   1.212   3.902  0.2223 -0.0775  0.2268
 7628SOL    HW134520   4.430   1.186   3.944  0.1527 -0.5756 -0.2102
 7628SOL    HW234521   4.550   1.124   3.898  0.2293 -0.1002  0.9093
 7629SOL     OW34522   1.138   3.930   2.170  0.2675 -0.5625 -0.1405
 7629SOL    HW134523   1.108   3.906   2.083  1.9640 -1.1421 -0.5738
 7629SOL    HW234524   1.192   4.008   2.157 -0.9385  0.6766  2.1526
 7630SOL     OW34525   3.078   4.736   7.103 -0.2477 -0.6674  0.1718
 7630SOL    HW134526   2.994   4.700   7.132 -0.0245 -3.2159 -2.3745
 7630SOL    HW234527   3.134   4.660   7.117 -0.3336 -0.5525  1.1489
 7631SOL     OW34528   2.505   3.673   6.226  0.0509 -0.4880  0.1459
 7631SOL    HW134529   2.488   3.580   6.211 -0.7853  0.0279 -2.1330
 7631SOL    HW234530   2.482   3.714   6.143  1.8651  0.6249  0.1838
 7632SOL     OW34531   1.748   1.511   5.973 -0.7341  0.2455  0.0293
 7632SOL    HW134532   1.810   1.443   5.948 -1.4941 -0.7483  0.8406
 7632SOL    HW234533   1.783   1.525   6.061 -1.8122 -2.4121  0.8815
 7633SOL     OW34534   3.242   1.624   4.301  0.1018 -0.2481  0.5089
 7633SOL    HW134535   3.279   1.710   4.318  0.4447 -0.5875  1.4736
 7633SOL    HW234536   3.197   1.646   4.219  1.0789  0.3703  0.1351
 7634SOL     OW34537   2.082   4.335  11.483  0.0988 -0.3539 -0.5587
 7634SOL    HW134538   2.033   4.397  11.538 -0.7310 -1.2934 -0.2357
 7634SOL    HW234539   2.075   4.256  11.538  0.0986  1.4432  2.0538
 7635SOL     OW34540   0.623   0.969   8.358  0.7269  0.0027  0.5233
 7635SOL    HW134541   0.620   0.945   8.451  0.0668  0.9294  0.7487
 7635SOL    HW234542   0.589   0.885   8.329  2.8281 -0.7976  0.4554
 7636SOL     OW34543   4.121   3.029  16.473  0.0598  0.0484 -0.2583
 7636SOL    HW134544   4.038   2.989  16.447 -1.9271  3.0942  1.4349
 7636SOL    HW234545   4.122   3.105  16.416 -0.6657  1.0464  1.0449
 7637SOL     OW34546   1.330   4.248   3.002  0.0652 -0.5514 -0.0413
 7637SOL    HW134547   1.371   4.323   3.045  1.1224  0.8146 -3.4583
 7637SOL    HW234548   1.255   4.297   2.968  0.9985  0.2997 -0.8771
 7638SOL     OW34549   2.867   0.865   9.358 -0.0407  0.1051  0.0542
 7638SOL    HW134550   2.774   0.851   9.344  0.2811 -1.7236 -0.3521
 7638SOL    HW234551   2.867   0.806   9.434 -2.4154  0.4038  0.2677
 7639SOL     OW34552   0.927   4.638   3.405 -0.0487  0.2684 -0.1111
 7639SOL    HW134553   0.873   4.675   3.334  0.0371 -0.8012 -0.7299
 7639SOL    HW234554   0.905   4.694   3.480 -0.2629 -1.4909  1.1303
 7640SOL     OW34555   4.663   3.065   4.701 -0.0305  0.1221 -1.2659
 7640SOL    HW134556   4.586   3.122   4.691  1.0714  1.6119 -1.1957
 7640SOL    HW234557   4.627   3.016   4.775 -0.3006  0.8638 -0.9109
 7641SOL     OW34558   1.808   4.726  14.243  0.4061  0.1765  0.4087
 7641SOL    HW134559   1.807   0.028  14.330  2.9697 -0.2795  0.6475
 7641SOL    HW234560   1.721   0.015  14.214 -0.5193 -1.9880  1.1324
 7642SOL     OW34561   1.915   0.391   3.480  0.1644  0.5897 -0.3876
 7642SOL    HW134562   1.842   0.360   3.425  0.6965  0.3119 -0.9347
 7642SOL    HW234563   1.961   0.308   3.493 -0.0294  0.6768  0.8554
 7643SOL     OW34564   2.498   1.206   9.916 -0.7363 -0.0467  0.6303
 7643SOL    HW134565   2.502   1.169  10.004  4.5625 -0.1024  0.3560
 7643SOL    HW234566   2.511   1.124   9.868  2.1676  0.0095  1.3720
 7644SOL     OW34567   0.464   2.945   3.496  0.4018  0.3457 -0.5721
 7644SOL    HW134568   0.416   2.909   3.570  3.0529 -0.0602  0.9692
 7644SOL    HW234569   0.549   2.955   3.538  0.2182 -0.2258 -0.0606
 7645SOL     OW34570   0.090   2.505   2.934 -0.1943 -0.0816  0.5762
 7645SOL    HW134571   0.060   2.459   2.856  1.5185  1.3292 -0.9041
 7645SOL    HW234572   0.010   2.553   2.956  0.4062  0.7518  0.9509
 7646SOL     OW34573   2.748   4.689   3.986 -0.0536  0.4261 -0.0457
 7646SOL    HW134574   2.700   4.621   3.940 -0.0774  1.3024 -1.3028
 7646SOL    HW234575   2.802   4.650   4.056  0.3754 -0.6590 -0.9730
 7647SOL     OW34576   3.035   2.843   8.896  0.1403  0.3591  0.2964
 7647SOL    HW134577   3.001   2.917   8.847  2.4754  0.3552 -1.2928
 7647SOL    HW234578   2.975   2.768   8.896  0.6346 -0.0274 -1.6936
 7648SOL     OW34579   4.308   1.994   1.866  0.3143  0.5075  0.1109
 7648SOL    HW134580   4.244   2.022   1.932  0.8910  1.0807  0.4246
 7648SOL    HW234581   4.296   1.899   1.866 -2.1857  0.8329 -0.4436
 7649SOL     OW34582   0.766   2.560   2.225 -0.5039 -0.0285 -0.2669
 7649SOL    HW134583   0.773   2.585   2.133  0.7147  0.2114 -0.1120
 7649SOL    HW234584   0.687   2.508   2.238 -1.3515  1.4458  0.4735
 7650SOL     OW34585   4.404   0.256  12.274 -0.0997 -0.1389 -0.2402
 7650SOL    HW134586   4.457   0.237  12.196  0.3438  1.2472 -0.2678
 7650SOL    HW234587   4.351   0.319  12.227 -0.8198  0.2287  1.0598
 7651SOL     OW34588   4.482   3.558  10.409  0.0814  0.7842 -0.0911
 7651SOL    HW134589   4.453   3.628  10.467 -2.1741 -0.4510  0.2768
 7651SOL    HW234590   4.442   3.593  10.329  0.5390 -0.3352 -0.8099
 7652SOL     OW34591   3.674   0.758  15.119  0.2264 -0.1548  0.3844
 7652SOL    HW134592   3.611   0.777  15.189 -0.0201 -3.2209  0.9789
 7652SOL    HW234593   3.749   0.814  15.142  0.8396 -1.2566  1.0511
 7653SOL     OW34594   3.920   2.695   4.466 -0.9325 -0.5624 -0.3761
 7653SOL    HW134595   3.891   2.604   4.479 -1.2288 -0.6960 -2.0468
 7653SOL    HW234596   4.013   2.686   4.447 -0.7584 -0.1138  0.2430
 7654SOL     OW34597   2.381   1.836   3.628 -0.1418  0.3283 -0.4152
 7654SOL    HW134598   2.391   1.906   3.563 -1.0164  0.2706 -0.6096
 7654SOL    HW234599   2.472   1.835   3.657  0.0742  1.8113 -1.0151
 7655SOL     OW34600   3.194   0.026   4.578  0.8888  0.2124  0.3312
 7655SOL    HW134601   3.137   0.042   4.503  0.0155  0.1710  0.9928
 7655SOL    HW234602   3.208   0.118   4.603 -1.1680  1.3130 -2.4841
 7656SOL     OW34603   4.352   2.364   0.640 -0.2248 -0.0585 -0.3429
 7656SOL    HW134604   4.290   2.349   0.711 -0.6791  1.8648 -0.3445
 7656SOL    HW234605   4.427   2.410   0.679  0.2141  0.3563 -1.6955
 7657SOL     OW34606   2.046   4.606   9.301 -0.1025  0.2589 -0.0928
 7657SOL    HW134607   2.065   4.538   9.366  2.2784  0.3929 -0.6691
 7657SOL    HW234608   1.972   4.569   9.252  0.8103  1.9002 -2.7001
 7658SOL     OW34609   2.882   1.552   3.123  0.2591  0.0742 -0.3497
 7658SOL    HW134610   2.825   1.587   3.192  1.2786 -0.0531  0.5488
 7658SOL    HW234611   2.811   1.513   3.072 -0.1838 -0.0223  0.3326
 7659SOL     OW34612   2.579   1.669   1.893 -0.0621 -0.3841 -0.1819
 7659SOL    HW134613   2.588   1.638   1.984  0.7869  0.1462 -0.0874
 7659SOL    HW234614   2.618   1.755   1.903 -3.0714  0.9845 -0.2469
 7660SOL     OW34615   3.344   3.886   9.059  0.2212  0.0127 -0.6067
 7660SOL    HW134616   3.430   3.914   9.028  0.2566  1.5518  0.8845
 7660SOL    HW234617   3.291   3.964   9.044 -2.1642 -1.4286  0.3418
 7661SOL     OW34618   3.034   3.694   0.229 -0.0264 -0.2094 -0.4009
 7661SOL    HW134619   3.034   3.775   0.178 -0.6530 -1.0185 -1.6945
 7661SOL    HW234620   2.942   3.665   0.230 -0.3473  0.7337 -2.1034
 7662SOL     OW34621   4.528   3.241  11.261 -0.1915 -0.2828 -0.5421
 7662SOL    HW134622   4.554   3.249  11.168 -2.4191 -0.3091 -1.1527
 7662SOL    HW234623   4.469   3.316  11.273  1.8826  1.2484  0.1647
 7663SOL     OW34624   4.356   1.061  14.048 -0.6262  0.3007  0.3527
 7663SOL    HW134625   4.431   1.122  14.051 -0.7707  0.4275  1.3405
 7663SOL    HW234626   4.294   1.106  13.990 -0.9476  1.2553  1.4334
 7664SOL     OW34627   1.990   2.448   8.488 -0.1177 -0.2548  0.2032
 7664SOL    HW134628   1.940   2.522   8.453 -0.2703 -0.6049 -0.3134
 7664SOL    HW234629   2.075   2.465   8.449  0.3061  0.8879  1.6091
 7665SOL     OW34630   4.537   2.151   7.519  0.2484  0.1577  0.1169
 7665SOL    HW134631   4.618   2.163   7.569 -0.9329 -4.0773  3.0962
 7665SOL    HW234632   4.500   2.238   7.533  0.0864  0.1472 -0.2570
 7666SOL     OW34633   4.378   1.182  12.718  0.4070 -0.0683 -0.1485
 7666SOL    HW134634   4.307   1.124  12.748 -0.8192  2.3666  1.6736
 7666SOL    HW234635   4.337   1.232  12.647 -0.9373 -1.3786 -0.3092
 7667SOL     OW34636   2.167   0.871   7.859  0.6036 -0.0750 -0.6176
 7667SOL    HW134637   2.128   0.901   7.941  2.2304  1.4669 -0.4137
 7667SOL    HW234638   2.116   0.791   7.846  1.7264 -1.2978  2.6429
 7668SOL     OW34639   3.552   4.629   1.671  0.2732  0.0818 -0.2574
 7668SOL    HW134640   3.608   4.551   1.671 -0.1055 -0.1812 -1.3055
 7668SOL    HW234641   3.573   4.666   1.586  0.6237  0.4278 -0.0238
 7669SOL     OW34642   1.253   0.876   8.146 -0.5456  0.1984 -0.1142
 7669SOL    HW134643   1.173   0.836   8.178  0.2857  0.1820  1.9203
 7669SOL    HW234644   1.304   0.800   8.117 -1.4101 -0.2229 -0.5111
 7670SOL     OW34645   4.043   0.118   5.604  0.5124  0.0282  0.3113
 7670SOL    HW134646   4.027   0.118   5.698 -3.0137  0.3584 -0.2823
 7670SOL    HW234647   3.955   0.138   5.570  1.5867  0.2888 -2.3246
 7671SOL     OW34648   3.205   1.310   4.679  0.3300  0.0131 -0.2506
 7671SOL    HW134649   3.229   1.349   4.764 -1.0878 -2.6863  1.3717
 7671SOL    HW234650   3.297   1.314   4.653  0.0314  0.9370 -1.1329
 7672SOL     OW34651   2.465   3.473  12.233 -0.2058 -0.1000 -0.2263
 7672SOL    HW134652   2.491   3.548  12.286  1.6196 -2.3651  2.0854
 7672SOL    HW234653   2.421   3.519  12.162  0.5599  1.0457  0.0423
 7673SOL     OW34654   4.266   3.729  10.515 -0.4111  0.1102 -0.1520
 7673SOL    HW134655   4.176   3.750  10.543 -1.4638 -2.2290 -1.8253
 7673SOL    HW234656   4.308   3.721  10.601  2.3233 -0.6697 -1.5881
 7674SOL     OW34657   2.065   0.374   7.844  0.4890  0.1675 -0.1998
 7674SOL    HW134658   2.041   0.282   7.846 -0.4246  0.4030 -0.2709
 7674SOL    HW234659   2.043   0.382   7.751 -0.9830 -0.7808  0.0747
 7675SOL     OW34660   4.486   1.145  16.449  0.4752  0.2296  0.2685
 7675SOL    HW134661   4.548   1.072  16.444 -1.7762 -1.8122  2.3793
 7675SOL    HW234662   4.463   1.169  16.359 -0.4372  0.8110  0.6660
 7676SOL     OW34663   0.282   0.988  15.384  0.0860  0.4813  0.0930
 7676SOL    HW134664   0.334   0.927  15.332 -1.4940 -0.6138 -0.1580
 7676SOL    HW234665   0.233   1.027  15.312  0.7460 -0.3190 -0.7943
 7677SOL     OW34666   3.779   4.201   1.928  0.0393 -0.2158 -0.3198
 7677SOL    HW134667   3.741   4.288   1.918 -1.3479 -0.7346  0.5457
 7677SOL    HW234668   3.716   4.152   1.980  0.4648 -1.2708 -0.8081
 7678SOL     OW34669   3.891   3.799   3.589 -0.0358 -0.5156  0.9094
 7678SOL    HW134670   3.855   3.819   3.502 -0.3117 -4.1897  0.1903
 7678SOL    HW234671   3.829   3.848   3.643  0.6457  1.2937  0.0490
 7679SOL     OW34672   3.933   2.778   3.128  0.7455 -0.3242  0.3914
 7679SOL    HW134673   3.979   2.747   3.205  1.0415  2.2602  1.2358
 7679SOL    HW234674   3.914   2.695   3.084 -0.9050  0.1307  0.2423
 7680SOL     OW34675   1.680   0.550   4.997  0.1963  0.2279  0.3979
 7680SOL    HW134676   1.737   0.474   5.006  1.2362  0.8807 -0.6956
 7680SOL    HW234677   1.595   0.509   4.984 -0.7953  2.2326  0.6232
 7681SOL     OW34678   0.196   3.059  10.083 -0.0596 -0.0659  0.1777
 7681SOL    HW134679   0.152   2.980  10.115 -1.4896  0.1224 -1.3388
 7681SOL    HW234680   0.144   3.139  10.093  0.3796  0.2550 -0.0817
 7682SOL     OW34681   1.882   2.406   9.440  0.2016  0.0405 -0.2301
 7682SOL    HW134682   1.862   2.312   9.442 -1.9098  0.5092  0.5304
 7682SOL    HW234683   1.798   2.446   9.416  0.7948  0.7994 -1.0232
 7683SOL     OW34684   3.941   0.097  17.052  0.2776 -0.2878  0.1334
 7683SOL    HW134685   3.857   0.140  17.067 -0.0937 -0.7598 -0.6243
 7683SOL    HW234686   3.930   0.024  17.113  0.1958 -0.9227 -0.6418
 7684SOL     OW34687   1.677   1.439   2.343  0.2031 -0.3274 -0.0172
 7684SOL    HW134688   1.732   1.473   2.272 -1.8377  1.8439 -0.5348
 7684SOL    HW234689   1.590   1.454   2.306 -0.1864  0.8395  1.3905
 7685SOL     OW34690   4.688   4.500   7.099  0.1327  0.3623 -0.1758
 7685SOL    HW134691   0.023   4.561   7.112  1.4574 -1.0504 -0.9581
 7685SOL    HW234692   4.621   4.524   7.163  0.4289  0.9709 -0.0922
 7686SOL     OW34693   1.749   4.372   0.541 -0.8156  0.1375  0.1494
 7686SOL    HW134694   1.709   4.290   0.571 -0.9665  0.6464  1.3726
 7686SOL    HW234695   1.706   4.425   0.609  0.0216 -0.4872  1.1765
 7687SOL     OW34696   1.570   1.076  11.212  0.1030 -0.1007  0.0324
 7687SOL    HW134697   1.510   1.140  11.174 -0.5145  0.0210  1.2228
 7687SOL    HW234698   1.569   1.016  11.138  1.1383  0.4768 -0.4591
 7688SOL     OW34699   1.815   4.613   5.850 -0.1404  0.3189  0.1255
 7688SOL    HW134700   1.903   4.596   5.814 -0.1269 -0.3644  0.4860
 7688SOL    HW234701   1.836   4.608   5.943 -0.8304  2.1162  0.3743
 7689SOL     OW34702   2.461   2.034   1.710  0.4694  0.2689  0.3810
 7689SOL    HW134703   2.455   2.113   1.657  0.1789 -0.7480 -1.1366
 7689SOL    HW234704   2.371   2.016   1.736  0.3819 -0.2835 -0.2907
 7690SOL     OW34705   0.541   2.721   1.581 -0.4145 -0.3708 -0.2448
 7690SOL    HW134706   0.476   2.666   1.537 -0.8516 -0.5327  0.6115
 7690SOL    HW234707   0.497   2.806   1.578 -2.3667 -1.3805 -0.0947
 7691SOL     OW34708   3.887   3.444  16.746  0.1210  0.6413 -0.4149
 7691SOL    HW134709   3.872   3.421  16.654 -2.6659  0.0436  0.1904
 7691SOL    HW234710   3.834   3.524  16.755  2.2225  2.1573 -1.5041
 7692SOL     OW34711   3.075   2.424   4.821  0.5610 -0.2041  0.1185
 7692SOL    HW134712   3.067   2.517   4.841 -1.9449  0.2089 -2.6302
 7692SOL    HW234713   3.088   2.421   4.726 -1.6711  0.8963 -0.2244
 7693SOL     OW34714   4.556   3.083   9.018 -0.0203  0.0272  0.3248
 7693SOL    HW134715   4.497   3.061   9.091 -2.8771  2.4137 -1.2814
 7693SOL    HW234716   4.618   3.011   9.026 -0.8826 -0.5926  1.4783
 7694SOL     OW34717   2.738   2.163   8.296 -0.1509 -0.2549  0.0031
 7694SOL    HW134718   2.810   2.124   8.346  0.0952  0.4773  0.2271
 7694SOL    HW234719   2.664   2.115   8.333 -0.9954  0.5740 -0.6171
 7695SOL     OW34720   4.428   0.339   8.670 -0.4193  0.1198 -0.4915
 7695SOL    HW134721   4.448   0.388   8.590  0.1357 -1.3177 -1.2245
 7695SOL    HW234722   4.398   0.254   8.639 -0.9859 -0.2772  1.1464
 7696SOL     OW34723   0.913   2.571   8.715  0.1381  0.1185 -0.6909
 7696SOL    HW134724   0.890   2.642   8.775  0.8527  0.8068 -1.2343
 7696SOL    HW234725   0.823   2.544   8.697  0.0316  1.9811 -3.0561
 7697SOL     OW34726   0.085   1.859  15.771 -0.1398  0.1430 -0.3517
 7697SOL    HW134727   0.018   1.830  15.834 -0.4803 -1.0670 -1.2774
 7697SOL    HW234728   0.030   1.897  15.703 -1.3305 -0.9086  0.0239
 7698SOL     OW34729   4.152   1.037  12.826  0.1413 -0.7656 -0.0756
 7698SOL    HW134730   4.191   1.076  12.905  0.4240  0.5620 -0.8721
 7698SOL    HW234731   4.080   0.986  12.862 -0.5375  0.9792  1.0522
 7699SOL     OW34732   3.495   0.353   7.872 -0.8014  0.0496  0.3019
 7699SOL    HW134733   3.576   0.359   7.923  0.0212  2.6164 -1.3175
 7699SOL    HW234734   3.516   0.350   7.779 -0.0504  1.3592  0.4294
 7700SOL     OW34735   3.415   1.163   4.868  0.0932  0.2396 -0.4021
 7700SOL    HW134736   3.408   1.253   4.899  1.9548  0.2305  0.0890
 7700SOL    HW234737   3.462   1.126   4.943 -0.9314  1.1918  0.6856
 7701SOL     OW34738   1.767   4.179   9.232 -0.2324  0.7831 -0.4958
 7701SOL    HW134739   1.751   4.129   9.312  1.2878  3.4076  1.4570
 7701SOL    HW234740   1.676   4.169   9.204 -0.3295  1.8945 -0.5960
 7702SOL     OW34741   0.044   1.210   9.155  0.3186  0.7433 -0.1116
 7702SOL    HW134742   0.075   1.135   9.104  0.3908  1.2497 -0.8077
 7702SOL    HW234743   4.690   1.184   9.162  0.0672  1.6762  0.0079
 7703SOL     OW34744   1.708   3.609   5.222 -0.1900 -0.0483  0.0418
 7703SOL    HW134745   1.726   3.630   5.130 -0.2592  2.2418  0.5414
 7703SOL    HW234746   1.699   3.696   5.262  1.4733 -0.3897  1.1447
 7704SOL     OW34747   2.985   0.777   4.149 -0.3602  0.1499  0.6324
 7704SOL    HW134748   2.890   0.780   4.156 -0.6023 -3.8841 -0.9106
 7704SOL    HW234749   2.999   0.841   4.079  2.0118 -1.2419 -0.1806
 7705SOL     OW34750   1.978   3.599  17.179 -0.2032  0.1886  0.0916
 7705SOL    HW134751   2.013   3.670  17.125  0.0206  0.3343  0.4286
 7705SOL    HW234752   1.966   3.648  17.260  1.9419 -0.8061  0.9829
 7706SOL     OW34753   4.526   0.651   2.677 -0.2941 -0.1648  0.0803
 7706SOL    HW134754   4.615   0.616   2.677 -0.4181 -0.4843  0.1214
 7706SOL    HW234755   4.528   0.695   2.761  0.7803  0.1718 -0.1224
 7707SOL     OW34756   0.733   2.500   0.794  0.1494  0.1991 -0.9896
 7707SOL    HW134757   0.715   2.407   0.781  0.5742  0.0247 -0.3440
 7707SOL    HW234758   0.828   2.505   0.808  0.0495 -0.5413 -0.0215
 7708SOL     OW34759   1.910   2.790   2.548 -0.6163 -0.7520 -0.7357
 7708SOL    HW134760   1.892   2.697   2.535 -0.9021 -0.5507 -1.7385
 7708SOL    HW234761   1.892   2.786   2.642 -0.0147 -0.0989 -0.5923
 7709SOL     OW34762   2.571   2.816   3.638  0.0146  0.1520 -0.7903
 7709SOL    HW134763   2.496   2.776   3.683  1.3400  0.2876  1.5330
 7709SOL    HW234764   2.602   2.884   3.697 -0.0222 -1.6244  1.2672
 7710SOL     OW34765   2.641   4.456   4.222 -0.4281  0.8551  0.4971
 7710SOL    HW134766   2.722   4.416   4.190  0.9651  3.8889  0.3143
 7710SOL    HW234767   2.657   4.444   4.316  0.4436 -0.6032  0.1625
 7711SOL     OW34768   0.091   4.670  11.108  0.3753  0.3838  0.0705
 7711SOL    HW134769   0.161   4.634  11.163 -0.4714 -1.3622  0.0270
 7711SOL    HW234770   0.093   0.026  11.125  0.7258  0.4412 -0.2899
 7712SOL     OW34771   4.318   3.901  11.720 -0.0757 -0.1044 -1.0470
 7712SOL    HW134772   4.280   3.815  11.737 -0.2688 -0.0360 -1.1316
 7712SOL    HW234773   4.330   3.929  11.811  1.8100 -1.9362 -0.7098
 7713SOL     OW34774   0.568   2.766   4.855  0.1439 -0.5554 -0.6273
 7713SOL    HW134775   0.619   2.749   4.934  0.4372 -0.4940 -0.8022
 7713SOL    HW234776   0.590   2.853   4.821 -0.6177 -0.5503 -1.1137
 7714SOL     OW34777   1.549   2.128  14.313  0.6359 -0.0871  0.0649
 7714SOL    HW134778   1.480   2.193  14.314  0.4589 -0.2603 -1.8639
 7714SOL    HW234779   1.527   2.066  14.244  2.4308 -0.1907 -0.4162
 7715SOL     OW34780   0.945   1.982   0.581  0.3709  0.5151 -0.1035
 7715SOL    HW134781   0.901   1.911   0.535  1.7464 -0.5795  0.2685
 7715SOL    HW234782   0.880   2.053   0.581 -0.1397  0.0467 -0.5742
 7716SOL     OW34783   1.976   2.386   1.796  0.0293 -1.0640  0.0594
 7716SOL    HW134784   1.975   2.307   1.849 -4.8904 -1.4485 -0.6662
 7716SOL    HW234785   1.919   2.445   1.844  0.9273 -1.2489  1.3505
 7717SOL     OW34786   4.549   1.118   9.697 -0.1270 -0.4279 -0.4625
 7717SOL    HW134787   4.507   1.042   9.737 -0.0270 -0.5222 -0.5355
 7717SOL    HW234788   4.618   1.127   9.763 -2.2261  2.2103  1.3708
 7718SOL     OW34789   2.624   4.691   6.831 -0.7984  0.2183 -0.0611
 7718SOL    HW134790   2.562   4.722   6.897 -1.9514  1.5031 -1.7490
 7718SOL    HW234791   2.620   4.596   6.844  2.3109 -0.4053 -3.5973
 7719SOL     OW34792   3.612   3.335   5.669 -0.1190  0.1913  0.0924
 7719SOL    HW134793   3.664   3.363   5.745  0.1266 -0.8886  0.3197
 7719SOL    HW234794   3.525   3.364   5.695 -0.0070  1.8891 -1.4769
 7720SOL     OW34795   0.605   1.427   3.852  0.1910 -0.1633 -0.1180
 7720SOL    HW134796   0.557   1.446   3.933  1.7732 -0.0085  0.7779
 7720SOL    HW234797   0.608   1.508   3.802 -1.2065 -0.4581 -0.6881
 7721SOL     OW34798   0.184   2.787  11.514  1.0201  0.4249 -0.3596
 7721SOL    HW134799   0.150   2.839  11.442 -4.1490 -0.7890  1.1631
 7721SOL    HW234800   0.135   2.814  11.591 -0.1879 -1.0209 -0.6161
 7722SOL     OW34801   4.324   1.784   6.206  0.5070 -0.1746 -0.4415
 7722SOL    HW134802   4.243   1.743   6.176 -0.0287 -0.8797  1.9775
 7722SOL    HW234803   4.345   1.719   6.273 -1.8822 -1.6092 -1.0755
 7723SOL     OW34804   2.748   2.376  11.438  0.3908 -0.2864 -0.2738
 7723SOL    HW134805   2.689   2.443  11.475  1.4847  0.7420 -0.3918
 7723SOL    HW234806   2.744   2.394  11.344 -1.0265  0.2200 -0.1313
 7724SOL     OW34807   0.522   0.241   1.257 -0.6370  0.1979 -0.3486
 7724SOL    HW134808   0.598   0.198   1.296 -0.6572 -1.1357 -1.8012
 7724SOL    HW234809   0.566   0.287   1.185 -1.6550 -1.6768 -2.1592
 7725SOL     OW34810   4.088   0.582   2.927  0.1356 -0.0743  0.0909
 7725SOL    HW134811   4.151   0.570   2.855 -1.3898  2.3544 -1.6198
 7725SOL    HW234812   4.124   0.519   2.990 -1.5503 -0.3352  0.7900
 7726SOL     OW34813   2.400   2.982   1.234 -0.1696  0.5023 -0.1194
 7726SOL    HW134814   2.381   2.936   1.152 -2.3985  1.1762  0.0228
 7726SOL    HW234815   2.382   2.907   1.290  0.0979  0.0063 -0.6979
 7727SOL     OW34816   3.359   2.440   1.884  0.4801  0.1590  0.2025
 7727SOL    HW134817   3.340   2.410   1.973  1.5928  0.5945  0.5770
 7727SOL    HW234818   3.298   2.383   1.838 -0.7527  1.0817  0.6846
 7728SOL     OW34819   2.140   3.314   3.915  0.3319 -0.0604  0.2383
 7728SOL    HW134820   2.226   3.348   3.936  0.5213  0.6229 -1.6135
 7728SOL    HW234821   2.117   3.277   4.000  0.2960  0.7284  0.5672
 7729SOL     OW34822   1.307   1.456   7.829 -0.2754  0.2278 -0.3825
 7729SOL    HW134823   1.276   1.415   7.748  0.3849  0.1511 -0.5985
 7729SOL    HW234824   1.400   1.462   7.808 -0.1929 -1.3895 -0.4590
 7730SOL     OW34825   3.090   2.667  10.183 -0.4838  0.0452  0.4366
 7730SOL    HW134826   3.042   2.750  10.187 -0.5190 -0.0402  1.8381
 7730SOL    HW234827   3.018   2.603  10.179 -2.0630  1.8905 -0.7642
 7731SOL     OW34828   3.978   4.393   1.900  0.0215  1.0550  0.8629
 7731SOL    HW134829   3.947   4.424   1.984  1.6151  1.7658  1.1839
 7731SOL    HW234830   3.923   4.314   1.892  2.9754 -0.6250 -3.1979
 7732SOL     OW34831   0.687   1.776   8.766  0.2438 -0.3121  0.6421
 7732SOL    HW134832   0.712   1.867   8.778 -0.4665 -0.4004  2.9260
 7732SOL    HW234833   0.772   1.733   8.755  0.5291  0.9026 -1.8326
 7733SOL     OW34834   1.353   3.445   2.432 -0.2420  0.7433 -0.5589
 7733SOL    HW134835   1.279   3.406   2.478  0.3381 -0.4537 -0.6523
 7733SOL    HW234836   1.380   3.370   2.379 -0.6705 -0.2015  0.5739
 7734SOL     OW34837   3.255   4.163  14.838 -0.4311  0.1717 -0.2565
 7734SOL    HW134838   3.252   4.155  14.743 -0.5963  1.4504 -0.3671
 7734SOL    HW234839   3.203   4.243  14.849  1.3240  1.3244 -0.2379
 7735SOL     OW34840   3.566   2.712  15.669 -0.1402  0.2832  0.1917
 7735SOL    HW134841   3.500   2.750  15.726 -2.4938 -1.5393 -1.3109
 7735SOL    HW234842   3.593   2.770  15.597 -0.4810  1.6277  1.1468
 7736SOL     OW34843   3.925   3.791   6.177 -0.6195  0.2047 -0.1889
 7736SOL    HW134844   3.964   3.746   6.252  1.5321  0.4033 -1.1933
 7736SOL    HW234845   3.852   3.839   6.215 -1.7220 -1.6041 -0.0298
 7737SOL     OW34846   2.448   1.410   6.246 -0.0730  0.7072  0.2562
 7737SOL    HW134847   2.470   1.493   6.203 -2.1021  0.4187 -1.3152
 7737SOL    HW234848   2.482   1.432   6.333 -0.8869  0.6944  0.5798
 7738SOL     OW34849   2.443   0.382   2.764  0.3428  0.7212 -0.4638
 7738SOL    HW134850   2.439   0.330   2.684 -0.5306  0.5468 -0.3041
 7738SOL    HW234851   2.538   0.382   2.775  0.1758  1.3153  0.9944
 7739SOL     OW34852   4.325   3.975  10.408 -0.3102  0.0436  0.0196
 7739SOL    HW134853   4.396   4.007  10.464  1.1615  0.1389 -1.8984
 7739SOL    HW234854   4.301   3.899  10.461 -1.2136  0.1236 -0.2854
 7740SOL     OW34855   3.904   1.965  14.979  0.0442  0.1395 -0.1628
 7740SOL    HW134856   3.985   1.923  14.952 -0.7160 -2.1990  1.1885
 7740SOL    HW234857   3.844   1.892  14.993 -1.0902  1.0919 -0.0046
 7741SOL     OW34858   0.975   3.481  11.395  0.7343 -0.6975  0.0252
 7741SOL    HW134859   1.056   3.527  11.420 -0.0549 -0.2262  1.7021
 7741SOL    HW234860   1.019   3.438  11.321  1.7147 -0.1457  0.2729
 7742SOL     OW34861   1.493   0.608   7.866 -0.9080  0.0549  0.3695
 7742SOL    HW134862   1.473   0.628   7.957  2.1480  1.6864  0.6842
 7742SOL    HW234863   1.588   0.611   7.870 -0.8076 -1.0425 -0.9713
 7743SOL     OW34864   3.598   4.566   3.932  0.2463 -0.2010  0.0132
 7743SOL    HW134865   3.561   4.611   4.008  3.6831  1.2044  0.8736
 7743SOL    HW234866   3.650   4.497   3.973 -0.7235 -1.8980 -1.6559
 7744SOL     OW34867   4.723   2.708   7.533  0.0799 -0.1331  0.0069
 7744SOL    HW134868   4.689   2.789   7.495 -0.0009  0.7344  1.9104
 7744SOL    HW234869   0.076   2.738   7.545 -0.3304  0.5528  1.4162
 7745SOL     OW34870   2.855   4.269   4.178 -0.2022 -0.0524 -0.4000
 7745SOL    HW134871   2.898   4.350   4.150  1.5256 -0.7833  0.1491
 7745SOL    HW234872   2.898   4.198   4.131 -1.5466 -1.2958  0.2258
 7746SOL     OW34873   2.386   2.484   8.037 -0.3776 -0.4488  0.3413
 7746SOL    HW134874   2.401   2.574   8.007  1.5251 -0.6900  0.5733
 7746SOL    HW234875   2.471   2.443   8.021 -0.7890 -1.4583  0.7525
 7747SOL     OW34876   3.475   4.535   2.446 -0.0967 -0.6830  0.0081
 7747SOL    HW134877   3.455   4.442   2.451  1.2694 -0.8905  1.8238
 7747SOL    HW234878   3.482   4.555   2.540 -0.3046 -2.3343  0.3717
 7748SOL     OW34879   3.123   4.434   2.723 -0.1490 -0.0213  0.1614
 7748SOL    HW134880   3.074   4.409   2.645 -0.0717 -1.4570  0.5716
 7748SOL    HW234881   3.135   4.529   2.718  0.3523 -0.2364 -2.4575
 7749SOL     OW34882   3.217   4.595   3.559  0.4541 -0.1627  0.3673
 7749SOL    HW134883   3.284   4.628   3.619 -0.9770  1.1773  1.2352
 7749SOL    HW234884   3.180   4.680   3.534  0.2519  0.3421  2.3716
 7750SOL     OW34885   0.550   2.702   8.652 -0.5811 -0.1059  0.0846
 7750SOL    HW134886   0.575   2.737   8.567  1.8392 -1.1437  0.3833
 7750SOL    HW234887   0.460   2.678   8.629 -0.4843 -0.8018  0.4300
 7751SOL     OW34888   1.807   1.434   9.747  0.0208  0.4608  0.2393
 7751SOL    HW134889   1.808   1.517   9.797 -1.1342 -1.2398  3.1063
 7751SOL    HW234890   1.902   1.424   9.749  0.0358  0.9024  2.1947
 7752SOL     OW34891   0.573   3.651   7.549  0.0348  0.3209 -0.5841
 7752SOL    HW134892   0.629   3.643   7.471  0.0205 -0.4160 -0.5189
 7752SOL    HW234893   0.601   3.577   7.603 -1.0171 -0.1961 -0.7506
 7753SOL     OW34894   3.690   1.735   2.853  0.1751  0.3821  0.3592
 7753SOL    HW134895   3.621   1.669   2.848 -1.5008  2.0391  1.8266
 7753SOL    HW234896   3.756   1.697   2.795 -0.9478 -0.8262 -0.1353
 7754SOL     OW34897   4.344   1.167  10.277  0.4428 -0.2076 -0.4348
 7754SOL    HW134898   4.263   1.123  10.252  1.2015 -1.7128 -0.2368
 7754SOL    HW234899   4.386   1.099  10.329  0.2873  0.1196  0.1193
 7755SOL     OW34900   4.211   0.192  10.456  0.8233  0.1892  0.2194
 7755SOL    HW134901   4.130   0.158  10.493 -0.1832  1.0661 -1.1390
 7755SOL    HW234902   4.231   0.264  10.515  1.1466  0.5445 -0.3178
 7756SOL     OW34903   2.200   0.619   6.258 -0.3206  0.4193 -0.4554
 7756SOL    HW134904   2.251   0.650   6.333 -2.1143 -2.5386  1.9935
 7756SOL    HW234905   2.264   0.596   6.191  0.4389 -3.3511  1.5811
 7757SOL     OW34906   4.645   3.574   5.985 -0.2583  0.1499  0.1764
 7757SOL    HW134907   4.622   3.484   6.006 -3.3486  1.1607  1.1206
 7757SOL    HW234908   4.690   3.614   6.060  0.4019  0.6060 -0.4620
 7758SOL     OW34909   3.820   3.564   7.583 -0.5567 -0.2346  0.4245
 7758SOL    HW134910   3.818   3.658   7.597 -0.6400 -0.3726  1.3428
 7758SOL    HW234911   3.785   3.540   7.669  0.2246 -0.2251  0.7448
 7759SOL     OW34912   4.082   1.750  11.899 -0.5983  0.2099 -0.6563
 7759SOL    HW134913   4.122   1.804  11.968 -1.6597 -0.0012  0.1094
 7759SOL    HW234914   3.996   1.728  11.933 -1.1888  1.1835 -1.4792
 7760SOL     OW34915   4.702   1.562   0.976  0.1926  0.2900  0.6865
 7760SOL    HW134916   4.634   1.504   1.011  1.4504 -1.4072  0.2969
 7760SOL    HW234917   4.675   1.647   1.011 -0.3619  0.4794 -0.2092
 7761SOL     OW34918   3.342   0.190  16.712 -0.1838 -0.2495  0.1699
 7761SOL    HW134919   3.412   0.154  16.766  1.3539 -0.0084 -1.6783
 7761SOL    HW234920   3.400   0.221  16.643 -1.2318 -0.7319 -0.9173
 7762SOL     OW34921   1.864   0.213   6.891 -0.4088 -0.1234  0.1196
 7762SOL    HW134922   1.917   0.138   6.864  2.2333  1.3766  1.1885
 7762SOL    HW234923   1.816   0.225   6.809 -0.2946 -2.1616 -0.2662
 7763SOL     OW34924   0.582   3.102   7.433  0.2929  0.0231 -0.3216
 7763SOL    HW134925   0.605   3.023   7.482 -0.3822  0.8394  1.3110
 7763SOL    HW234926   0.592   3.062   7.346 -0.9309  1.6202 -1.2003
 7764SOL     OW34927   0.626   2.403   5.979  0.3453  0.1839  0.2161
 7764SOL    HW134928   0.699   2.464   5.974  0.6109 -0.0926  0.7198
 7764SOL    HW234929   0.669   2.318   5.967 -0.1482  0.0220 -0.4233
 7765SOL     OW34930   1.409   2.051   6.007 -0.0097  0.1077 -0.0764
 7765SOL    HW134931   1.472   2.005   5.951 -0.5505 -1.7606  0.8648
 7765SOL    HW234932   1.410   1.995   6.084  0.1527 -0.2769 -0.3613
 7766SOL     OW34933   3.002   0.761   2.238 -0.2158 -0.4993  0.3336
 7766SOL    HW134934   3.026   0.679   2.282  1.7727 -1.4329 -2.4988
 7766SOL    HW234935   2.922   0.730   2.196 -0.3303 -2.3112  1.8673
 7767SOL     OW34936   4.076   2.228   5.530 -0.2662 -0.3065  0.0024
 7767SOL    HW134937   4.022   2.205   5.607 -1.8101  0.1037 -0.9562
 7767SOL    HW234938   4.124   2.306   5.558 -0.5991 -0.1641  0.1815
 7768SOL     OW34939   4.020   1.649   2.407  0.1025  0.0968  0.2792
 7768SOL    HW134940   3.948   1.678   2.463 -0.0624  1.1566 -0.4703
 7768SOL    HW234941   4.015   1.554   2.410 -0.2541  0.0654 -1.1389
 7769SOL     OW34942   2.090   1.589   3.307  0.1774  0.4278 -0.1505
 7769SOL    HW134943   2.179   1.619   3.291  0.0578  0.3591 -0.9678
 7769SOL    HW234944   2.064   1.663   3.362  1.8266  1.1067 -0.2958
 7770SOL     OW34945   0.022   3.174   7.592  0.1143  0.3419 -0.0676
 7770SOL    HW134946   0.106   3.133   7.610 -0.9382 -1.3924  0.9346
 7770SOL    HW234947   4.730   3.193   7.682  2.4885  2.9860  0.1567
 7771SOL     OW34948   0.209   0.487   5.669  0.2797 -0.5220 -0.0205
 7771SOL    HW134949   0.223   0.538   5.590  1.4133  1.3068  1.3582
 7771SOL    HW234950   0.270   0.528   5.729  0.3276  2.7880 -2.3445
 7772SOL     OW34951   0.951   2.370   5.633  0.2396  0.0035  0.0626
 7772SOL    HW134952   0.857   2.358   5.649 -0.1961  2.1232 -0.9996
 7772SOL    HW234953   0.948   2.461   5.605 -0.9410  0.0352  0.2844
 7773SOL     OW34954   3.185   0.490   6.332 -0.3748  0.0597 -0.0896
 7773SOL    HW134955   3.154   0.574   6.298  2.0089  1.5769  1.5191
 7773SOL    HW234956   3.225   0.512   6.416 -1.3487 -1.0933  0.6772
 7774SOL     OW34957   1.461   1.879  16.923  0.4239 -0.2463  0.3469
 7774SOL    HW134958   1.543   1.835  16.900  0.0974  0.0091 -1.3240
 7774SOL    HW234959   1.465   1.888  17.018  4.1285  0.7729  0.0853
 7775SOL     OW34960   1.615   2.967   1.253  0.5719 -0.2281  0.8439
 7775SOL    HW134961   1.583   2.944   1.341 -1.1683 -1.7605 -0.1979
 7775SOL    HW234962   1.604   2.889   1.199 -1.4152  0.4143  0.3244
 7776SOL     OW34963   0.206   1.611   1.723 -0.0357  0.6174 -0.7092
 7776SOL    HW134964   0.114   1.610   1.694 -0.6563 -0.8192  1.2394
 7776SOL    HW234965   0.200   1.678   1.791  1.1025 -0.2649  0.2548
 7777SOL     OW34966   2.505   2.196   5.553 -0.1865 -0.0298 -0.0690
 7777SOL    HW134967   2.521   2.132   5.622 -0.2546  0.0466  0.0179
 7777SOL    HW234968   2.574   2.260   5.572 -0.0172 -0.3743  0.4728
 7778SOL     OW34969   4.495   0.200   2.102  0.0497 -0.1972 -0.2946
 7778SOL    HW134970   4.580   0.239   2.079  0.4651 -0.5530  0.6313
 7778SOL    HW234971   4.509   0.108   2.079 -0.2185  0.0437 -1.4035
 7779SOL     OW34972   2.748   0.775   4.256 -0.4839  0.1918 -0.1487
 7779SOL    HW134973   2.692   0.818   4.192  0.0608  1.5067  0.2490
 7779SOL    HW234974   2.766   0.842   4.322  0.9609 -0.1643 -0.1712
 7780SOL     OW34975   3.952   2.930   6.860 -0.6918 -0.4450  0.8900
 7780SOL    HW134976   3.887   2.905   6.926 -2.6802 -0.2061 -1.0067
 7780SOL    HW234977   3.915   2.876   6.790  0.8805 -1.7132  1.0293
 7781SOL     OW34978   4.707   3.809   3.811  0.2891  0.4233 -0.2538
 7781SOL    HW134979   4.701   3.884   3.752 -3.2581 -0.8027 -1.4482
 7781SOL    HW234980   4.650   3.757   3.755  0.6057 -0.5666  0.3413
 7782SOL     OW34981   4.410   0.812   1.999  0.6017  0.1544  0.3603
 7782SOL    HW134982   4.445   0.729   2.029  0.1744 -0.2353 -0.2178
 7782SOL    HW234983   4.447   0.876   2.059  1.3320  0.5422 -0.4894
 7783SOL     OW34984   2.051   3.910  14.431  0.5477  0.7849 -0.0241
 7783SOL    HW134985   1.958   3.922  14.413 -0.0632  0.6182  2.9978
 7783SOL    HW234986   2.069   3.873  14.345 -1.8461  1.5647 -0.8614
 7784SOL     OW34987   3.116   0.849   7.230  0.2688  0.4463  0.1626
 7784SOL    HW134988   3.193   0.866   7.177  0.9155  0.2673  1.0402
 7784SOL    HW234989   3.098   0.943   7.241  1.1732  0.4054  2.0290
 7785SOL     OW34990   0.072   3.872   7.352 -0.1127  0.3386 -0.5485
 7785SOL    HW134991   0.060   3.905   7.263  2.5936 -1.0960 -1.4493
 7785SOL    HW234992   0.167   3.878   7.362 -0.2604  2.4020 -0.2855
 7786SOL     OW34993   3.544   1.570   4.917  0.3460  0.2241 -0.1412
 7786SOL    HW134994   3.494   1.576   4.835  0.8109 -0.5809 -0.4842
 7786SOL    HW234995   3.629   1.605   4.890  0.3300  1.5561  1.5306
 7787SOL     OW34996   1.488   1.442   8.675  0.2599 -0.1306  0.1407
 7787SOL    HW134997   1.495   1.535   8.696 -0.4530  0.2646 -1.4119
 7787SOL    HW234998   1.399   1.433   8.641  0.5231 -0.5514 -0.4340
 7788SOL     OW34999   0.629   0.454   8.444  0.3345  0.5386  0.0600
 7788SOL    HW135000   0.558   0.519   8.448  0.4760  0.8191 -2.4943
 7788SOL    HW235001   0.614   0.427   8.535 -0.5945  0.8181 -0.0031
 7789SOL     OW35002   4.407   2.521  13.843 -0.3110  0.3824 -0.1841
 7789SOL    HW135003   4.319   2.486  13.855 -1.1471  2.7503  0.6646
 7789SOL    HW235004   4.380   2.604  13.882 -0.9135 -1.0172  2.3607
 7790SOL     OW35005   1.653   3.297   0.885 -0.1760  0.5954 -0.2004
 7790SOL    HW135006   1.675   3.264   0.972  1.6875  3.4071  0.4066
 7790SOL    HW235007   1.637   3.217   0.836  2.5698  0.3278 -0.6513
 7791SOL     OW35008   1.062   2.576   7.342 -0.0396  0.1491  0.1486
 7791SOL    HW135009   0.985   2.564   7.287 -0.3303 -0.5763  0.7252
 7791SOL    HW235010   1.031   2.522   7.415  2.6044  1.0673  1.9619
 7792SOL     OW35011   4.335   1.791   4.445 -0.5298 -0.0629 -0.2492
 7792SOL    HW135012   4.421   1.821   4.475 -0.8651  0.5734  0.0711
 7792SOL    HW235013   4.280   1.865   4.471  0.0776  0.3290 -0.0920
 7793SOL     OW35014   2.932   4.227  10.310  0.4607  0.3529 -0.4558
 7793SOL    HW135015   2.838   4.238  10.324  0.4829  0.4103 -0.3521
 7793SOL    HW235016   2.964   4.254  10.396 -0.3262 -0.6544  0.1639
 7794SOL     OW35017   4.038   0.441   8.526  0.1827 -0.1856  0.5453
 7794SOL    HW135018   4.035   0.426   8.620 -1.8234 -4.0245 -0.1490
 7794SOL    HW235019   4.012   0.358   8.487  3.2012 -0.0264 -1.8191
 7795SOL     OW35020   2.314   1.035   5.765 -0.1354  0.0078 -0.2461
 7795SOL    HW135021   2.306   1.128   5.785 -1.9504 -0.3494  0.6316
 7795SOL    HW235022   2.229   1.000   5.789 -0.2061  0.3930  0.0646
 7796SOL     OW35023   3.098   1.984   5.044  0.2063  0.2536 -0.2720
 7796SOL    HW135024   3.089   1.940   5.129  0.5246 -2.1209 -1.4638
 7796SOL    HW235025   3.064   1.919   4.982 -0.0596  0.0094  0.1302
 7797SOL     OW35026   2.641   3.591   7.978  0.2885 -0.3861  0.4377
 7797SOL    HW135027   2.651   3.503   7.942  0.8897  0.8657 -2.4180
 7797SOL    HW235028   2.650   3.579   8.073  1.3008  2.7035  0.7436
 7798SOL     OW35029   0.544   3.260   5.282  0.1241  0.5682 -0.5491
 7798SOL    HW135030   0.639   3.252   5.284  0.2606  2.3136  0.4341
 7798SOL    HW235031   0.534   3.346   5.241  2.1864  0.3299 -1.5315
 7799SOL     OW35032   3.958   3.838   4.446 -0.1471 -0.0999  0.1510
 7799SOL    HW135033   3.884   3.892   4.476 -0.1713  0.4920 -0.9832
 7799SOL    HW235034   3.990   3.792   4.524  0.9536  0.1391 -0.1626
 7800SOL     OW35035   3.744   2.477   4.411 -0.2381  0.1196 -0.2704
 7800SOL    HW135036   3.742   2.382   4.421  1.2915  0.3030  1.7419
 7800SOL    HW235037   3.653   2.504   4.422  0.0376  1.7808 -2.1255
 7801SOL     OW35038   2.137   0.714   5.593  0.1017 -0.0629 -0.7321
 7801SOL    HW135039   2.110   0.806   5.598  2.4835  0.6419 -0.8971
 7801SOL    HW235040   2.205   0.718   5.660 -0.6912 -0.1968  0.0992
 7802SOL     OW35041   1.773   0.673  17.028 -0.2689 -0.5216 -0.2904
 7802SOL    HW135042   1.681   0.669  17.053  0.2364  2.3348  2.0745
 7802SOL    HW235043   1.786   0.593  16.977 -1.0889 -1.9740  1.7871
 7803SOL     OW35044   2.024   4.221   7.641  0.3525  0.0549  0.0838
 7803SOL    HW135045   2.049   4.157   7.574 -1.5585  0.4104 -0.9972
 7803SOL    HW235046   2.058   4.196   7.726  0.4717  0.7962  0.2570
 7804SOL     OW35047   4.567   1.972  11.525 -0.5832  0.1515  0.8708
 7804SOL    HW135048   4.487   2.016  11.499 -0.7335 -0.2804  0.5882
 7804SOL    HW235049   4.548   1.957  11.617 -2.4218  2.0517  0.7955
 7805SOL     OW35050   0.542   2.681  15.874 -0.3261  0.0677 -0.0992
 7805SOL    HW135051   0.482   2.608  15.892  1.2833 -0.6895  2.1450
 7805SOL    HW235052   0.625   2.643  15.902 -0.1684  0.3680 -0.1565
 7806SOL     OW35053   2.822   0.182   3.899  0.0611 -0.2830  0.4030
 7806SOL    HW135054   2.878   0.138   3.836 -1.0150 -0.5204 -0.3768
 7806SOL    HW235055   2.794   0.103   3.945 -1.1157 -1.5474 -2.5204
 7807SOL     OW35056   0.281   3.314   2.364 -0.1773 -0.2647  0.3857
 7807SOL    HW135057   0.291   3.328   2.458  0.8551 -0.5425  0.3120
 7807SOL    HW235058   0.193   3.277   2.360 -0.1273 -0.2658 -0.7906
 7808SOL     OW35059   2.038   3.396  14.891 -0.0837  0.2398  0.0142
 7808SOL    HW135060   2.071   3.483  14.913  1.4522  0.1715 -2.0727
 7808SOL    HW235061   1.980   3.406  14.815  2.1080 -0.6090 -1.7674
 7809SOL     OW35062   3.486   3.533   0.229  0.3002 -0.0623 -0.1013
 7809SOL    HW135063   3.497   3.494   0.143  0.2726  2.5727 -1.2766
 7809SOL    HW235064   3.541   3.468   0.273 -0.3943  0.2375  1.2092
 7810SOL     OW35065   1.969   0.161   3.265 -0.3349  0.1688  0.4847
 7810SOL    HW135066   1.913   0.215   3.208 -0.6251 -1.0466 -0.3698
 7810SOL    HW235067   2.061   0.176   3.247  0.4169 -2.1017  2.3796
 7811SOL     OW35068   2.517   3.041   5.227 -0.1002  0.0404 -0.0781
 7811SOL    HW135069   2.510   3.007   5.138  0.1571  2.4179 -1.0269
 7811SOL    HW235070   2.558   3.126   5.207 -0.1837  0.1919  0.4083
 7812SOL     OW35071   2.677   0.696  10.359  0.2416  0.0514  0.1841
 7812SOL    HW135072   2.679   0.792  10.356 -1.2206  0.0705 -0.1501
 7812SOL    HW235073   2.724   0.682  10.277 -2.5942  2.2361 -1.8196
 7813SOL     OW35074   3.473   2.207   8.806  0.1102  0.1684 -0.5720
 7813SOL    HW135075   3.520   2.127   8.781 -0.1904 -0.1065 -0.2537
 7813SOL    HW235076   3.531   2.269   8.763  1.2562 -1.5622 -1.5534
 7814SOL     OW35077   3.016   3.648   1.655 -0.5193 -0.2553 -0.1934
 7814SOL    HW135078   3.091   3.681   1.606 -2.1889  4.0707  0.1714
 7814SOL    HW235079   3.049   3.559   1.669 -1.4922 -0.9835 -2.5291
 7815SOL     OW35080   2.198   3.875   2.956 -0.4678  0.7456  0.0115
 7815SOL    HW135081   2.257   3.845   3.025 -1.2971 -1.6323 -0.2907
 7815SOL    HW235082   2.185   3.966   2.982 -0.6176 -0.0291  2.7204
 7816SOL     OW35083   0.819   1.568   2.451 -0.1552  0.4802  0.2326
 7816SOL    HW135084   0.874   1.625   2.505 -1.6772  1.2910  0.9069
 7816SOL    HW235085   0.816   1.605   2.363  0.3688 -0.7449 -0.3114
 7817SOL     OW35086   1.909   0.873   8.602 -0.0298 -0.3787  0.2729
 7817SOL    HW135087   1.841   0.940   8.594  2.5963  2.3297  1.1663
 7817SOL    HW235088   1.930   0.874   8.695  1.2651 -0.0978 -0.0227
 7818SOL     OW35089   4.088   1.671   3.736  0.1361  0.0399  0.3767
 7818SOL    HW135090   4.057   1.665   3.826  2.4695  0.8121  1.2189
 7818SOL    HW235091   4.182   1.675   3.754 -0.2502  0.4687  2.2918
 7819SOL     OW35092   3.590   1.044   3.849 -0.7401  0.4986 -0.1797
 7819SOL    HW135093   3.646   1.084   3.782 -0.6363 -0.1319 -0.4706
 7819SOL    HW235094   3.559   0.965   3.806  3.6335 -0.4863 -1.5560
 7820SOL     OW35095   3.807   0.581   2.444 -0.2515 -0.3386 -0.4638
 7820SOL    HW135096   3.778   0.491   2.432  0.9946 -0.9923  1.3971
 7820SOL    HW235097   3.892   0.573   2.486  0.1636 -0.4667 -1.3170
 7821SOL     OW35098   1.057   4.457   1.315  0.3639  0.1426  0.4128
 7821SOL    HW135099   0.994   4.503   1.261  0.9537 -1.3001 -1.4783
 7821SOL    HW235100   1.031   4.489   1.402 -0.5760 -1.1453  0.6090
 7822SOL     OW35101   0.193   3.434   8.233  0.3691  0.0105 -0.3579
 7822SOL    HW135102   0.196   3.454   8.140 -0.7033  0.8110 -0.2259
 7822SOL    HW235103   0.117   3.482   8.267  1.3403  1.4475 -0.2062
 7823SOL     OW35104   2.552   2.248  10.214  0.1347  0.7578 -0.3157
 7823SOL    HW135105   2.566   2.315  10.282  0.8841  0.5701 -0.2842
 7823SOL    HW235106   2.573   2.289  10.130  0.8693  0.0463 -0.4667
 7824SOL     OW35107   3.443   1.229  12.910  0.1442  0.5399 -0.0186
 7824SOL    HW135108   3.470   1.296  12.847 -0.7677  0.0954 -0.8844
 7824SOL    HW235109   3.352   1.225  12.879  0.7235 -1.0865 -1.4833
 7825SOL     OW35110   1.976   3.594   8.315  0.1773 -0.7271 -0.2114
 7825SOL    HW135111   2.069   3.601   8.337  0.0509  1.1330 -0.2545
 7825SOL    HW235112   1.926   3.629   8.388  0.9115 -1.0608  0.4536
 7826SOL     OW35113   0.347   1.225   4.333  0.7484  0.1666 -0.5617
 7826SOL    HW135114   0.276   1.240   4.395  1.2944 -1.1285  0.3780
 7826SOL    HW235115   0.303   1.264   4.257  1.2683  0.4013 -0.7375
 7827SOL     OW35116   3.327   4.207   4.479 -0.7391 -0.5054  0.3636
 7827SOL    HW135117   3.301   4.274   4.415 -0.4040 -0.1265  0.6274
 7827SOL    HW235118   3.286   4.225   4.563 -2.6143  2.5365 -1.1929
 7828SOL     OW35119   4.194   4.063   4.106 -0.0431  0.0697  0.2506
 7828SOL    HW135120   4.195   4.133   4.041 -0.2065  0.0468  0.2237
 7828SOL    HW235121   4.157   3.996   4.049 -0.4362 -0.6295  1.3134
 7829SOL     OW35122   0.768   3.980   6.126  0.4455  0.3951  0.6048
 7829SOL    HW135123   0.842   3.928   6.157 -0.7032 -0.5395  1.7632
 7829SOL    HW235124   0.766   4.050   6.192  0.1741 -0.7248  1.8015
 7830SOL     OW35125   4.388   0.588  11.906  0.1511 -0.0179 -0.1616
 7830SOL    HW135126   4.386   0.503  11.861 -1.2247  0.6829 -1.4089
 7830SOL    HW235127   4.349   0.640  11.836 -0.2892 -1.3298 -0.8925
 7831SOL     OW35128   2.560   3.628  15.582 -0.2608 -0.0861 -0.5288
 7831SOL    HW135129   2.610   3.616  15.501  0.3401 -0.1640 -0.1427
 7831SOL    HW235130   2.576   3.716  15.615 -0.8754 -0.5480  1.0032
 7832SOL     OW35131   1.895   0.998   0.282 -0.2939 -0.2092 -0.6699
 7832SOL    HW135132   1.816   1.019   0.232 -1.2330 -0.1750  0.8271
 7832SOL    HW235133   1.881   0.906   0.303  0.8383 -0.0695  0.6518
 7833SOL     OW35134   4.576   1.441  10.237 -0.0560 -0.1798 -0.1132
 7833SOL    HW135135   4.560   1.520  10.289 -1.3663 -0.2208 -0.4493
 7833SOL    HW235136   4.494   1.424  10.189 -0.3366  1.9668 -0.4108
 7834SOL     OW35137   1.018   0.918   2.439  0.4569 -0.4695 -0.1467
 7834SOL    HW135138   1.010   0.993   2.379  1.9236 -1.2484 -1.3139
 7834SOL    HW235139   1.017   0.960   2.525 -0.0762 -0.8591  0.0394
 7835SOL     OW35140   3.561   1.038   2.324  0.0878  0.3767  0.3715
 7835SOL    HW135141   3.519   1.123   2.339 -1.7466 -0.5182  0.3379
 7835SOL    HW235142   3.568   1.012   2.416 -0.1716  1.0992  0.5917
 7836SOL     OW35143   2.164   1.962   3.072  0.3579 -0.6416  0.0467
 7836SOL    HW135144   2.208   1.877   3.079  2.4496  0.3261 -1.0791
 7836SOL    HW235145   2.224   2.007   3.011  0.3836 -0.5622  0.1304
 7837SOL     OW35146   4.161   3.246   2.766 -0.1816  0.3610  0.1363
 7837SOL    HW135147   4.161   3.324   2.710 -1.8154  0.1483 -0.1777
 7837SOL    HW235148   4.254   3.246   2.788 -0.3999 -0.9668  1.0570
 7838SOL     OW35149   3.465   3.033   6.712  0.3272  0.0530  0.4680
 7838SOL    HW135150   3.459   3.105   6.775  1.4415 -1.7582  2.6528
 7838SOL    HW235151   3.452   3.088   6.634  2.8021  0.8539  0.6152
 7839SOL     OW35152   3.364   1.982   4.940  0.6485 -0.1683  0.0789
 7839SOL    HW135153   3.277   1.986   4.980  0.9913 -0.8149  0.8786
 7839SOL    HW235154   3.397   2.070   4.958  1.4718 -0.4863  0.1075
 7840SOL     OW35155   2.605   3.432   3.030 -0.3409 -0.6021  0.5452
 7840SOL    HW135156   2.512   3.412   3.033  0.0642 -2.8963 -2.0502
 7840SOL    HW235157   2.625   3.378   3.107 -0.2518  0.6863  1.4220
 7841SOL     OW35158   4.192   4.181   5.952 -0.2501  0.2600 -0.2025
 7841SOL    HW135159   4.132   4.117   5.991  1.1919  0.5312  2.4831
 7841SOL    HW235160   4.131   4.253   5.938 -1.5134 -0.4332  1.6582
 7842SOL     OW35161   2.113   0.035   7.120 -0.0212  0.5756 -0.2447
 7842SOL    HW135162   2.158   4.696   7.155 -1.6566  0.5375  1.7926
 7842SOL    HW235163   2.072   4.731   7.044  2.7182 -1.5091 -0.5764
 7843SOL     OW35164   0.115   1.850   4.531 -0.0324  1.2885 -0.1054
 7843SOL    HW135165   0.172   1.880   4.602  0.0069  2.6524 -0.7199
 7843SOL    HW235166   0.176   1.840   4.458 -0.8917 -1.4283 -0.4581
 7844SOL     OW35167   1.931   2.012   2.348  0.4250  0.8723 -0.2151
 7844SOL    HW135168   1.995   2.022   2.278  0.6528  1.4016  0.0604
 7844SOL    HW235169   1.917   1.918   2.347  2.4948  0.5797 -0.2358
 7845SOL     OW35170   4.606   1.933  11.114  0.1180 -0.2285  0.2352
 7845SOL    HW135171   4.610   2.020  11.153 -0.4994 -0.1973  0.2256
 7845SOL    HW235172   4.676   1.938  11.049 -0.4708  2.0049 -0.2276
 7846SOL     OW35173   0.575   0.762   5.589 -0.0317 -0.2324 -0.9483
 7846SOL    HW135174   0.618   0.685   5.551  0.9267  0.1792 -0.6944
 7846SOL    HW235175   0.564   0.827   5.519  1.1285 -0.6866 -1.5459
 7847SOL     OW35176   0.458   0.266  12.082  0.3191  0.0203 -0.3197
 7847SOL    HW135177   0.519   0.283  12.154  0.5833 -0.3595 -0.4533
 7847SOL    HW235178   0.521   0.288  12.013 -0.6775 -1.4457 -1.6915
 7848SOL     OW35179   4.249   0.281   9.675 -0.0426 -0.1880 -0.9486
 7848SOL    HW135180   4.167   0.294   9.628  0.2484 -2.2128 -2.0282
 7848SOL    HW235181   4.213   0.253   9.759 -0.2983 -0.0290 -1.0037
 7849SOL     OW35182   1.572   1.726   7.265  0.1568  0.1950 -0.1279
 7849SOL    HW135183   1.550   1.738   7.357 -0.8440  0.3390 -0.3831
 7849SOL    HW235184   1.639   1.794   7.261  1.8962 -1.7368 -3.5421
 7850SOL     OW35185   3.684   1.594   4.192 -0.5537  0.0051  0.1530
 7850SOL    HW135186   3.721   1.645   4.120  1.0958 -3.5054 -1.5096
 7850SOL    HW235187   3.753   1.528   4.200 -1.0735 -0.7085 -1.1972
 7851SOL     OW35188   4.606   2.214  16.430  0.6037  0.0721  0.1064
 7851SOL    HW135189   4.532   2.197  16.372 -1.1844  1.4200  2.0121
 7851SOL    HW235190   4.571   2.199  16.518 -1.2443 -0.7850 -0.7885
 7852SOL     OW35191   4.471   4.720  14.569  0.3588 -0.3364  0.1868
 7852SOL    HW135192   4.565   4.726  14.553  0.0836 -0.5480 -1.5179
 7852SOL    HW235193   4.433   4.694  14.485 -1.6159  0.9980  0.6579
 7853SOL     OW35194   2.169   0.828   4.505 -0.3118 -0.2252 -0.1193
 7853SOL    HW135195   2.160   0.752   4.561  2.2500  0.1651  0.7919
 7853SOL    HW235196   2.166   0.786   4.419  0.1153 -1.7664  0.6299
 7854SOL     OW35197   3.380   2.097   1.860 -0.2330 -0.0533 -0.0114
 7854SOL    HW135198   3.465   2.091   1.817  0.5496 -0.7254  1.6633
 7854SOL    HW235199   3.334   2.161   1.806 -1.5459 -0.7631  0.2558
 7855SOL     OW35200   1.046   2.609  12.580  0.7818  0.2381 -0.6121
 7855SOL    HW135201   1.013   2.567  12.501 -0.3821 -0.6298  0.3423
 7855SOL    HW235202   1.027   2.702  12.565  2.9313  0.5312 -1.4696
 7856SOL     OW35203   3.525   0.247   4.400  0.4251 -0.1385 -0.6821
 7856SOL    HW135204   3.518   0.285   4.312  0.4977 -0.7859 -0.9691
 7856SOL    HW235205   3.458   0.295   4.448  1.9453  0.5802  0.7034
 7857SOL     OW35206   2.963   3.039  14.224 -0.7676  0.0566  0.0146
 7857SOL    HW135207   2.876   3.070  14.198 -0.9189 -0.9444 -0.6612
 7857SOL    HW235208   3.019   3.096  14.170  0.7228  0.9577  2.5214
 7858SOL     OW35209   1.120   2.620   1.658  0.1342 -0.3870  0.3176
 7858SOL    HW135210   1.088   2.667   1.581  0.0507 -0.2678  0.4242
 7858SOL    HW235211   1.125   2.697   1.715  2.6960  0.3461 -0.9086
 7859SOL     OW35212   3.865   1.442   0.074 -0.2860 -0.1439  0.3380
 7859SOL    HW135213   3.779   1.474   0.046 -0.4435 -0.9918 -0.1540
 7859SOL    HW235214   3.849   1.355   0.037  0.1017 -0.0743  0.0005
 7860SOL     OW35215   4.317   3.281  14.045  0.2277  0.2937 -0.1212
 7860SOL    HW135216   4.275   3.196  14.029  0.6155 -0.1140  1.0318
 7860SOL    HW235217   4.253   3.309  14.110 -1.6667 -0.3356 -1.6994
 7861SOL     OW35218   1.426   2.270   9.549  0.8938 -0.4728  0.3420
 7861SOL    HW135219   1.354   2.214   9.521  0.4127  0.0634  0.5022
 7861SOL    HW235220   1.484   2.242   9.478 -0.6848 -0.6345 -0.8838
 7862SOL     OW35221   1.532   2.490   3.761  0.4590  0.5806 -0.4214
 7862SOL    HW135222   1.522   2.557   3.828  2.4223  0.1815  0.2662
 7862SOL    HW235223   1.450   2.444   3.778  0.7026  0.8945  1.6110
 7863SOL     OW35224   3.433   0.479   3.434  0.3692 -0.6469  0.3516
 7863SOL    HW135225   3.446   0.498   3.341  1.9637  1.0533  0.9184
 7863SOL    HW235226   3.396   0.391   3.429 -0.3127 -0.3482  0.0519
 7864SOL     OW35227   2.769   0.232   7.862 -0.7160 -0.1476  0.0637
 7864SOL    HW135228   2.734   0.149   7.896  2.1157 -1.2106  0.3957
 7864SOL    HW235229   2.816   0.208   7.782  2.5220  2.2338  1.2608
 7865SOL     OW35230   2.952   2.024  15.738 -0.1778  0.0485  0.1384
 7865SOL    HW135231   2.979   2.114  15.753 -0.1688  0.2291 -0.9609
 7865SOL    HW235232   2.997   1.977  15.809 -0.7520  0.4202  0.7497
 7866SOL     OW35233   4.549   2.770   9.511  0.2133 -0.2167  0.0063
 7866SOL    HW135234   4.553   2.740   9.420 -0.2632 -0.3728  0.0306
 7866SOL    HW235235   4.641   2.773   9.535 -0.1883  2.3760  1.1957
 7867SOL     OW35236   2.461   0.937   3.447  0.3561  0.1386  0.3316
 7867SOL    HW135237   2.404   1.005   3.483 -0.5483 -0.7113  0.5137
 7867SOL    HW235238   2.507   0.990   3.382 -1.0902  0.6267 -0.3061
 7868SOL     OW35239   2.613   1.540   5.312 -0.5688 -0.0297 -0.1942
 7868SOL    HW135240   2.646   1.510   5.396  2.7692  0.5855 -1.3101
 7868SOL    HW235241   2.645   1.475   5.249  0.6650 -0.0205  0.4403
 7869SOL     OW35242   4.615   0.074   6.471  0.5054 -0.5976  0.6139
 7869SOL    HW135243   4.532   0.060   6.516  0.8291  0.7734  1.6558
 7869SOL    HW235244   4.583   0.094   6.383  2.4466 -1.8635 -0.3686
 7870SOL     OW35245   4.620   2.935   4.119  0.5365 -0.1453  0.1695
 7870SOL    HW135246   4.605   2.938   4.025  1.4857 -1.3594 -0.0225
 7870SOL    HW235247   4.628   2.839   4.123 -0.7706 -0.2761 -0.1719
 7871SOL     OW35248   2.701   4.716   1.818  0.5942 -0.0429  0.2982
 7871SOL    HW135249   2.751   4.635   1.825  1.9206  0.4826 -2.8118
 7871SOL    HW235250   2.644   4.716   1.894  0.5822 -0.9159  0.2813
 7872SOL     OW35251   0.824   2.193   9.401 -0.4654  0.4890  0.8350
 7872SOL    HW135252   0.851   2.150   9.320 -0.5105  4.2597 -1.1264
 7872SOL    HW235253   0.745   2.141   9.413  0.4847 -1.5927 -1.9917
 7873SOL     OW35254   3.869   4.698   8.632 -0.4879  0.0967  0.0100
 7873SOL    HW135255   3.801   4.632   8.642  0.7379 -1.1681  0.0805
 7873SOL    HW235256   3.935   4.651   8.581  1.1674  0.4914  1.7790
 7874SOL     OW35257   3.625   1.853  13.243  0.5053  0.3555 -0.0739
 7874SOL    HW135258   3.588   1.929  13.289  0.6264  0.5061 -0.2228
 7874SOL    HW235259   3.691   1.896  13.189  0.3886  0.4621 -0.1333
 7875SOL     OW35260   4.042   3.092   2.063 -0.3367  0.2017  0.3186
 7875SOL    HW135261   4.092   3.166   2.098  0.6097 -0.8407  1.1962
 7875SOL    HW235262   4.068   3.073   1.973 -1.2302 -0.4283  0.2016
 7876SOL     OW35263   2.321   1.973  10.882  0.5803 -0.2865 -0.7541
 7876SOL    HW135264   2.228   1.951  10.891  0.6386  0.1851  1.0148
 7876SOL    HW235265   2.323   2.067  10.901 -0.1160 -0.0974 -1.5921
 7877SOL     OW35266   1.877   0.967   6.379 -0.0901  0.3541 -0.4760
 7877SOL    HW135267   1.831   1.032   6.431 -0.3175 -0.9255  0.9108
 7877SOL    HW235268   1.959   0.951   6.427  0.6055  1.7079 -1.2065
 7878SOL     OW35269   2.715   1.048   1.374 -0.4787 -0.1340  0.7181
 7878SOL    HW135270   2.694   0.961   1.409 -1.2486 -0.5326 -0.6855
 7878SOL    HW235271   2.685   1.026   1.285  1.3772 -3.7123  1.0034
 7879SOL     OW35272   3.138   2.731  10.738  0.3392  0.2649 -0.3380
 7879SOL    HW135273   3.163   2.645  10.706  1.3330  0.0528  0.9883
 7879SOL    HW235274   3.186   2.789  10.679  0.0624  0.2317 -0.5958
 7880SOL     OW35275   3.120   1.693   3.079 -1.2340 -0.1992 -0.4867
 7880SOL    HW135276   3.088   1.757   3.015  1.2560  0.6537 -0.8872
 7880SOL    HW235277   3.043   1.642   3.101  0.3662 -2.2027  0.4294
 7881SOL     OW35278   1.887   1.736   2.363  0.0536  0.1211  0.1760
 7881SOL    HW135279   1.798   1.721   2.331  0.0514  1.9583 -0.6894
 7881SOL    HW235280   1.887   1.692   2.448 -1.7348 -0.1547  0.0330
 7882SOL     OW35281   4.361   1.243   1.950  1.0025 -0.4738 -0.1573
 7882SOL    HW135282   4.294   1.305   1.978  1.8840  0.9372 -1.1473
 7882SOL    HW235283   4.308   1.190   1.892 -1.1928 -0.1561  1.5698
 7883SOL     OW35284   1.643   0.209   4.021  0.2702 -0.1725  0.6315
 7883SOL    HW135285   1.623   0.186   3.930  0.5131 -1.7206  0.9721
 7883SOL    HW235286   1.582   0.280   4.040  1.9094  1.3361  0.2974
 7884SOL     OW35287   0.036   4.100  12.187 -0.7516  0.2901  0.3591
 7884SOL    HW135288   4.728   4.162  12.131  0.8684  1.0275 -0.1696
 7884SOL    HW235289   0.005   4.015  12.156  1.1478 -0.4155  0.3715
 7885SOL     OW35290   3.696   0.273   6.727  0.0585 -0.0683 -0.4588
 7885SOL    HW135291   3.651   0.293   6.809  0.6449  1.9368 -0.6320
 7885SOL    HW235292   3.636   0.209   6.690 -1.6378  0.5325  1.2744
 7886SOL     OW35293   2.178   3.731   9.553  0.3061  0.0251  0.0969
 7886SOL    HW135294   2.242   3.771   9.611 -0.0110  0.2058  0.3188
 7886SOL    HW235295   2.236   3.671   9.505  1.7709  1.2661  0.3480
 7887SOL     OW35296   0.783   2.096   5.351  0.6551 -0.2687 -0.1912
 7887SOL    HW135297   0.869   2.138   5.338  0.9502 -0.5358  0.9014
 7887SOL    HW235298   0.804   2.050   5.432 -0.5259 -1.2187 -0.4378
 7888SOL     OW35299   3.676   1.338   6.478  0.0837  0.6285  0.2331
 7888SOL    HW135300   3.730   1.375   6.547  1.2442 -1.9847  0.7095
 7888SOL    HW235301   3.626   1.412   6.444 -1.1034 -0.1576  0.2577
 7889SOL     OW35302   3.052   2.442  16.597 -0.7601  0.4471 -0.4412
 7889SOL    HW135303   3.047   2.392  16.678  0.1545 -1.2678 -1.4458
 7889SOL    HW235304   2.960   2.430  16.573 -0.3538 -1.9698 -0.8417
 7890SOL     OW35305   1.093   0.326   7.971 -0.0269 -0.1691  0.1380
 7890SOL    HW135306   1.063   0.407   8.011  0.4712 -0.3390  0.8464
 7890SOL    HW235307   1.081   0.264   8.043  0.0119 -0.6268 -0.2440
 7891SOL     OW35308   1.214   4.156   6.236 -0.3213 -0.3033 -0.1791
 7891SOL    HW135309   1.152   4.173   6.165 -0.3988 -0.7763 -0.2265
 7891SOL    HW235310   1.221   4.061   6.237 -3.6605 -0.5458 -1.6317
 7892SOL     OW35311   0.507   0.161   3.137  0.5887 -0.5299 -0.1874
 7892SOL    HW135312   0.434   0.186   3.194 -0.2468  1.1982 -1.9981
 7892SOL    HW235313   0.459   0.103   3.077  0.5280  0.3383 -0.9776
 7893SOL     OW35314   2.167   3.287  13.207 -0.4435  0.6263 -0.4923
 7893SOL    HW135315   2.262   3.283  13.207 -0.4381  0.7440 -0.9266
 7893SOL    HW235316   2.145   3.273  13.114  3.5925 -2.5048 -0.9640
 7894SOL     OW35317   3.016   1.470   8.767  0.8705  0.7058  0.1299
 7894SOL    HW135318   3.098   1.500   8.807  2.9117 -1.5286 -2.3640
 7894SOL    HW235319   3.019   1.537   8.700 -1.7676  0.3538 -0.3526
 7895SOL     OW35320   2.375   0.494   6.863 -0.0515 -0.1066  0.3816
 7895SOL    HW135321   2.293   0.456   6.893 -0.7620  1.1525  0.0065
 7895SOL    HW235322   2.370   0.585   6.892 -0.2196  0.2559 -0.7940
 7896SOL     OW35323   3.838   0.500   6.842 -0.0219 -0.4124  0.4079
 7896SOL    HW135324   3.811   0.550   6.766 -2.5781  0.3569  1.8298
 7896SOL    HW235325   3.814   0.411   6.816  0.5405 -0.0992 -1.1948
 7897SOL     OW35326   0.486   0.323   5.573 -0.6673  0.2461  0.7725
 7897SOL    HW135327   0.414   0.384   5.590 -0.8086  0.5151 -0.8074
 7897SOL    HW235328   0.446   0.236   5.570 -0.8853  0.3950 -0.5645
 7898SOL     OW35329   3.788   0.811   2.291  0.6182 -0.2932 -0.3653
 7898SOL    HW135330   3.715   0.834   2.348  0.3235 -2.2435  0.0235
 7898SOL    HW235331   3.828   0.735   2.331  1.8083  0.5998  0.1340
 7899SOL     OW35332   3.468   1.818  14.459 -0.2264  0.5072 -0.3254
 7899SOL    HW135333   3.463   1.898  14.510  0.7758 -1.3064  2.5894
 7899SOL    HW235334   3.537   1.766  14.500 -2.9051 -1.9910  0.9975
 7900SOL     OW35335   4.184   3.819  16.138 -0.5741  0.1343  0.0784
 7900SOL    HW135336   4.273   3.856  16.135  0.5099 -2.5629 -1.1606
 7900SOL    HW235337   4.156   3.863  16.058 -1.0823  1.1011  0.7914
 7901SOL     OW35338   1.571   0.798   6.291  0.2823  0.6704 -0.0629
 7901SOL    HW135339   1.515   0.731   6.251 -0.1395  0.7082  0.4650
 7901SOL    HW235340   1.594   0.849   6.213 -0.5423  1.5389  0.2711
 7902SOL     OW35341   2.358   4.688   3.567 -0.2109 -0.2798 -0.1855
 7902SOL    HW135342   2.425   4.732   3.515 -0.2259  1.0667  0.9130
 7902SOL    HW235343   2.422   4.631   3.610 -0.4823  0.1035  0.7357
 7903SOL     OW35344   3.923   1.209  10.125  0.5342 -0.0407  0.7357
 7903SOL    HW135345   3.924   1.280  10.061 -0.3205 -1.0883 -0.4378
 7903SOL    HW235346   3.835   1.228  10.159  0.3167  1.3995 -0.6356
 7904SOL     OW35347   1.656   2.726   6.734 -0.4280 -0.2037  0.9185
 7904SOL    HW135348   1.740   2.708   6.693 -0.7375  0.2304  0.1035
 7904SOL    HW235349   1.647   2.648   6.789  0.1267 -2.6797 -2.5068
 7905SOL     OW35350   0.441   3.151   7.766  0.4540 -0.1977  0.3839
 7905SOL    HW135351   0.360   3.104   7.746  0.7721  0.2978 -2.0791
 7905SOL    HW235352   0.422   3.244   7.777 -0.4216 -0.2778 -0.4318
 7906SOL     OW35353   2.185   2.377   5.845  0.4533  0.2274  0.3003
 7906SOL    HW135354   2.278   2.365   5.862  0.5111 -0.5893 -0.6054
 7906SOL    HW235355   2.184   2.462   5.799  0.6996  0.3224  0.4726
 7907SOL     OW35356   1.972   2.020   3.466  0.0966  0.2311 -0.4136
 7907SOL    HW135357   1.903   1.989   3.407  0.9350 -1.0184 -0.7450
 7907SOL    HW235358   1.923   2.056   3.539 -1.3223 -0.9084 -0.7972
 7908SOL     OW35359   4.119   0.971   2.688  0.3757  0.1150 -0.2894
 7908SOL    HW135360   4.062   0.937   2.757  0.0535 -1.3031 -1.2481
 7908SOL    HW235361   4.205   0.968   2.730 -0.7393  0.4468  2.0271
 7909SOL     OW35362   2.163   1.291   3.342 -0.1253 -0.5227 -0.0291
 7909SOL    HW135363   2.179   1.384   3.355 -1.3993 -0.0494 -1.9086
 7909SOL    HW235364   2.207   1.274   3.259  1.5745 -0.9229  0.9568
 7910SOL     OW35365   2.539   4.298  16.004 -0.1382  0.1072 -0.1564
 7910SOL    HW135366   2.571   4.250  16.081 -1.6791 -0.6372  0.0310
 7910SOL    HW235367   2.447   4.274  16.015  0.1756 -0.2395  1.8674
 7911SOL     OW35368   1.783   4.512   3.841  0.0903 -0.1299  0.1185
 7911SOL    HW135369   1.829   4.434   3.809 -2.1427 -1.4467  0.1791
 7911SOL    HW235370   1.711   4.520   3.778  0.8322  0.1261 -0.7026
 7912SOL     OW35371   2.553   4.128   7.485 -0.0172 -0.0104 -0.4065
 7912SOL    HW135372   2.580   4.151   7.574 -1.5502 -0.1988  0.1186
 7912SOL    HW235373   2.488   4.197   7.474  1.0452  1.3706  2.1198
 7913SOL     OW35374   2.825   3.355   0.727  0.5440 -0.2091 -0.6876
 7913SOL    HW135375   2.911   3.364   0.686  1.2296 -3.3609 -0.0009
 7913SOL    HW235376   2.797   3.444   0.746 -0.8236 -1.0310  1.2432
 7914SOL     OW35377   4.337   3.048   5.717  0.3317  0.4172  0.4527
 7914SOL    HW135378   4.374   2.969   5.756 -1.8359 -0.5563  0.5835
 7914SOL    HW235379   4.330   3.112   5.788  1.8137  1.5339 -0.4038
 7915SOL     OW35380   2.930   4.138  14.683  0.4652 -0.0115 -0.1981
 7915SOL    HW135381   2.961   4.180  14.763  0.1742  2.3644 -1.3391
 7915SOL    HW235382   3.001   4.163  14.624  2.0505 -0.9453  1.3565
 7916SOL     OW35383   4.294   1.190  11.378  0.4304  0.0466  0.1231
 7916SOL    HW135384   4.277   1.278  11.410  0.3881 -0.4048  1.3306
 7916SOL    HW235385   4.358   1.211  11.310 -0.2907 -3.5830 -1.7215
 7917SOL     OW35386   0.551   4.641   4.946 -0.1862 -0.5871  0.0354
 7917SOL    HW135387   0.570   4.714   5.005  0.5655 -0.5105 -0.2973
 7917SOL    HW235388   0.518   4.584   5.016  0.6452  0.6935  1.4674
 7918SOL     OW35389   1.426   4.132  17.265 -0.3231  0.1963  0.6882
 7918SOL    HW135390   1.468   4.122  17.350  2.1489  2.7369 -0.2266
 7918SOL    HW235391   1.343   4.088  17.285 -0.2885 -0.7405 -1.1741
 7919SOL     OW35392   4.046   3.777  10.716 -0.2548 -0.3875  0.2369
 7919SOL    HW135393   4.047   3.840  10.787 -0.0668 -2.2096  1.8483
 7919SOL    HW235394   4.075   3.694  10.754 -0.3370  0.6349  2.5044
 7920SOL     OW35395   3.140   4.125  13.861  0.1264  0.2354  0.8229
 7920SOL    HW135396   3.145   4.219  13.880  1.1085  0.9379 -2.9021
 7920SOL    HW235397   3.045   4.118  13.871 -0.0851  2.6398  0.5445
 7921SOL     OW35398   0.960   2.223   1.459  0.4869  0.2973 -0.1566
 7921SOL    HW135399   0.928   2.302   1.504  1.6226  0.5777  0.1561
 7921SOL    HW235400   0.976   2.162   1.532  0.1398 -2.3554 -2.2933
 7922SOL     OW35401   2.690   1.532   3.589  0.1639  0.3494 -0.2580
 7922SOL    HW135402   2.635   1.458   3.562 -0.8379  0.8233  0.4700
 7922SOL    HW235403   2.682   1.579   3.506 -0.2600  1.8205  0.6154
 7923SOL     OW35404   0.012   2.517  13.515 -0.3758  0.0998  0.4792
 7923SOL    HW135405   0.002   2.585  13.582 -0.6041  1.7959 -1.2807
 7923SOL    HW235406   4.677   2.456  13.524 -0.0850 -0.7565 -2.9400
 7924SOL     OW35407   4.265   1.755  15.917 -0.1588 -0.3037 -0.1126
 7924SOL    HW135408   4.335   1.775  15.855  0.9304 -2.4823  0.4219
 7924SOL    HW235409   4.254   1.846  15.947  2.2105 -0.6383  1.8111
 7925SOL     OW35410   4.661   3.308   9.136  0.2068  0.1190  0.6664
 7925SOL    HW135411   4.619   3.232   9.095  0.2353 -0.2269  1.2800
 7925SOL    HW235412   4.629   3.382   9.084  0.4920  0.9282  1.6377
 7926SOL     OW35413   1.418   3.008   6.559 -0.5568  0.1323  0.1219
 7926SOL    HW135414   1.387   2.919   6.546 -1.5096  0.7284 -1.6801
 7926SOL    HW235415   1.411   3.038   6.468  0.1187 -1.9255 -0.5992
 7927SOL     OW35416   0.305   1.004   3.389  0.1234 -0.1463 -0.2032
 7927SOL    HW135417   0.307   0.950   3.469  0.1175  2.8800  1.8388
 7927SOL    HW235418   0.400   1.014   3.378 -0.3558  2.8486 -1.4020
 7928SOL     OW35419   1.208   1.110   6.296  0.0858  0.6270  0.0449
 7928SOL    HW135420   1.271   1.089   6.365  0.7696  0.6243 -0.5832
 7928SOL    HW235421   1.154   1.031   6.305  2.8369 -1.0360  1.9062
 7929SOL     OW35422   3.059   1.640  13.835  0.0377 -0.2910  0.1168
 7929SOL    HW135423   3.063   1.661  13.742 -0.4236 -0.5227  0.0470
 7929SOL    HW235424   3.062   1.544  13.835  0.8522 -0.2707 -0.3842
 7930SOL     OW35425   3.636   3.789   9.772 -0.1985 -0.0394  0.0351
 7930SOL    HW135426   3.689   3.853   9.819 -0.5784 -1.8493  2.8898
 7930SOL    HW235427   3.644   3.718   9.835 -1.1432  0.2715  0.5140
 7931SOL     OW35428   0.798   4.571  16.036  0.8039 -0.5862  0.0223
 7931SOL    HW135429   0.785   4.515  15.959 -0.2869  1.7592 -1.5094
 7931SOL    HW235430   0.765   4.523  16.112 -1.0994 -1.1304 -1.1552
 7932SOL     OW35431   2.502   1.278  12.548 -0.0538 -0.2030  0.0992
 7932SOL    HW135432   2.493   1.270  12.643  3.0500 -0.4902  0.3645
 7932SOL    HW235433   2.560   1.355  12.550  3.0268 -2.5687  1.6061
 7933SOL     OW35434   4.481   1.881  12.206  0.3056  0.0668 -0.1931
 7933SOL    HW135435   4.517   1.809  12.258 -0.6157 -1.1622 -1.2785
 7933SOL    HW235436   4.556   1.941  12.206  0.2607  0.1128  2.1758
 7934SOL     OW35437   2.951   1.328  16.037 -0.2745 -0.4162  0.5427
 7934SOL    HW135438   2.909   1.295  15.958 -1.3888  0.0467  0.9402
 7934SOL    HW235439   2.874   1.336  16.094  0.3165  0.1790  1.2651
 7935SOL     OW35440   4.004   1.390   5.387 -0.2771 -0.1482  0.0303
 7935SOL    HW135441   3.914   1.378   5.419  0.2465 -1.0348  1.1426
 7935SOL    HW235442   3.977   1.426   5.302 -1.3982  0.8892  0.8172
 7936SOL     OW35443   1.378   3.307   9.280 -0.1095  0.7222 -0.1907
 7936SOL    HW135444   1.465   3.289   9.245 -0.0674  0.8590 -0.1552
 7936SOL    HW235445   1.383   3.285   9.374 -1.2655 -4.7456 -1.3834
 7937SOL     OW35446   0.829   4.644   0.300  0.3213  0.0988 -0.2070
 7937SOL    HW135447   0.849   4.654   0.207 -1.2369  0.1753 -0.5322
 7937SOL    HW235448   0.920   4.650   0.328 -0.3765  1.3227  1.7829
 7938SOL     OW35449   3.843   1.262  15.664  0.0898 -0.1305 -0.4895
 7938SOL    HW135450   3.752   1.292  15.674  0.0872  0.6957 -2.9212
 7938SOL    HW235451   3.856   1.203  15.738 -0.2449  0.5489  0.1206
 7939SOL     OW35452   4.076   4.282   1.031  0.4074  0.2482 -0.4509
 7939SOL    HW135453   4.039   4.194   1.028 -1.0671  0.8000  1.3792
 7939SOL    HW235454   3.999   4.329   1.064 -0.1287 -0.8789 -0.1121
 7940SOL     OW35455   0.790   3.319   3.219 -0.0962 -0.0382 -0.6474
 7940SOL    HW135456   0.832   3.314   3.305 -1.6853 -1.0277  0.0605
 7940SOL    HW235457   0.821   3.238   3.178 -1.6614  0.7442 -3.3507
 7941SOL     OW35458   4.156   0.187   4.600  0.2934  0.0483  0.2460
 7941SOL    HW135459   4.180   0.268   4.556 -0.9179 -0.4357 -1.3144
 7941SOL    HW235460   4.240   0.142   4.593 -0.3473 -1.1093  0.0119
 7942SOL     OW35461   1.035   2.615   7.945  0.8231  0.4280  0.7773
 7942SOL    HW135462   1.131   2.620   7.947  0.8743  0.1790 -0.9474
 7942SOL    HW235463   1.012   2.695   7.899 -2.1575 -1.6628 -1.3422
 7943SOL     OW35464   4.399   2.545   8.663 -0.4735  0.1146 -0.2534
 7943SOL    HW135465   4.318   2.571   8.618  0.4215  0.3340 -1.7409
 7943SOL    HW235466   4.466   2.557   8.596  0.4976  1.0109  0.8904
 7944SOL     OW35467   1.081   0.260   2.713 -0.9299 -0.0417  0.1154
 7944SOL    HW135468   1.010   0.203   2.684 -3.4276  2.3477  1.5239
 7944SOL    HW235469   1.040   0.346   2.708  0.8985  0.8354  0.0112
 7945SOL     OW35470   1.295   4.104  10.892 -0.0653 -0.0452  0.0020
 7945SOL    HW135471   1.384   4.100  10.856 -0.8949 -2.1437 -1.8063
 7945SOL    HW235472   1.307   4.114  10.987 -1.5038 -1.8373  0.3561
 7946SOL     OW35473   0.155   3.738   4.111  0.0974 -0.1734  0.0407
 7946SOL    HW135474   0.068   3.716   4.077 -0.7530  1.9238  0.8736
 7946SOL    HW235475   0.127   3.762   4.199 -1.4936 -1.7332 -0.0163
 7947SOL     OW35476   3.098   3.089   3.546  0.1196 -0.3359 -0.0982
 7947SOL    HW135477   3.030   3.127   3.491  1.8827  3.4655  0.3471
 7947SOL    HW235478   3.177   3.102   3.494  1.1348  1.0832  1.8158
 7948SOL     OW35479   1.653   2.613   7.394  0.0672  0.2408 -0.0259
 7948SOL    HW135480   1.701   2.547   7.445  1.4707 -0.0148 -1.6757
 7948SOL    HW235481   1.613   2.562   7.323  0.1549 -0.0150  0.1073
 7949SOL     OW35482   0.381   3.919   3.235  0.6078 -0.2785  0.7620
 7949SOL    HW135483   0.316   3.888   3.298 -2.0197 -2.4683 -3.0136
 7949SOL    HW235484   0.326   3.933   3.158  2.2969  1.5068 -0.1352
 7950SOL     OW35485   2.369   0.816   0.256  0.1586 -0.0163  0.6971
 7950SOL    HW135486   2.435   0.884   0.241  0.3533 -0.2808  0.3435
 7950SOL    HW235487   2.398   0.749   0.194  0.6604  0.3247  0.5647
 7951SOL     OW35488   2.456   4.455   5.141  0.2540  0.5174 -0.4607
 7951SOL    HW135489   2.406   4.392   5.193  2.0670 -0.2724  0.3122
 7951SOL    HW235490   2.484   4.414   5.059  1.7430 -1.8438  1.2442
 7952SOL     OW35491   0.161   0.280   7.132  0.5447  0.7299 -0.3332
 7952SOL    HW135492   0.148   0.371   7.157 -1.8269  0.5543 -0.9185
 7952SOL    HW235493   0.256   0.275   7.126  0.5891 -1.2759  2.1640
 7953SOL     OW35494   0.321   0.513   4.494 -0.0886 -0.1293  0.2294
 7953SOL    HW135495   0.334   0.540   4.585  1.0653 -3.0003  0.9041
 7953SOL    HW235496   0.275   0.431   4.508  0.2967 -0.1728  1.2754
 7954SOL     OW35497   0.827   3.507   2.498  0.4391  0.6393  1.1688
 7954SOL    HW135498   0.848   3.594   2.463 -3.2260  1.0665  0.0170
 7954SOL    HW235499   0.732   3.518   2.503  0.3999  0.5279  0.6892
 7955SOL     OW35500   0.215   4.052   4.200 -0.1805  0.2212  0.7094
 7955SOL    HW135501   0.167   4.018   4.124 -0.6147  1.3752  0.4719
 7955SOL    HW235502   0.299   4.008   4.192 -0.4406  0.1950 -2.0573
 7956SOL     OW35503   4.659   3.061  12.651  0.6904 -0.1947  0.5464
 7956SOL    HW135504   4.616   3.050  12.736  0.8887  1.9452  0.9179
 7956SOL    HW235505   4.578   3.054  12.600  1.7197 -0.3642 -1.0886
 7957SOL     OW35506   3.199   0.148   8.529  0.6111  0.6581  0.5126
 7957SOL    HW135507   3.187   0.058   8.499  1.0098  0.7656  0.0187
 7957SOL    HW235508   3.213   0.134   8.622 -0.6048 -2.0771  0.2847
 7958SOL     OW35509   3.020   0.380   3.887  0.0305  0.1400  0.7586
 7958SOL    HW135510   2.949   0.315   3.886 -1.4023  1.6751  2.4542
 7958SOL    HW235511   2.964   0.457   3.875 -0.3416  0.1570  2.6422
 7959SOL     OW35512   4.276   3.489   2.533 -0.2794 -0.3867  0.0189
 7959SOL    HW135513   4.227   3.455   2.458 -2.4811 -1.3669  1.8930
 7959SOL    HW235514   4.349   3.428   2.517  0.0517  0.2858 -1.0295
 7960SOL     OW35515   3.917   3.870  13.705  0.1187  0.2376 -0.1729
 7960SOL    HW135516   4.005   3.884  13.739  0.3639 -2.2611  0.2184
 7960SOL    HW235517   3.867   3.831  13.776  0.4809 -0.0443 -0.0783
 7961SOL     OW35518   1.646   3.162  13.373  1.1116 -0.3024 -0.2131
 7961SOL    HW135519   1.578   3.137  13.311 -0.4783  2.9543  0.1794
 7961SOL    HW235520   1.723   3.178  13.318 -1.0329  1.3339 -2.6977
 7962SOL     OW35521   2.062   0.986   5.098  0.0531  0.4418  0.4847
 7962SOL    HW135522   1.984   0.960   5.050 -0.7992 -0.2753  2.2755
 7962SOL    HW235523   2.107   1.004   5.015  1.9137  1.5980  1.7310
 7963SOL     OW35524   2.779   4.504   1.298  0.3040 -0.0388  0.2174
 7963SOL    HW135525   2.709   4.438   1.303  0.9219 -0.5864  1.7362
 7963SOL    HW235526   2.760   4.566   1.369  0.6802  0.1819  0.1245
 7964SOL     OW35527   0.693   3.742   8.481  0.2303  0.9442  0.0657
 7964SOL    HW135528   0.668   3.830   8.508 -0.1258  0.6774  0.5952
 7964SOL    HW235529   0.686   3.751   8.386 -2.4493 -1.0728  0.0847
 7965SOL     OW35530   2.113   3.623   9.925  0.1727 -0.5558 -0.5364
 7965SOL    HW135531   2.150   3.689   9.866 -0.4621  0.3474  0.0790
 7965SOL    HW235532   2.183   3.620   9.990 -0.2195 -0.9865 -0.1397
 7966SOL     OW35533   1.866   2.588   5.211 -0.8933  0.3476  0.7051
 7966SOL    HW135534   1.810   2.533   5.156  0.7490 -0.1156 -0.4791
 7966SOL    HW235535   1.832   2.674   5.186  0.9773  0.3305 -1.9131
 7967SOL     OW35536   0.075   3.885   6.704 -0.4923  0.0372 -0.2461
 7967SOL    HW135537   0.102   3.806   6.657  0.3734 -0.3635  0.9223
 7967SOL    HW235538   0.157   3.934   6.704 -0.7685  0.4977 -1.0343
 7968SOL     OW35539   1.053   4.081   3.777  0.3369 -0.2679 -0.1041
 7968SOL    HW135540   1.060   3.986   3.772  2.8477 -0.1376  0.6901
 7968SOL    HW235541   0.964   4.102   3.750 -0.1709  0.0021  1.7591
 7969SOL     OW35542   3.023   2.215  16.439 -0.0808  0.2763 -0.2693
 7969SOL    HW135543   2.969   2.291  16.418  0.6954  0.6695 -0.8353
 7969SOL    HW235544   3.065   2.236  16.523  1.0088  1.2409 -1.0617
 7970SOL     OW35545   4.617   3.675   4.045 -0.3118 -0.2008  0.0588
 7970SOL    HW135546   4.536   3.687   4.095  0.0778 -3.8635  1.5446
 7970SOL    HW235547   4.607   3.738   3.973 -2.2545  0.7508  1.1639
 7971SOL     OW35548   2.055   3.839  15.160  0.2867  0.3839 -0.0614
 7971SOL    HW135549   2.083   3.829  15.251  3.7768 -0.7543 -1.2436
 7971SOL    HW235550   2.111   3.912  15.134  0.6107 -0.0941 -0.7185
 7972SOL     OW35551   0.399   1.680  10.744 -0.3372  0.2420 -0.5561
 7972SOL    HW135552   0.412   1.775  10.743  0.1250  0.1771 -1.0212
 7972SOL    HW235553   0.375   1.657  10.833  1.0674  1.2191  0.0842
 7973SOL     OW35554   2.342   0.001  11.267 -0.1046 -0.3526 -0.4957
 7973SOL    HW135555   2.420   0.003  11.211 -0.3465 -2.6976 -0.9106
 7973SOL    HW235556   2.269   0.004  11.205 -1.2160 -1.7998  0.7594
 7974SOL     OW35557   2.716   2.891  13.456  0.1778  0.2652 -0.6370
 7974SOL    HW135558   2.758   2.822  13.405  1.1593 -0.4276  1.1029
 7974SOL    HW235559   2.737   2.968  13.403  0.0590 -1.9386 -3.8367
 7975SOL     OW35560   0.502   1.316   2.522 -0.0809  0.1307  0.2830
 7975SOL    HW135561   0.509   1.335   2.615 -0.5670  0.1588  0.3145
 7975SOL    HW235562   0.407   1.301   2.516 -0.1738  1.2657 -1.1111
 7976SOL     OW35563   1.134   2.828  13.826  0.6940 -0.2188  0.0264
 7976SOL    HW135564   1.156   2.887  13.753  0.7582 -1.6045 -1.0632
 7976SOL    HW235565   1.047   2.792  13.809  1.2270 -1.7209  0.5230
 7977SOL     OW35566   0.684   2.150   5.934  0.6232  0.4218  0.0912
 7977SOL    HW135567   0.696   2.063   5.971  2.7569  0.4253 -0.6392
 7977SOL    HW235568   0.655   2.128   5.845  0.3013 -0.0717  0.3203
 7978SOL     OW35569   4.447   2.136  16.625 -0.2029  0.0300  0.0393
 7978SOL    HW135570   4.472   2.057  16.577  1.0131  1.7097 -2.0939
 7978SOL    HW235571   4.493   2.133  16.709  2.4950  3.0046 -1.3250
 7979SOL     OW35572   1.643   2.942   4.453  0.4657  0.3923  0.2349
 7979SOL    HW135573   1.721   2.960   4.506 -0.2565 -0.7031  1.6657
 7979SOL    HW235574   1.576   2.896   4.504  1.4932 -0.3553  0.8993
 7980SOL     OW35575   0.886   4.701   0.831 -0.2224  0.1452 -0.3857
 7980SOL    HW135576   0.903   0.016   0.752  2.0720  1.1680  0.7747
 7980SOL    HW235577   0.792   4.687   0.840 -0.4030  1.1195 -0.7628
 7981SOL     OW35578   2.440   4.107  12.175  0.2482 -0.4396  0.7678
 7981SOL    HW135579   2.454   4.183  12.233  0.0949  1.4216 -1.6350
 7981SOL    HW235580   2.526   4.089  12.137 -0.0112  0.2391 -0.1344
 7982SOL     OW35581   4.576   1.191   8.387 -0.3446 -0.1400 -0.0334
 7982SOL    HW135582   4.666   1.161   8.400 -0.5361 -0.8862 -0.4650
 7982SOL    HW235583   4.592   1.241   8.307 -0.5841  1.9565  1.2281
 7983SOL     OW35584   2.293   4.448   3.815  0.0061  0.3770  0.5081
 7983SOL    HW135585   2.302   4.424   3.907 -1.1322  2.2352  1.1018
 7983SOL    HW235586   2.316   4.366   3.770  1.0373  1.9934 -1.8892
 7984SOL     OW35587   3.393   2.954   3.185  0.0429  0.4955  0.1360
 7984SOL    HW135588   3.370   2.886   3.122 -0.3842  1.3026 -0.5749
 7984SOL    HW235589   3.417   3.021   3.122  2.0286 -0.0849  0.2715
 7985SOL     OW35590   4.171   2.219   5.828  0.5995 -0.3764  0.0422
 7985SOL    HW135591   4.266   2.220   5.826  0.6163  1.4018  1.9449
 7985SOL    HW235592   4.164   2.124   5.835  1.4772 -0.3484  1.2350
 7986SOL     OW35593   0.960   0.942   7.094 -0.1548 -0.0195  0.1129
 7986SOL    HW135594   0.987   0.872   7.034 -0.8687 -0.3825  0.2057
 7986SOL    HW235595   1.041   0.969   7.137  0.6388  2.3520 -2.9053
 7987SOL     OW35596   1.791   1.000   9.559  0.3088 -0.4353 -0.9761
 7987SOL    HW135597   1.720   0.937   9.577  0.3457 -0.0222  0.6614
 7987SOL    HW235598   1.770   1.070   9.620 -0.9159 -1.7553  0.1432
 7988SOL     OW35599   4.364   2.504   6.707  0.0836  0.6015  0.0886
 7988SOL    HW135600   4.376   2.592   6.671 -2.0509  0.8836  0.0298
 7988SOL    HW235601   4.450   2.464   6.700  0.9034  2.0423  2.1976
 7989SOL     OW35602   2.107   0.114  10.799  0.6736  0.2833 -0.3858
 7989SOL    HW135603   2.076   0.100  10.888 -1.5206  2.3603 -0.8299
 7989SOL    HW235604   2.170   0.184  10.815  1.1836 -0.3909  0.5397
 7990SOL     OW35605   0.202   0.303   5.458  0.6999 -0.2261 -0.7078
 7990SOL    HW135606   0.225   0.323   5.549 -1.2068  1.8274 -0.6847
 7990SOL    HW235607   0.118   0.350   5.452 -0.0107 -1.1509  1.8684
 7991SOL     OW35608   1.765   4.510   4.774  0.1803  0.3095  0.0639
 7991SOL    HW135609   1.777   4.525   4.868  1.2684  0.0529 -0.0429
 7991SOL    HW235610   1.776   4.415   4.772 -0.0849  0.2688  0.4369
 7992SOL     OW35611   3.306   1.301   9.015 -0.4712 -0.4049 -0.0405
 7992SOL    HW135612   3.289   1.348   8.933  0.6768  1.2177  0.6495
 7992SOL    HW235613   3.372   1.358   9.055  0.4048 -0.3076 -1.6492
 7993SOL     OW35614   4.387   4.074   7.649 -0.3977  0.0251 -0.3077
 7993SOL    HW135615   4.469   4.113   7.619  0.2611  0.1819  1.6549
 7993SOL    HW235616   4.414   3.985   7.627  0.8880 -0.2974  2.4777
 7994SOL     OW35617   3.971   1.429   3.220  0.0550  0.4662 -0.0280
 7994SOL    HW135618   4.013   1.488   3.283  2.0351 -1.7831  0.7526
 7994SOL    HW235619   3.889   1.423   3.269  1.2032  0.1839  1.8585
 7995SOL     OW35620   0.829   1.634  14.887  0.0925 -0.2266 -0.1854
 7995SOL    HW135621   0.820   1.541  14.865  0.3302 -0.6211  1.4115
 7995SOL    HW235622   0.806   1.676  14.804  1.1628 -0.7108 -0.7157
 7996SOL     OW35623   1.753   2.143   7.648  0.4780  0.6267 -0.6096
 7996SOL    HW135624   1.808   2.211   7.689 -0.0789 -0.0303  1.2240
 7996SOL    HW235625   1.685   2.197   7.607  0.2964  0.5299 -0.4374
 7997SOL     OW35626   1.123   3.941   5.716 -0.9360 -0.2486 -0.1849
 7997SOL    HW135627   1.153   3.851   5.703 -0.3830  0.0019 -0.6476
 7997SOL    HW235628   1.042   3.928   5.766 -0.9725  1.3202  0.1531
 7998SOL     OW35629   2.632   3.401   1.895 -0.4705  0.0868 -0.2193
 7998SOL    HW135630   2.633   3.496   1.900 -0.4879  0.0280  0.8744
 7998SOL    HW235631   2.611   3.384   1.803 -3.0818 -1.0546  0.5640
 7999SOL     OW35632   2.269   0.904   3.981  1.0046  0.4449 -0.3775
 7999SOL    HW135633   2.247   0.930   4.071  1.8352  4.0073 -1.2182
 7999SOL    HW235634   2.203   0.946   3.927 -0.7369 -2.0106 -0.1912
 8000SOL     OW35635   3.697   1.274   9.119  0.0164  0.1269 -0.2744
 8000SOL    HW135636   3.694   1.246   9.210  2.7214  0.5171 -0.0484
 8000SOL    HW235637   3.623   1.334   9.119  0.7158  0.9981 -0.4540
 8001SOL     OW35638   1.862   0.203   1.784  0.7661  0.1067 -0.1841
 8001SOL    HW135639   1.944   0.254   1.783  0.8583 -0.0428 -0.3181
 8001SOL    HW235640   1.809   0.237   1.856  1.6875 -3.6270  2.2777
 8002SOL     OW35641   1.731   3.119  12.923 -0.5541 -0.2964 -0.0937
 8002SOL    HW135642   1.731   3.201  12.873 -0.8568  0.0193  0.4267
 8002SOL    HW235643   1.781   3.068  12.860 -0.7919 -1.3240  0.5580
 8003SOL     OW35644   4.544   1.314   3.537 -0.1074  0.1662  0.1991
 8003SOL    HW135645   4.474   1.379   3.538 -0.3949 -0.1352 -0.5734
 8003SOL    HW235646   4.525   1.269   3.454 -1.7979 -0.0905  0.7449
 8004SOL     OW35647   4.142   3.521   4.108 -0.2918  0.1290  0.4978
 8004SOL    HW135648   4.124   3.429   4.130  1.0182  0.0780  1.4114
 8004SOL    HW235649   4.113   3.569   4.186  0.9646 -0.2083  1.1823
 8005SOL     OW35650   0.202   3.204   3.799 -0.2832  0.1140  0.2680
 8005SOL    HW135651   0.144   3.271   3.836  2.3232  1.1619  2.4661
 8005SOL    HW235652   0.290   3.239   3.806 -1.1070  1.4302  3.7963
 8006SOL     OW35653   2.340   0.949   6.089 -0.0822 -0.0259 -0.2657
 8006SOL    HW135654   2.384   0.921   6.009  0.5170 -0.4916  0.2331
 8006SOL    HW235655   2.317   1.038   6.062  2.0684  0.9842  1.2032
 8007SOL     OW35656   4.116   2.000   8.579  0.1833  0.2226 -0.1125
 8007SOL    HW135657   4.203   1.965   8.600  0.1971  0.7107  0.6551
 8007SOL    HW235658   4.060   1.930   8.612  0.6747 -0.4116 -0.6161
 8008SOL     OW35659   1.014   2.545   2.347  0.0188  0.6993  0.2743
 8008SOL    HW135660   1.016   2.598   2.427 -2.1075  2.4066 -0.7959
 8008SOL    HW235661   0.934   2.584   2.312  0.3481  2.4605  1.5032
 8009SOL     OW35662   0.024   2.787   8.204 -0.4663 -0.3687  0.0611
 8009SOL    HW135663   0.072   2.855   8.156  0.5645 -0.4272  0.9937
 8009SOL    HW235664   0.008   2.731   8.128  0.3701 -0.6597  0.0938
 8010SOL     OW35665   1.054   3.774   8.540 -0.6521 -0.3180 -0.3027
 8010SOL    HW135666   1.100   3.823   8.472 -1.6994  0.1102 -0.6877
 8010SOL    HW235667   1.023   3.852   8.586 -0.1265  0.6394 -1.5679
 8011SOL     OW35668   4.281   2.850  14.844  0.7085  0.8140 -0.6519
 8011SOL    HW135669   4.223   2.924  14.861 -2.6193 -1.7939 -0.8908
 8011SOL    HW235670   4.368   2.891  14.843  1.3616 -0.5402  0.7005
 8012SOL     OW35671   2.087   3.019   7.456 -0.0410  0.0764 -0.2434
 8012SOL    HW135672   2.117   2.949   7.398  2.3697  2.1172 -1.4871
 8012SOL    HW235673   2.038   2.970   7.522 -0.9547  0.6082 -0.5340
 8013SOL     OW35674   1.236   2.168  12.922  0.1064 -0.6246  0.1558
 8013SOL    HW135675   1.191   2.234  12.869 -0.2030 -0.7283  0.2895
 8013SOL    HW235676   1.283   2.226  12.982  0.2477 -0.0591 -0.4927
 8014SOL     OW35677   3.708   4.155   6.351 -0.1836  0.3267  0.4746
 8014SOL    HW135678   3.650   4.139   6.277 -0.7220  1.2293  0.6985
 8014SOL    HW235679   3.782   4.203   6.314 -0.3055  0.7316  0.7569
 8015SOL     OW35680   3.523   2.919   7.390  0.2364 -0.4616 -0.2744
 8015SOL    HW135681   3.430   2.937   7.374  0.8864  1.1723 -2.1853
 8015SOL    HW235682   3.558   2.987   7.448 -1.6471  2.6484 -2.7717
 8016SOL     OW35683   3.386   0.950   0.683  0.3842 -0.5152 -0.3285
 8016SOL    HW135684   3.324   1.003   0.633  0.0242  0.3150  0.9979
 8016SOL    HW235685   3.471   0.995   0.686 -0.1391  0.5107 -0.8635
 8017SOL     OW35686   0.957   2.447   5.172 -0.0011  0.4772  0.3113
 8017SOL    HW135687   0.873   2.490   5.188 -0.1547 -0.0691  0.9446
 8017SOL    HW235688   0.964   2.381   5.241  1.1135  1.7095  1.3803
 8018SOL     OW35689   0.351   2.677   2.601  0.1076  0.4164  0.6403
 8018SOL    HW135690   0.415   2.733   2.559 -1.1002  0.7530 -0.7841
 8018SOL    HW235691   0.351   2.712   2.690  1.1486  2.7542 -0.2875
 8019SOL     OW35692   0.727   1.661   5.641 -0.4467 -0.0899  0.0810
 8019SOL    HW135693   0.781   1.597   5.595 -3.0700 -0.3005 -2.6904
 8019SOL    HW235694   0.646   1.668   5.591 -1.6115  1.2618  2.1435
 8020SOL     OW35695   1.774   3.606  15.073  0.0673 -0.0885 -0.0534
 8020SOL    HW135696   1.802   3.542  15.139  1.3722  0.0690 -0.4607
 8020SOL    HW235697   1.863   3.610  15.038  0.2817 -1.0740  0.3632
 8021SOL     OW35698   3.773   3.924   3.809 -0.5738 -0.7297 -0.8314
 8021SOL    HW135699   3.818   4.003   3.779  0.7594 -1.4011 -0.6238
 8021SOL    HW235700   3.816   3.911   3.894  0.1347  0.2703 -1.0383
 8022SOL     OW35701   4.411   3.826  11.491  0.7614  0.2293  0.5525
 8022SOL    HW135702   4.355   3.878  11.433  1.1475 -0.7569 -0.7014
 8022SOL    HW235703   4.377   3.856  11.576  1.0273  0.0492  0.7206
 8023SOL     OW35704   3.323   3.907   3.141  0.0476  0.0219  0.0432
 8023SOL    HW135705   3.419   3.908   3.136  0.0179  0.6774 -0.3950
 8023SOL    HW235706   3.293   3.992   3.108 -2.2255 -0.9354 -0.3171
 8024SOL     OW35707   0.797   2.594   4.385 -0.1035  0.1661 -0.0880
 8024SOL    HW135708   0.820   2.650   4.459 -0.6621 -0.5820  0.6540
 8024SOL    HW235709   0.738   2.535   4.432  1.5096 -2.1918 -0.9989
 8025SOL     OW35710   0.592   4.070  17.073  0.7438 -0.9065  0.2854
 8025SOL    HW135711   0.497   4.060  17.080  0.4080  2.1075  0.0189
 8025SOL    HW235712   0.611   4.057  17.165 -0.4777 -0.8842  0.5453
 8026SOL     OW35713   2.259   3.857   8.997 -0.0518  0.3293 -0.0080
 8026SOL    HW135714   2.295   3.769   9.013 -0.5571  0.2113  0.4847
 8026SOL    HW235715   2.213   3.838   8.915 -0.2274  2.6160 -0.4270
 8027SOL     OW35716   0.800   3.199   5.279 -0.0313 -0.3018 -0.0251
 8027SOL    HW135717   0.790   3.112   5.241  0.4588  1.0992 -3.3756
 8027SOL    HW235718   0.816   3.175   5.370  2.5268  2.2139  0.2051
 8028SOL     OW35719   2.610   0.204   5.836 -0.4015 -0.1580 -0.1622
 8028SOL    HW135720   2.565   0.285   5.814 -1.2653 -1.0748 -1.7994
 8028SOL    HW235721   2.698   0.237   5.853 -0.2032 -1.0457  0.5219
 8029SOL     OW35722   3.252   4.020   6.414 -0.1381  0.4308  0.1685
 8029SOL    HW135723   3.184   4.046   6.477 -0.9221  0.7880 -0.8404
 8029SOL    HW235724   3.261   3.924   6.416  0.1254  0.4149 -1.6703
 8030SOL     OW35725   1.096   0.860   4.028  0.1099 -0.3777 -0.5406
 8030SOL    HW135726   1.176   0.819   3.996 -0.1301 -0.6238 -0.8302
 8030SOL    HW235727   1.070   0.914   3.954 -1.9318 -0.6679 -0.0400
 8031SOL     OW35728   2.050   4.371  13.797  0.0439 -0.6920  0.4424
 8031SOL    HW135729   1.959   4.341  13.794  0.0360 -0.6126 -0.0183
 8031SOL    HW235730   2.041   4.464  13.775  1.5583 -0.6468  0.0083
 8032SOL     OW35731   4.608   0.961   3.931  0.4461  0.0922  0.3647
 8032SOL    HW135732   4.549   0.908   3.985  0.4209 -0.2532 -0.0055
 8032SOL    HW235733   4.691   0.914   3.930  1.4410  1.8584  0.4566
 8033SOL     OW35734   1.564   0.406   6.554 -0.4582 -0.8436 -0.2565
 8033SOL    HW135735   1.496   0.440   6.496 -0.3752  0.9868  0.7070
 8033SOL    HW235736   1.631   0.474   6.551  0.5579 -1.8657 -0.6888
 8034SOL     OW35737   4.277   0.385   4.420 -0.6747  0.0793  0.0377
 8034SOL    HW135738   4.299   0.478   4.431 -2.0805  0.6835 -2.2897
 8034SOL    HW235739   4.363   0.347   4.399 -0.1016  0.4353  1.7183
 8035SOL     OW35740   0.979   0.696  15.923  0.8057 -0.7067  0.7319
 8035SOL    HW135741   0.980   0.767  15.859 -1.6143 -0.1511  1.2942
 8035SOL    HW235742   0.884   0.686  15.937  0.5181  3.1473  1.7579
 8036SOL     OW35743   0.580   0.860   8.600 -0.3758  0.1158  0.4058
 8036SOL    HW135744   0.665   0.845   8.642  0.1117  2.2253  0.1828
 8036SOL    HW235745   0.538   0.895   8.679  1.1688  1.2724  0.7222
 8037SOL     OW35746   0.856   1.616   8.262  0.1683 -0.0471  0.1516
 8037SOL    HW135747   0.788   1.586   8.202 -0.4463 -2.4935  2.0626
 8037SOL    HW235748   0.917   1.542   8.261 -0.5861 -0.6420 -2.0091
 8038SOL     OW35749   0.350   1.425  16.411 -0.4796 -0.5474  0.6531
 8038SOL    HW135750   0.257   1.418  16.435 -0.3945 -3.5158  0.1919
 8038SOL    HW235751   0.327   1.435  16.319  1.5853 -2.2076 -0.0408
 8039SOL     OW35752   4.360   1.814  11.048 -0.7017 -0.4053  0.0101
 8039SOL    HW135753   4.284   1.868  11.069 -0.3536 -0.2310  0.8299
 8039SOL    HW235754   4.432   1.867  11.083 -0.9990  0.5604 -0.8414
 8040SOL     OW35755   3.801   4.661  12.098 -0.7582  0.1271  0.2078
 8040SOL    HW135756   3.874   4.719  12.077  1.4653 -2.4067  0.8460
 8040SOL    HW235757   3.755   4.712  12.164  0.2426  3.5992 -1.8095
 8041SOL     OW35758   0.750   2.049   2.727 -0.5182 -0.0749  0.0306
 8041SOL    HW135759   0.709   1.979   2.677  0.3340 -0.3149 -0.3322
 8041SOL    HW235760   0.714   2.029   2.813 -0.0359 -1.0964 -0.0065
 8042SOL     OW35761   3.841   0.905   6.021 -0.1461  0.7317  0.4587
 8042SOL    HW135762   3.790   0.967   5.967 -0.3159  0.6024  0.4697
 8042SOL    HW235763   3.916   0.883   5.966 -2.3561 -1.0343 -1.8539
 8043SOL     OW35764   2.623   2.515   6.238 -0.2041  0.1517 -0.2689
 8043SOL    HW135765   2.645   2.587   6.297 -2.8244  0.8154 -0.0831
 8043SOL    HW235766   2.538   2.487   6.272  1.1099 -2.4995  0.8484
 8044SOL     OW35767   0.013   1.091   2.079  0.6100 -0.1596  0.2873
 8044SOL    HW135768   0.087   1.034   2.058 -0.7536 -2.2637  1.1945
 8044SOL    HW235769   4.692   1.052   2.014 -0.4567 -0.4044  1.3998
 8045SOL     OW35770   0.119   0.177  11.194 -0.2452 -0.6370 -0.1430
 8045SOL    HW135771   0.045   0.215  11.147  0.1117  0.5086  0.2286
 8045SOL    HW235772   0.181   0.249  11.193 -0.3929 -0.4876  1.3127
 8046SOL     OW35773   0.962   2.746   3.238  0.4482 -0.4177  0.0697
 8046SOL    HW135774   1.037   2.727   3.182 -0.4377 -2.9302 -0.2391
 8046SOL    HW235775   0.986   2.839   3.242  0.7245 -0.4546 -0.7466
 8047SOL     OW35776   0.871   2.957  11.600 -0.3669  0.2657  0.0657
 8047SOL    HW135777   0.816   3.035  11.611 -1.5621 -0.7963  1.6154
 8047SOL    HW235778   0.808   2.895  11.564  0.8479  0.0578 -1.6778
 8048SOL     OW35779   3.118   3.642   2.639 -0.7492 -0.4955 -0.6436
 8048SOL    HW135780   3.104   3.610   2.550  0.0578 -0.6295 -0.7179
 8048SOL    HW235781   3.213   3.641   2.637 -0.7538 -2.3915  0.2770
 8049SOL     OW35782   0.309   4.079   4.996  0.1334  0.1279  0.3238
 8049SOL    HW135783   0.333   3.992   4.966 -3.0722 -0.9806  0.8875
 8049SOL    HW235784   0.228   4.083   4.945  0.0665  0.8215  0.4723
 8050SOL     OW35785   1.762   4.548   5.042  0.4438 -0.4398 -0.5279
 8050SOL    HW135786   1.747   4.625   5.097  0.6230 -1.8317  1.4633
 8050SOL    HW235787   1.820   4.508   5.107 -0.3360  0.1129  0.5044
 8051SOL     OW35788   3.540   1.783   9.623  0.2871 -0.6310 -0.5911
 8051SOL    HW135789   3.518   1.823   9.707  1.2962  0.4548 -0.8462
 8051SOL    HW235790   3.495   1.699   9.625  1.6784 -1.3880 -0.9355
 8052SOL     OW35791   4.143   0.040   3.391  0.1371  0.2037 -0.8337
 8052SOL    HW135792   4.051   0.039   3.364 -0.0719 -3.6156  0.0174
 8052SOL    HW235793   4.171   0.122   3.351  0.4949  0.0344 -0.9299
 8053SOL     OW35794   3.161   3.986   8.426 -0.1450  0.1294 -0.1104
 8053SOL    HW135795   3.216   3.942   8.490  1.9766  3.0358  0.0621
 8053SOL    HW235796   3.231   4.046   8.400 -0.2250 -0.0268 -0.7018
 8054SOL     OW35797   3.785   3.036   2.147  0.4821  0.1616 -0.3191
 8054SOL    HW135798   3.876   3.050   2.123  0.3097  0.9002 -0.5412
 8054SOL    HW235799   3.731   3.088   2.088 -0.0103  2.4052  2.1082
 8055SOL     OW35800   0.938   0.672   7.834  0.1484 -0.3250  0.4432
 8055SOL    HW135801   1.027   0.637   7.844  1.5011  2.6465 -0.8931
 8055SOL    HW235802   0.916   0.640   7.746  1.9243  2.3700 -1.0150
 8056SOL     OW35803   2.165   3.675   6.145 -0.2662  0.7793  0.3273
 8056SOL    HW135804   2.255   3.703   6.132 -0.1627  0.8206  1.1448
 8056SOL    HW235805   2.183   3.603   6.205 -0.4544 -0.4296 -1.0650
 8057SOL     OW35806   3.734   3.655  16.856  0.0116  0.4224  0.3198
 8057SOL    HW135807   3.741   3.716  16.783 -1.9963  0.2243 -0.0451
 8057SOL    HW235808   3.639   3.648  16.869  0.3893  0.3213  2.9436
 8058SOL     OW35809   2.408   3.955  17.733  0.3238  0.9617  0.0051
 8058SOL    HW135810   2.411   3.879  17.676 -1.5408  0.0601  1.1135
 8058SOL    HW235811   2.490   4.002  17.718  1.3365 -0.9904 -0.4922
 8059SOL     OW35812   0.684   2.972   4.308 -0.2061  0.1392  0.3885
 8059SOL    HW135813   0.661   2.884   4.278  1.3157  0.3118 -1.3030
 8059SOL    HW235814   0.730   3.004   4.231  2.0282 -2.0302  0.8317
 8060SOL     OW35815   3.714   4.170   5.202  0.5266 -0.1637 -0.7617
 8060SOL    HW135816   3.683   4.132   5.119  0.2642 -1.9096  0.1400
 8060SOL    HW235817   3.784   4.106   5.213  1.5735  0.9769 -0.9190
 8061SOL     OW35818   4.061   1.705   4.022  0.1301  0.3421  0.0718
 8061SOL    HW135819   4.108   1.751   4.091  0.1094 -0.4941  0.6422
 8061SOL    HW235820   4.107   1.621   4.012 -2.9312 -1.5091  1.7581
 8062SOL     OW35821   3.313   0.641   7.599 -0.4059 -0.0122 -0.0500
 8062SOL    HW135822   3.405   0.619   7.581 -0.1874  0.2936  0.7003
 8062SOL    HW235823   3.309   0.592   7.681 -0.7664  1.2854  0.7173
 8063SOL     OW35824   2.997   0.103  10.033  0.2113 -0.4331  0.9501
 8063SOL    HW135825   3.070   0.136   9.981 -1.6084  0.0534 -1.2759
 8063SOL    HW235826   2.933   0.088   9.965  1.0133 -0.4852  0.2063
 8064SOL     OW35827   2.655   0.778   7.497  0.3310 -0.2792 -0.3950
 8064SOL    HW135828   2.661   0.842   7.426 -0.8709  0.2093 -0.0579
 8064SOL    HW235829   2.576   0.730   7.475  0.4479  0.1865 -1.8087
 8065SOL     OW35830   1.875   3.290   8.047 -0.4169 -0.1944 -0.4453
 8065SOL    HW135831   1.881   3.384   8.031 -0.4690 -0.0783  0.2222
 8065SOL    HW235832   1.891   3.263   7.957  1.7389  1.1740 -0.4773
 8066SOL     OW35833   3.020   4.391   7.962  0.0920  0.4234 -0.2474
 8066SOL    HW135834   3.086   4.427   8.022  1.9256 -0.4338 -1.7202
 8066SOL    HW235835   2.949   4.374   8.024  0.7029  0.4664  0.4647
 8067SOL     OW35836   3.956   2.808   2.020  0.9210  0.2945 -0.2705
 8067SOL    HW135837   3.953   2.734   1.958  0.4033  0.0771  0.0149
 8067SOL    HW235838   4.013   2.876   1.983  0.1290  2.0009  1.6579
 8068SOL     OW35839   0.585   2.467  16.245  0.0653  0.3956  0.5036
 8068SOL    HW135840   0.560   2.392  16.298  1.7488  0.7843  1.8567
 8068SOL    HW235841   0.527   2.538  16.274  0.5234  1.0563 -0.1859
 8069SOL     OW35842   2.586   3.144   9.611 -0.0271 -0.2525 -1.0503
 8069SOL    HW135843   2.521   3.090   9.656 -0.7866  0.3695 -1.3938
 8069SOL    HW235844   2.605   3.093   9.533 -2.9062 -0.9869 -1.2606
 8070SOL     OW35845   0.730   4.488   7.358  0.5748  0.1252 -0.1061
 8070SOL    HW135846   0.672   4.412   7.361 -0.7934  1.2156  0.8234
 8070SOL    HW235847   0.690   4.523   7.278  0.8959  2.8143  0.9138
 8071SOL     OW35848   1.853   0.292   5.546  0.1891 -0.0272 -0.6991
 8071SOL    HW135849   1.833   0.354   5.616 -0.2609 -0.4451 -0.4592
 8071SOL    HW235850   1.777   0.293   5.488 -1.4524  0.3153  1.4730
 8072SOL     OW35851   3.875   3.692   4.039  0.0157  0.0829 -0.4865
 8072SOL    HW135852   3.831   3.768   4.078 -2.1834 -1.2200 -0.4634
 8072SOL    HW235853   3.830   3.617   4.077 -2.6054  1.6221 -0.5614
 8073SOL     OW35854   0.919   0.680   4.176 -0.8462  0.4102  0.4970
 8073SOL    HW135855   0.979   0.745   4.140 -1.8823  0.0538 -1.8374
 8073SOL    HW235856   0.836   0.724   4.195 -0.5624  0.7540  0.9515
 8074SOL     OW35857   4.505   0.517   1.920  0.2673  0.1549  0.2571
 8074SOL    HW135858   4.555   0.437   1.903 -0.9994 -0.6020  0.1198
 8074SOL    HW235859   4.421   0.482   1.949 -0.3880  0.0716 -1.7334
 8075SOL     OW35860   0.463   0.116   2.209 -0.7526 -0.3245  0.3303
 8075SOL    HW135861   0.483   0.027   2.239  0.1155 -0.4005 -0.4645
 8075SOL    HW235862   0.485   0.175   2.281  3.0358 -2.6725  1.1064
 8076SOL     OW35863   1.152   1.346   5.963  0.7204 -0.1787 -0.2774
 8076SOL    HW135864   1.074   1.398   5.944  1.6142  1.6169  0.8230
 8076SOL    HW235865   1.165   1.376   6.054 -0.7503  1.9770 -0.7712
 8077SOL     OW35866   4.320   0.809   0.544 -0.1699 -0.6543 -0.5641
 8077SOL    HW135867   4.389   0.875   0.538 -0.2885 -0.4659  0.1670
 8077SOL    HW235868   4.350   0.734   0.493  0.4046 -1.2842  0.7309
 8078SOL     OW35869   0.025   0.856   6.347 -0.1744  0.5705  0.4104
 8078SOL    HW135870   4.732   0.788   6.286 -1.5476  1.9977 -0.4720
 8078SOL    HW235871   4.676   0.875   6.384 -0.4002  2.3006 -1.0537
 8079SOL     OW35872   1.607   4.369   2.567  0.9915  0.4063  0.0234
 8079SOL    HW135873   1.539   4.302   2.576 -1.1380  2.5881  0.3220
 8079SOL    HW235874   1.643   4.356   2.654 -1.5684 -2.0583  0.7161
 8080SOL     OW35875   2.276   2.165  12.657  0.0087 -0.0194 -0.1817
 8080SOL    HW135876   2.181   2.157  12.650  0.0746 -1.0714  0.1522
 8080SOL    HW235877   2.298   2.183  12.565  0.4082  0.1647 -0.0474
 8081SOL     OW35878   0.498   0.913  17.599 -0.6728 -0.1450  0.2124
 8081SOL    HW135879   0.577   0.914  17.654 -1.9086  1.0920  2.0074
 8081SOL    HW235880   0.478   1.007  17.606  3.2216  0.6193  1.3925
 8082SOL     OW35881   1.721   3.348   8.257 -0.3411 -0.3889  0.2201
 8082SOL    HW135882   1.792   3.368   8.318 -0.0271 -0.8712  0.0105
 8082SOL    HW235883   1.776   3.307   8.189  0.5181 -3.2479  2.6400
 8083SOL     OW35884   2.140   0.077   3.922 -0.1526 -0.1438 -0.0716
 8083SOL    HW135885   2.140   0.001   3.864 -0.2848 -0.0089 -0.2493
 8083SOL    HW235886   2.083   0.053   3.995  0.3227  0.2031  0.4132
 8084SOL     OW35887   2.346   0.895  14.486  0.4828  0.1126 -0.0254
 8084SOL    HW135888   2.304   0.886  14.572  2.8688 -0.4039  1.0818
 8084SOL    HW235889   2.434   0.923  14.511  0.5028 -0.1243  0.1612
 8085SOL     OW35890   3.879   4.241  17.194 -0.5148 -0.1421  0.5824
 8085SOL    HW135891   3.973   4.226  17.183 -0.8511 -1.9258 -0.0111
 8085SOL    HW235892   3.868   4.244  17.289 -0.5113 -0.1206  0.5821
 8086SOL     OW35893   1.038   3.319  17.130  0.4768  0.3681  0.2270
 8086SOL    HW135894   1.134   3.322  17.131  0.5748 -3.2658  0.0621
 8086SOL    HW235895   1.022   3.387  17.064  1.8292 -0.6810 -1.1842
 8087SOL     OW35896   2.222   0.458   5.626  0.5700 -0.0041 -0.3568
 8087SOL    HW135897   2.205   0.395   5.556  1.7632  2.0800 -2.5221
 8087SOL    HW235898   2.171   0.536   5.605  0.6359 -0.1924 -1.1993
 8088SOL     OW35899   0.000   2.329   2.436 -0.0319 -0.4431 -0.1295
 8088SOL    HW135900   4.688   2.361   2.361  0.1085  0.1592  0.0353
 8088SOL    HW235901   0.061   2.400   2.457  1.0858 -2.3629  3.2299
 8089SOL     OW35902   0.843   2.534  10.207  1.0183 -0.2836 -0.0515
 8089SOL    HW135903   0.820   2.487  10.287  3.0990 -2.3980 -0.7299
 8089SOL    HW235904   0.757   2.571  10.184  1.4966 -0.0515 -1.4833
 8090SOL     OW35905   2.823   1.278   6.344  0.2438 -0.1629  0.4465
 8090SOL    HW135906   2.860   1.293   6.257  1.3087  0.6939  1.0484
 8090SOL    HW235907   2.848   1.366   6.371 -0.5557  0.8443 -2.1198
 8091SOL     OW35908   4.347   3.758  16.460  0.0828 -0.0908  0.3085
 8091SOL    HW135909   4.380   3.845  16.436 -0.4911  0.4418  1.4457
 8091SOL    HW235910   4.256   3.778  16.482  0.2894  1.2756 -0.0400
 8092SOL     OW35911   1.054   0.124   9.263  0.8783 -0.6670  0.0907
 8092SOL    HW135912   1.106   0.203   9.280  1.0105 -1.2365  2.4450
 8092SOL    HW235913   1.104   0.094   9.187 -2.5537 -1.4898 -1.8086
 8093SOL     OW35914   1.946   1.066  15.260 -0.3014  0.1855 -0.4445
 8093SOL    HW135915   1.970   1.065  15.353  2.1631 -1.6057 -1.1056
 8093SOL    HW235916   1.873   1.128  15.260  0.7262  1.4077 -1.1310
 8094SOL     OW35917   4.244   2.239   4.587 -0.1584 -0.0775 -0.1707
 8094SOL    HW135918   4.271   2.302   4.654  0.1921 -1.7017  1.1992
 8094SOL    HW235919   4.311   2.257   4.521 -1.6796 -0.1299 -1.7214
 8095SOL     OW35920   4.682   1.154   9.927 -0.6166  0.5634 -0.3216
 8095SOL    HW135921   0.018   1.097   9.947 -0.6657  0.1624 -1.2800
 8095SOL    HW235922   4.658   1.200  10.008  0.4891  0.0867  0.2813
 8096SOL     OW35923   1.306   3.710   9.168  0.2597  0.2739 -0.0789
 8096SOL    HW135924   1.294   3.735   9.076 -0.6073 -2.1695 -0.6508
 8096SOL    HW235925   1.222   3.734   9.207 -0.1250  0.5732 -1.0767
 8097SOL     OW35926   3.136   1.012  16.994 -0.3694  0.1071  0.4569
 8097SOL    HW135927   3.212   1.055  16.954 -0.7682  0.2272 -0.1815
 8097SOL    HW235928   3.143   1.051  17.081 -1.5132 -0.4243  0.7884
 8098SOL     OW35929   4.253   2.665   2.105 -0.3345 -0.0557  0.4995
 8098SOL    HW135930   4.246   2.750   2.062 -0.0994 -0.2691  0.0401
 8098SOL    HW235931   4.161   2.647   2.127 -0.8491 -0.6571 -2.1520
 8099SOL     OW35932   1.919   3.074   3.902  0.4760  0.3919 -0.6524
 8099SOL    HW135933   1.865   3.074   3.823 -0.5297  0.6180  0.0326
 8099SOL    HW235934   1.896   3.162   3.933  0.1709 -0.0622  0.4083
 8100SOL     OW35935   1.275   0.503   2.693 -0.3952 -0.6313 -0.4586
 8100SOL    HW135936   1.224   0.422   2.692  0.9027 -1.4595  0.6581
 8100SOL    HW235937   1.288   0.528   2.784 -0.7632 -1.6443 -0.1181
 8101SOL     OW35938   3.103   3.263  14.100  0.1395 -0.4691  0.3542
 8101SOL    HW135939   3.132   3.276  14.010  1.8668 -0.8455  0.8505
 8101SOL    HW235940   3.132   3.345  14.140 -0.9477  0.6644 -1.2049
 8102SOL     OW35941   3.135   2.166   9.161 -0.2144  0.0115 -0.2740
 8102SOL    HW135942   3.042   2.181   9.177 -0.3471 -0.3493 -0.7035
 8102SOL    HW235943   3.158   2.225   9.090  2.4616 -0.3945  0.2567
 8103SOL     OW35944   0.979   3.474  15.514  0.2592 -0.3885  0.5622
 8103SOL    HW135945   1.056   3.528  15.496  0.8103 -0.8253  1.6040
 8103SOL    HW235946   0.922   3.493  15.440  1.3106  0.8192  0.0574
 8104SOL     OW35947   4.162   3.852   2.229 -0.2480 -0.7112 -0.0603
 8104SOL    HW135948   4.131   3.763   2.213 -2.4452 -0.0879  0.6414
 8104SOL    HW235949   4.167   3.838   2.324 -1.7001 -1.7014 -0.1232
 8105SOL     OW35950   3.729   2.355  10.681 -0.9298 -0.1127 -0.0270
 8105SOL    HW135951   3.811   2.307  10.668 -1.6523 -1.0404 -1.1560
 8105SOL    HW235952   3.677   2.275  10.683 -1.4039  0.2212  0.7558
 8106SOL     OW35953   4.302   2.570   1.825  0.5221  0.3120 -0.1219
 8106SOL    HW135954   4.352   2.645   1.791  1.9081  0.1895  1.6878
 8106SOL    HW235955   4.293   2.590   1.918  0.9103  3.3956 -0.7241
 8107SOL     OW35956   1.115   3.491  15.222 -0.4492  0.7057  0.4276
 8107SOL    HW135957   1.181   3.485  15.154 -0.5590  2.3231  0.1753
 8107SOL    HW235958   1.172   3.529  15.289 -0.1558  2.2098 -0.6837
 8108SOL     OW35959   2.679   2.108   4.963 -1.1972  0.6392  0.0214
 8108SOL    HW135960   2.769   2.118   4.934 -1.0711 -2.3953 -0.6087
 8108SOL    HW235961   2.694   2.074   5.052  0.4514  1.2540 -0.0245
 8109SOL     OW35962   2.368   3.645  12.037  0.2745 -0.2525  0.0190
 8109SOL    HW135963   2.389   3.650  11.943 -0.8749 -2.8704 -0.3854
 8109SOL    HW235964   2.333   3.732  12.059 -1.8459 -1.1004  0.0397
 8110SOL     OW35965   0.582   0.248  14.485  0.0227  0.5073 -0.1438
 8110SOL    HW135966   0.664   0.281  14.449  0.5822 -1.1094 -0.3901
 8110SOL    HW235967   0.558   0.331  14.525 -1.6143  0.3740 -0.8491
 8111SOL     OW35968   1.760   2.131   9.435 -0.3916 -0.2052 -0.0310
 8111SOL    HW135969   1.800   2.045   9.422 -0.6711 -0.3295 -0.0916
 8111SOL    HW235970   1.708   2.100   9.510 -1.0413  0.5777 -0.1567
 8112SOL     OW35971   3.367   1.585   8.146 -0.0588 -0.5593 -0.3514
 8112SOL    HW135972   3.413   1.520   8.200 -0.4727 -1.1650 -0.7341
 8112SOL    HW235973   3.425   1.599   8.071 -3.7076  0.9187 -2.8575
 8113SOL     OW35974   4.325   1.204   8.917  0.1804 -0.0592 -0.2146
 8113SOL    HW135975   4.238   1.179   8.884  0.0951 -1.1478  0.8335
 8113SOL    HW235976   4.336   1.286   8.870  1.7202 -0.5037 -0.6157
 8114SOL     OW35977   3.964   2.440   2.752  0.3211  0.4958 -0.3774
 8114SOL    HW135978   4.009   2.364   2.716 -1.8925 -0.6790 -0.6841
 8114SOL    HW235979   3.872   2.414   2.744  0.3480  0.3579 -0.2293
 8115SOL     OW35980   1.535   3.661  14.948  0.0007 -0.1476 -0.1533
 8115SOL    HW135981   1.591   3.640  14.873  1.1541  2.3972  0.0079
 8115SOL    HW235982   1.603   3.679  15.013  1.6251 -0.5262 -1.7678
 8116SOL     OW35983   0.341   1.825  15.388 -0.1992 -0.5174 -0.4765
 8116SOL    HW135984   0.404   1.768  15.432 -1.5208 -1.0987  0.6521
 8116SOL    HW235985   0.265   1.791  15.435 -0.8554  0.2853 -0.9626
 8117SOL     OW35986   3.346   1.699  13.168  0.1064 -0.2480 -0.3081
 8117SOL    HW135987   3.336   1.639  13.094 -0.2792 -0.8743  0.2499
 8117SOL    HW235988   3.441   1.696  13.163  0.0603 -0.4687 -1.1096
 8118SOL     OW35989   0.627   2.791   6.551 -0.3958 -0.1218  0.4256
 8118SOL    HW135990   0.635   2.863   6.489 -0.8864  0.8167  1.4485
 8118SOL    HW235991   0.703   2.736   6.534  1.1251  2.3237 -0.5449
 8119SOL     OW35992   1.843   0.421   1.224 -0.7340 -0.2167 -0.6010
 8119SOL    HW135993   1.916   0.365   1.251 -1.3509 -0.5064  0.4653
 8119SOL    HW235994   1.878   0.509   1.240  0.9466 -0.6753 -1.8553
 8120SOL     OW35995   3.730   3.641   6.584  0.3570 -0.4514 -0.1206
 8120SOL    HW135996   3.791   3.680   6.647  1.6533 -1.5449 -0.7273
 8120SOL    HW235997   3.669   3.714   6.571  1.1148  0.1968 -0.0691
 8121SOL     OW35998   1.380   2.460   9.788  0.0409 -0.8075  0.0605
 8121SOL    HW135999   1.435   2.441   9.713 -0.3210  1.2669 -0.7237
 8121SOL    HW236000   1.293   2.487   9.760  1.3955  0.6232 -2.7451
 8122SOL     OW36001   1.994   3.789   3.629 -0.2916 -0.1570 -0.4799
 8122SOL    HW136002   1.960   3.849   3.696 -0.7097  1.1167 -1.8270
 8122SOL    HW236003   2.038   3.719   3.678  1.7641  0.7608 -1.0064
 8123SOL     OW36004   2.971   0.239   4.907 -0.2322  0.4585 -0.4478
 8123SOL    HW136005   3.011   0.158   4.941 -0.2324 -0.4731 -2.6736
 8123SOL    HW236006   2.927   0.281   4.980 -0.7280 -2.0324  0.6909
 8124SOL     OW36007   2.880   0.715  15.025  0.4768  0.3577  0.7288
 8124SOL    HW136008   2.851   0.635  15.070 -1.5811 -0.8741 -2.7775
 8124SOL    HW236009   2.802   0.770  15.033  1.2707  1.5632  0.1188
 8125SOL     OW36010   4.427   1.135   3.000 -0.2367  0.1310  0.5426
 8125SOL    HW136011   4.450   1.224   3.027 -1.3047  0.8476 -0.9354
 8125SOL    HW236012   4.512   1.102   2.970  0.2924 -0.2239  2.4451
 8126SOL     OW36013   0.248   2.846   5.187 -0.0349  0.2130 -0.1584
 8126SOL    HW136014   0.184   2.909   5.155  1.8162  1.5251 -1.2679
 8126SOL    HW236015   0.323   2.903   5.169  2.1623 -2.1370  1.4274
 8127SOL     OW36016   0.393   0.775   8.807  0.1642 -0.5510 -0.7236
 8127SOL    HW136017   0.459   0.706   8.800 -0.1503 -0.9131 -0.0655
 8127SOL    HW236018   0.343   0.743   8.882  0.1517 -0.6057 -0.7551
 8128SOL     OW36019   2.768   0.244   8.136 -0.5010 -0.3525 -0.4714
 8128SOL    HW136020   2.800   0.319   8.186  1.8908 -0.4212 -1.8754
 8128SOL    HW236021   2.755   0.276   8.046  0.1513  2.0517  0.2870
 8129SOL     OW36022   2.894   0.331   2.351 -0.0210  0.2778 -0.3014
 8129SOL    HW136023   2.808   0.320   2.310  0.6413 -2.5652 -0.9032
 8129SOL    HW236024   2.873   0.415   2.392 -1.1807 -0.2242  0.1401
 8130SOL     OW36025   3.318   0.427  11.021  0.3379 -0.1032 -0.3221
 8130SOL    HW136026   3.286   0.378  11.096  1.2822 -1.3572 -0.7387
 8130SOL    HW236027   3.231   0.440  10.982  0.1995 -0.0471 -0.0016
 8131SOL     OW36028   1.250   0.339  17.257  0.0739 -0.2857  0.5163
 8131SOL    HW136029   1.160   0.314  17.235 -0.1791 -1.4803  2.9258
 8131SOL    HW236030   1.280   0.262  17.306 -0.1640  1.0456  2.7487
 8132SOL     OW36031   3.139   3.328  17.311 -0.4319  0.2340  0.1469
 8132SOL    HW136032   3.132   3.417  17.278 -0.8612 -0.1304 -0.7398
 8132SOL    HW236033   3.226   3.327  17.352 -0.0525  0.7109 -0.6456
 8133SOL     OW36034   3.358   2.754   1.899  0.0828  0.0263  0.2022
 8133SOL    HW136035   3.423   2.777   1.833  0.5366 -1.2818  0.1827
 8133SOL    HW236036   3.302   2.690   1.854 -0.1573 -0.4647  1.1988
 8134SOL     OW36037   2.296   4.233   8.202  0.2398  0.0735  1.2371
 8134SOL    HW136038   2.255   4.315   8.177  1.5192 -0.4139 -2.4731
 8134SOL    HW236039   2.348   4.259   8.278  0.1706  1.2148  0.8878
 8135SOL     OW36040   1.977   0.045   5.553  0.2121  0.0935 -0.2536
 8135SOL    HW136041   1.942   0.133   5.563 -2.9927 -1.1839 -0.4071
 8135SOL    HW236042   1.905   4.721   5.559  2.1482 -2.0421  1.0026
 8136SOL     OW36043   1.904   3.113   9.469  0.1269 -0.2407 -0.3275
 8136SOL    HW136044   1.875   3.201   9.491  0.2974  0.0511 -1.2574
 8136SOL    HW236045   1.978   3.113   9.530  1.6903 -1.2015 -2.2178
 8137SOL     OW36046   1.265   2.800   3.835  0.1065 -0.2637 -0.7717
 8137SOL    HW136047   1.251   2.768   3.746 -2.8803  0.3326 -0.5126
 8137SOL    HW236048   1.281   2.893   3.821  1.6377 -0.4498 -0.2390
 8138SOL     OW36049   1.236   1.474   6.200 -0.0824 -0.2598 -0.2180
 8138SOL    HW136050   1.150   1.436   6.218 -0.0841  0.1925  0.7301
 8138SOL    HW236051   1.223   1.566   6.223 -1.1846 -0.2035 -1.0616
 8139SOL     OW36052   3.237   3.175   4.442  0.1965 -0.1750  0.5795
 8139SOL    HW136053   3.263   3.101   4.497  0.6779 -0.3725  0.0902
 8139SOL    HW236054   3.204   3.238   4.506 -1.4564 -1.8658  1.3957
 8140SOL     OW36055   0.371   1.207   7.648  0.4875 -0.7288 -0.7001
 8140SOL    HW136056   0.317   1.285   7.632  0.2936 -0.7834 -0.3135
 8140SOL    HW236057   0.305   1.153   7.691 -0.7336  0.0035 -1.6810
 8141SOL     OW36058   2.318   1.228  13.487  0.0187 -0.4036 -0.5978
 8141SOL    HW136059   2.366   1.268  13.559  1.1577 -3.2150  0.2118
 8141SOL    HW236060   2.303   1.303  13.429  0.2708 -0.1112 -0.2787
 8142SOL     OW36061   3.405   0.725   4.091  0.2049  0.5437 -0.0794
 8142SOL    HW136062   3.475   0.714   4.155  0.7534  0.2443 -0.7271
 8142SOL    HW236063   3.332   0.673   4.125 -0.4668  1.2178 -0.4859
 8143SOL     OW36064   2.609   2.165   6.880 -0.6487  0.2013  0.6523
 8143SOL    HW136065   2.560   2.147   6.961 -0.4550 -0.4451  0.6293
 8143SOL    HW236066   2.688   2.203   6.917 -1.2762  1.3863  0.7779
 8144SOL     OW36067   0.257   0.962   2.042  0.4877 -0.0097 -0.3432
 8144SOL    HW136068   0.223   0.904   1.974 -1.0474 -1.9293  2.0580
 8144SOL    HW236069   0.306   1.026   1.990  1.3942 -1.3761 -1.1824
 8145SOL     OW36070   3.522   3.047  11.591  0.5922 -0.1156 -0.3096
 8145SOL    HW136071   3.481   3.132  11.576  1.5049  0.5673  1.1514
 8145SOL    HW236072   3.475   2.994  11.526  0.5974 -1.5500  0.8749
 8146SOL     OW36073   3.105   4.604  12.665  0.2724 -0.2158  0.0433
 8146SOL    HW136074   3.145   4.607  12.578 -2.3585 -0.8416 -1.2014
 8146SOL    HW236075   3.103   4.513  12.694  1.0657 -0.8210 -1.7651
 8147SOL     OW36076   0.199   2.873   2.754 -0.3187  0.1791 -0.1369
 8147SOL    HW136077   0.184   2.847   2.845  1.1651  1.7347  0.5489
 8147SOL    HW236078   0.130   2.818   2.717  0.9853  0.2640 -2.7053
 8148SOL     OW36079   4.074   4.427   6.647  0.3294  0.2499  0.5079
 8148SOL    HW136080   4.158   4.426   6.601 -0.5589 -0.3047 -1.1255
 8148SOL    HW236081   4.030   4.368   6.585  3.3708 -2.1925  0.6975
 8149SOL     OW36082   4.345   2.869   3.137  0.3186  0.0005 -0.1311
 8149SOL    HW136083   4.279   2.899   3.074 -0.4973 -1.0816  0.2035
 8149SOL    HW236084   4.427   2.887   3.092  0.6984  0.6981  0.8370
 8150SOL     OW36085   3.042   3.920   3.222 -0.3212  0.0490 -0.0907
 8150SOL    HW136086   3.020   3.932   3.130 -0.1792  1.9085  0.1110
 8150SOL    HW236087   3.135   3.901   3.209 -0.6606 -1.5401 -0.1703
 8151SOL     OW36088   0.433   4.624   7.458 -0.0149  0.0617 -0.2607
 8151SOL    HW136089   0.446   4.550   7.400  0.5190  0.2790 -0.4157
 8151SOL    HW236090   0.370   4.673   7.405  0.4000 -0.0981 -0.8950
 8152SOL     OW36091   3.608   2.285  16.806  0.8447  0.0593 -0.2539
 8152SOL    HW136092   3.514   2.298  16.813  0.5568 -1.4603 -1.2139
 8152SOL    HW236093   3.620   2.280  16.711 -0.3101  2.4077 -0.5204
 8153SOL     OW36094   4.668   2.533   1.883  0.1887 -0.2740 -0.0130
 8153SOL    HW136095   4.630   2.620   1.895  1.2810  0.4550 -1.8480
 8153SOL    HW236096   4.589   2.480   1.868  0.0784 -0.4369  1.1268
 8154SOL     OW36097   0.611   0.838   3.610  0.6245  0.5475  0.1504
 8154SOL    HW136098   0.574   0.848   3.698 -0.2841  1.9258 -0.4001
 8154SOL    HW236099   0.634   0.746   3.625  3.3570  1.3372  0.6170
 8155SOL     OW36100   1.314   0.360   8.177  0.2778  0.1290  0.2605
 8155SOL    HW136101   1.348   0.338   8.263  1.7399  2.2014  0.2017
 8155SOL    HW236102   1.241   0.299   8.170  0.2797  0.1259  0.2672
 8156SOL     OW36103   1.310   2.799  15.952 -0.9503 -0.3073  0.4742
 8156SOL    HW136104   1.221   2.804  15.987 -2.2106  1.3574 -2.8874
 8156SOL    HW236105   1.354   2.843  16.024 -0.2065 -0.8660  0.3575
 8157SOL     OW36106   0.952   0.016   6.292 -0.3587  0.0741 -0.3109
 8157SOL    HW136107   0.881   4.690   6.293  0.9062 -1.3313  1.1415
 8157SOL    HW236108   0.976   0.014   6.385  0.3871 -2.1458 -0.5653
 8158SOL     OW36109   3.099   3.183   4.889  0.2918 -0.1169 -0.3915
 8158SOL    HW136110   3.174   3.127   4.869  1.4715  0.4164  2.6716
 8158SOL    HW236111   3.095   3.182   4.984  0.2039  0.0290 -0.3926
 8159SOL     OW36112   2.450   2.285  12.833 -0.5342  0.0999  0.3378
 8159SOL    HW136113   2.483   2.232  12.906 -0.6634 -0.2312  0.1538
 8159SOL    HW236114   2.386   2.223  12.798  0.4546 -0.3202 -0.6966
 8160SOL     OW36115   4.345   2.334   6.949 -0.9476 -0.3351  0.4724
 8160SOL    HW136116   4.313   2.424   6.946 -0.7192 -0.3011 -0.9356
 8160SOL    HW236117   4.373   2.313   6.860 -0.3461 -1.1635  0.8653
 8161SOL     OW36118   4.281   0.133   6.018  0.1951  0.7942  0.1932
 8161SOL    HW136119   4.240   0.213   5.984  0.6637 -0.0376 -2.3860
 8161SOL    HW236120   4.271   0.157   6.110  2.8292  1.8568  0.1778
 8162SOL     OW36121   2.140   3.074   5.260 -0.5202 -0.1726 -0.6419
 8162SOL    HW136122   2.052   3.036   5.256 -1.0943  1.2476 -1.3476
 8162SOL    HW236123   2.128   3.167   5.245  2.4371  0.3427  0.1566
 8163SOL     OW36124   3.331   2.519   4.071  0.0399  0.1286  0.4687
 8163SOL    HW136125   3.359   2.607   4.094  3.6490 -1.6961  2.9853
 8163SOL    HW236126   3.278   2.534   3.993  0.7136 -0.4676 -0.0971
 8164SOL     OW36127   3.610   0.236   6.310  0.6721  0.0450  0.9038
 8164SOL    HW136128   3.590   0.264   6.399  1.3081  2.7010  0.2173
 8164SOL    HW236129   3.642   0.147   6.321  0.5204 -0.0519  0.5482
 8165SOL     OW36130   3.037   3.941  16.221 -0.4775 -0.1304 -0.1223
 8165SOL    HW136131   3.105   3.884  16.257  0.1692 -0.1153 -1.3071
 8165SOL    HW236132   2.986   3.878  16.171 -2.0000  1.4992 -0.6331
 8166SOL     OW36133   3.937   4.146   3.779 -0.1212  0.3529 -0.4551
 8166SOL    HW136134   3.996   4.190   3.840  1.9406 -0.8248 -1.5739
 8166SOL    HW236135   3.951   4.196   3.699  0.2428  1.7863  0.5122
 8167SOL     OW36136   1.136   0.141   8.175 -0.2601  0.3883  0.3263
 8167SOL    HW136137   1.164   0.050   8.161 -0.8088  0.1902  0.5178
 8167SOL    HW236138   1.043   0.133   8.195  0.0702 -0.1940  1.7082
 8168SOL     OW36139   2.676   4.289   8.546 -0.3438  0.2647  0.6015
 8168SOL    HW136140   2.721   4.308   8.628  2.2821 -2.0823 -0.3344
 8168SOL    HW236141   2.737   4.338   8.491 -2.1280  0.2541 -1.3793
 8169SOL     OW36142   0.038   3.489   7.898  0.1685  0.4059 -0.1672
 8169SOL    HW136143   4.713   3.559   7.919 -2.1286 -1.4116 -1.0565
 8169SOL    HW236144   0.038   3.481   7.803  0.3872 -0.6911 -0.0746
 8170SOL     OW36145   2.308   3.592   8.740  0.0212 -0.6208 -0.0560
 8170SOL    HW136146   2.381   3.648   8.718  0.8905 -1.9635 -0.6055
 8170SOL    HW236147   2.315   3.598   8.835  1.2484 -2.2515 -0.0411
 8171SOL     OW36148   2.471   2.991   4.780 -0.0628  0.1174 -0.0490
 8171SOL    HW136149   2.423   2.953   4.853  1.1711  1.0299  1.2339
 8171SOL    HW236150   2.499   3.070   4.828 -0.3054 -0.0138  0.3079
 8172SOL     OW36151   3.443   2.516   1.601 -0.2453 -0.6373  0.1381
 8172SOL    HW136152   3.458   2.504   1.694  1.7917  0.0471 -0.1001
 8172SOL    HW236153   3.350   2.495   1.595  0.0191 -1.9591  0.7094
 8173SOL     OW36154   4.254   0.452   7.947 -0.3890  0.3556 -0.4814
 8173SOL    HW136155   4.315   0.515   7.985  1.1300 -1.7727  0.5438
 8173SOL    HW236156   4.312   0.376   7.942  0.8552  1.3742 -1.5312
 8174SOL     OW36157   0.073   1.323  15.398 -0.2037 -0.2964  0.0959
 8174SOL    HW136158   0.010   1.323  15.470  0.0385  0.9784  0.3170
 8174SOL    HW236159   0.081   1.416  15.377  0.9824 -0.5842 -0.7190
 8175SOL     OW36160   3.160   0.134   7.719  0.5353 -0.2015  0.2786
 8175SOL    HW136161   3.099   0.064   7.741  1.0071 -1.0649 -1.2346
 8175SOL    HW236162   3.184   0.152   7.810  2.4500 -0.5246 -0.1644
 8176SOL     OW36163   2.447   3.390  15.673 -0.2148 -0.1854 -0.2930
 8176SOL    HW136164   2.470   3.483  15.660  1.3995 -0.6470 -0.7619
 8176SOL    HW236165   2.356   3.392  15.701 -0.2552  1.0723 -0.5048
 8177SOL     OW36166   2.914   4.053   7.080  0.1880  0.0555  0.2824
 8177SOL    HW136167   2.862   4.023   7.006 -0.2166 -0.8100  0.9114
 8177SOL    HW236168   2.864   4.017   7.153  0.6274 -1.4074 -0.1411
 8178SOL     OW36169   2.511   1.177   3.270 -0.2178 -0.0447  0.0359
 8178SOL    HW136170   2.571   1.142   3.204 -0.7809 -2.8026  1.0033
 8178SOL    HW236171   2.436   1.206   3.218 -1.4116 -0.3183  1.6120
 8179SOL     OW36172   2.631   0.293   2.224  0.3213 -0.0732 -0.0073
 8179SOL    HW136173   2.565   0.320   2.288 -1.8989 -0.1436 -2.2897
 8179SOL    HW236174   2.582   0.313   2.145 -0.0066 -2.2555 -0.3687
 8180SOL     OW36175   1.545   0.331  11.266 -0.0916  0.2941 -0.2215
 8180SOL    HW136176   1.593   0.287  11.337  1.5120  1.8386 -0.3293
 8180SOL    HW236177   1.514   0.253  11.221  1.8615 -0.0908 -0.9150
 8181SOL     OW36178   3.434   1.905   4.691 -0.7194 -0.1141  0.3471
 8181SOL    HW136179   3.399   1.816   4.685  0.3674 -0.4009 -1.6140
 8181SOL    HW236180   3.404   1.930   4.779  0.4053 -2.1238  1.2929
 8182SOL     OW36181   0.508   2.903  14.039  0.8047  0.2407  0.5744
 8182SOL    HW136182   0.420   2.921  14.073  0.0837  0.7031 -1.5421
 8182SOL    HW236183   0.472   2.876  13.955  0.5077 -0.6715  1.0052
 8183SOL     OW36184   4.503   2.381  10.549 -0.2694 -0.2359 -0.3596
 8183SOL    HW136185   4.542   2.450  10.602  0.4947 -1.1792  0.3142
 8183SOL    HW236186   4.565   2.309  10.565 -0.7942 -0.4347  0.7801
 8184SOL     OW36187   2.849   1.489   7.670 -0.1197 -0.2236  0.6056
 8184SOL    HW136188   2.763   1.525   7.648 -0.3045 -1.5239 -0.7802
 8184SOL    HW236189   2.896   1.568   7.698 -0.6410 -0.2599  1.5808
 8185SOL     OW36190   0.809   2.015   8.844 -0.5683  0.2649 -0.4700
 8185SOL    HW136191   0.792   2.099   8.802 -1.5682  0.4344  0.2819
 8185SOL    HW236192   0.805   2.040   8.936 -0.0539  0.2516 -0.4447
 8186SOL     OW36193   2.437   1.653   9.141 -0.4198  0.1443 -0.1700
 8186SOL    HW136194   2.425   1.747   9.155  1.7954  0.2467  1.0764
 8186SOL    HW236195   2.532   1.644   9.146 -0.3261  2.5905  2.3751
 8187SOL     OW36196   4.096   1.683  16.347  0.1322 -0.0322  0.4682
 8187SOL    HW136197   4.060   1.610  16.398  0.2955  0.8051  1.7553
 8187SOL    HW236198   4.121   1.655  16.259 -1.6374  1.2609 -0.4351
 8188SOL     OW36199   2.543   0.372  12.652 -0.8183  0.3656  0.3490
 8188SOL    HW136200   2.615   0.311  12.635 -0.3895  0.5984  1.3163
 8188SOL    HW236201   2.577   0.391  12.739  2.0103  2.0006 -1.1337
 8189SOL     OW36202   1.044   4.250   1.875  0.2055 -0.4539  0.4285
 8189SOL    HW136203   0.979   4.183   1.897 -1.5419  0.3040 -2.3804
 8189SOL    HW236204   0.984   4.306   1.825  0.6064 -0.4388 -0.0417
 8190SOL     OW36205   2.333   1.000  10.384 -0.5140 -0.0194 -0.2135
 8190SOL    HW136206   2.374   1.086  10.392 -1.0785  0.3966 -1.8040
 8190SOL    HW236207   2.381   0.952  10.452 -0.2409  1.0391  0.3374
 8191SOL     OW36208   4.204   1.333  17.183 -0.0336  0.3083 -0.1975
 8191SOL    HW136209   4.217   1.346  17.277 -1.9826 -0.8779  0.2129
 8191SOL    HW236210   4.214   1.238  17.176  0.0429  0.2597  0.6046
 8192SOL     OW36211   0.800   2.715   1.672 -0.3215  0.2040 -0.1864
 8192SOL    HW136212   0.779   2.803   1.703 -0.1754 -0.2723  1.2810
 8192SOL    HW236213   0.709   2.692   1.651 -0.1606 -0.0885 -0.5465
 8193SOL     OW36214   4.614   1.248   2.290 -0.4141  0.1364 -0.3569
 8193SOL    HW136215   4.631   1.342   2.286  0.1303  0.0476 -0.0274
 8193SOL    HW236216   4.700   1.214   2.312  0.0568  0.1282 -2.1996
 8194SOL     OW36217   2.500   4.274  17.044 -0.0275 -0.8964 -0.0840
 8194SOL    HW136218   2.444   4.337  17.089 -0.7737 -2.1987  0.8170
 8194SOL    HW236219   2.573   4.331  17.021 -0.8879 -0.6017 -2.0928
 8195SOL     OW36220   1.109   2.484   2.649  0.3968 -0.0973  0.5701
 8195SOL    HW136221   1.071   2.397   2.658 -0.1343 -0.2041 -3.0704
 8195SOL    HW236222   1.074   2.526   2.728  0.7832  0.3133  0.5208
 8196SOL     OW36223   4.576   3.502   4.338 -0.4942 -0.0274  0.0192
 8196SOL    HW136224   4.568   3.406   4.336  1.9717 -0.1813 -3.0859
 8196SOL    HW236225   4.641   3.516   4.270  0.0823 -0.7319  0.4258
 8197SOL     OW36226   0.885   0.925   2.080  0.0021 -0.7464  0.4448
 8197SOL    HW136227   0.860   0.961   2.164  0.8313  2.3367 -0.6275
 8197SOL    HW236228   0.802   0.912   2.035 -0.8147  3.6992  0.6736
 8198SOL     OW36229   3.920   1.621   8.224 -0.1122  0.5794 -0.8273
 8198SOL    HW136230   3.925   1.615   8.319  2.8085 -1.3872 -1.1061
 8198SOL    HW236231   3.921   1.716   8.211  0.3761  0.7011  0.1399
 8199SOL     OW36232   4.429   1.491  15.616  0.3262  0.0212 -0.6148
 8199SOL    HW136233   4.337   1.515  15.627  0.9386  1.2664  1.6942
 8199SOL    HW236234   4.411   1.399  15.633  2.9693 -0.3836 -0.0705
 8200SOL     OW36235   2.443   3.294   5.639 -0.6462  0.5620 -0.5109
 8200SOL    HW136236   2.518   3.236   5.654 -0.6598  0.3868 -1.1501
 8200SOL    HW236237   2.383   3.221   5.628 -3.2391  2.3108  2.0034
 8201SOL     OW36238   2.602   1.669   4.588 -0.2064 -0.0512  0.2492
 8201SOL    HW136239   2.550   1.733   4.638 -0.4300  0.7360 -0.9705
 8201SOL    HW236240   2.561   1.689   4.504 -0.2666  0.0100  0.2922
 8202SOL     OW36241   0.836   0.619   6.133  0.0004  0.3449 -0.5409
 8202SOL    HW136242   0.741   0.635   6.131 -0.3632 -1.6720  0.4539
 8202SOL    HW236243   0.853   0.665   6.051  0.3273  1.9462  0.4255
 8203SOL     OW36244   3.098   0.036  17.483  0.4451 -0.2122  0.0886
 8203SOL    HW136245   3.161   0.080  17.540  1.0227 -1.0423  0.0844
 8203SOL    HW236246   3.109   4.681  17.504 -2.2105 -0.1052  1.9730
 8204SOL     OW36247   2.949   0.403   7.455 -0.1159  0.1339 -0.8238
 8204SOL    HW136248   2.950   0.393   7.360 -2.4023  0.7958 -0.9181
 8204SOL    HW236249   2.872   0.460   7.459 -1.6534 -1.9969 -0.6933
 8205SOL     OW36250   0.953   1.555  10.920 -0.0209  0.3139 -0.3168
 8205SOL    HW136251   0.958   1.592  11.008  2.4330 -2.8423  0.8684
 8205SOL    HW236252   0.905   1.480  10.955 -2.1387  0.7317 -2.2903
 8206SOL     OW36253   0.162   2.887  15.542  0.1757  0.1868 -0.4339
 8206SOL    HW136254   0.105   2.811  15.553 -0.8623  0.9579 -0.4611
 8206SOL    HW236255   0.170   2.915  15.634  3.3731 -3.4535  0.3484
 8207SOL     OW36256   2.075   0.453   5.880  0.4959 -0.6763 -0.1941
 8207SOL    HW136257   2.153   0.475   5.829 -0.5495 -0.0670 -1.5386
 8207SOL    HW236258   2.064   0.539   5.922  2.5789 -0.6832  0.3594
 8208SOL     OW36259   2.730   1.091   3.534 -0.0936 -0.1368  0.1846
 8208SOL    HW136260   2.788   1.164   3.514  0.5591 -0.3507  1.2675
 8208SOL    HW236261   2.777   1.020   3.488 -1.4538 -0.6923 -0.3440
 8209SOL     OW36262   1.006   1.008  10.569  0.0943  0.3915  0.5509
 8209SOL    HW136263   1.088   0.984  10.526 -0.3926 -0.5153  0.1246
 8209SOL    HW236264   1.038   1.066  10.638 -0.3231  2.4276 -0.9771
 8210SOL     OW36265   3.080   4.597   7.602 -0.8883 -0.1690  0.0650
 8210SOL    HW136266   3.164   4.577   7.560  0.2252 -0.2440  2.3441
 8210SOL    HW236267   3.046   4.507   7.598  1.6539 -1.1420  0.2679
 8211SOL     OW36268   1.312   0.925   2.942 -0.2765  0.0913  0.0456
 8211SOL    HW136269   1.234   0.964   2.981 -0.7301 -1.3782  0.6269
 8211SOL    HW236270   1.288   0.915   2.850  2.4626 -0.3110 -0.6203
 8212SOL     OW36271   0.286   1.116   4.007 -0.4460 -0.2491  0.1420
 8212SOL    HW136272   0.332   1.065   4.072 -0.2770  2.1968  1.9451
 8212SOL    HW236273   0.358   1.159   3.961  1.0051 -2.6248  0.2102
 8213SOL     OW36274   1.973   1.374  17.172  0.0951  0.1847 -0.4227
 8213SOL    HW136275   2.023   1.424  17.237 -0.2008  0.1244 -0.1455
 8213SOL    HW236276   2.039   1.353  17.107  0.9764  2.4477 -0.2843
 8214SOL     OW36277   4.404   4.527   6.255 -0.6144 -0.0783 -0.3516
 8214SOL    HW136278   4.416   4.620   6.276 -0.5064 -0.5370  1.5886
 8214SOL    HW236279   4.388   4.489   6.341 -0.2935 -1.2594 -0.8129
 8215SOL     OW36280   3.143   3.236   2.194  0.6782 -0.4269  0.0457
 8215SOL    HW136281   3.082   3.280   2.135  1.7425  0.5073 -0.3458
 8215SOL    HW236282   3.110   3.257   2.281  1.6675 -1.1593  0.5990
 8216SOL     OW36283   2.230   0.135   6.774  0.1418  0.2938 -0.8591
 8216SOL    HW136284   2.276   0.159   6.855 -0.9047  1.0562 -0.4863
 8216SOL    HW236285   2.246   0.220   6.735  1.1952  0.5398  0.1002
 8217SOL     OW36286   0.780   1.828   5.918 -0.1491  0.0448  0.3009
 8217SOL    HW136287   0.872   1.815   5.896  0.0056 -1.3051  1.7881
 8217SOL    HW236288   0.734   1.787   5.845  2.8232  0.3885 -1.7657
 8218SOL     OW36289   0.875   3.430   6.390  0.2446 -1.3418  0.4926
 8218SOL    HW136290   0.837   3.346   6.414  1.1794 -1.5445  1.2357
 8218SOL    HW236291   0.810   3.464   6.327  0.6609 -1.8177 -0.1934
 8219SOL     OW36292   1.399   0.153   6.696 -0.6837 -0.2568  0.2102
 8219SOL    HW136293   1.452   0.222   6.656 -0.1600 -0.5062  0.4710
 8219SOL    HW236294   1.318   0.204   6.701 -0.7209 -0.2653 -0.2889
 8220SOL     OW36295   1.179   4.410   3.981  0.8254 -0.1893  0.1584
 8220SOL    HW136296   1.119   4.466   4.032 -0.5683 -0.6858 -0.9337
 8220SOL    HW236297   1.133   4.420   3.898  0.0823 -0.8532  0.4799
 8221SOL     OW36298   4.286   1.249   7.304  0.3345  0.1687  0.4394
 8221SOL    HW136299   4.225   1.274   7.236  0.8857  1.9578  0.6158
 8221SOL    HW236300   4.259   1.161   7.330 -1.1389  0.6535  0.5415
 8222SOL     OW36301   3.709   2.262  16.550  0.1930  0.0847  0.2379
 8222SOL    HW136302   3.707   2.358  16.546  0.7216  0.0803 -0.1712
 8222SOL    HW236303   3.802   2.255  16.530  0.5807  1.2484  1.6498
 8223SOL     OW36304   2.184   2.127   4.898 -0.0682 -0.3690 -0.3053
 8223SOL    HW136305   2.191   2.154   4.989  0.2873 -2.3669  0.2679
 8223SOL    HW236306   2.099   2.084   4.887 -0.6192  0.1304  1.9058
 8224SOL     OW36307   0.362   0.028   1.181  0.2912 -0.1131 -0.4217
 8224SOL    HW136308   0.407   0.102   1.222 -0.4860 -0.5027  1.1421
 8224SOL    HW236309   0.313   0.073   1.113 -1.4072 -3.2217 -1.2140
 8225SOL     OW36310   4.415   1.575   1.347 -0.0625  0.2133  0.2174
 8225SOL    HW136311   4.336   1.574   1.294 -1.8450 -1.7204  2.8840
 8225SOL    HW236312   4.451   1.493   1.314  3.3913  1.9527 -0.3266
 8226SOL     OW36313   0.047   4.685   9.536  0.3252  0.3787  0.7054
 8226SOL    HW136314   0.017   4.718   9.620 -0.6037 -0.1170  0.5676
 8226SOL    HW236315   4.709   4.691   9.477 -0.3409 -0.2759  1.4992
 8227SOL     OW36316   0.313   2.077   3.930 -0.5250  0.2984  0.3976
 8227SOL    HW136317   0.325   1.992   3.972  0.8157  0.0841 -0.4325
 8227SOL    HW236318   0.354   2.134   3.995  0.2203  2.9009 -2.3750
 8228SOL     OW36319   0.766   0.047   7.831 -0.0271 -0.2395  0.0738
 8228SOL    HW136320   0.815   0.107   7.774 -0.2163 -2.2957 -2.2723
 8228SOL    HW236321   0.726   4.724   7.769  0.2021  0.6850 -0.9754
 8229SOL     OW36322   0.670   4.719   4.233 -0.1076  0.3781  0.4000
 8229SOL    HW136323   0.683   0.074   4.212  2.3481  0.2434  1.2815
 8229SOL    HW236324   0.681   4.714   4.328 -0.8233 -0.0765  0.4593
 8230SOL     OW36325   4.286   2.181  11.875 -0.1904 -0.2464  0.3263
 8230SOL    HW136326   4.196   2.214  11.867  0.3451  1.7683  2.6834
 8230SOL    HW236327   4.317   2.242  11.943  1.4102 -0.7909  0.0845
 8231SOL     OW36328   0.454   0.863   3.840 -1.1751 -0.3292 -0.3947
 8231SOL    HW136329   0.525   0.907   3.888 -0.6884 -1.3803 -0.1546
 8231SOL    HW236330   0.432   0.795   3.903  2.0003 -0.6637  0.3583
 8232SOL     OW36331   3.215   1.374   5.373 -0.2855  0.1000 -0.5219
 8232SOL    HW136332   3.222   1.280   5.360  1.7341 -0.2413  3.0064
 8232SOL    HW236333   3.306   1.393   5.397 -0.9290  0.5580  1.6328
 8233SOL     OW36334   4.409   3.075   4.511 -0.1969 -0.0702 -0.3874
 8233SOL    HW136335   4.366   3.103   4.591  0.4151 -0.5311  0.1045
 8233SOL    HW236336   4.333   3.035   4.468 -1.0870  1.1906  0.0388
 8234SOL     OW36337   0.092   0.325   0.050 -0.3319  0.6550 -0.3032
 8234SOL    HW136338   0.160   0.375   0.006 -0.5461  1.4483  0.2561
 8234SOL    HW236339   0.138   0.292   0.127 -0.1180  1.0741 -0.2497
 8235SOL     OW36340   2.982   1.991   2.361 -0.5402  0.3287 -0.2771
 8235SOL    HW136341   2.975   1.920   2.425  1.3116  0.7553  0.4102
 8235SOL    HW236342   3.068   1.971   2.323  0.8521  1.6650  2.2363
 8236SOL     OW36343   3.635   4.072   3.294  0.3048  0.3818  0.3695
 8236SOL    HW136344   3.645   4.163   3.267  1.9065  1.2404  3.8512
 8236SOL    HW236345   3.610   4.031   3.211  1.9148  0.1224  0.0013
 8237SOL     OW36346   0.533   3.011   6.119  0.4648 -0.7352 -0.0785
 8237SOL    HW136347   0.518   2.944   6.185 -2.6345  0.7237  0.6856
 8237SOL    HW236348   0.453   2.996   6.069  2.3107 -2.9800 -2.3412
 8238SOL     OW36349   4.335   1.446  16.300  0.1568  0.7628 -0.0818
 8238SOL    HW136350   4.416   1.403  16.272  0.5983  1.6243 -0.1291
 8238SOL    HW236351   4.293   1.465  16.216 -0.9781 -2.4100 -0.2362
 8239SOL     OW36352   2.829   3.851   0.529 -0.1706 -0.1537  0.1970
 8239SOL    HW136353   2.793   3.910   0.463  3.7501  1.7751 -0.2242
 8239SOL    HW236354   2.923   3.864   0.515 -0.3310  0.6517 -0.0936
 8240SOL     OW36355   2.052   0.985   5.542 -0.2281 -0.3034  0.4292
 8240SOL    HW136356   2.134   1.020   5.507 -1.0139  1.7034  0.6126
 8240SOL    HW236357   1.984   1.012   5.481 -1.4490 -3.7645  0.2625
 8241SOL     OW36358   1.977   0.775   6.199  0.2019  0.1452 -0.0714
 8241SOL    HW136359   1.970   0.848   6.261  0.0254  1.4708 -1.6494
 8241SOL    HW236360   2.049   0.728   6.241  0.0644 -0.0433 -0.0477
 8242SOL     OW36361   2.175   2.738   1.928 -0.1207 -0.0618 -0.7835
 8242SOL    HW136362   2.212   2.713   2.012 -1.9120 -1.3004 -0.3512
 8242SOL    HW236363   2.135   2.822   1.951 -1.2528 -0.3831 -1.5252
 8243SOL     OW36364   3.788   3.844   7.205  0.2436 -0.3103 -0.0016
 8243SOL    HW136365   3.705   3.890   7.192  0.6321 -0.2075 -2.1053
 8243SOL    HW236366   3.845   3.884   7.138  2.0005  0.7716  2.1340
 8244SOL     OW36367   1.327   2.809   1.278  0.3628 -0.1664  0.6085
 8244SOL    HW136368   1.387   2.755   1.330 -0.7596 -0.7186  1.3278
 8244SOL    HW236369   1.303   2.870   1.348  2.4385  2.5070 -1.0049
 8245SOL     OW36370   1.105   0.429   8.458 -0.4014  0.0353 -0.0477
 8245SOL    HW136371   1.170   0.362   8.434  1.2152  1.0216  1.5010
 8245SOL    HW236372   1.038   0.361   8.455 -0.3273  0.0136 -1.2929
 8246SOL     OW36373   3.044   4.410   4.564  0.0521 -0.2098  0.1213
 8246SOL    HW136374   3.026   4.319   4.542  1.2438  0.2254 -2.5906
 8246SOL    HW236375   2.957   4.449   4.573  1.5003  2.8253  1.2879
 8247SOL     OW36376   3.020   2.245   2.473  0.5281 -0.0787 -0.2355
 8247SOL    HW136377   2.971   2.164   2.488  1.3142 -0.4899  0.1435
 8247SOL    HW236378   2.980   2.296   2.543 -1.3059 -0.1944 -1.1838
 8248SOL     OW36379   3.167   0.461   2.784  0.2656 -0.3515 -0.4089
 8248SOL    HW136380   3.108   0.398   2.824  0.6567 -0.8117 -0.5536
 8248SOL    HW236381   3.246   0.461   2.837  0.2775  0.2918 -0.4251
 8249SOL     OW36382   2.296   1.304  14.687 -0.0033  0.6697 -0.6141
 8249SOL    HW136383   2.274   1.284  14.596 -0.8443  1.5166 -0.5934
 8249SOL    HW236384   2.277   1.397  14.697  0.0050  0.7497 -1.4066
 8250SOL     OW36385   0.085   3.398   2.085  0.1556 -0.0756  0.2409
 8250SOL    HW136386   0.009   3.454   2.067 -1.1758 -1.7628  0.6930
 8250SOL    HW236387   0.125   3.447   2.157 -0.0152  0.5130 -0.0589
 8251SOL     OW36388   2.408   0.914   8.883  0.0355  0.5482 -0.0806
 8251SOL    HW136389   2.483   0.882   8.833 -1.0179  1.1191 -2.0099
 8251SOL    HW236390   2.363   0.833   8.908  2.5392 -1.2728 -1.6254
 8252SOL     OW36391   3.644   2.223   8.037 -0.5686 -0.4508  0.2491
 8252SOL    HW136392   3.576   2.252   7.976 -0.1451 -1.7468 -0.8232
 8252SOL    HW236393   3.721   2.242   7.983  1.3158 -1.2494  2.6708
 8253SOL     OW36394   3.952   1.348   2.026 -0.3552 -0.2691 -0.4682
 8253SOL    HW136395   3.876   1.406   2.020 -1.8430 -1.9733  1.4576
 8253SOL    HW236396   3.900   1.267   2.027  1.6295 -1.5326 -0.1868
 8254SOL     OW36397   1.711   1.839   3.599  0.1195 -0.3645 -0.1482
 8254SOL    HW136398   1.656   1.773   3.640 -0.4224  0.7377  0.8957
 8254SOL    HW236399   1.787   1.785   3.576  0.2359 -0.4840  0.5022
 8255SOL     OW36400   0.726   4.603   1.205 -0.0796 -0.3488  0.0600
 8255SOL    HW136401   0.685   4.577   1.287  0.4831 -1.7346 -0.1032
 8255SOL    HW236402   0.797   4.655   1.243 -0.7622  1.2886 -0.8647
 8256SOL     OW36403   3.271   0.686   3.546  0.4029 -0.1018 -0.0580
 8256SOL    HW136404   3.213   0.658   3.617 -0.7714  1.4936 -0.3921
 8256SOL    HW236405   3.296   0.604   3.504  1.0310 -0.4459  0.9803
 8257SOL     OW36406   3.086   0.487   9.184 -0.0037  0.0995 -0.4510
 8257SOL    HW136407   3.016   0.552   9.179 -0.9657 -0.9005  0.1949
 8257SOL    HW236408   3.142   0.527   9.117 -0.8400  0.1044 -1.1548
 8258SOL     OW36409   0.761   4.589   5.396 -0.2945  0.2202  0.0267
 8258SOL    HW136410   0.851   4.609   5.372 -0.4705  1.2129  0.1911
 8258SOL    HW236411   0.733   4.518   5.338 -1.7355 -0.8730  2.0484
 8259SOL     OW36412   1.770   1.570   4.151 -0.2176  0.0680  0.0670
 8259SOL    HW136413   1.783   1.534   4.239  3.2025  0.4887 -0.2852
 8259SOL    HW236414   1.742   1.659   4.173 -0.4605 -0.8816  3.6928
 8260SOL     OW36415   2.285   0.556   2.565  0.1599  0.2976  0.2756
 8260SOL    HW136416   2.321   0.604   2.640  0.0793 -1.4591  1.4544
 8260SOL    HW236417   2.323   0.469   2.576  2.5588  1.4625  1.4232
 8261SOL     OW36418   2.805   2.223  12.773 -0.2677  0.2181 -0.3224
 8261SOL    HW136419   2.881   2.183  12.815  0.2875 -0.3390 -1.8271
 8261SOL    HW236420   2.796   2.302  12.826 -1.1920  0.3343 -0.6653
 8262SOL     OW36421   2.106   4.318  13.520  0.0649 -0.0325 -0.2213
 8262SOL    HW136422   2.014   4.314  13.493  0.2420 -2.1901 -0.5375
 8262SOL    HW236423   2.104   4.358  13.606  0.4961 -0.1846 -0.1436
 8263SOL     OW36424   3.268   2.323   3.212  0.0262  0.5637 -0.1388
 8263SOL    HW136425   3.245   2.301   3.122 -2.5222 -1.3787  1.0024
 8263SOL    HW236426   3.274   2.237   3.253  0.2409  0.1672 -1.0119
 8264SOL     OW36427   2.975   2.412   1.307  0.1629  0.4541 -0.0595
 8264SOL    HW136428   2.930   2.351   1.248 -0.7338  0.0471  1.0529
 8264SOL    HW236429   2.901   2.445   1.357 -1.6279  0.7186 -2.8378
 8265SOL     OW36430   3.014   1.309  10.523  0.1038 -0.2967 -0.5965
 8265SOL    HW136431   3.010   1.232  10.579 -1.0711  0.9272  1.0048
 8265SOL    HW236432   2.934   1.293  10.474 -0.0715  0.2186 -0.4791
 8266SOL     OW36433   3.749   2.125  15.182  0.3263 -0.2030 -0.1105
 8266SOL    HW136434   3.801   2.045  15.177 -0.7231 -0.8258 -1.0562
 8266SOL    HW236435   3.782   2.161  15.265 -1.4853  0.4103  0.3410
 8267SOL     OW36436   1.812   3.265   0.211 -0.1851 -0.0751  0.3379
 8267SOL    HW136437   1.855   3.343   0.246 -0.9460  0.3716  0.2782
 8267SOL    HW236438   1.722   3.280   0.240  0.3050  0.3558  1.6276
 8268SOL     OW36439   2.129   2.084   2.666  0.7263 -0.0672  0.1285
 8268SOL    HW136440   2.181   2.080   2.585 -1.1449 -0.7704 -1.0454
 8268SOL    HW236441   2.193   2.116   2.729  3.2318  0.4245 -2.6619
 8269SOL     OW36442   2.855   1.965  15.483  0.5842  0.2320 -0.0881
 8269SOL    HW136443   2.942   1.926  15.488  0.9926  1.2957  1.1433
 8269SOL    HW236444   2.858   1.996  15.573  0.9463 -1.3786  0.4538
 8270SOL     OW36445   3.983   4.594   9.223 -0.9093  0.5257 -0.0846
 8270SOL    HW136446   4.048   4.524   9.222 -3.3484 -1.7623 -0.4105
 8270SOL    HW236447   4.043   4.663   9.251 -1.5284  1.1825 -0.3694
 8271SOL     OW36448   2.546   0.151   5.396 -0.9553  0.0558  0.0939
 8271SOL    HW136449   2.493   0.223   5.362 -1.1443  0.0927  0.4608
 8271SOL    HW236450   2.487   0.127   5.468 -3.2769 -2.6858 -2.7225
 8272SOL     OW36451   2.922   2.420   3.715 -0.1520 -0.1369 -0.2319
 8272SOL    HW136452   2.997   2.456   3.669  0.4664  0.4176  1.2235
 8272SOL    HW236453   2.864   2.496   3.714  1.4752  1.0896 -1.5181
 8273SOL     OW36454   4.528   0.027   6.951 -0.0182 -0.3989 -0.3830
 8273SOL    HW136455   4.498   0.061   7.035 -0.0982 -0.8893 -0.2100
 8273SOL    HW236456   4.592   0.095   6.932  0.1538 -0.1678  0.9903
 8274SOL     OW36457   1.903   2.006   2.976  0.3941  0.2610 -0.1399
 8274SOL    HW136458   1.914   1.922   2.932  0.8480 -0.1363  0.7241
 8274SOL    HW236459   1.971   1.994   3.042  0.5121 -1.7366 -0.6147
 8275SOL     OW36460   1.608   2.448   9.615 -0.1043  0.0546  0.1169
 8275SOL    HW136461   1.576   2.360   9.597 -0.2552  0.1281  0.0263
 8275SOL    HW236462   1.620   2.480   9.526 -0.8568 -0.2027 -0.0742
 8276SOL     OW36463   0.145   2.784   5.582  0.2274  0.6910  0.7731
 8276SOL    HW136464   0.132   2.819   5.494 -2.3015 -2.1270  0.0476
 8276SOL    HW236465   0.240   2.794   5.592  0.1713  1.7659  0.2807
 8277SOL     OW36466   4.271   2.601   3.626 -0.5428 -0.1194  0.4038
 8277SOL    HW136467   4.249   2.658   3.553 -0.0354 -1.0664 -0.4900
 8277SOL    HW236468   4.342   2.552   3.585 -0.2939 -0.1649  0.8927
 8278SOL     OW36469   4.044   2.919   1.114  0.0999 -0.1705 -0.3304
 8278SOL    HW136470   3.998   2.975   1.051  0.6493 -0.8908 -1.3557
 8278SOL    HW236471   3.986   2.845   1.132 -0.8892  0.9104  0.9900
 8279SOL     OW36472   2.713   2.780   4.375  0.0836 -0.2154 -0.2713
 8279SOL    HW136473   2.807   2.796   4.366 -0.3063  1.8103 -0.6340
 8279SOL    HW236474   2.679   2.819   4.295 -0.1559  2.7350  1.2768
 8280SOL     OW36475   3.668   4.468  17.188  0.0994 -0.0535  0.2082
 8280SOL    HW136476   3.705   4.394  17.237  0.6397 -1.8503 -2.9038
 8280SOL    HW236477   3.577   4.470  17.218  0.4880 -0.0171  1.3712
 8281SOL     OW36478   3.700   3.205   2.587 -0.0564 -0.6459  0.3968
 8281SOL    HW136479   3.608   3.203   2.561  0.2856  0.0073 -0.8945
 8281SOL    HW236480   3.696   3.290   2.629 -1.0053 -0.2593 -0.4548
 8282SOL     OW36481   3.930   4.374   4.855  0.3290  0.8563  0.9611
 8282SOL    HW136482   3.968   4.424   4.782  2.5044 -1.1792  0.6810
 8282SOL    HW236483   3.847   4.417   4.873  1.3742  1.6076  3.8455
 8283SOL     OW36484   3.875   1.441   1.742 -0.1405  0.0203 -0.4520
 8283SOL    HW136485   3.893   1.488   1.660 -3.0715 -1.0181 -1.6999
 8283SOL    HW236486   3.887   1.508   1.809  1.0012 -0.5552 -0.0789
 8284SOL     OW36487   0.449   0.616   5.155  0.5317 -0.3012  0.1152
 8284SOL    HW136488   0.458   0.604   5.060  0.7198  0.8110 -0.0011
 8284SOL    HW236489   0.524   0.569   5.191 -0.2407 -0.5030  1.4443
 8285SOL     OW36490   3.051   4.297  12.444 -0.5139  0.3070 -0.1141
 8285SOL    HW136491   3.093   4.378  12.414 -2.3912  1.6509  0.9147
 8285SOL    HW236492   3.065   4.246  12.364 -2.8699  0.6059 -0.7200
 8286SOL     OW36493   1.388   4.662   3.813 -0.4151 -0.4311  0.4438
 8286SOL    HW136494   1.364   4.711   3.892  1.4435 -0.1736  0.8396
 8286SOL    HW236495   1.331   4.586   3.825  0.8496 -1.2880  1.0632
 8287SOL     OW36496   2.230   4.349   9.423 -0.2463  0.0127  0.0396
 8287SOL    HW136497   2.258   4.407   9.494  1.9083  0.0482 -0.8527
 8287SOL    HW236498   2.307   4.342   9.367  0.1302 -0.8709  0.6843
 8288SOL     OW36499   2.018   0.964   8.070  0.0247  0.3185  0.8472
 8288SOL    HW136500   1.955   0.896   8.094 -0.9995  0.6139 -0.9619
 8288SOL    HW236501   2.081   0.945   8.140 -1.1995 -2.3607  1.2412
 8289SOL     OW36502   3.330   1.801   3.233 -0.0509 -0.0222  0.1875
 8289SOL    HW136503   3.263   1.775   3.169 -2.2383  1.9614  1.6464
 8289SOL    HW236504   3.343   1.890   3.198  0.1341 -0.2247 -0.2561
 8290SOL     OW36505   1.379   0.972   4.291 -0.0844  0.2835  0.0892
 8290SOL    HW136506   1.451   1.035   4.294  1.2554 -1.2716  0.7480
 8290SOL    HW236507   1.299   1.024   4.280  1.1530  1.9895 -0.9127
 8291SOL     OW36508   2.887   2.785  10.864 -0.3429 -0.0056  0.2740
 8291SOL    HW136509   2.903   2.878  10.846  1.6918  0.0747  2.4131
 8291SOL    HW236510   2.965   2.747  10.823  0.0755 -0.6731  1.6713
 8292SOL     OW36511   3.272   1.902   6.361  0.0878 -0.3300 -0.1029
 8292SOL    HW136512   3.321   1.965   6.308 -1.3295  0.7328 -0.1380
 8292SOL    HW236513   3.218   1.857   6.296 -1.1630  3.3048 -1.5584
 8293SOL     OW36514   3.206   0.568   8.158 -0.5057 -0.0037  0.5098
 8293SOL    HW136515   3.221   0.538   8.069 -3.0157  0.4551 -0.0581
 8293SOL    HW236516   3.260   0.518   8.220  1.9985  1.7217 -0.2951
 8294SOL     OW36517   3.788   4.011   8.612  0.1550 -0.2032 -0.4488
 8294SOL    HW136518   3.787   3.990   8.518 -2.0723  2.0536 -0.9040
 8294SOL    HW236519   3.702   4.044   8.635 -0.4124 -1.3652 -0.8775
 8295SOL     OW36520   0.251   1.553   5.098 -0.0442  0.6410  0.4584
 8295SOL    HW136521   0.209   1.469   5.078 -0.7418  1.2665 -0.6953
 8295SOL    HW236522   0.223   1.571   5.188  0.3147  2.4901  0.2033
 8296SOL     OW36523   4.005   2.548   6.787  0.6683  0.2084  0.3390
 8296SOL    HW136524   4.077   2.591   6.741  1.5061 -1.6200 -0.1058
 8296SOL    HW236525   3.963   2.493   6.720  2.2152 -0.3203 -0.2049
 8297SOL     OW36526   4.730   0.174   8.587 -0.2840 -0.2111 -0.5471
 8297SOL    HW136527   4.732   0.253   8.641 -1.8683 -1.6232  1.5900
 8297SOL    HW236528   4.705   0.108   8.652  1.8457 -1.1983 -0.7141
 8298SOL     OW36529   0.048   2.332   2.727 -0.0309 -0.2087  0.0668
 8298SOL    HW136530   4.698   2.317   2.764  0.5690 -1.2813  1.0726
 8298SOL    HW236531   0.042   2.272   2.653 -1.2453 -0.9196  0.7268
 8299SOL     OW36532   4.210   4.190   0.795 -0.1382  0.2980 -0.6493
 8299SOL    HW136533   4.168   4.236   0.868  0.6493  0.5315 -0.3406
 8299SOL    HW236534   4.136   4.190   0.735 -1.2891 -1.7071  0.7949
 8300SOL     OW36535   3.345   1.317   2.490 -0.0691  0.1437 -0.8116
 8300SOL    HW136536   3.283   1.284   2.555  1.0163  1.7311  1.0286
 8300SOL    HW236537   3.304   1.290   2.408  0.6670 -1.7218 -0.5690
 8301SOL     OW36538   1.331   0.336  11.806  0.1099  0.7721 -0.0467
 8301SOL    HW136539   1.331   0.359  11.899 -0.6004  1.7567 -0.2986
 8301SOL    HW236540   1.243   0.308  11.782  0.4401  1.5282 -2.1764
 8302SOL     OW36541   1.377   3.456   3.134  0.5909 -0.6404 -0.1557
 8302SOL    HW136542   1.294   3.489   3.099  2.7057  4.0297 -0.6815
 8302SOL    HW236543   1.371   3.468   3.229  2.7842 -1.5091  0.0894
 8303SOL     OW36544   0.177   3.740   2.482 -0.0384  0.2987 -0.5629
 8303SOL    HW136545   0.222   3.719   2.564 -1.8221 -0.2150  0.2864
 8303SOL    HW236546   0.121   3.813   2.508  0.6733 -0.4710  3.1726
 8304SOL     OW36547   4.074   1.584   0.557 -0.4377 -0.5959  0.0750
 8304SOL    HW136548   4.030   1.633   0.488  0.4942 -0.1415 -0.2017
 8304SOL    HW236549   4.088   1.645   0.630  1.6228 -0.7187 -0.2027
 8305SOL     OW36550   4.657   2.520   5.540  0.1743  0.1513  0.6115
 8305SOL    HW136551   4.737   2.557   5.578 -0.7308  1.5113  1.2048
 8305SOL    HW236552   4.674   2.427   5.550  0.4083  0.0312 -1.0099
 8306SOL     OW36553   1.062   1.088  13.696 -0.4154 -0.8286 -0.3179
 8306SOL    HW136554   0.991   1.141  13.659  0.6042  2.4936  2.5124
 8306SOL    HW236555   1.019   1.055  13.775 -1.1789  0.4643 -0.2091
 8307SOL     OW36556   3.457   0.860  15.291 -0.1657  0.6179  0.3242
 8307SOL    HW136557   3.446   0.766  15.281 -2.5436  0.5696  3.3313
 8307SOL    HW236558   3.375   0.872  15.339  0.2129  1.0891  0.8496
 8308SOL     OW36559   3.356   0.988   4.039  0.1130 -0.1521  0.1961
 8308SOL    HW136560   3.422   1.005   3.973 -0.9855 -1.5379 -1.2579
 8308SOL    HW236561   3.375   0.897   4.063 -1.0421 -0.1147  1.2574
 8309SOL     OW36562   1.663   0.881  17.223 -0.2052 -0.1498 -0.0083
 8309SOL    HW136563   1.708   0.800  17.245  0.6292  0.8633  2.0388
 8309SOL    HW236564   1.587   0.851  17.173 -0.0673  0.3398 -0.5192
 8310SOL     OW36565   1.825   3.034   5.584  0.0139 -0.2735 -0.0341
 8310SOL    HW136566   1.807   3.116   5.630  1.0756 -0.6386  1.0235
 8310SOL    HW236567   1.859   3.070   5.502  3.2807 -2.4685  0.3847
 8311SOL     OW36568   2.982   3.175   6.856  0.1276 -0.4627 -0.1629
 8311SOL    HW136569   3.064   3.212   6.825  0.0536  2.2673  2.9395
 8311SOL    HW236570   3.009   3.083   6.860  1.5585 -0.0473 -0.1329
 8312SOL     OW36571   4.180   1.374   0.867  0.3161 -0.1924 -0.0314
 8312SOL    HW136572   4.236   1.325   0.807 -0.2786 -1.2055  0.2375
 8312SOL    HW236573   4.140   1.434   0.805  0.7554 -0.0139 -0.1374
 8313SOL     OW36574   2.134   2.190   6.266 -0.9010  0.6318  0.6640
 8313SOL    HW136575   2.116   2.263   6.207  0.6706  1.0209  0.6546
 8313SOL    HW236576   2.048   2.148   6.269 -1.1953  1.1857 -0.3090
 8314SOL     OW36577   2.322   4.144  13.787  0.5622 -0.2736  0.2739
 8314SOL    HW136578   2.395   4.200  13.815 -1.2688  1.7620  0.9696
 8314SOL    HW236579   2.262   4.216  13.765  1.2617  0.2655  0.1297
 8315SOL     OW36580   2.678   4.632  11.998  0.2043  0.1499 -0.7068
 8315SOL    HW136581   2.738   4.681  12.054 -0.7873  0.5713 -0.0302
 8315SOL    HW236582   2.596   4.649  12.043  0.7297  1.0069 -0.0679
 8316SOL     OW36583   2.082   2.069   1.022 -0.9297  0.5843 -0.0212
 8316SOL    HW136584   2.057   2.142   0.966  0.2028  1.0124  0.0245
 8316SOL    HW236585   2.031   2.000   0.979 -1.4741  1.1038 -0.2071
 8317SOL     OW36586   4.313   2.050   1.401  0.2092  0.2876  0.1552
 8317SOL    HW136587   4.323   2.129   1.348 -2.4107  0.0164 -0.7573
 8317SOL    HW236588   4.351   2.080   1.484 -0.7951  1.6042  0.1275
 8318SOL     OW36589   2.456   2.383   6.811 -0.3557 -0.3782  0.1522
 8318SOL    HW136590   2.495   2.296   6.819  0.7580 -0.0855 -1.9851
 8318SOL    HW236591   2.512   2.423   6.745 -0.0222 -0.8964  0.1182
 8319SOL     OW36592   4.150   3.259   4.235  0.0048 -1.0244 -0.5236
 8319SOL    HW136593   4.168   3.165   4.240  0.4674 -0.8470  1.1035
 8319SOL    HW236594   4.213   3.298   4.295 -1.3554  1.1224 -0.4800
 8320SOL     OW36595   1.344   0.373   6.948  0.2321  0.3915  0.0495
 8320SOL    HW136596   1.438   0.358   6.932 -0.0571 -3.1864  1.5943
 8320SOL    HW236597   1.318   0.376   6.856  2.5382  1.8005 -0.5516
 8321SOL     OW36598   0.184   1.613   9.370 -0.2561  0.1864  0.5159
 8321SOL    HW136599   0.224   1.563   9.299  1.0221  0.5584  0.9706
 8321SOL    HW236600   0.114   1.552   9.392  0.8922  0.0270  3.7002
 8322SOL     OW36601   3.055   3.838   4.234 -0.4834  0.2541 -0.2373
 8322SOL    HW136602   3.055   3.770   4.166 -1.0757 -0.0983  0.1117
 8322SOL    HW236603   2.984   3.816   4.293 -0.0518 -0.6087 -0.0241
 8323SOL     OW36604   2.120   1.049  11.258 -0.6347 -0.4426  0.0026
 8323SOL    HW136605   2.167   1.125  11.292  0.1193 -1.0549  0.3486
 8323SOL    HW236606   2.030   1.080  11.258 -1.5005 -2.9669 -0.2491
 8324SOL     OW36607   3.533   0.001   4.632  0.3577 -0.7092 -0.6584
 8324SOL    HW136608   3.484   4.721   4.712  1.9842 -0.5854  0.3666
 8324SOL    HW236609   3.467   0.052   4.585  0.7891 -0.0154 -0.5040
 8325SOL     OW36610   1.991   0.484   6.603 -0.6238 -0.6589  0.1315
 8325SOL    HW136611   2.021   0.449   6.520  0.5574  0.1454  0.2293
 8325SOL    HW236612   2.027   0.572   6.598 -3.7964  0.7847  2.2297
 8326SOL     OW36613   2.914   3.681  16.441 -0.0947 -0.3937 -0.3037
 8326SOL    HW136614   2.994   3.698  16.391 -0.3815 -4.1590 -2.0385
 8326SOL    HW236615   2.871   3.615  16.387 -1.2321  0.2298 -0.1464
 8327SOL     OW36616   0.296   4.148   5.326  0.3608 -0.2340  0.1406
 8327SOL    HW136617   0.359   4.147   5.255 -0.6642  1.1836 -0.7671
 8327SOL    HW236618   0.254   4.064   5.304 -1.6870  0.8860 -0.2138
 8328SOL     OW36619   4.046   2.570   5.984  0.4744 -0.3825  0.1305
 8328SOL    HW136620   3.967   2.606   6.025  0.5753 -0.2351  0.1981
 8328SOL    HW236621   4.062   2.635   5.916  1.8051 -1.1857 -0.3107
 8329SOL     OW36622   2.259   3.009   2.071  0.3396 -0.8954  0.0519
 8329SOL    HW136623   2.307   3.053   2.141 -1.0873  0.1891  0.3438
 8329SOL    HW236624   2.317   2.948   2.026 -0.6745 -2.3368  0.7006
 8330SOL     OW36625   0.174   0.893   8.689 -0.3288  0.1777 -0.5975
 8330SOL    HW136626   0.217   0.960   8.635  2.3026 -1.8710 -1.0044
 8330SOL    HW236627   0.244   0.857   8.744 -0.2284  1.6048  0.2181
 8331SOL     OW36628   3.616   3.690   3.855  0.2173 -0.6331  0.2264
 8331SOL    HW136629   3.689   3.744   3.825 -0.0441  0.0097  0.7511
 8331SOL    HW236630   3.574   3.682   3.769 -0.6111  1.5259  0.4297
 8332SOL     OW36631   2.619   3.248   8.571  0.2054  0.4051 -0.5366
 8332SOL    HW136632   2.709   3.252   8.603 -0.8669  1.5436  2.3248
 8332SOL    HW236633   2.591   3.335   8.598 -1.4886 -1.0832  2.5412
 8333SOL     OW36634   3.281   4.686   5.324  0.8689  0.0571 -0.4077
 8333SOL    HW136635   3.312   4.689   5.415 -0.6978  1.7633  0.0716
 8333SOL    HW236636   3.245   4.598   5.317  0.6895  0.0792  0.2395
 8334SOL     OW36637   2.048   3.233   7.265  0.1718 -0.5819  0.9729
 8334SOL    HW136638   2.097   3.179   7.204  1.2903  0.3065  1.0917
 8334SOL    HW236639   2.010   3.163   7.318 -0.4191  0.1164  1.4726
 8335SOL     OW36640   3.680   2.057   4.395 -0.1993 -0.2577 -0.2590
 8335SOL    HW136641   3.740   1.985   4.413  2.5999  2.5682  1.7472
 8335SOL    HW236642   3.713   2.086   4.310  0.4356 -1.5124 -0.4304
 8336SOL     OW36643   0.925   1.595  15.752 -0.7285 -0.2548 -0.5070
 8336SOL    HW136644   0.979   1.546  15.813 -0.3700  0.8145  0.0280
 8336SOL    HW236645   0.999   1.612  15.694 -1.1259 -0.1904 -1.0025
 8337SOL     OW36646   1.643   0.586   4.440  0.1817  0.4140 -0.0172
 8337SOL    HW136647   1.559   0.608   4.480  0.1202  2.0546 -1.0816
 8337SOL    HW236648   1.706   0.629   4.498 -1.3091 -0.5193  2.3133
 8338SOL     OW36649   3.160   1.198   2.672  0.2636  0.8973  0.0221
 8338SOL    HW136650   3.081   1.144   2.682  1.4526 -0.8124  0.2289
 8338SOL    HW236651   3.134   1.271   2.729  1.0915  0.4064  1.0458
 8339SOL     OW36652   0.197   0.074  11.430  0.0281  0.5288  0.7616
 8339SOL    HW136653   0.164   0.120  11.353  1.2522  0.6687  0.3189
 8339SOL    HW236654   0.227   4.730  11.389  0.5601  0.8781  0.4578
 8340SOL     OW36655   0.699   4.273   5.758  0.2165  0.2537 -0.5322
 8340SOL    HW136656   0.661   4.226   5.833  1.5045 -1.3351 -0.8835
 8340SOL    HW236657   0.791   4.260   5.778  0.3900  0.3549 -1.2767
 8341SOL     OW36658   3.888   0.992   3.596 -0.2924 -0.0951  0.0124
 8341SOL    HW136659   3.873   0.941   3.676  2.0779 -0.8023  0.0105
 8341SOL    HW236660   3.862   1.077   3.630  3.1023  1.5550 -1.5840
 8342SOL     OW36661   3.657   1.092  15.486 -0.2653 -0.3196  0.0680
 8342SOL    HW136662   3.601   1.015  15.480  3.6851 -3.3130  1.0306
 8342SOL    HW236663   3.675   1.098  15.580 -0.1797  3.2865 -0.2048
 8343SOL     OW36664   0.976   0.373   5.994 -0.1446  0.5370  0.6047
 8343SOL    HW136665   0.909   0.313   5.960  0.0950  0.7286 -0.2211
 8343SOL    HW236666   0.928   0.440   6.042 -0.9911 -0.1616  0.7434
 8344SOL     OW36667   2.301   3.168   7.530  0.8026 -0.1928 -0.2146
 8344SOL    HW136668   2.302   3.119   7.612 -0.7714  1.9736  1.0950
 8344SOL    HW236669   2.218   3.138   7.494  1.8685 -1.2278 -1.8089
 8345SOL     OW36670   1.419   1.270   1.730 -0.0831 -0.7412 -0.2750
 8345SOL    HW136671   1.454   1.210   1.665  0.5438 -0.5959 -0.0762
 8345SOL    HW236672   1.326   1.260   1.710 -0.0904 -0.3357 -0.4481
 8346SOL     OW36673   0.828   4.697  11.845  0.0628 -0.2110  0.4283
 8346SOL    HW136674   0.853   4.606  11.859 -0.9399 -0.4862  0.3911
 8346SOL    HW236675   0.740   4.684  11.811  0.2943  0.4617 -0.4306
 8347SOL     OW36676   3.674   3.788   9.076 -0.7360  0.2457 -0.3123
 8347SOL    HW136677   3.725   3.787   8.995  1.9103  0.1154  1.3756
 8347SOL    HW236678   3.628   3.704   9.077 -1.1008  0.4754  1.0201
 8348SOL     OW36679   1.046   1.033   0.559  0.3377  0.3250 -0.3138
 8348SOL    HW136680   1.141   1.038   0.556  0.1335  2.6261 -2.2064
 8348SOL    HW236681   1.033   0.970   0.631  0.7403 -0.2562 -0.7523
 8349SOL     OW36682   4.482   0.287  16.378  0.8987 -0.1018 -0.1987
 8349SOL    HW136683   4.452   0.306  16.289  0.5899  3.2947  0.6423
 8349SOL    HW236684   4.418   0.227  16.418  1.2521  0.4002  1.1073
 8350SOL     OW36685   3.813   3.159   8.855  0.1794 -0.1852 -0.1129
 8350SOL    HW136686   3.725   3.196   8.867 -1.0154 -2.9327 -0.4902
 8350SOL    HW236687   3.834   3.192   8.768  1.6665 -0.8136  0.0181
 8351SOL     OW36688   0.077   4.679   5.912 -0.0772 -0.2714 -0.5721
 8351SOL    HW136689   0.011   0.011   5.916 -1.8138 -1.8665 -1.3291
 8351SOL    HW236690   0.039   4.621   5.978 -0.7248  1.4743  0.6179
 8352SOL     OW36691   2.859   4.352   6.270 -0.2704 -0.5439 -0.1148
 8352SOL    HW136692   2.939   4.314   6.306 -0.9810 -0.2774  1.7726
 8352SOL    HW236693   2.886   4.440   6.244 -2.1145 -0.0928 -0.4974
 8353SOL     OW36694   1.984   4.447  17.577 -0.0499  0.2702  0.4460
 8353SOL    HW136695   1.950   4.361  17.550 -0.1069  0.2302  0.6442
 8353SOL    HW236696   1.916   4.473  17.639 -0.0776  1.0015  0.1082
 8354SOL     OW36697   3.130   3.711   5.426 -0.0175 -0.3974  0.2652
 8354SOL    HW136698   3.108   3.623   5.394 -0.8433 -1.1070  2.8333
 8354SOL    HW236699   3.104   3.762   5.349 -2.0425 -1.2483  0.3877
 8355SOL     OW36700   2.081   3.319   7.753  0.0485 -0.1967 -0.1711
 8355SOL    HW136701   2.144   3.272   7.697  1.4783  0.8196  0.5830
 8355SOL    HW236702   2.118   3.319   7.841  0.9116  1.5055 -0.5273
 8356SOL     OW36703   4.505   0.925  15.387  0.1853 -0.1014 -0.4574
 8356SOL    HW136704   4.521   1.009  15.344  2.9157  0.0325  0.8260
 8356SOL    HW236705   4.576   0.914  15.450  0.5491  0.6676 -0.7301
 8357SOL     OW36706   1.445   0.370   3.214 -0.5711  0.4194  0.4341
 8357SOL    HW136707   1.375   0.324   3.167  0.4035 -0.1580 -0.4439
 8357SOL    HW236708   1.502   0.299   3.247  2.2947  1.9168 -1.3321
 8358SOL     OW36709   2.301   2.674   9.520 -0.2135 -0.4239 -0.2893
 8358SOL    HW136710   2.320   2.590   9.480 -0.5459 -1.6093  2.0432
 8358SOL    HW236711   2.230   2.712   9.468  0.6124  1.5880  0.0481
 8359SOL     OW36712   4.111   1.098  16.114 -0.5189  0.0409  0.8187
 8359SOL    HW136713   4.032   1.125  16.161 -0.4881  2.4540 -0.5030
 8359SOL    HW236714   4.160   1.068  16.190  0.4629  0.4477  0.3502
 8360SOL     OW36715   0.180   0.548  12.505  0.1595 -0.2451 -0.0177
 8360SOL    HW136716   0.116   0.619  12.500  1.1649  0.5908 -1.0716
 8360SOL    HW236717   0.133   0.480  12.457  1.8769  0.5062 -2.7835
 8361SOL     OW36718   2.614   0.232   4.979  0.1394  0.6420 -0.4429
 8361SOL    HW136719   2.646   0.143   4.967  0.1952  0.9473 -2.5979
 8361SOL    HW236720   2.533   0.224   5.028 -0.5739  1.1883 -1.5259
 8362SOL     OW36721   2.007   2.311   7.443  0.5106  0.1021 -0.4870
 8362SOL    HW136722   2.014   2.327   7.349  1.7559 -0.4663 -0.4922
 8362SOL    HW236723   1.995   2.216   7.433 -0.0376 -0.0278  1.2338
 8363SOL     OW36724   2.789   3.280   8.217  0.7131 -0.1201  0.0497
 8363SOL    HW136725   2.780   3.295   8.123  0.4943 -1.1613 -0.0944
 8363SOL    HW236726   2.879   3.305   8.240  0.7009 -0.1946  0.1793
 8364SOL     OW36727   0.363   3.008   6.787  0.4159  0.0289 -0.2852
 8364SOL    HW136728   0.362   2.914   6.770 -1.3385 -0.1279  0.6277
 8364SOL    HW236729   0.270   3.032   6.789  0.5655  0.4957  1.2857
 8365SOL     OW36730   1.406   3.694   6.811  0.0608 -0.3624 -0.1762
 8365SOL    HW136731   1.429   3.610   6.772 -1.3317 -0.1091 -1.5702
 8365SOL    HW236732   1.316   3.679   6.840 -0.2131  2.3911  0.3474
 8366SOL     OW36733   1.690   1.213   4.586  0.3413 -0.0222  0.2806
 8366SOL    HW136734   1.677   1.119   4.601  2.0430 -0.1685  0.8078
 8366SOL    HW236735   1.658   1.219   4.496 -1.4931 -0.8852  0.8861
 8367SOL     OW36736   3.623   4.329   2.952  0.2606 -0.0572  0.1039
 8367SOL    HW136737   3.684   4.281   2.897 -0.8040  0.4576 -1.5101
 8367SOL    HW236738   3.545   4.274   2.943  1.3419 -1.4355 -0.8142
 8368SOL     OW36739   4.132   1.468   5.934  0.1114  0.7475  0.1239
 8368SOL    HW136740   4.144   1.414   5.856  2.0282  1.8407 -0.3338
 8368SOL    HW236741   4.207   1.441   5.988 -2.1595 -0.9960  2.4287
 8369SOL     OW36742   1.793   0.377  12.306 -0.3409  0.2145 -0.7181
 8369SOL    HW136743   1.839   0.416  12.380 -0.0663 -0.6542 -0.4411
 8369SOL    HW236744   1.862   0.380  12.240  1.7233  0.8612  1.4792
 8370SOL     OW36745   3.980   2.498  17.440  1.0017  0.1249 -0.4110
 8370SOL    HW136746   4.061   2.459  17.473  0.2276  0.7002  2.1760
 8370SOL    HW236747   3.909   2.454  17.486  1.4092  0.8540  0.9133
 8371SOL     OW36748   0.952   0.487   2.664 -0.5401 -0.6094 -0.2695
 8371SOL    HW136749   0.992   0.549   2.603  0.9571 -0.5186  0.7929
 8371SOL    HW236750   0.879   0.460   2.609 -0.1520  0.6241 -1.3877
 8372SOL     OW36751   0.481   2.984  14.687  0.5628 -0.3264 -0.3557
 8372SOL    HW136752   0.573   2.987  14.715  0.0744 -0.8736  1.2947
 8372SOL    HW236753   0.435   2.958  14.767 -0.0808 -5.0392 -2.2754
 8373SOL     OW36754   0.777   3.229  17.162 -0.2651 -0.9223  0.2343
 8373SOL    HW136755   0.773   3.244  17.257 -0.5276  0.4357  0.0122
 8373SOL    HW236756   0.863   3.247  17.123 -0.0622 -1.7040  0.3106
 8374SOL     OW36757   4.139   2.382   3.797  0.3970 -0.1260  0.6709
 8374SOL    HW136758   4.214   2.338   3.757  0.0314  0.2716 -0.4724
 8374SOL    HW236759   4.138   2.465   3.749  1.1882  0.6177  1.9393
 8375SOL     OW36760   4.057   1.104   3.829  0.5950  0.1862 -0.3548
 8375SOL    HW136761   4.093   1.084   3.743  1.6002  0.5285 -0.0156
 8375SOL    HW236762   4.030   1.013   3.832 -0.6170  0.5641  0.4109
 8376SOL     OW36763   4.381   0.168   2.365 -0.3433  0.3041  0.1037
 8376SOL    HW136764   4.388   0.212   2.450 -0.4543 -1.7033  1.1504
 8376SOL    HW236765   4.452   0.191   2.306 -0.2262 -2.4405 -0.8078
 8377SOL     OW36766   2.742   3.069  12.026 -0.1807 -0.5121  0.1072
 8377SOL    HW136767   2.655   3.100  12.048 -1.4772 -3.2896 -1.1018
 8377SOL    HW236768   2.792   3.096  12.103 -0.5307  0.7309 -0.0994
 8378SOL     OW36769   0.464   3.989   4.626 -0.4906  0.5332  0.2065
 8378SOL    HW136770   0.444   3.928   4.697  0.6162 -1.5607 -1.2952
 8378SOL    HW236771   0.394   3.973   4.563 -0.0969 -3.6873  0.8865
 8379SOL     OW36772   2.176   2.571   1.701 -0.0672 -0.1161  0.1932
 8379SOL    HW136773   2.176   2.625   1.780  0.9466  0.9874 -0.5538
 8379SOL    HW236774   2.124   2.493   1.721  0.7049 -0.5726  0.4239
 8380SOL     OW36775   4.263   0.535   2.715  0.1085  0.2622  0.1433
 8380SOL    HW136776   4.339   0.577   2.673 -1.7132  1.3403 -2.0948
 8380SOL    HW236777   4.293   0.450   2.746  0.4846  0.2921 -0.1384
 8381SOL     OW36778   0.756   3.468   4.487  0.3755  0.1766  1.0769
 8381SOL    HW136779   0.724   3.558   4.492  0.7556  0.3537  0.3809
 8381SOL    HW236780   0.677   3.428   4.451  0.2799  0.2242  1.2368
 8382SOL     OW36781   1.436   0.315   7.927  0.1048  0.1850  0.1407
 8382SOL    HW136782   1.419   0.332   8.020  3.3477  0.2188  0.7333
 8382SOL    HW236783   1.518   0.357   7.902  1.1898 -1.5079  0.9032
 8383SOL     OW36784   0.443   3.363   3.816 -0.3401  0.1309 -0.0459
 8383SOL    HW136785   0.506   3.360   3.744 -1.2022 -2.3858 -0.7010
 8383SOL    HW236786   0.415   3.455   3.813  1.8246  0.7701 -0.5234
 8384SOL     OW36787   2.422   4.386   2.018 -0.1932 -0.5454 -0.3580
 8384SOL    HW136788   2.368   4.442   1.962 -0.7258  0.5421  1.2231
 8384SOL    HW236789   2.409   4.431   2.102 -4.4070 -0.5782 -0.9750
 8385SOL     OW36790   4.295   3.620   6.501 -0.2021  0.8045 -0.0875
 8385SOL    HW136791   4.289   3.621   6.597  1.7502  0.1265  0.0418
 8385SOL    HW236792   4.359   3.552   6.485 -2.0735 -1.1834  0.8305
 8386SOL     OW36793   0.706   2.985   6.736 -0.4091  0.2900 -0.7612
 8386SOL    HW136794   0.799   2.962   6.735 -0.1886  0.9989  2.6663
 8386SOL    HW236795   0.660   2.902   6.726  0.1301 -0.1441  0.3368
 8387SOL     OW36796   1.009   3.927  16.901  0.1772  0.0832  0.2909
 8387SOL    HW136797   0.919   3.902  16.922  0.7174  0.2998  2.9611
 8387SOL    HW236798   1.065   3.864  16.947  0.8361  2.0963  2.2897
 8388SOL     OW36799   0.486   2.351   7.800  0.0146 -0.1595  0.0857
 8388SOL    HW136800   0.518   2.359   7.889 -0.2778  3.2348 -0.1159
 8388SOL    HW236801   0.552   2.292   7.762 -1.0102 -3.1948  3.0502
 8389SOL     OW36802   0.531   0.297   6.779 -0.1938 -0.0675 -0.4902
 8389SOL    HW136803   0.588   0.326   6.849  0.8131 -0.7942 -1.0101
 8389SOL    HW236804   0.594   0.269   6.712  0.8336 -0.2702  0.5694
 8390SOL     OW36805   4.141   4.024   1.598  0.3407  0.3000  0.2274
 8390SOL    HW136806   4.124   3.982   1.514 -2.6623  1.7045  0.1415
 8390SOL    HW236807   4.130   3.950   1.658  0.8578 -0.0046 -0.0483
 8391SOL     OW36808   0.826   2.802   9.179 -0.0375  0.8444  0.0612
 8391SOL    HW136809   0.771   2.837   9.109 -0.4713 -0.5870 -0.3235
 8391SOL    HW236810   0.902   2.849   9.144 -0.4008  0.8551 -0.7179
 8392SOL     OW36811   1.590   3.758   3.141 -0.2943  0.2935  0.0360
 8392SOL    HW136812   1.513   3.781   3.195 -1.8958  0.0568 -2.1430
 8392SOL    HW236813   1.572   3.814   3.065 -1.8267 -2.5285 -1.6567
 8393SOL     OW36814   3.504   1.268   9.742 -0.7242  0.2049  0.1165
 8393SOL    HW136815   3.578   1.238   9.795  0.0981 -1.1629 -1.7982
 8393SOL    HW236816   3.508   1.202   9.673  2.1640  1.4834 -0.9420
 8394SOL     OW36817   1.580   2.961  10.477  0.5125  0.2724 -0.4285
 8394SOL    HW136818   1.558   2.874  10.443 -3.0249  1.1568 -0.3237
 8394SOL    HW236819   1.638   2.994  10.408 -1.4907  1.4530 -1.5296
 8395SOL     OW36820   2.692   1.439  12.635  0.1352  0.3367  0.0791
 8395SOL    HW136821   2.773   1.447  12.584 -0.5909  1.2604 -0.9272
 8395SOL    HW236822   2.710   1.426  12.728  3.1630  0.8504 -0.4449
 8396SOL     OW36823   2.388   2.349   7.210  1.0726 -0.1336  0.1231
 8396SOL    HW136824   2.339   2.390   7.139  1.4333  0.2362  0.0910
 8396SOL    HW236825   2.449   2.415   7.243  0.9311  1.3223 -2.5848
 8397SOL     OW36826   1.245   2.066   3.711 -0.2512 -0.1782  0.5516
 8397SOL    HW136827   1.308   2.041   3.643  1.5830 -0.4212  2.3380
 8397SOL    HW236828   1.166   2.061   3.658  1.3170 -1.1213 -1.6902
 8398SOL     OW36829   2.072   2.319   9.612 -0.8311  0.2507 -0.0400
 8398SOL    HW136830   2.146   2.305   9.552  1.0677  1.5517  2.0012
 8398SOL    HW236831   2.007   2.349   9.548 -1.2096  0.6174  0.5221
 8399SOL     OW36832   3.940   3.223  15.011 -0.1500 -0.8215  0.1003
 8399SOL    HW136833   3.937   3.198  15.104  0.2496 -3.3099 -0.5605
 8399SOL    HW236834   3.873   3.159  14.983  0.4513 -0.4315 -2.1954
 8400SOL     OW36835   0.837   3.910   0.030 -0.2992 -0.2723 -0.1304
 8400SOL    HW136836   0.918   3.893   0.079 -0.7209 -2.7927 -0.2863
 8400SOL    HW236837   0.777   3.850   0.074  0.1642  2.1704  3.7593
 8401SOL     OW36838   0.019   2.991   3.232  0.1019 -0.5910  0.2226
 8401SOL    HW136839   0.097   2.997   3.288 -1.4328 -0.1626  2.3267
 8401SOL    HW236840   4.712   2.912   3.263  3.4652 -2.5285  0.1287
 8402SOL     OW36841   0.955   3.180   6.208 -0.1543 -0.5046 -0.6662
 8402SOL    HW136842   0.980   3.090   6.185  0.4199 -0.4623 -0.2081
 8402SOL    HW236843   1.041   3.222   6.220 -0.5682  0.1351  0.0449
 8403SOL     OW36844   4.321   3.316   7.698 -0.3973  0.1298 -0.0119
 8403SOL    HW136845   4.360   3.254   7.636  1.4768  0.3967  0.9193
 8403SOL    HW236846   4.358   3.393   7.656 -0.0772 -0.3431 -0.6060
 8404SOL     OW36847   1.707   1.854   2.620  0.2944 -0.2244  0.3884
 8404SOL    HW136848   1.773   1.915   2.654  1.5749 -0.4743 -1.6383
 8404SOL    HW236849   1.653   1.917   2.574  1.2329 -0.4250 -1.0052
 8405SOL     OW36850   4.606   1.896   1.795 -0.0285  0.0339  0.0264
 8405SOL    HW136851   4.622   1.921   1.704  1.0970  0.3026  0.2933
 8405SOL    HW236852   4.515   1.923   1.810  0.1000  0.6652 -0.3000
 8406SOL     OW36853   2.573   2.344   4.396  0.2065 -0.0093  0.0915
 8406SOL    HW136854   2.592   2.251   4.408 -1.0170 -0.4555 -1.4938
 8406SOL    HW236855   2.545   2.377   4.482 -2.1520  1.4075 -1.2331
 8407SOL     OW36856   3.936   0.133   6.750  0.2146 -0.5682 -0.7584
 8407SOL    HW136857   3.846   0.163   6.736  0.2564  0.7456  1.8198
 8407SOL    HW236858   3.980   0.193   6.690  2.0071 -2.5016 -1.4052
 8408SOL     OW36859   2.045   1.671   1.586  0.7137  0.0816  0.0156
 8408SOL    HW136860   2.062   1.699   1.496 -1.7380  0.6859 -0.2556
 8408SOL    HW236861   2.036   1.576   1.580  2.1241  0.0496 -1.6598
 8409SOL     OW36862   0.180   3.652   2.230 -0.6650 -0.1184  0.2861
 8409SOL    HW136863   0.231   3.677   2.308 -2.1524  0.3998  1.0918
 8409SOL    HW236864   0.101   3.698   2.255 -1.0823 -1.9218  2.3563
 8410SOL     OW36865   1.440   1.275   3.586  0.1207 -0.0432  0.0870
 8410SOL    HW136866   1.365   1.304   3.637  1.5869  3.0935  0.4897
 8410SOL    HW236867   1.468   1.207   3.648  0.5129  0.8218  0.8673
 8411SOL     OW36868   1.630   3.726   1.748 -0.5741  0.2261  0.3015
 8411SOL    HW136869   1.629   3.646   1.802 -2.5647 -0.5306 -0.8613
 8411SOL    HW236870   1.695   3.704   1.682  0.8454  1.4151  1.3026
 8412SOL     OW36871   3.807   3.145   3.178 -0.3781  0.8368  0.1574
 8412SOL    HW136872   3.893   3.118   3.210 -0.6971 -0.3910 -0.0171
 8412SOL    HW236873   3.760   3.070   3.216 -1.8324  1.8117  0.2950
 8413SOL     OW36874   1.904   0.823  10.141  0.0802 -0.3007  0.0518
 8413SOL    HW136875   1.945   0.892  10.193 -1.0087  0.8861 -0.6557
 8413SOL    HW236876   1.907   0.848  10.049 -2.9335 -0.2656 -0.0496
 8414SOL     OW36877   0.873   0.950   3.583  0.3942 -0.3553 -0.4003
 8414SOL    HW136878   0.791   0.907   3.606  1.0831 -1.7220 -0.4930
 8414SOL    HW236879   0.931   0.874   3.585  0.2619 -0.4539 -0.3669
 8415SOL     OW36880   1.655   2.511   4.200  0.5784  0.7369  0.4689
 8415SOL    HW136881   1.578   2.568   4.202  1.0796  1.4965 -1.1566
 8415SOL    HW236882   1.654   2.463   4.282 -0.3650 -2.2352 -1.2752
 8416SOL     OW36883   1.039   3.682   4.877 -0.3322  0.5482 -0.8144
 8416SOL    HW136884   0.987   3.615   4.833 -1.8983  1.8419 -0.9496
 8416SOL    HW236885   0.974   3.726   4.933 -1.1021  0.5335 -1.6832
 8417SOL     OW36886   3.224   0.833   9.258  0.0764 -0.5433  0.3499
 8417SOL    HW136887   3.271   0.914   9.237 -0.6512 -0.3805 -0.6554
 8417SOL    HW236888   3.256   0.773   9.191 -1.1186 -1.6198  0.7641
 8418SOL     OW36889   3.137   1.836  13.032  0.7392 -0.4866 -0.3391
 8418SOL    HW136890   3.067   1.779  13.063  0.1530  0.2633 -0.3162
 8418SOL    HW236891   3.198   1.828  13.105  0.5345 -1.0180 -0.2268
 8419SOL     OW36892   1.978   0.134   3.525  0.1028 -0.7480  0.2911
 8419SOL    HW136893   1.978   0.127   3.430 -0.7351  0.6262  0.1921
 8419SOL    HW236894   1.948   0.045   3.547  0.7201 -1.0674 -0.1526
 8420SOL     OW36895   4.562   3.947   1.413  0.0013  0.2196  0.1235
 8420SOL    HW136896   4.603   3.910   1.334 -0.5217  0.7812 -0.4161
 8420SOL    HW236897   4.554   4.039   1.385  3.0048  0.6012  0.4898
 8421SOL     OW36898   4.675   1.508   3.134  0.4404 -0.0968 -0.2486
 8421SOL    HW136899   4.585   1.497   3.102  0.9306 -2.0456 -0.9608
 8421SOL    HW236900   4.668   1.581   3.195 -1.2794  0.4456 -1.0923
 8422SOL     OW36901   1.169   1.928   7.446  0.3793 -0.0296  0.2085
 8422SOL    HW136902   1.214   1.963   7.523  0.2817 -2.7157  1.4669
 8422SOL    HW236903   1.231   1.856   7.433  1.5746  0.6732  1.9205
 8423SOL     OW36904   2.976   3.881   4.779  0.1038 -0.1711 -0.0324
 8423SOL    HW136905   2.987   3.960   4.832  2.2666 -1.3250  1.2728
 8423SOL    HW236906   2.967   3.811   4.843 -0.5524  0.9150  1.0723
 8424SOL     OW36907   1.976   3.010  10.692  0.4812  0.0237 -0.2847
 8424SOL    HW136908   1.881   3.003  10.706  0.4351  0.9892 -0.1550
 8424SOL    HW236909   1.990   3.094  10.735  0.9489 -0.7236  1.0142
 8425SOL     OW36910   0.462   3.451   6.473 -0.2587  0.1083 -0.5560
 8425SOL    HW136911   0.460   3.377   6.535  5.3542  1.1700  0.9245
 8425SOL    HW236912   0.367   3.444   6.461 -0.2869  0.5445 -0.5739
 8426SOL     OW36913   1.436   2.689   6.586 -0.4437 -0.7632  0.4407
 8426SOL    HW136914   1.458   2.695   6.493  0.5110 -1.1761  0.6377
 8426SOL    HW236915   1.519   2.710   6.628  0.7527 -2.0512 -1.2814
 8427SOL     OW36916   4.438   0.670   3.457  0.0325 -0.0597  0.0196
 8427SOL    HW136917   4.483   0.662   3.541  0.9515  0.5057 -0.4194
 8427SOL    HW236918   4.345   0.681   3.478 -0.0333  0.3846 -0.4945
 8428SOL     OW36919   0.852   1.339  14.765  0.1683  0.2753 -0.4689
 8428SOL    HW136920   0.947   1.347  14.755  0.4059 -2.4485 -0.3865
 8428SOL    HW236921   0.832   1.246  14.767 -1.5590  0.6381 -0.6626
 8429SOL     OW36922   4.634   2.262   3.655  0.1481  0.3632 -0.0842
 8429SOL    HW136923   4.695   2.240   3.726 -0.6279 -1.0782  0.1469
 8429SOL    HW236924   4.685   2.230   3.580 -0.9179  0.3735 -0.8090
 8430SOL     OW36925   4.166   3.160  16.716  0.5464 -0.2478  0.4841
 8430SOL    HW136926   4.081   3.200  16.733  0.4076 -0.1898 -0.3638
 8430SOL    HW236927   4.143   3.101  16.645  1.0189  1.2332 -0.8990
 8431SOL     OW36928   1.253   0.507   4.668 -0.5265  0.5620  0.1434
 8431SOL    HW136929   1.183   0.488   4.730  0.0892 -0.7827  0.4340
 8431SOL    HW236930   1.245   0.428   4.615 -0.0859 -0.0778  1.0259
 8432SOL     OW36931   1.217   2.398   8.418  0.0500  0.1394  0.6260
 8432SOL    HW136932   1.131   2.370   8.447 -1.2201  3.0462 -0.2980
 8432SOL    HW236933   1.266   2.373   8.496 -0.5365  2.9575  1.9220
 8433SOL     OW36934   2.135   1.711   1.841  0.1702  0.2314  0.6837
 8433SOL    HW136935   2.128   1.723   1.747 -0.6209  1.3245  0.8790
 8433SOL    HW236936   2.077   1.635   1.852  0.2465 -0.1102 -1.3268
 8434SOL     OW36937   2.246   0.940  11.514 -0.5693  0.0382 -0.6024
 8434SOL    HW136938   2.235   1.002  11.587 -1.2295  0.6259 -1.2002
 8434SOL    HW236939   2.162   0.957  11.470 -1.7013  0.2794  1.6286
 8435SOL     OW36940   1.195   3.834   7.441 -0.5383 -0.1853 -0.0338
 8435SOL    HW136941   1.255   3.792   7.502  1.1471  0.2462 -1.3550
 8435SOL    HW236942   1.258   3.853   7.370  0.7330  0.2064  1.1944
 8436SOL     OW36943   2.555   3.639   2.146  0.3170 -0.6072 -0.0225
 8436SOL    HW136944   2.463   3.662   2.132  1.0837  0.6403 -3.0680
 8436SOL    HW236945   2.587   3.680   2.065 -1.1968 -0.3890 -0.5048
 8437SOL     OW36946   2.116   2.980  10.463 -0.1423  0.1775  0.0977
 8437SOL    HW136947   2.125   2.885  10.464  1.7349  0.3527  0.4288
 8437SOL    HW236948   2.074   2.986  10.549  0.1873 -0.0864  0.2760
 8438SOL     OW36949   4.321   0.262  12.527 -0.0683  0.4207 -0.3430
 8438SOL    HW136950   4.319   0.166  12.529 -2.2947  0.4938  1.0569
 8438SOL    HW236951   4.341   0.275  12.434  2.9598  0.2502  0.2865
 8439SOL     OW36952   2.260   2.064   2.420  0.1365 -0.2986  0.4744
 8439SOL    HW136953   2.312   2.138   2.452  0.0039  1.2366 -2.8880
 8439SOL    HW236954   2.326   1.995   2.427  0.2424 -0.5110 -2.7549
 8440SOL     OW36955   2.586   2.809   9.883  0.0121  0.0742 -0.2375
 8440SOL    HW136956   2.533   2.805   9.804  1.3064 -0.2199 -1.1068
 8440SOL    HW236957   2.674   2.829   9.850 -0.3529  1.7011 -0.2281
 8441SOL     OW36958   2.721   3.286   3.933  0.3145 -0.0442  0.3235
 8441SOL    HW136959   2.812   3.298   3.903 -0.3347  1.1741 -1.1886
 8441SOL    HW236960   2.708   3.197   3.900  0.0452  1.4182 -3.5224
 8442SOL     OW36961   3.464   2.134   2.455 -0.2346 -0.1085  0.4440
 8442SOL    HW136962   3.402   2.076   2.412 -2.8909  3.4453 -0.5204
 8442SOL    HW236963   3.541   2.085   2.483  0.3112 -0.4116 -1.6395
 8443SOL     OW36964   2.968   3.946  12.631  0.0880 -0.1662 -0.3530
 8443SOL    HW136965   3.049   3.962  12.582  0.7590  3.7637  2.0301
 8443SOL    HW236966   2.940   3.859  12.604 -0.5578 -0.0948  0.0863
 8444SOL     OW36967   2.349   4.047  16.264  0.0603 -0.1509 -0.0350
 8444SOL    HW136968   2.397   4.128  16.278 -0.3792  0.2365 -0.7585
 8444SOL    HW236969   2.262   4.077  16.289 -0.0538  2.6186 -3.6598
 8445SOL     OW36970   3.884   3.170   2.384 -0.1484  0.2728  0.2541
 8445SOL    HW136971   3.816   3.184   2.450  0.5476  0.1889  0.9835
 8445SOL    HW236972   3.848   3.126   2.307 -0.3201  0.9493 -0.0492
 8446SOL     OW36973   2.679   1.019   3.784  0.1284  0.5677 -0.0039
 8446SOL    HW136974   2.697   1.046   3.694  2.3436 -0.4250  0.1305
 8446SOL    HW236975   2.653   0.928   3.770 -0.8746  0.6807  1.0816
 8447SOL     OW36976   1.859   0.472   1.561  0.2855 -0.3530  0.3061
 8447SOL    HW136977   1.910   0.402   1.601  0.5177 -0.2380  0.2120
 8447SOL    HW236978   1.927   0.524   1.518  0.8623 -0.4107  1.1457
 8448SOL     OW36979   2.437   1.532   1.731 -0.1499 -0.6282  0.4446
 8448SOL    HW136980   2.428   1.617   1.687 -0.5916 -0.0310  1.7014
 8448SOL    HW236981   2.493   1.570   1.799 -1.4452  0.3173  0.9804
 8449SOL     OW36982   0.194   1.209   6.084  0.1050  0.3033  0.4644
 8449SOL    HW136983   0.199   1.237   5.993  0.3061  1.1709  0.7512
 8449SOL    HW236984   0.169   1.282   6.140  0.4354 -0.9667  2.2839
 8450SOL     OW36985   2.662   0.172   6.703  0.2814  0.1700 -0.2274
 8450SOL    HW136986   2.597   0.152   6.636 -0.7682 -0.4752  0.9804
 8450SOL    HW236987   2.657   0.096   6.762  2.8669 -0.7192 -1.1745
 8451SOL     OW36988   1.780   2.853   7.597  0.2335 -0.1180 -0.1683
 8451SOL    HW136989   1.761   2.936   7.554  0.8681  1.0584  1.8076
 8451SOL    HW236990   1.745   2.789   7.536  1.0759 -1.8340  1.1539
 8452SOL     OW36991   2.502   0.970   9.753 -0.3290 -0.3105  0.1686
 8452SOL    HW136992   2.421   0.964   9.703 -0.9087  1.0571  0.9575
 8452SOL    HW236993   2.543   0.883   9.746 -0.7885 -0.5529  0.4922
 8453SOL     OW36994   4.316   3.706   8.592 -0.2597 -0.0471  0.5672
 8453SOL    HW136995   4.349   3.788   8.556 -2.6335 -0.1517 -1.9236
 8453SOL    HW236996   4.386   3.649   8.560  1.0584  1.1864  1.3284
 8454SOL     OW36997   1.475   0.704   8.528 -0.2245 -0.1763 -0.0374
 8454SOL    HW136998   1.390   0.686   8.487  0.8472 -1.3748 -1.7647
 8454SOL    HW236999   1.465   0.799   8.525  0.8992 -0.0534  0.2068
 8455SOL     OW37000   2.285   3.817   3.236 -0.4869 -0.5861  0.2612
 8455SOL    HW137001   2.338   3.738   3.246 -2.7151 -2.1470 -0.4061
 8455SOL    HW237002   2.207   3.781   3.277  0.0208 -1.5451  0.3797
 8456SOL     OW37003   4.635   2.382   2.134  0.5880  0.5788  0.2507
 8456SOL    HW137004   4.559   2.362   2.188  1.2629  1.2918  1.4776
 8456SOL    HW237005   4.593   2.402   2.050  0.1042 -1.6509 -0.0187
 8457SOL     OW37006   3.638   4.710   1.441  1.0734  0.3099  0.3184
 8457SOL    HW137007   3.603   4.671   1.361  4.2429 -0.7896 -0.5025
 8457SOL    HW237008   3.683   0.050   1.406  1.0526  0.1902  0.0249
 8458SOL     OW37009   3.273   4.146  13.160  0.0094 -0.2711  0.4727
 8458SOL    HW137010   3.187   4.162  13.122 -1.5804 -1.0750  3.6844
 8458SOL    HW237011   3.319   4.230  13.157 -1.3581  0.4803  0.8138
 8459SOL     OW37012   3.608   3.593   2.405 -0.4596  0.5439 -0.1716
 8459SOL    HW137013   3.658   3.662   2.362 -0.0625  1.0113  1.0155
 8459SOL    HW237014   3.599   3.634   2.491  0.1070  1.3609 -0.5045
 8460SOL     OW37015   1.968   1.557   7.068 -0.1477  0.2799 -0.1239
 8460SOL    HW137016   1.880   1.533   7.037  0.9304 -0.7616 -2.3861
 8460SOL    HW237017   1.961   1.644   7.030 -0.3563  0.4208  0.2447
 8461SOL     OW37018   3.548   3.960   0.914 -0.1632  0.1219  0.3703
 8461SOL    HW137019   3.582   3.959   1.003  1.3078  0.4714 -0.1976
 8461SOL    HW237020   3.624   4.003   0.875 -0.1125 -0.4596 -0.1723
 8462SOL     OW37021   3.913   0.168   5.838  0.3745  0.2010 -0.2418
 8462SOL    HW137022   3.852   0.188   5.767  1.6912  0.1434 -1.3848
 8462SOL    HW237023   3.972   0.242   5.850  2.8500 -1.5023 -2.1687
 8463SOL     OW37024   1.145   2.292   6.583 -0.2446  0.1626  0.3902
 8463SOL    HW137025   1.076   2.313   6.520  1.7067  3.0459 -0.7941
 8463SOL    HW237026   1.172   2.207   6.547  1.0183  0.6877  0.1102
 8464SOL     OW37027   2.057   4.716   7.590  0.2970 -0.2383  0.0211
 8464SOL    HW137028   2.146   0.013   7.596  0.1170  0.4028 -0.9549
 8464SOL    HW237029   2.014   0.019   7.515 -0.4055  0.3117  0.7080
 8465SOL     OW37030   2.057   4.178   5.014 -0.5256  0.0089  0.3036
 8465SOL    HW137031   2.024   4.265   4.993  0.0561  0.5579  1.7021
 8465SOL    HW237032   2.021   4.130   4.939  1.4298 -0.9413 -0.0161
 8466SOL     OW37033   0.519   1.185  12.076 -0.0602  0.4741 -0.6471
 8466SOL    HW137034   0.468   1.216  12.151 -0.1340  3.7360 -2.0273
 8466SOL    HW237035   0.456   1.128  12.032 -0.8595 -0.0257  1.1740
 8467SOL     OW37036   3.442   3.024   3.669 -0.5436  0.3417 -0.1220
 8467SOL    HW137037   3.461   3.020   3.575 -0.1147 -0.7501  0.0128
 8467SOL    HW237038   3.448   2.932   3.696  0.0364 -0.1646 -1.9421
 8468SOL     OW37039   3.614   1.270   0.596  0.0633 -0.2089 -0.3682
 8468SOL    HW137040   3.585   1.357   0.624 -1.7988 -0.2221 -2.2411
 8468SOL    HW237041   3.704   1.295   0.616 -0.3154  0.7084  0.2006
 8469SOL     OW37042   2.845   0.560   4.038  0.1013  0.1182 -0.0541
 8469SOL    HW137043   2.783   0.541   4.109 -0.2655  0.3233 -0.3156
 8469SOL    HW237044   2.921   0.599   4.080 -0.7991  1.0481  0.7029
 8470SOL     OW37045   0.139   4.638   7.371  0.5985  0.8067 -0.4272
 8470SOL    HW137046   0.132   4.554   7.417  2.0835  0.9441  0.0664
 8470SOL    HW237047   0.110   4.691   7.445  1.0387  0.1941  0.1865
 8471SOL     OW37048   0.485   1.343  15.774  0.2108 -0.3376 -0.0463
 8471SOL    HW137049   0.557   1.403  15.751 -1.9857  1.9501 -0.9517
 8471SOL    HW237050   0.408   1.376  15.729 -0.3736 -0.5635  0.7875
 8472SOL     OW37051   0.364   2.555   4.856 -0.4208 -0.1134 -0.4967
 8472SOL    HW137052   0.425   2.625   4.831  0.8373 -0.8015  0.6022
 8472SOL    HW237053   0.408   2.524   4.936  1.3974  1.4217 -0.8983
 8473SOL     OW37054   4.562   3.510   2.016 -0.2480  0.2308  0.3452
 8473SOL    HW137055   4.539   3.422   2.046  2.9166 -0.6012  0.3634
 8473SOL    HW237056   4.545   3.488   1.925 -0.2935 -0.9395  0.6412
 8474SOL     OW37057   4.055   1.240   8.272  0.4935 -0.2928 -0.2294
 8474SOL    HW137058   4.026   1.227   8.182  0.6348  1.0532 -0.4749
 8474SOL    HW237059   4.145   1.269   8.254  1.1793 -1.4576  1.3735
 8475SOL     OW37060   3.801   1.407   2.993  0.1761  0.2065 -0.6882
 8475SOL    HW137061   3.778   1.429   3.083  2.7025  0.3212 -0.0760
 8475SOL    HW237062   3.717   1.429   2.952 -0.8262  0.3200  1.4267
 8476SOL     OW37063   4.204   1.913   5.034  0.3221  0.0567  0.2862
 8476SOL    HW137064   4.145   1.976   5.075 -0.2526 -1.1558  1.3136
 8476SOL    HW237065   4.246   1.867   5.106  1.4045  1.7267  0.7235
 8477SOL     OW37066   1.649   1.982   9.664  0.4790  0.1550 -0.6039
 8477SOL    HW137067   1.585   2.011   9.730  0.8819  0.0525 -0.1721
 8477SOL    HW237068   1.731   1.996   9.711 -0.4611 -1.5149  1.5088
 8478SOL     OW37069   3.796   0.433   5.759  0.4533  0.8752  0.0909
 8478SOL    HW137070   3.725   0.489   5.790  0.1006  0.2301  0.4537
 8478SOL    HW237071   3.858   0.503   5.738  0.5109  0.5785 -0.7095
 8479SOL     OW37072   1.145   2.989   6.858 -0.2281  0.7754  0.1240
 8479SOL    HW137073   1.227   2.947   6.833  0.2545  0.5455  2.0580
 8479SOL    HW237074   1.078   2.939   6.812  1.5064 -0.7812 -0.6871
 8480SOL     OW37075   3.682   1.741   8.780 -0.4076  0.2353  0.3125
 8480SOL    HW137076   3.659   1.695   8.860  0.9844  0.1568  0.6739
 8480SOL    HW237077   3.693   1.672   8.715 -0.5615  0.3798  0.1334
 8481SOL     OW37078   4.403   4.289   4.509 -0.1333  0.5831 -0.1059
 8481SOL    HW137079   4.417   4.382   4.525 -1.5298  0.9222 -0.8033
 8481SOL    HW237080   4.311   4.281   4.535 -0.4639  2.1972 -0.7432
 8482SOL     OW37081   1.499   3.107   5.960 -0.5725  0.2659  0.0221
 8482SOL    HW137082   1.408   3.135   5.951 -0.5342 -0.1303 -1.6739
 8482SOL    HW237083   1.541   3.177   5.910  0.1578  0.4221  0.8485
 8483SOL     OW37084   4.034   1.544  17.153  0.1872 -0.1443 -0.7972
 8483SOL    HW137085   4.089   1.471  17.125  0.9802  0.0953  0.1238
 8483SOL    HW237086   3.960   1.536  17.093 -1.0304  2.4111  0.3583
 8484SOL     OW37087   3.375   3.710  12.802  0.5782  0.0849  0.1524
 8484SOL    HW137088   3.315   3.673  12.866 -0.9740  1.5444 -0.4598
 8484SOL    HW237089   3.462   3.684  12.833  1.6788  3.9499  0.3250
 8485SOL     OW37090   0.223   4.454   4.327 -0.0374 -0.2815  0.0972
 8485SOL    HW137091   0.282   4.505   4.271  0.4367  0.1805  1.0253
 8485SOL    HW237092   0.249   4.476   4.416  2.1992  0.5733 -0.7862
 8486SOL     OW37093   0.482   0.360   2.359 -0.0910  0.4007 -0.1575
 8486SOL    HW137094   0.475   0.326   2.448  0.6477  0.8625  0.0721
 8486SOL    HW237095   0.530   0.442   2.373  1.8472 -0.5629 -1.0028
 8487SOL     OW37096   0.344   4.640   4.169 -0.3807  0.5270  0.0112
 8487SOL    HW137097   0.368   4.722   4.212 -2.8366  1.2737 -0.0373
 8487SOL    HW237098   0.405   4.626   4.096 -0.6104  1.5938 -0.3773
 8488SOL     OW37099   4.162   1.928  11.484 -0.0549 -0.2617 -0.1391
 8488SOL    HW137100   4.195   1.886  11.564 -0.3389 -1.6077 -0.7266
 8488SOL    HW237101   4.225   1.998  11.468 -0.7819 -0.1243 -2.4400
 8489SOL     OW37102   2.478   4.017   9.153  0.3427 -0.0418  0.5678
 8489SOL    HW137103   2.537   4.029   9.078  1.2813  1.2970  1.5153
 8489SOL    HW237104   2.427   3.945   9.117 -1.1383  1.0360  0.5126
 8490SOL     OW37105   1.665   3.966   2.736 -0.2935 -0.4601  0.6136
 8490SOL    HW137106   1.584   3.934   2.697 -0.8578 -0.5496  1.8504
 8490SOL    HW237107   1.732   3.958   2.668 -0.6595  2.3444 -0.0578
 8491SOL     OW37108   1.847   0.176   6.421  0.4250  0.2844  0.9628
 8491SOL    HW137109   1.938   0.205   6.412  1.0970 -1.6526  1.5072
 8491SOL    HW237110   1.798   0.230   6.359 -1.4813 -2.9217 -0.3807
 8492SOL     OW37111   0.730   2.194   8.589  0.0387 -0.3548 -0.0186
 8492SOL    HW137112   0.720   2.289   8.597 -0.9630 -0.5500  1.0651
 8492SOL    HW237113   0.645   2.167   8.555 -0.5608  1.6232 -0.0948
 8493SOL     OW37114   1.039   2.834  15.980 -0.2026  0.0492 -0.1133
 8493SOL    HW137115   1.029   2.766  15.914  1.7329  2.6709 -3.0996
 8493SOL    HW237116   1.029   2.913  15.927  2.1082 -1.0469 -2.1446
 8494SOL     OW37117   3.717   4.389   7.244 -0.2712  0.1235 -0.3535
 8494SOL    HW137118   3.791   4.415   7.300 -1.7227  1.1190  1.0855
 8494SOL    HW237119   3.731   4.442   7.166 -0.8073  2.1453  0.9273
 8495SOL     OW37120   2.542   3.978   3.006  0.0015 -0.5506  0.2900
 8495SOL    HW137121   2.556   3.884   3.002 -0.9701 -0.6604 -0.5096
 8495SOL    HW237122   2.589   4.001   2.926  1.6722 -2.9832  0.6029
 8496SOL     OW37123   3.872   3.835   8.833 -0.2198  0.1550 -0.7710
 8496SOL    HW137124   3.938   3.802   8.772 -1.3700  1.6206 -2.8024
 8496SOL    HW237125   3.813   3.875   8.769 -0.7592  0.7880  0.1145
 8497SOL     OW37126   2.751   1.486   6.663  0.2586 -0.2795 -0.0264
 8497SOL    HW137127   2.777   1.547   6.733  2.5636 -0.2065 -0.9280
 8497SOL    HW237128   2.789   1.401   6.686  0.7554  0.1954  0.9471
 8498SOL     OW37129   0.241   2.400   3.371 -0.0176 -0.4270 -0.0272
 8498SOL    HW137130   0.242   2.464   3.442  0.2003 -0.6490  0.1693
 8498SOL    HW237131   0.330   2.421   3.343 -0.4010 -1.7022 -2.1586
 8499SOL     OW37132   3.405   1.326   8.516 -0.4844  0.1968  0.1192
 8499SOL    HW137133   3.423   1.241   8.555  0.0078  0.0212 -0.4794
 8499SOL    HW237134   3.309   1.326   8.516 -0.5035  3.3466 -1.4986
 8500SOL     OW37135   3.443   3.430   7.901 -0.1191 -0.7504 -0.0460
 8500SOL    HW137136   3.418   3.418   7.992 -0.4344  1.6376  0.1766
 8500SOL    HW237137   3.537   3.441   7.918 -0.5292 -0.1651  1.7853
 8501SOL     OW37138   3.453   3.670   6.923  0.4278  0.2795  0.6285
 8501SOL    HW137139   3.527   3.664   6.984  1.5934  0.5115 -0.7686
 8501SOL    HW237140   3.383   3.636   6.979  0.2501 -2.0735 -1.0219
 8502SOL     OW37141   1.802   0.519  13.732  0.5934 -0.1268  0.2425
 8502SOL    HW137142   1.856   0.539  13.808  1.1943 -4.8501  1.0351
 8502SOL    HW237143   1.857   0.463  13.677  1.0057 -0.0586  0.5857
 8503SOL     OW37144   3.395   3.987   5.951  0.5557 -0.2891  0.0128
 8503SOL    HW137145   3.325   3.950   6.005  1.8528  0.4949  2.2124
 8503SOL    HW237146   3.345   4.044   5.893 -0.6596  0.1216  1.4582
 8504SOL     OW37147   1.544   2.670  16.005  0.1718  0.1849  0.2372
 8504SOL    HW137148   1.451   2.673  15.983 -0.0332 -1.1961  0.8987
 8504SOL    HW237149   1.559   2.745  16.063  2.4177  1.1083 -1.5604
 8505SOL     OW37150   2.513   4.435   3.411  0.1302  0.2383 -0.5282
 8505SOL    HW137151   2.579   4.504   3.416 -0.1171  0.4278  0.1150
 8505SOL    HW237152   2.534   4.376   3.483 -0.7169  0.5756  0.0041
 8506SOL     OW37153   2.814   0.772   3.057 -0.0990 -0.1781 -0.6447
 8506SOL    HW137154   2.897   0.785   3.103 -0.1493 -0.5624 -0.4494
 8506SOL    HW237155   2.795   0.679   3.058  3.3007 -0.8491 -0.0407
 8507SOL     OW37156   1.752   2.810   0.264 -0.1468 -0.5459  0.3494
 8507SOL    HW137157   1.736   2.725   0.305 -1.2832  0.0241  1.0870
 8507SOL    HW237158   1.689   2.857   0.319  0.3979  0.3696  0.1965
 8508SOL     OW37159   2.828   2.379   7.701 -0.0246  0.8326 -0.3631
 8508SOL    HW137160   2.873   2.385   7.785  2.7095  0.0158 -1.7731
 8508SOL    HW237161   2.819   2.284   7.691 -1.5731  0.9715 -0.2877
 8509SOL     OW37162   1.212   3.908  11.535 -0.2330 -0.1635 -0.1894
 8509SOL    HW137163   1.160   3.833  11.563 -0.2645  0.1647  0.6347
 8509SOL    HW237164   1.297   3.867  11.550  0.1043  1.1650  1.5025
 8510SOL     OW37165   2.388   1.190   6.591 -0.1213 -0.2556 -0.1123
 8510SOL    HW137166   2.438   1.111   6.573 -1.5710 -1.3049  0.4804
 8510SOL    HW237167   2.358   1.179   6.681  0.6303 -0.2995  0.1382
 8511SOL     OW37168   2.102   2.388  12.862  0.2017 -0.1617 -0.6503
 8511SOL    HW137169   2.024   2.344  12.829  0.5725 -0.8886 -0.5587
 8511SOL    HW237170   2.151   2.390  12.780 -0.0365 -2.3336 -0.8573
 8512SOL     OW37171   0.831   0.750  16.858 -0.0919 -0.4129 -0.0989
 8512SOL    HW137172   0.755   0.700  16.887  0.2635 -2.4675 -2.7487
 8512SOL    HW237173   0.783   0.832  16.846  1.1895  0.5876  1.5272
 8513SOL     OW37174   2.131   1.069   8.457  0.1170 -0.1871 -0.3068
 8513SOL    HW137175   2.174   1.059   8.372  0.5934 -0.4458 -0.0383
 8513SOL    HW237176   2.211   1.077   8.509 -0.5308  0.4392  0.5736
 8514SOL     OW37177   2.598   2.706  12.368  0.3578  0.0854 -0.1441
 8514SOL    HW137178   2.562   2.715  12.456  1.1641 -1.6770  0.3615
 8514SOL    HW237179   2.545   2.767  12.316  1.2755  1.6404  0.7125
 8515SOL     OW37180   0.069   4.477   2.699 -0.6350 -0.1565 -0.2583
 8515SOL    HW137181   0.157   4.498   2.668  0.3835 -1.3361  1.8450
 8515SOL    HW237182   0.040   4.425   2.624 -0.9650 -1.7056  0.9476
 8516SOL     OW37183   3.498   4.595   1.242  0.2417  0.4236 -0.7814
 8516SOL    HW137184   3.430   4.636   1.295  1.2044 -1.4335  1.9055
 8516SOL    HW237185   3.482   4.646   1.163  1.2484  0.2195 -1.1213
 8517SOL     OW37186   0.185   2.993   1.883 -0.0456 -0.1705  0.3238
 8517SOL    HW137187   0.101   2.991   1.929 -0.6118  2.0916 -0.5925
 8517SOL    HW237188   0.188   3.088   1.874  1.0364 -0.2845 -0.4455
 8518SOL     OW37189   3.041   1.417   4.064  0.1734 -0.5269  0.5626
 8518SOL    HW137190   3.080   1.504   4.057 -0.9371  0.1320  2.6358
 8518SOL    HW237191   3.110   1.363   4.104  1.4433  0.8308  0.2204
 8519SOL     OW37192   3.510   4.488   6.234  0.2404  0.0626  0.3505
 8519SOL    HW137193   3.533   4.472   6.143 -2.4953  2.3545 -0.7244
 8519SOL    HW237194   3.455   4.411   6.249  1.5692 -0.9025  0.2994
 8520SOL     OW37195   1.155   3.171  16.204  0.0255 -0.5394  0.4644
 8520SOL    HW137196   1.059   3.169  16.199  0.1640 -1.6458 -1.9047
 8520SOL    HW237197   1.158   3.267  16.203 -0.3094 -0.5626 -2.4068
 8521SOL     OW37198   1.540   3.423   6.854  0.8235  0.4529 -0.0209
 8521SOL    HW137199   1.612   3.473   6.894  0.4588  0.0753  1.1064
 8521SOL    HW237200   1.540   3.339   6.901 -0.6053 -0.1425 -1.0879
 8522SOL     OW37201   3.805   0.979  15.259 -0.1275  0.3655 -0.1291
 8522SOL    HW137202   3.743   1.021  15.319  1.7622 -0.4054  2.3452
 8522SOL    HW237203   3.863   0.929  15.315 -1.0803 -1.8695 -1.1377
 8523SOL     OW37204   0.901   4.200  12.760  0.5778 -0.1613  0.0188
 8523SOL    HW137205   0.884   4.174  12.850 -2.9563 -1.2453 -0.9456
 8523SOL    HW237206   0.852   4.280  12.741 -1.4042 -1.0706  1.2179
 8524SOL     OW37207   2.984   4.299   7.426  0.1118 -0.0840 -0.1759
 8524SOL    HW137208   2.931   4.359   7.479 -2.0691  1.1149 -3.7199
 8524SOL    HW237209   2.964   4.215   7.469 -0.0354 -0.9914 -2.0114
 8525SOL     OW37210   0.408   1.218  14.401 -0.3534 -0.2747  0.2562
 8525SOL    HW137211   0.392   1.166  14.323 -0.8511  0.9893 -0.4770
 8525SOL    HW237212   0.357   1.169  14.466 -0.0835  0.5123  1.0551
 8526SOL     OW37213   4.616   2.369   1.444  0.0492  0.0703  0.1358
 8526SOL    HW137214   4.524   2.393   1.439  0.7487  2.8726  1.0168
 8526SOL    HW237215   4.658   2.443   1.486  2.2719 -2.1341  1.8051
 8527SOL     OW37216   1.525   2.255   0.312  0.5673  0.1960  0.2921
 8527SOL    HW137217   1.463   2.256   0.385  0.0396  2.3576 -0.1818
 8527SOL    HW237218   1.601   2.237   0.367 -0.0104 -0.2343  0.9521
 8528SOL     OW37219   3.570   1.886   6.204  0.6051  0.2653 -0.5505
 8528SOL    HW137220   3.659   1.920   6.216  0.2240  0.2508  2.2885
 8528SOL    HW237221   3.512   1.959   6.183 -1.1471 -0.5317  1.4537
 8529SOL     OW37222   1.435   3.334  11.285 -0.8984  0.2198  0.4692
 8529SOL    HW137223   1.354   3.288  11.307 -0.6952 -1.2873 -1.9327
 8529SOL    HW237224   1.495   3.290  11.344  1.6484 -1.1142 -3.1398
 8530SOL     OW37225   0.189   3.169   8.366 -0.0445 -0.2135 -0.3224
 8530SOL    HW137226   0.191   3.099   8.300  2.3455 -0.7305  0.2671
 8530SOL    HW237227   0.162   3.250   8.323 -0.6869  0.1027  0.6781
 8531SOL     OW37228   2.600   3.131  11.109  0.4596  0.3337  0.1328
 8531SOL    HW137229   2.642   3.120  11.194  0.3618 -0.3365  0.0917
 8531SOL    HW237230   2.624   3.220  11.084 -2.5776  1.4949  1.3226
 8532SOL     OW37231   2.898   3.633  11.120 -0.3655  0.1281  0.4871
 8532SOL    HW137232   2.856   3.591  11.195 -2.6242 -0.1243 -0.9482
 8532SOL    HW237233   2.855   3.587  11.048 -0.2984 -0.5555  0.8779
 8533SOL     OW37234   2.067   1.862   8.997 -0.1304 -0.1437 -0.3374
 8533SOL    HW137235   2.158   1.871   8.969 -0.1656  0.3198 -0.2978
 8533SOL    HW237236   2.030   1.925   8.935 -1.0199 -1.6863 -1.3934
 8534SOL     OW37237   3.623   4.691  10.998  0.6021  0.2286  0.6758
 8534SOL    HW137238   3.712   4.663  10.973 -0.1040 -0.9119 -0.5715
 8534SOL    HW237239   3.638   0.043  11.027  0.4145  0.5981 -0.3485
 8535SOL     OW37240   4.687   1.290  11.310  0.2100 -0.0321 -0.1308
 8535SOL    HW137241   0.003   1.345  11.366 -1.2345  0.3501  0.8849
 8535SOL    HW237242   0.017   1.227  11.286  0.9241  0.2571  1.1725
 8536SOL     OW37243   0.828   2.916   1.896  0.3932  0.2649 -0.0338
 8536SOL    HW137244   0.915   2.898   1.859  0.2782 -2.2887  0.9898
 8536SOL    HW237245   0.829   3.012   1.887  0.9238  0.2701  0.0368
 8537SOL     OW37246   3.688   2.300   8.632 -0.1386 -0.2047 -0.6471
 8537SOL    HW137247   3.684   2.363   8.560 -0.3256 -0.5302 -0.9223
 8537SOL    HW237248   3.751   2.234   8.601  0.4453  0.1817 -0.2809
 8538SOL     OW37249   2.864   3.872   5.486  0.1475 -1.1994 -0.5238
 8538SOL    HW137250   2.838   3.904   5.400 -1.3108  0.1787  0.4240
 8538SOL    HW237251   2.786   3.882   5.541 -0.2187 -1.6424 -0.9742
 8539SOL     OW37252   1.074   0.898   7.545 -0.2714  0.2238 -0.0116
 8539SOL    HW137253   1.083   0.807   7.514 -0.1402 -0.0376  0.7978
 8539SOL    HW237254   1.162   0.933   7.531 -0.1369 -0.2388 -0.3288
 8540SOL     OW37255   1.736   4.313   4.560  0.2207  0.2429 -0.2090
 8540SOL    HW137256   1.722   4.380   4.493  1.6542  0.7373  0.0032
 8540SOL    HW237257   1.673   4.348   4.624 -0.4454 -0.6802 -0.3595
 8541SOL     OW37258   0.528   4.554   7.913  0.2137 -0.4052  0.3294
 8541SOL    HW137259   0.551   4.639   7.952  0.2162 -0.7877  1.1707
 8541SOL    HW237260   0.573   4.566   7.829  2.4667 -1.3928  1.3927
 8542SOL     OW37261   4.641   0.820   8.046  0.2815  0.6625  0.2718
 8542SOL    HW137262   4.667   0.907   8.075  1.3967  0.5757 -0.4628
 8542SOL    HW237263   4.724   0.776   8.029  0.3350  0.7550  0.2909
 8543SOL     OW37264   0.804   1.216   5.732  0.1977 -0.2447  0.2524
 8543SOL    HW137265   0.850   1.133   5.747 -0.4708 -1.5042 -4.8150
 8543SOL    HW237266   0.870   1.284   5.744 -0.9253  1.0328 -0.8840
 8544SOL     OW37267   3.249   2.649   7.114  0.0578  0.0566  0.1458
 8544SOL    HW137268   3.207   2.688   7.190  0.0237 -0.1442  0.2303
 8544SOL    HW237269   3.316   2.602   7.163  1.2473  2.1892  0.5647
 8545SOL     OW37270   2.496   0.657  14.436 -0.3721  0.1494  0.2940
 8545SOL    HW137271   2.579   0.694  14.408  0.2129 -1.1895  0.2714
 8545SOL    HW237272   2.450   0.741  14.446  0.0061  0.0569  2.7198
 8546SOL     OW37273   3.253   1.758   9.411  0.1889  0.2045 -0.4864
 8546SOL    HW137274   3.237   1.827   9.476 -0.7356 -0.2335 -0.2536
 8546SOL    HW237275   3.303   1.812   9.350 -0.8686  1.7269 -0.0064
 8547SOL     OW37276   0.555   2.018   7.924  0.2180  0.3791 -0.0912
 8547SOL    HW137277   0.562   2.031   7.829  0.3589  0.9081 -0.0055
 8547SOL    HW237278   0.631   2.069   7.950 -1.5113  2.4486  0.9510
 8548SOL     OW37279   2.326   0.716  11.391 -0.0225 -0.2233 -0.5157
 8548SOL    HW137280   2.411   0.757  11.380 -1.5426  3.5694  1.5949
 8548SOL    HW237281   2.288   0.788  11.442  0.4175  1.0556 -2.0244
 8549SOL     OW37282   0.716   3.718  15.587  0.3699  0.5041 -0.0833
 8549SOL    HW137283   0.733   3.636  15.632  3.2299  0.9190 -0.4059
 8549SOL    HW237284   0.672   3.695  15.506  0.1131  0.7901 -0.0262
 8550SOL     OW37285   4.211   0.869   4.026  0.4618  0.2788 -0.4340
 8550SOL    HW137286   4.295   0.833   4.055 -0.6911 -1.2013  1.0677
 8550SOL    HW237287   4.159   0.789   4.020 -1.8672  1.6988  0.5597
 8551SOL     OW37288   1.186   0.071   9.037 -0.0939 -0.2858  0.4310
 8551SOL    HW137289   1.265   0.119   9.013 -1.2691  1.7383  0.5322
 8551SOL    HW237290   1.127   0.101   8.968  0.2854 -0.1008  0.1878
 8552SOL     OW37291   1.847   3.482  14.641  0.5344 -0.1590  0.0450
 8552SOL    HW137292   1.772   3.456  14.587  0.7972  0.4544 -0.6059
 8552SOL    HW237293   1.918   3.489  14.578  0.2862 -2.4962 -0.5051
 8553SOL     OW37294   1.774   2.815  12.035  0.2907 -0.3117 -0.1040
 8553SOL    HW137295   1.857   2.770  12.050  0.0739 -0.8649 -0.5650
 8553SOL    HW237296   1.780   2.887  12.098  1.2262  0.0169 -0.5637
 8554SOL     OW37297   3.552   3.284   9.018 -0.3421  0.0279  0.2127
 8554SOL    HW137298   3.521   3.230   8.945 -0.4272  1.8889 -1.1126
 8554SOL    HW237299   3.544   3.215   9.084 -0.1743 -1.5526 -1.3912
 8555SOL     OW37300   4.248   2.895  12.755  0.3170  0.3469 -0.4104
 8555SOL    HW137301   4.203   2.955  12.697 -0.9686  1.6729  1.9527
 8555SOL    HW237302   4.274   2.829  12.690 -2.2714 -0.6437 -0.4201
 8556SOL     OW37303   2.190   4.178  15.010 -0.2298 -0.0981  0.0467
 8556SOL    HW137304   2.212   4.262  14.969 -1.1027  0.2605  0.2990
 8556SOL    HW237305   2.110   4.210  15.052 -0.5273 -0.5536 -0.1840
 8557SOL     OW37306   1.320   3.619   1.962  0.0379 -0.0279 -0.1134
 8557SOL    HW137307   1.371   3.544   1.992  0.1838  0.0703 -0.1122
 8557SOL    HW237308   1.370   3.690   2.004 -2.0400  1.6047 -0.3820
 8558SOL     OW37309   0.425   2.649  14.481 -0.4857  0.5455 -0.4175
 8558SOL    HW137310   0.375   2.708  14.425  1.6317  0.8790 -1.9380
 8558SOL    HW237311   0.497   2.617  14.427  0.1806 -0.1236  0.8782
 8559SOL     OW37312   2.766   1.758   6.815  0.5798 -0.0431 -0.3841
 8559SOL    HW137313   2.745   1.795   6.900  1.4555  1.8756 -1.0051
 8559SOL    HW237314   2.744   1.832   6.759  0.6650 -0.2947 -0.7509
 8560SOL     OW37315   1.573   3.695   8.026  0.2158 -0.4996  0.2454
 8560SOL    HW137316   1.601   3.655   8.107 -0.4096  0.0179  0.7188
 8560SOL    HW237317   1.527   3.773   8.057 -0.5238 -0.6448 -0.4980
 8561SOL     OW37318   2.126   3.307   4.194  0.2236 -0.1258 -0.3910
 8561SOL    HW137319   2.154   3.316   4.285  0.4097  1.1209 -0.5755
 8561SOL    HW237320   2.033   3.326   4.208  0.0334 -0.7188 -0.8459
 8562SOL     OW37321   1.992   1.636  11.826 -0.1822 -0.0359 -0.0495
 8562SOL    HW137322   1.997   1.556  11.878 -1.8388 -0.2245 -0.1953
 8562SOL    HW237323   1.913   1.680  11.856 -0.0203 -0.1231  0.5008
 8563SOL     OW37324   3.027   1.614   2.049  0.2770 -0.2047 -0.0808
 8563SOL    HW137325   3.018   1.521   2.028 -1.4634  0.2716 -1.4504
 8563SOL    HW237326   3.032   1.649   1.960 -1.3369  1.8424  0.6417
 8564SOL     OW37327   2.539   3.361   8.323 -0.3571  0.0185  0.0624
 8564SOL    HW137328   2.616   3.410   8.294  0.5681 -0.0434  2.4330
 8564SOL    HW237329   2.564   3.343   8.413  0.8821 -0.8586 -0.4591
 8565SOL     OW37330   0.907   0.202   2.251  0.2747 -0.3105 -0.4813
 8565SOL    HW137331   0.921   0.297   2.254 -0.0450 -0.2560 -0.6537
 8565SOL    HW237332   0.837   0.189   2.187 -0.6412  1.1676  0.1966
 8566SOL     OW37333   2.061   1.012  10.328  0.8101 -0.6536  0.4286
 8566SOL    HW137334   2.148   1.005  10.368  0.2924 -0.7549  1.5296
 8566SOL    HW237335   2.063   1.099  10.288  0.8118 -1.1772 -0.7140
 8567SOL     OW37336   1.296   0.464   7.500  0.2359  0.2657  0.2892
 8567SOL    HW137337   1.302   0.401   7.572  1.7063 -2.0484 -1.8480
 8567SOL    HW237338   1.278   0.418   7.418  0.0107 -1.0387  1.0668
 8568SOL     OW37339   3.850   1.316   5.653  0.1185  0.0191  0.6502
 8568SOL    HW137340   3.906   1.288   5.726  0.3823  0.3073  0.5608
 8568SOL    HW237341   3.763   1.279   5.667  0.5083 -0.3066  2.3191
 8569SOL     OW37342   4.154   2.374   6.109 -0.2383  0.2812  0.0890
 8569SOL    HW137343   4.134   2.305   6.045  1.8221 -1.9855  1.8585
 8569SOL    HW237344   4.131   2.449   6.055  0.3825  1.1257  1.0072
 8570SOL     OW37345   0.655   1.392  16.452 -0.0283  0.1420  0.8013
 8570SOL    HW137346   0.680   1.454  16.383  2.1176 -2.3825 -0.6658
 8570SOL    HW237347   0.707   1.425  16.525  0.8019  1.1212 -0.2253
 8571SOL     OW37348   0.410   2.484   7.543 -0.0679 -0.5907  0.0742
 8571SOL    HW137349   0.441   2.467   7.632 -0.0382 -3.2607 -0.4550
 8571SOL    HW237350   0.497   2.498   7.505  0.2372 -1.9547  0.2780
 8572SOL     OW37351   2.190   2.715   6.209 -0.1750 -0.0369 -0.0584
 8572SOL    HW137352   2.229   2.759   6.133  1.7535 -0.5908  0.6112
 8572SOL    HW237353   2.155   2.791   6.254  0.3096  0.0464  0.1704
 8573SOL     OW37354   2.096   3.831  17.649  1.0581 -0.3190 -0.5789
 8573SOL    HW137355   2.127   3.915  17.616 -1.4274  1.2332  1.0355
 8573SOL    HW237356   2.005   3.861  17.653  1.5354  0.6134  4.1248
 8574SOL     OW37357   1.827   1.348   7.578 -0.3124 -0.4277  0.5520
 8574SOL    HW137358   1.828   1.423   7.518 -0.2895 -0.2689  0.7512
 8574SOL    HW237359   1.900   1.299   7.542  1.3729  3.0473 -0.7669
 8575SOL     OW37360   2.930   2.411   3.159 -0.4317 -0.2391  0.7789
 8575SOL    HW137361   2.873   2.465   3.213 -2.6629 -1.9124  0.1010
 8575SOL    HW237362   3.013   2.453   3.181 -0.4810 -0.6600  1.7688
 8576SOL     OW37363   2.311   3.226  11.673 -0.0638 -0.4532 -0.2107
 8576SOL    HW137364   2.356   3.234  11.589  0.4145 -1.5881 -0.0583
 8576SOL    HW237365   2.344   3.307  11.712  3.5756 -1.5427 -1.0277
 8577SOL     OW37366   4.172   3.365   4.940 -0.6249 -0.6018  0.0339
 8577SOL    HW137367   4.173   3.421   4.862 -3.5766 -1.5433 -0.7028
 8577SOL    HW237368   4.265   3.359   4.959 -0.3929 -0.6790 -1.1463
 8578SOL     OW37369   0.310   3.226  16.867 -0.1165  0.1515 -0.5201
 8578SOL    HW137370   0.277   3.137  16.878 -0.0560 -0.2221 -3.4377
 8578SOL    HW237371   0.340   3.242  16.957  0.8878  1.0579 -1.0133
 8579SOL     OW37372   0.657   3.172   9.179 -0.2573 -0.0703 -0.6111
 8579SOL    HW137373   0.672   3.174   9.274  1.0276 -3.0126 -0.7420
 8579SOL    HW237374   0.584   3.111   9.174  0.0318 -0.5624  1.1937
 8580SOL     OW37375   4.261   1.132   4.017  0.8964  0.1939 -0.4403
 8580SOL    HW137376   4.246   1.038   4.025  1.0244  0.0598 -1.8161
 8580SOL    HW237377   4.187   1.154   3.960  0.2966 -1.2916 -0.2153
 8581SOL     OW37378   1.703   1.470   7.062 -0.1242 -0.7178  0.5766
 8581SOL    HW137379   1.638   1.413   7.102 -0.6283  0.4342  1.4016
 8581SOL    HW237380   1.656   1.534   7.008  1.5745  0.6553  0.7106
 8582SOL     OW37381   3.386   3.486   6.322 -0.7242  0.1079 -0.2209
 8582SOL    HW137382   3.414   3.479   6.230 -1.2227 -0.9681 -0.2894
 8582SOL    HW237383   3.463   3.444   6.361 -0.3563 -0.9850 -2.1021
 8583SOL     OW37384   0.532   4.563  17.295  0.2421 -0.0764 -0.3243
 8583SOL    HW137385   0.472   4.488  17.296  0.4301 -0.2942 -2.8953
 8583SOL    HW237386   0.612   4.511  17.290 -0.6602 -1.6113  0.9355
 8584SOL     OW37387   4.010   1.567  13.112 -0.3459 -0.1618 -0.0732
 8584SOL    HW137388   3.951   1.604  13.178 -0.1427 -1.1485  0.6588
 8584SOL    HW237389   4.089   1.621  13.116  0.2279 -1.0484  0.6288
 8585SOL     OW37390   0.928   1.012   9.976 -0.2785  0.2044 -0.2505
 8585SOL    HW137391   0.931   1.083   9.913 -0.3184  1.6951  1.4219
 8585SOL    HW237392   0.835   0.988   9.973 -0.3665  0.7716 -1.7637
 8586SOL     OW37393   2.102   1.226   9.445  0.3359 -0.3118  0.3332
 8586SOL    HW137394   2.044   1.161   9.404 -1.6907  0.3783  2.0791
 8586SOL    HW237395   2.151   1.179   9.512  0.5394  1.0128  1.1229
 8587SOL     OW37396   2.439   2.703   7.021  0.0384 -0.6991  0.0970
 8587SOL    HW137397   2.412   2.621   6.980 -0.0123 -1.0215  0.7632
 8587SOL    HW237398   2.463   2.659   7.103  1.2987  3.4336  1.9152
 8588SOL     OW37399   0.478   2.724   7.306  0.2105 -0.6212 -0.1734
 8588SOL    HW137400   0.463   2.648   7.250  0.6043  0.8642 -2.2472
 8588SOL    HW237401   0.539   2.691   7.373 -0.2068  0.7568  0.8970
 8589SOL     OW37402   3.658   4.304  17.394  0.5460 -0.8843 -0.1302
 8589SOL    HW137403   3.702   4.269  17.471  0.5632 -1.8189 -0.5646
 8589SOL    HW237404   3.565   4.302  17.418  0.6665  0.2117  0.4629
 8590SOL     OW37405   4.175   0.964  12.469  0.2480  0.3567  0.4554
 8590SOL    HW137406   4.114   1.013  12.524 -1.1923  1.1717 -1.8460
 8590SOL    HW237407   4.234   0.925  12.534  2.8054 -1.0930 -2.7332
 8591SOL     OW37408   1.692   2.870   5.228  0.3569 -0.2124  0.1696
 8591SOL    HW137409   1.633   2.906   5.161  1.5373 -0.7001 -1.1262
 8591SOL    HW237410   1.635   2.823   5.290  1.3537  1.5954  2.4537
 8592SOL     OW37411   3.734   3.395   2.249 -0.1460  0.0062  0.2531
 8592SOL    HW137412   3.675   3.462   2.282 -0.0848  0.6248 -0.8838
 8592SOL    HW237413   3.771   3.366   2.333  0.4243  0.7090  0.2468
 8593SOL     OW37414   3.485   3.662  16.942  0.7371  0.2160  0.0777
 8593SOL    HW137415   3.449   3.750  16.941 -0.2939 -0.2079 -0.0012
 8593SOL    HW237416   3.412   3.600  16.950  1.8520 -0.9184  1.5335
 8594SOL     OW37417   4.393   4.441  16.368 -0.6126  0.3927 -0.4057
 8594SOL    HW137418   4.331   4.444  16.296 -0.0340  0.5211 -0.8953
 8594SOL    HW237419   4.461   4.507  16.355  2.3569 -2.0805  2.5209
 8595SOL     OW37420   1.964   0.562   4.877 -0.1143  0.3738  0.7963
 8595SOL    HW137421   1.941   0.611   4.798 -2.8124  0.2787  1.5095
 8595SOL    HW237422   1.888   0.581   4.932  0.8654  0.8193  1.9907
 8596SOL     OW37423   4.296   0.014   5.244 -0.4037 -0.5044 -0.3987
 8596SOL    HW137424   4.203   4.730   5.240 -0.3108 -1.7900  4.3118
 8596SOL    HW237425   4.312   0.025   5.150  0.8782  0.8602 -0.0101
 8597SOL     OW37426   1.617   2.596   5.638  0.4424 -0.5020  0.3091
 8597SOL    HW137427   1.575   2.681   5.627  0.3732 -0.4189  1.2122
 8597SOL    HW237428   1.615   2.560   5.550 -2.2026 -1.8518  0.9265
 8598SOL     OW37429   3.676   0.197  17.006  0.3453 -0.2486 -0.2257
 8598SOL    HW137430   3.597   0.174  17.055  0.3550 -0.5487 -0.3521
 8598SOL    HW237431   3.670   0.131  16.938  1.2433  1.2991 -1.8060
 8599SOL     OW37432   2.178   1.023  16.243 -0.1160  0.7399 -0.3868
 8599SOL    HW137433   2.149   0.968  16.316 -1.6493  1.5254 -0.4020
 8599SOL    HW237434   2.159   1.102  16.293  1.0771  0.6860  0.1280
 8600SOL     OW37435   0.922   1.256  10.836 -0.3839 -0.3022  0.4292
 8600SOL    HW137436   1.000   1.303  10.808 -0.2896  0.1841  1.5028
 8600SOL    HW237437   0.870   1.277  10.758  0.0425 -1.3988 -0.1352
 8601SOL     OW37438   4.038   3.574   7.885 -0.0532  0.0873 -0.5959
 8601SOL    HW137439   4.112   3.523   7.917 -1.6432 -1.6439  0.3118
 8601SOL    HW237440   3.964   3.549   7.939 -0.1630 -1.7086 -1.5945
 8602SOL     OW37441   2.552   3.868  14.886  0.3386  0.2045  0.5275
 8602SOL    HW137442   2.592   3.947  14.849 -2.0745  0.7221 -0.9951
 8602SOL    HW237443   2.459   3.889  14.889  0.5532  1.4262 -1.3508
 8603SOL     OW37444   0.782   4.197  16.947 -0.4076  0.2021 -0.0389
 8603SOL    HW137445   0.689   4.175  16.952  0.0427 -1.9970 -1.1294
 8603SOL    HW237446   0.813   4.155  17.027 -0.4602 -0.8166 -0.5476
 8604SOL     OW37447   1.203   2.156  10.749 -0.5500 -0.1837 -0.0603
 8604SOL    HW137448   1.193   2.075  10.699  2.4085 -0.5035 -0.1761
 8604SOL    HW237449   1.236   2.218  10.684  0.0566 -0.1522  0.2767
 8605SOL     OW37450   3.256   3.313   9.206  0.1539  0.6584 -0.5892
 8605SOL    HW137451   3.257   3.234   9.259  0.9631  0.7255 -0.5091
 8605SOL    HW237452   3.240   3.372   9.280 -0.7585  0.0978 -0.3305
 8606SOL     OW37453   3.177   4.569   3.994 -0.3205 -0.3308 -0.8619
 8606SOL    HW137454   3.198   4.487   3.949  3.0866  0.1887 -0.2561
 8606SOL    HW237455   3.244   4.564   4.062 -0.9721 -0.4197 -0.2344
 8607SOL     OW37456   1.599   0.203   0.845 -0.4804  0.1780  0.1279
 8607SOL    HW137457   1.625   0.156   0.925 -1.2284 -0.3367  0.0692
 8607SOL    HW237458   1.673   0.260   0.826 -1.1007  1.3060  1.0735
 8608SOL     OW37459   4.255   1.141   6.496 -0.9744  0.2918 -0.2880
 8608SOL    HW137460   4.244   1.236   6.490 -2.0469  0.1516 -0.5291
 8608SOL    HW237461   4.161   1.124   6.491 -0.7701 -0.5170 -1.4662
 8609SOL     OW37462   1.214   3.446   8.846 -0.2736 -0.2670 -0.3049
 8609SOL    HW137463   1.209   3.424   8.939 -1.3394  0.6785 -0.1383
 8609SOL    HW237464   1.163   3.372   8.812  0.9144 -1.4251  0.4479
 8610SOL     OW37465   2.320   2.168   7.397  0.1972  0.0520 -0.4030
 8610SOL    HW137466   2.353   2.221   7.325 -0.5843 -2.5330 -2.6595
 8610SOL    HW237467   2.323   2.241   7.459  2.5174  0.1666 -0.6457
 8611SOL     OW37468   1.907   1.978  13.264  0.3029 -0.1767  0.2291
 8611SOL    HW137469   1.830   2.034  13.277  1.5119  1.6517 -0.4790
 8611SOL    HW237470   1.882   1.937  13.181 -1.0966 -1.9931  1.5582
 8612SOL     OW37471   1.854   4.136   0.821  0.7554  0.1188  0.4831
 8612SOL    HW137472   1.811   4.092   0.895 -0.9252 -0.6380 -0.9361
 8612SOL    HW237473   1.789   4.132   0.751  1.2641 -1.3458  0.1070
 8613SOL     OW37474   0.556   1.383   7.849  0.0371  0.5762 -0.1486
 8613SOL    HW137475   0.619   1.331   7.898 -1.8418 -1.6963 -0.1972
 8613SOL    HW237476   0.515   1.317   7.794 -0.7246 -0.4565  1.6555
 8614SOL     OW37477   0.430   2.553   6.281 -0.2903 -0.0940 -0.2961
 8614SOL    HW137478   0.352   2.550   6.226 -0.4568  1.5238 -0.1480
 8614SOL    HW237479   0.413   2.472   6.329  4.3208  0.3484  2.1334
 8615SOL     OW37480   4.360   2.024   3.103 -0.7718  0.1400 -0.4920
 8615SOL    HW137481   4.424   1.953   3.090  0.8344  1.6489 -0.8946
 8615SOL    HW237482   4.290   1.970   3.139 -1.7920  0.4291 -2.0428
 8616SOL     OW37483   3.862   0.201   7.062  0.2405  0.0467 -0.3174
 8616SOL    HW137484   3.906   0.157   6.990  2.6196  0.2865  0.9834
 8616SOL    HW237485   3.917   0.278   7.079  1.3218 -0.4873 -1.4396
 8617SOL     OW37486   2.108   0.999   1.634 -0.2924  0.0926  0.6305
 8617SOL    HW137487   2.049   0.925   1.646 -0.0627 -0.1515  0.2476
 8617SOL    HW237488   2.062   1.045   1.563 -4.0942  0.4311  3.3238
 8618SOL     OW37489   4.109   3.623   1.353 -0.7281  0.4676 -0.7451
 8618SOL    HW137490   4.186   3.568   1.344  0.2555  1.3427  2.4758
 8618SOL    HW237491   4.043   3.554   1.341  1.3437 -1.6759  0.3596
 8619SOL     OW37492   1.886   2.971   6.737 -0.5125 -0.4573 -0.4223
 8619SOL    HW137493   1.797   3.002   6.717  0.2560  0.5219 -2.3278
 8619SOL    HW237494   1.930   3.044   6.693 -1.0775  0.8387  1.1555
 8620SOL     OW37495   2.981   2.397   2.714 -0.4426 -0.0492  0.1390
 8620SOL    HW137496   2.946   2.345   2.786  0.6990  0.0449  0.7670
 8620SOL    HW237497   2.919   2.470   2.710 -1.0560 -0.5926 -0.2422
 8621SOL     OW37498   2.965   4.557  13.784 -0.0214  0.6389  0.3940
 8621SOL    HW137499   2.955   4.650  13.807  1.9782  0.8992  0.2030
 8621SOL    HW237500   2.974   4.563  13.689  0.9503  0.5776  0.4802
 8622SOL     OW37501   1.943   4.125   8.284  0.3834 -0.2983  0.2623
 8622SOL    HW137502   1.990   4.043   8.272  0.6506 -0.1475  0.2844
 8622SOL    HW237503   1.943   4.167   8.198  0.1832  1.1483  0.9799
 8623SOL     OW37504   2.896   1.435   6.970 -0.9786 -1.1265  0.5209
 8623SOL    HW137505   2.822   1.391   7.012 -0.5521 -1.2984  1.0870
 8623SOL    HW237506   2.958   1.386   7.024 -0.2687 -0.7777  0.0179
 8624SOL     OW37507   3.833   1.338   4.732 -0.0849  0.3703  0.0937
 8624SOL    HW137508   3.771   1.322   4.661  0.6655  0.2497 -0.5395
 8624SOL    HW237509   3.898   1.269   4.718  0.6661  1.2543 -0.7969
 8625SOL     OW37510   2.235   1.824   7.479  0.1379 -0.2822  0.0150
 8625SOL    HW137511   2.321   1.851   7.511 -0.0102 -0.7984  0.8281
 8625SOL    HW237512   2.202   1.783   7.559 -1.5183  0.6640 -0.1860
 8626SOL     OW37513   1.446   3.580  11.971  0.0526  0.1853  0.0227
 8626SOL    HW137514   1.488   3.661  11.940 -1.3350  1.8106  2.3420
 8626SOL    HW237515   1.377   3.569  11.906 -0.7317 -0.2697  0.9317
 8627SOL     OW37516   0.614   0.338   1.032  0.4939 -0.4645  0.0921
 8627SOL    HW137517   0.683   0.403   1.045  0.3369 -0.1939 -0.4169
 8627SOL    HW237518   0.637   0.329   0.940  0.1795  1.7731 -0.1953
 8628SOL     OW37519   1.179   2.813   9.469 -0.5261  0.3908  0.0997
 8628SOL    HW137520   1.158   2.887   9.526  1.2007 -0.0862  1.3569
 8628SOL    HW237521   1.135   2.741   9.515 -0.3470  1.0747  1.3445
 8629SOL     OW37522   3.127   3.242   5.684 -0.6570  0.3011 -0.5721
 8629SOL    HW137523   3.179   3.295   5.623  0.2374  1.1850  0.9736
 8629SOL    HW237524   3.177   3.161   5.681  0.5507  1.0478 -0.5893
 8630SOL     OW37525   4.016   4.491   8.510 -0.2608  0.0261  0.1782
 8630SOL    HW137526   3.944   4.495   8.447 -0.9059  2.4305  1.0656
 8630SOL    HW237527   4.018   4.396   8.526  0.8798 -0.3012 -1.9635
 8631SOL     OW37528   4.281   1.749   3.448  0.1943 -0.3116 -0.0747
 8631SOL    HW137529   4.274   1.839   3.481 -0.4436  0.4504 -2.3062
 8631SOL    HW237530   4.213   1.754   3.382  0.6113 -1.7051 -0.6080
 8632SOL     OW37531   4.354   4.562  14.903  0.3524  0.6413 -0.4154
 8632SOL    HW137532   4.333   4.503  14.830 -0.4670 -1.1326  1.2543
 8632SOL    HW237533   4.363   4.645  14.856  0.7049  0.3899 -0.7925
 8633SOL     OW37534   3.581   0.354   3.128  0.4209 -0.1514  0.2802
 8633SOL    HW137535   3.556   0.446   3.137 -2.0523 -0.9702  1.8773
 8633SOL    HW237536   3.505   0.304   3.098 -0.5592  1.2323  0.4262
 8634SOL     OW37537   2.177   1.723  13.992 -0.0686  0.0938 -0.4869
 8634SOL    HW137538   2.266   1.722  13.956 -0.3365 -1.4991 -1.0893
 8634SOL    HW237539   2.141   1.781  13.925 -0.0801  1.1608  0.4367
 8635SOL     OW37540   0.477   3.558   8.194 -0.1583 -0.8714 -0.5487
 8635SOL    HW137541   0.454   3.548   8.287  0.7354 -1.1676 -0.3616
 8635SOL    HW237542   0.388   3.567   8.160 -0.7359 -0.7706  0.9613
 8636SOL     OW37543   2.745   0.817   5.585  0.1513 -0.8981 -0.0740
 8636SOL    HW137544   2.680   0.870   5.540  0.6138  1.0555  1.5602
 8636SOL    HW237545   2.689   0.743   5.605 -2.6810  1.2359 -0.0596
 8637SOL     OW37546   1.512   4.261   1.550 -0.3789 -0.3015 -0.0189
 8637SOL    HW137547   1.497   4.183   1.603  4.0971 -1.0667  0.0749
 8637SOL    HW237548   1.538   4.322   1.619 -1.2500  1.9173 -1.6481
 8638SOL     OW37549   1.882   3.842   9.377  0.3982 -0.2059 -0.3438
 8638SOL    HW137550   1.842   3.904   9.316  0.5951 -1.3719 -1.6682
 8638SOL    HW237551   1.911   3.780   9.309 -0.8856 -1.3685  0.1795
 8639SOL     OW37552   2.092   4.442   6.206  0.1876  0.0392 -0.1829
 8639SOL    HW137553   2.022   4.503   6.185 -0.9344 -0.2417  2.7293
 8639SOL    HW237554   2.134   4.453   6.121  0.8547  1.1348  0.2881
 8640SOL     OW37555   0.373   4.119   7.323 -0.1155 -0.4654 -0.0288
 8640SOL    HW137556   0.283   4.148   7.335 -1.0908 -2.4343 -2.5356
 8640SOL    HW237557   0.359   4.036   7.276  1.7374 -0.8854  0.1399
 8641SOL     OW37558   3.416   2.075   3.162 -0.6409 -0.0979 -0.0795
 8641SOL    HW137559   3.413   2.066   3.067  0.3276 -0.7675 -0.0537
 8641SOL    HW237560   3.510   2.094   3.170 -0.4202 -1.7107  1.0730
 8642SOL     OW37561   4.359   1.652   0.812  0.6263 -0.5664  0.3707
 8642SOL    HW137562   4.430   1.665   0.874 -0.1000  1.8055  0.6782
 8642SOL    HW237563   4.408   1.601   0.747 -2.0494  1.0048 -2.8649
 8643SOL     OW37564   3.979   0.331   3.630  0.0715 -0.2818 -0.1828
 8643SOL    HW137565   4.032   0.258   3.661  1.6543 -0.0198 -2.2174
 8643SOL    HW237566   4.023   0.410   3.662 -0.4164  0.2701 -0.8574
 8644SOL     OW37567   1.221   3.526  11.811 -0.3268 -0.5054  0.1346
 8644SOL    HW137568   1.128   3.549  11.809 -0.2148 -0.1920 -1.4507
 8644SOL    HW237569   1.225   3.431  11.821 -0.1094 -0.3968  1.1551
 8645SOL     OW37570   4.464   4.611   4.279 -0.0083 -0.4918 -0.3895
 8645SOL    HW137571   4.436   4.610   4.370  0.4642 -1.9959 -0.2604
 8645SOL    HW237572   4.560   4.609   4.283  0.0574  2.4626 -0.4602
 8646SOL     OW37573   0.104   4.386   8.272  0.5631 -0.0073 -0.6317
 8646SOL    HW137574   0.128   4.466   8.226  0.5109  0.8482  0.8207
 8646SOL    HW237575   0.009   4.377   8.260  0.0845  2.2191  1.3627
 8647SOL     OW37576   1.153   3.426   1.083  0.7127 -0.3273 -0.3816
 8647SOL    HW137577   1.230   3.372   1.104  1.0216 -0.3426 -1.5480
 8647SOL    HW237578   1.169   3.433   0.989 -1.3216 -1.6041 -0.8142
 8648SOL     OW37579   2.412   4.091   4.932  0.1562 -0.3310  0.1487
 8648SOL    HW137580   2.455   4.060   4.852  1.7166 -0.6697  1.1155
 8648SOL    HW237581   2.319   4.087   4.910  0.7273  1.1513 -2.5062
 8649SOL     OW37582   1.872   1.356   2.512  0.4064 -0.1941 -0.0895
 8649SOL    HW137583   1.783   1.349   2.476  0.4422 -2.2443  0.1700
 8649SOL    HW237584   1.864   1.436   2.563 -0.9744  0.4570 -1.3240
 8650SOL     OW37585   0.217   3.818   3.459  0.2760  0.2348 -0.2391
 8650SOL    HW137586   0.217   3.896   3.515 -0.6868 -1.4847  2.1796
 8650SOL    HW237587   0.178   3.747   3.511  1.2426 -0.4589 -0.4483
 8651SOL     OW37588   0.819   3.712   6.951  0.0943 -0.4840 -0.2383
 8651SOL    HW137589   0.729   3.736   6.977 -0.0176  1.1533 -2.1917
 8651SOL    HW237590   0.838   3.786   6.894 -0.9207  2.1638  2.8857
 8652SOL     OW37591   3.221   1.887   0.345 -0.0875  0.2611  0.2023
 8652SOL    HW137592   3.264   1.972   0.342 -0.5103  0.5752  3.7115
 8652SOL    HW237593   3.173   1.898   0.427 -2.6825 -0.0469 -1.3037
 8653SOL     OW37594   4.257   1.368   8.089 -0.2548  0.3432 -0.0548
 8653SOL    HW137595   4.322   1.436   8.111  0.4858 -1.2039  2.4842
 8653SOL    HW237596   4.311   1.290   8.079 -0.2695  0.2842  0.3619
 8654SOL     OW37597   3.900   2.431   4.198  0.1619 -0.5084  0.2707
 8654SOL    HW137598   3.841   2.458   4.269 -1.1960  0.1071 -1.0879
 8654SOL    HW237599   3.844   2.466   4.129  1.4487  0.6810 -0.1716
 8655SOL     OW37600   4.414   0.149   2.647  0.0367 -0.2572  0.1923
 8655SOL    HW137601   4.327   0.149   2.685 -0.1382 -2.0447 -0.2411
 8655SOL    HW237602   4.432   0.059   2.622  0.3749  0.2513 -1.4287
 8656SOL     OW37603   1.074   1.986  13.025 -0.0896  0.0758 -0.1943
 8656SOL    HW137604   1.005   2.046  12.994 -0.7274 -1.1013 -1.0449
 8656SOL    HW237605   1.155   2.029  12.997 -0.7951  0.5889 -1.4610
 8657SOL     OW37606   3.072   0.679   5.291 -0.5449  1.0444 -0.5272
 8657SOL    HW137607   2.999   0.670   5.230 -0.0389  0.0834 -1.0094
 8657SOL    HW237608   3.043   0.726   5.369 -2.9444 -2.1379  0.5143
 8658SOL     OW37609   2.834   2.816   3.034 -0.0238 -0.2799  0.1302
 8658SOL    HW137610   2.791   2.731   3.044  2.0696 -1.2418  0.8697
 8658SOL    HW237611   2.893   2.814   3.109  1.1611 -3.0156 -0.8891
 8659SOL     OW37612   3.284   3.049   6.037 -0.2906 -0.4493  0.1594
 8659SOL    HW137613   3.284   3.032   6.131 -0.0544 -0.2904  0.1876
 8659SOL    HW237614   3.296   3.143   6.023  0.0549 -0.2846  1.5919
 8660SOL     OW37615   3.729   4.474   6.978  0.0495  0.3258 -0.5314
 8660SOL    HW137616   3.807   4.429   7.009 -0.6964 -1.0110 -0.5952
 8660SOL    HW237617   3.761   4.506   6.894  1.6120 -0.1710 -0.1202
 8661SOL     OW37618   2.595   0.978  17.685  0.3083  0.0254 -0.0329
 8661SOL    HW137619   2.642   0.945  17.608  0.1048 -2.5474  0.9374
 8661SOL    HW237620   2.573   1.067  17.659 -0.1685 -0.3551 -0.9401
 8662SOL     OW37621   2.677   0.916  14.980 -0.0214  0.5099  0.4242
 8662SOL    HW137622   2.750   0.956  14.932  0.8701 -0.0092  1.3372
 8662SOL    HW237623   2.649   0.846  14.920 -0.1519  0.5201  0.4739
 8663SOL     OW37624   2.588   2.102   2.464 -0.2570  0.3029 -0.4633
 8663SOL    HW137625   2.632   2.182   2.492  1.3704 -2.2208  4.1818
 8663SOL    HW237626   2.643   2.076   2.391 -0.0679  0.8579 -0.5201
 8664SOL     OW37627   2.679   4.246  11.304 -0.2545  0.2598 -0.0494
 8664SOL    HW137628   2.765   4.229  11.343 -0.1463  1.1172  0.0772
 8664SOL    HW237629   2.646   4.329  11.338 -3.6123 -1.3998  0.7229
 8665SOL     OW37630   4.463   2.351   7.879 -0.1379  0.6401 -0.0711
 8665SOL    HW137631   4.539   2.295   7.895 -0.7627 -0.2229 -0.1734
 8665SOL    HW237632   4.395   2.285   7.882  0.6040 -0.0768  1.0018
 8666SOL     OW37633   3.984   0.708   4.884  0.0914  0.3222  0.3382
 8666SOL    HW137634   4.045   0.701   4.811  0.8869 -0.4884  1.0870
 8666SOL    HW237635   3.901   0.742   4.849  0.2595  0.5359  0.1464
 8667SOL     OW37636   4.567   1.106   9.424 -0.2224  0.1796 -0.2223
 8667SOL    HW137637   4.547   1.117   9.517 -0.5449 -0.8144 -0.1774
 8667SOL    HW237638   4.482   1.114   9.381 -0.2168  2.2917  0.1185
 8668SOL     OW37639   3.576   0.513   1.479  0.2783 -0.3778  0.2935
 8668SOL    HW137640   3.503   0.504   1.418  1.0693 -2.1458 -0.4103
 8668SOL    HW237641   3.599   0.602   1.454 -1.4071  0.5313  1.9811
 8669SOL     OW37642   1.683   2.627   1.605  0.7742 -0.4012  0.6244
 8669SOL    HW137643   1.736   2.555   1.571  0.9902 -0.5726  1.3226
 8669SOL    HW237644   1.749   2.696   1.611  0.4798 -0.3099  2.8898
 8670SOL     OW37645   1.804   1.806   4.773  0.2820 -0.2738  0.2837
 8670SOL    HW137646   1.791   1.893   4.735 -0.3266 -0.2773  0.4817
 8670SOL    HW237647   1.744   1.764   4.712 -0.6707  0.3615  0.7899
 8671SOL     OW37648   1.833   0.620   1.829  0.0923 -0.7322  0.3049
 8671SOL    HW137649   1.771   0.664   1.887 -0.8913 -2.3873  0.4960
 8671SOL    HW237650   1.786   0.542   1.798 -2.0117  1.0532 -1.0047
 8672SOL     OW37651   2.452   3.595   0.746  0.8771  0.1918  0.0248
 8672SOL    HW137652   2.417   3.674   0.706 -2.7719 -1.3166  0.2505
 8672SOL    HW237653   2.412   3.527   0.692  0.0137  2.4361 -2.1338
 8673SOL     OW37654   0.505   1.565   4.557  0.3019 -0.4982  0.0092
 8673SOL    HW137655   0.536   1.618   4.483  0.1541 -1.2556 -0.5966
 8673SOL    HW237656   0.540   1.476   4.546  0.7927 -0.4737  1.3702
 8674SOL     OW37657   1.924   3.769   5.719 -0.2192  0.1759  0.1361
 8674SOL    HW137658   1.928   3.727   5.804  0.3075 -1.4502 -0.6958
 8674SOL    HW237659   2.012   3.802   5.704 -0.5307  2.5831  3.6776
 8675SOL     OW37660   2.471   2.714  15.203 -0.7031 -0.0712 -0.0893
 8675SOL    HW137661   2.515   2.763  15.134  0.6930  0.2912  1.0593
 8675SOL    HW237662   2.535   2.722  15.274  0.3935  0.0501 -1.0972
 8676SOL     OW37663   2.108   2.033   8.286  0.1660  0.0153  0.4516
 8676SOL    HW137664   2.144   1.961   8.234 -2.4457 -0.3375 -0.8632
 8676SOL    HW237665   2.185   2.089   8.295  0.0313  0.7742 -3.3169
 8677SOL     OW37666   2.892   0.598   2.752  0.4273  0.7792  0.2727
 8677SOL    HW137667   2.982   0.578   2.777  0.1143 -1.0258 -0.0573
 8677SOL    HW237668   2.898   0.691   2.774 -1.0613  0.6806  1.0793
 8678SOL     OW37669   3.272   0.896   5.897  0.3923  0.0097 -0.3614
 8678SOL    HW137670   3.263   0.958   5.969 -1.0824 -0.8765  0.2268
 8678SOL    HW237671   3.216   0.944   5.836 -1.7301 -2.7698 -0.6205
 8679SOL     OW37672   3.606   3.723   6.067  0.0636 -0.2753 -0.4943
 8679SOL    HW137673   3.514   3.697   6.071 -0.3952  1.4991  0.5365
 8679SOL    HW237674   3.621   3.735   6.161 -2.0638 -1.4973 -0.0006
 8680SOL     OW37675   4.738   1.922   3.427 -0.4142 -0.3857  0.1989
 8680SOL    HW137676   4.694   1.953   3.348  2.2036 -2.9627 -2.2663
 8680SOL    HW237677   0.045   2.000   3.459 -1.3231 -0.9033  2.7371
 8681SOL     OW37678   3.308   3.931  16.136  0.4763  0.4982  0.0790
 8681SOL    HW137679   3.354   4.009  16.108 -2.2454  2.2576  0.4632
 8681SOL    HW237680   3.271   3.902  16.052  0.5092  0.2673  0.1431
 8682SOL     OW37681   4.502   1.376   4.347 -0.1925 -0.3847  0.3451
 8682SOL    HW137682   4.454   1.302   4.309 -1.7617 -0.1758  1.9225
 8682SOL    HW237683   4.437   1.388   4.416  0.5635  0.9415  0.8215
 8683SOL     OW37684   3.708   2.520   6.438  0.4322 -0.0439 -0.3656
 8683SOL    HW137685   3.780   2.493   6.494 -0.1626  0.7633  0.7810
 8683SOL    HW237686   3.747   2.571   6.367  0.8675 -1.0908 -0.8810
 8684SOL     OW37687   1.842   3.918   6.946  0.4841 -0.2358 -0.1502
 8684SOL    HW137688   1.906   3.857   6.981  1.5882  0.2200 -1.3792
 8684SOL    HW237689   1.812   3.883   6.862  2.2258 -0.4778 -0.6573
 8685SOL     OW37690   4.536   1.188   4.747 -0.5148  0.2958 -0.0681
 8685SOL    HW137691   4.628   1.213   4.743  0.2955 -2.6379  0.0306
 8685SOL    HW237692   4.487   1.268   4.730 -2.2678 -0.9827 -1.0458
 8686SOL     OW37693   2.194   4.587   8.742  0.6248 -0.4649 -0.2954
 8686SOL    HW137694   2.261   4.645   8.780  1.4308 -2.2052  0.9400
 8686SOL    HW237695   2.158   4.647   8.676  0.9155 -1.0323 -0.9679
 8687SOL     OW37696   4.499   4.373   3.333  0.4486 -0.1847  0.2845
 8687SOL    HW137697   4.529   4.460   3.307 -2.3532  1.0798  1.2254
 8687SOL    HW237698   4.417   4.400   3.374 -0.5315 -1.2190 -1.0149
 8688SOL     OW37699   2.595   2.099  17.273  0.0928 -0.1152 -0.6460
 8688SOL    HW137700   2.565   2.110  17.183 -1.2028  0.0913 -0.1849
 8688SOL    HW237701   2.660   2.169  17.284 -0.6614  0.4177  0.4108
 8689SOL     OW37702   3.247   2.706   8.722  0.0142  0.2469 -0.0782
 8689SOL    HW137703   3.319   2.768   8.727 -0.3008  0.6399 -0.4312
 8689SOL    HW237704   3.177   2.747   8.773  0.7477 -0.0403  1.1577
 8690SOL     OW37705   1.552   0.573   7.276  0.5920 -0.4394  0.5374
 8690SOL    HW137706   1.532   0.489   7.316 -1.4542 -1.0429 -1.7963
 8690SOL    HW237707   1.471   0.623   7.289 -0.0965 -1.9604  1.9598
 8691SOL     OW37708   2.455   1.762   3.324  0.2461  0.3828 -0.3647
 8691SOL    HW137709   2.441   1.685   3.379  1.3533  1.2219  1.0907
 8691SOL    HW237710   2.375   1.790   3.280 -0.0905 -0.9235 -0.5697
 8692SOL     OW37711   2.562   3.611   9.234  0.5541 -0.1004 -0.4130
 8692SOL    HW137712   2.643   3.560   9.241  0.5236 -0.0019  0.7566
 8692SOL    HW237713   2.593   3.689   9.282  0.0469  0.0819 -0.3792
 8693SOL     OW37714   2.269   3.857  11.787 -0.1635 -0.2881 -0.3297
 8693SOL    HW137715   2.320   3.780  11.763  0.5030 -0.1025  0.4789
 8693SOL    HW237716   2.262   3.908  11.707 -1.1708  0.9472  0.5364
 8694SOL     OW37717   2.764   3.389   9.214 -0.1609 -0.1201 -0.0012
 8694SOL    HW137718   2.853   3.379   9.180 -0.4858  1.0529 -1.1959
 8694SOL    HW237719   2.768   3.358   9.304 -2.1091  1.1539  0.5283
 8695SOL     OW37720   3.831   3.945  11.896 -0.7462 -0.4299  0.0290
 8695SOL    HW137721   3.805   3.887  11.824  1.0869  0.3566 -1.2683
 8695SOL    HW237722   3.770   3.914  11.962  0.3087 -0.0692  1.1745
 8696SOL     OW37723   1.233   4.412   0.168 -0.0007 -0.5306  0.2591
 8696SOL    HW137724   1.275   4.342   0.217 -1.2686 -1.6747 -0.3081
 8696SOL    HW237725   1.143   4.384   0.154 -0.9570  2.6831 -0.1434
 8697SOL     OW37726   3.295   1.908   2.354  0.6034 -0.2821 -0.3798
 8697SOL    HW137727   3.255   1.827   2.322 -0.1980 -0.4388  1.0151
 8697SOL    HW237728   3.320   1.945   2.269  3.1254 -0.2165  0.3890
 8698SOL     OW37729   0.754   4.025   5.241  0.3856 -0.0368  0.1135
 8698SOL    HW137730   0.701   4.081   5.298 -0.3288 -1.1076  0.4829
 8698SOL    HW237731   0.694   4.009   5.169 -0.1213 -0.3189  0.6019
 8699SOL     OW37732   2.028   0.655   7.799  0.0472 -0.3416  0.0315
 8699SOL    HW137733   1.984   0.608   7.728 -1.8750 -0.3895  1.2559
 8699SOL    HW237734   2.093   0.588   7.822 -1.6049 -2.3850 -1.2328
 8700SOL     OW37735   4.321   0.688   5.993 -0.2869 -0.2192  0.3883
 8700SOL    HW137736   4.293   0.699   5.902 -0.2746  0.2579  0.4403
 8700SOL    HW237737   4.239   0.712   6.035 -0.0858  1.4944 -0.1942
 8701SOL     OW37738   1.468   3.209   9.564 -0.1444  0.7692 -0.1505
 8701SOL    HW137739   1.487   3.209   9.658 -0.1470  2.0807 -0.1523
 8701SOL    HW237740   1.512   3.290   9.540  1.2580  0.0080 -0.1474
 8702SOL     OW37741   3.822   4.024  16.376 -0.2288  0.2264 -0.1985
 8702SOL    HW137742   3.894   4.008  16.437  0.6118 -1.2529 -1.5777
 8702SOL    HW237743   3.855   4.101  16.329  4.0373 -1.4421  0.0821
 8703SOL     OW37744   3.448   2.332   0.480  0.0425  0.1371  0.4897
 8703SOL    HW137745   3.395   2.345   0.559  0.4138 -2.7087  1.1978
 8703SOL    HW237746   3.515   2.268   0.505 -1.6891 -1.7528  0.2982
 8704SOL     OW37747   0.777   1.036  10.934  0.0551 -0.0274 -0.4731
 8704SOL    HW137748   0.775   0.999  10.846 -4.3114 -0.0829 -0.3518
 8704SOL    HW237749   0.810   1.123  10.913  1.9726 -0.7770 -0.5714
 8705SOL     OW37750   4.528   4.480   8.516  0.3783  0.1840  0.1971
 8705SOL    HW137751   4.532   4.537   8.592  2.8128  0.2244  0.0265
 8705SOL    HW237752   4.437   4.504   8.498  0.0465 -0.8181  0.5138
 8706SOL     OW37753   4.711   2.525   4.519 -0.4879 -0.0749 -0.5472
 8706SOL    HW137754   4.712   2.559   4.430  0.4455 -0.0437 -0.5181
 8706SOL    HW237755   0.055   2.551   4.561 -0.1335 -1.6673 -0.2364
 8707SOL     OW37756   1.942   1.758   2.921  0.0398 -0.2614  0.2687
 8707SOL    HW137757   1.884   1.779   2.994  1.5689  1.5694  0.9699
 8707SOL    HW237758   1.997   1.693   2.964  0.6719 -0.2572 -0.5264
 8708SOL     OW37759   4.059   3.461  15.131 -0.2696 -0.4233 -0.1084
 8708SOL    HW137760   4.072   3.376  15.090  1.8460 -0.8092  1.3747
 8708SOL    HW237761   4.143   3.477  15.174 -1.3779  0.5104  1.7419
 8709SOL     OW37762   4.596   0.636   8.994 -0.2549  0.3480  0.7238
 8709SOL    HW137763   4.601   0.676   8.907 -1.8749  2.4967  1.6226
 8709SOL    HW237764   4.587   0.542   8.979  3.1954  0.1804 -0.4812
 8710SOL     OW37765   2.339   1.275   3.078  0.1640  0.0990  0.0758
 8710SOL    HW137766   2.331   1.214   3.005  0.3043 -0.5284  0.5819
 8710SOL    HW237767   2.297   1.356   3.046  0.9190 -0.0574 -1.3140
 8711SOL     OW37768   2.883   0.928   8.690  0.2026 -0.2868 -0.0053
 8711SOL    HW137769   2.913   1.014   8.661  0.3714  0.1176  1.3484
 8711SOL    HW237770   2.942   0.870   8.642  0.7360  0.1155  0.1691
 8712SOL     OW37771   3.641   1.961   9.104 -0.9364  0.3147 -0.1529
 8712SOL    HW137772   3.680   2.032   9.154 -0.0992  1.9372 -3.1195
 8712SOL    HW237773   3.560   2.002   9.072  0.1590  3.4697  1.1313
 8713SOL     OW37774   2.500   0.666   8.540  0.2401 -0.2103 -0.1618
 8713SOL    HW137775   2.505   0.760   8.556  0.6102 -0.2624  0.0286
 8713SOL    HW237776   2.445   0.647   8.615  1.1490 -0.8795  0.3358
 8714SOL     OW37777   2.054   0.378   4.701 -0.4087 -0.0745 -0.3964
 8714SOL    HW137778   2.009   0.442   4.756  1.5465  0.8653  0.1007
 8714SOL    HW237779   2.014   0.390   4.615  1.1250 -3.3862 -1.5960
 8715SOL     OW37780   1.898   3.383   1.886  0.8512  0.2195 -0.1748
 8715SOL    HW137781   1.854   3.349   1.965  1.1067 -1.4776 -0.7572
 8715SOL    HW237782   1.865   3.473   1.894 -1.7971 -0.5380 -2.3763
 8716SOL     OW37783   0.315   1.859   8.229  1.0947  0.2590  0.6633
 8716SOL    HW137784   0.382   1.836   8.165  0.6496 -0.2314  0.3781
 8716SOL    HW237785   0.333   1.953   8.236 -0.8428  0.6858 -0.3608
 8717SOL     OW37786   3.001   1.177   8.686  0.0270 -0.0882 -0.3904
 8717SOL    HW137787   3.062   1.192   8.613 -0.0955  1.6641 -0.1492
 8717SOL    HW237788   2.983   1.267   8.713  0.3184 -0.3552  0.7029
 8718SOL     OW37789   3.943   1.907   1.088 -0.0494 -0.0449 -0.3479
 8718SOL    HW137790   3.951   1.957   1.169  0.2145  0.0327 -0.4211
 8718SOL    HW237791   3.980   1.965   1.022  0.3409 -0.1674 -0.2376
 8719SOL     OW37792   1.137   3.954   7.673 -0.3373  0.4170 -0.3903
 8719SOL    HW137793   1.193   4.032   7.666  0.6605 -0.2481  0.1094
 8719SOL    HW237794   1.143   3.914   7.586  0.9113  0.0372 -0.1296
 8720SOL     OW37795   4.318   1.426   8.782 -0.3704  0.5192 -0.5372
 8720SOL    HW137796   4.237   1.472   8.805 -1.9239 -2.4314  0.0058
 8720SOL    HW237797   4.304   1.380   8.699 -2.0624 -0.2639  0.1659
 8721SOL     OW37798   2.390   0.988   4.445  0.2995 -0.3330 -0.1259
 8721SOL    HW137799   2.333   0.940   4.504 -1.2023 -0.8098 -1.9637
 8721SOL    HW237800   2.338   0.989   4.364 -1.6684  1.4873  1.1443
 8722SOL     OW37801   1.098   3.374  11.158  0.3943  0.1560  0.3044
 8722SOL    HW137802   1.154   3.297  11.151  2.2162  1.3690  1.4872
 8722SOL    HW237803   1.071   3.380  11.066  0.9390 -0.3969  0.1137
 8723SOL     OW37804   2.168   3.359   8.983 -0.6135 -0.1504  0.5279
 8723SOL    HW137805   2.153   3.351   9.077 -0.1684 -0.9561  0.5220
 8723SOL    HW237806   2.124   3.439   8.952 -0.5996  0.1713  1.3414
 8724SOL     OW37807   3.369   1.016  14.594  0.0945 -0.0543 -0.0654
 8724SOL    HW137808   3.298   0.958  14.621  0.2261 -0.3514 -0.3456
 8724SOL    HW237809   3.445   0.958  14.592 -0.9481 -1.4337 -0.0857
 8725SOL     OW37810   4.175   1.842   4.215  0.0911  0.0426 -0.1844
 8725SOL    HW137811   4.184   1.868   4.306  0.0163  0.2549 -0.2368
 8725SOL    HW237812   4.258   1.875   4.182  0.3909  0.9079  1.4211
 8726SOL     OW37813   2.815   1.209   2.213 -0.0074  0.3904 -0.0487
 8726SOL    HW137814   2.851   1.274   2.273  1.0026 -0.6499  0.4898
 8726SOL    HW237815   2.874   1.134   2.219 -0.8495 -0.1645  1.2609
 8727SOL     OW37816   2.187   0.790  10.537  0.0485 -0.9425  0.2540
 8727SOL    HW137817   2.229   0.852  10.479 -0.9629 -2.7573 -2.4000
 8727SOL    HW237818   2.107   0.835  10.564 -0.4049 -1.5302 -0.1282
 8728SOL     OW37819   0.341   1.526   2.432  0.5731 -0.5194 -0.0439
 8728SOL    HW137820   0.422   1.538   2.483 -0.0721 -0.4474  0.9637
 8728SOL    HW237821   0.357   1.573   2.351 -0.9865 -0.9487 -0.5838
 8729SOL     OW37822   2.393   1.786  12.626  0.6537  0.2028  0.1570
 8729SOL    HW137823   2.393   1.712  12.688 -0.1228  1.8887  2.1826
 8729SOL    HW237824   2.431   1.735  12.554 -0.0971  0.9149 -0.7427
 8730SOL     OW37825   4.553   3.034  10.440 -0.4837  0.2939 -0.2229
 8730SOL    HW137826   4.462   3.036  10.469 -0.6914 -0.5180 -0.8220
 8730SOL    HW237827   4.570   3.128  10.447 -0.6681  0.4693 -2.2296
 8731SOL     OW37828   1.500   4.122  10.716  0.6736 -0.2239 -0.6985
 8731SOL    HW137829   1.453   4.205  10.707 -1.2330 -1.2015  0.2067
 8731SOL    HW237830   1.473   4.076  10.637 -0.7202 -0.5234 -0.0499
 8732SOL     OW37831   1.239   4.419  10.971 -0.1759 -0.4993 -0.5414
 8732SOL    HW137832   1.230   4.360  11.045 -2.1472  1.1757  0.5834
 8732SOL    HW237833   1.271   4.491  11.026  1.9097 -0.9100 -1.2319
 8733SOL     OW37834   0.167   0.721  11.174 -0.5967 -0.0172  0.3537
 8733SOL    HW137835   0.185   0.815  11.175  2.1854 -0.5273 -0.9115
 8733SOL    HW237836   0.238   0.680  11.123  1.0786  0.0756  2.5957
 8734SOL     OW37837   3.594   3.032   3.950  0.2789  0.4026 -0.7045
 8734SOL    HW137838   3.665   3.095   3.966  0.0907  0.4077  0.1009
 8734SOL    HW237839   3.560   3.072   3.870  1.2689  0.0572 -1.3032
 8735SOL     OW37840   3.847   2.014  13.209  0.2073  0.2250  0.1458
 8735SOL    HW137841   3.848   2.091  13.153 -3.5601 -2.7809 -4.0484
 8735SOL    HW237842   3.938   1.985  13.215 -0.2564 -0.8022  2.3232
 8736SOL     OW37843   4.645   4.369   3.657 -0.1289 -0.3894  0.5611
 8736SOL    HW137844   4.690   4.320   3.588  1.6426  2.0983 -0.0620
 8736SOL    HW237845   4.559   4.327   3.654  0.6890 -2.0352  0.2588
 8737SOL     OW37846   0.070   1.555   2.882  0.7743  0.0161  0.6128
 8737SOL    HW137847   0.070   1.546   2.977  1.2685  1.2660  0.7380
 8737SOL    HW237848   0.009   1.483   2.867  1.6151 -0.6776  0.5303
 8738SOL     OW37849   1.937   4.557   4.309  0.3280 -0.3731 -0.2803
 8738SOL    HW137850   1.899   4.493   4.250  1.5114 -1.2569 -0.0694
 8738SOL    HW237851   1.877   4.567   4.384 -0.7442  1.9979 -1.4475
 8739SOL     OW37852   2.581   2.732   2.775 -0.5293  0.1034 -0.0063
 8739SOL    HW137853   2.580   2.687   2.691  2.2275  0.8583 -0.4338
 8739SOL    HW237854   2.628   2.674   2.835 -0.3512  0.3782  0.1191
 8740SOL     OW37855   1.521   4.445   1.360  0.4807  0.4355  0.4828
 8740SOL    HW137856   1.536   4.382   1.430  2.6490 -0.1512 -0.5104
 8740SOL    HW237857   1.483   4.385   1.296 -1.7794  1.9088  0.4475
 8741SOL     OW37858   1.672   3.902   3.407  0.6104  0.1377 -0.4498
 8741SOL    HW137859   1.670   3.868   3.496  0.5956  1.4854  0.0649
 8741SOL    HW237860   1.647   3.822   3.360  1.9834  1.4595 -3.4166
 8742SOL     OW37861   2.486   3.586  16.509  0.2374 -0.3702 -0.1574
 8742SOL    HW137862   2.556   3.521  16.499 -0.6783 -1.2397 -0.9874
 8742SOL    HW237863   2.530   3.668  16.531  0.0518 -0.9076  2.1999
 8743SOL     OW37864   3.249   0.803   7.930 -0.1424 -0.3681  0.1086
 8743SOL    HW137865   3.263   0.712   7.905 -0.0640 -0.2917 -0.1307
 8743SOL    HW237866   3.196   0.831   7.855 -1.4909  0.2826  1.3086
 8744SOL     OW37867   4.550   0.772   8.330  0.1617  0.3794  0.1743
 8744SOL    HW137868   4.584   0.733   8.249 -2.4138 -1.1837 -0.1638
 8744SOL    HW237869   4.637   0.783   8.370  1.7383 -0.5682 -2.9871
 8745SOL     OW37870   0.465   3.583  13.828 -0.1824  0.2359 -0.2596
 8745SOL    HW137871   0.414   3.569  13.908 -0.7141  0.3249 -0.5816
 8745SOL    HW237872   0.523   3.507  13.827 -0.0652  0.3159  0.1837
 8746SOL     OW37873   0.673   1.548   6.652  0.0454  0.5964 -0.1419
 8746SOL    HW137874   0.642   1.617   6.711 -2.2439  3.0456 -4.2663
 8746SOL    HW237875   0.605   1.483   6.670  2.5933 -2.2568 -0.8066
 8747SOL     OW37876   0.688   1.362   6.305 -0.6866  0.4207 -0.4897
 8747SOL    HW137877   0.688   1.268   6.290 -0.0486  0.2845  0.3252
 8747SOL    HW237878   0.776   1.369   6.342 -1.0861 -1.6822  0.8618
 8748SOL     OW37879   1.733   1.935   6.741  0.5773  0.2573 -0.7273
 8748SOL    HW137880   1.659   1.879   6.720  1.7541 -2.1265  1.5274
 8748SOL    HW237881   1.702   2.026   6.745  2.3500  0.7613  2.0666
 8749SOL     OW37882   3.037   4.341  12.721  0.4120 -0.6324 -0.1551
 8749SOL    HW137883   3.028   4.309  12.631  2.0026  1.4107 -1.0391
 8749SOL    HW237884   2.984   4.273  12.763 -0.1501 -1.5175 -2.2994
 8750SOL     OW37885   1.523   4.737   4.134 -0.7129 -0.0959 -0.4117
 8750SOL    HW137886   1.567   0.070   4.087  0.3197 -2.1805 -2.5916
 8750SOL    HW237887   1.560   4.653   4.109 -0.7345  0.0840 -1.0414
 8751SOL     OW37888   3.067   2.322  14.080 -0.1092 -0.1280 -0.2166
 8751SOL    HW137889   3.100   2.339  13.992  1.6076 -0.0678  0.4299
 8751SOL    HW237890   3.071   2.409  14.121  0.5514  0.1076 -0.7703
 8752SOL     OW37891   0.939   3.840  16.304 -0.1987 -0.4247 -0.0091
 8752SOL    HW137892   0.852   3.803  16.289  0.6863 -3.2287  1.8798
 8752SOL    HW237893   0.970   3.857  16.215 -0.4177  1.2821  0.2341
 8753SOL     OW37894   0.577   3.417   6.045 -0.3868 -0.0340  0.1088
 8753SOL    HW137895   0.655   3.362   6.048 -0.2748  0.2976  3.0860
 8753SOL    HW237896   0.530   3.384   5.968 -0.1778 -1.6480  0.6818
 8754SOL     OW37897   0.452   1.941  11.425  0.2166  0.6747  0.1028
 8754SOL    HW137898   0.374   1.892  11.397  1.7300 -0.6108 -1.8791
 8754SOL    HW237899   0.464   2.006  11.356 -2.4511 -0.8024 -1.7763
 8755SOL     OW37900   4.249   3.250   3.485 -0.0278 -0.6583 -0.3758
 8755SOL    HW137901   4.273   3.166   3.525  0.1213 -0.3616  0.1579
 8755SOL    HW237902   4.155   3.244   3.498 -0.3554  0.7342 -2.1129
 8756SOL     OW37903   1.458   0.098   2.506 -0.4456 -0.7238  0.0869
 8756SOL    HW137904   1.480   0.009   2.478 -0.4198 -0.5759 -0.3632
 8756SOL    HW237905   1.395   0.132   2.443  1.4079  1.8184 -0.3987
 8757SOL     OW37906   3.350   4.239   4.857  0.1868 -0.7965  0.0747
 8757SOL    HW137907   3.318   4.152   4.836  1.7441 -1.4445  0.4156
 8757SOL    HW237908   3.342   4.243   4.952  0.8552  1.0026  0.0604
 8758SOL     OW37909   2.426   0.961   7.461 -0.1725 -0.1922 -0.3748
 8758SOL    HW137910   2.455   0.887   7.515 -0.7995  0.2516  0.5688
 8758SOL    HW237911   2.418   1.033   7.523 -0.0785  0.7990 -1.5242
 8759SOL     OW37912   4.440   3.875   3.945 -0.0741  0.4218 -0.1489
 8759SOL    HW137913   4.396   3.956   3.920 -0.4295 -0.2089 -1.5324
 8759SOL    HW237914   4.490   3.892   4.025  0.2802 -0.4735 -0.1772
 8760SOL     OW37915   1.566   3.007   6.200 -0.3299  0.1303 -0.0235
 8760SOL    HW137916   1.492   2.975   6.252 -0.2687 -0.4130 -0.2712
 8760SOL    HW237917   1.533   3.018   6.111  2.2832  1.9240 -0.7598
 8761SOL     OW37918   3.995   4.099  11.021  0.1765 -0.4432 -0.3164
 8761SOL    HW137919   4.046   4.080  10.942 -0.1398 -0.2728 -0.5582
 8761SOL    HW237920   3.917   4.124  10.972 -0.7266  0.8123  1.7984
 8762SOL     OW37921   4.074   3.867   9.037 -0.6579  0.7277  0.0867
 8762SOL    HW137922   4.004   3.871   8.971  0.2027 -2.1999 -1.0236
 8762SOL    HW237923   4.146   3.877   8.975  1.0287 -1.5461  1.6868
 8763SOL     OW37924   3.719   4.024  15.273  0.4212 -0.2297 -0.2198
 8763SOL    HW137925   3.717   3.958  15.203 -0.6887  0.0889 -0.4890
 8763SOL    HW237926   3.808   4.015  15.307  0.3551 -0.4086 -0.0872
 8764SOL     OW37927   3.584   4.477   7.816 -0.5172  0.1778  0.0065
 8764SOL    HW137928   3.622   4.410   7.759  0.3039 -0.4456  1.2822
 8764SOL    HW237929   3.640   4.552   7.796 -2.2703  0.5256 -3.5907
 8765SOL     OW37930   2.652   0.905   2.045 -0.1060 -0.6512  0.2099
 8765SOL    HW137931   2.596   0.839   2.005  0.1371  0.2340 -1.5917
 8765SOL    HW237932   2.698   0.949   1.974 -0.9421  0.5408  0.3956
 8766SOL     OW37933   2.056   3.051   5.768  0.3439 -0.6449 -0.0536
 8766SOL    HW137934   2.118   3.070   5.697  1.4993 -1.0595  0.8348
 8766SOL    HW237935   2.004   2.995   5.711 -0.5271 -1.1622  1.2657
 8767SOL     OW37936   3.715   2.736   2.547  0.0180  0.1444 -0.4473
 8767SOL    HW137937   3.653   2.746   2.475 -2.2587 -1.5201  1.2941
 8767SOL    HW237938   3.784   2.798   2.523  2.0574 -2.5287 -1.5234
 8768SOL     OW37939   1.321   4.637   0.269  0.2308  0.9375 -0.0003
 8768SOL    HW137940   1.264   4.566   0.239  3.5510  0.2466 -4.6488
 8768SOL    HW237941   1.399   4.581   0.265 -1.8281 -1.6975 -3.9799
 8769SOL     OW37942   1.709   4.111   2.298 -0.3117  0.0942 -0.1878
 8769SOL    HW137943   1.796   4.125   2.336 -0.6125 -0.0439  0.5472
 8769SOL    HW237944   1.648   4.160   2.354 -1.0023  1.4600 -2.1119
 8770SOL     OW37945   1.815   1.934  15.839  0.1477 -0.5224  0.5413
 8770SOL    HW137946   1.833   1.968  15.751  2.9776 -1.5653  0.7095
 8770SOL    HW237947   1.799   2.013  15.889  0.8441 -0.3189  0.4464
 8771SOL     OW37948   1.634   2.366   3.537  0.1933 -0.7391  0.3827
 8771SOL    HW137949   1.685   2.433   3.491  0.0550 -0.3119  0.8473
 8771SOL    HW237950   1.607   2.416   3.613  1.2658  3.3657 -1.9252
 8772SOL     OW37951   4.655   0.304  11.112 -0.3441 -0.5498 -0.0435
 8772SOL    HW137952   4.646   0.381  11.168 -0.4331  0.1602 -1.0288
 8772SOL    HW237953   4.590   0.330  11.047  0.1775  1.1611  0.1311
 8773SOL     OW37954   1.530   0.338  10.080 -0.7806 -0.2272 -0.1705
 8773SOL    HW137955   1.448   0.375  10.112 -1.7846 -0.9405 -1.9593
 8773SOL    HW237956   1.508   0.358   9.989  1.7893  0.1031 -0.7132
 8774SOL     OW37957   4.214   0.944   3.701  0.0388 -0.7189  0.3116
 8774SOL    HW137958   4.233   0.868   3.647  1.0342 -1.0802  1.1685
 8774SOL    HW237959   4.294   0.994   3.685 -0.7351 -0.1504 -1.8021
 8775SOL     OW37960   2.848   4.579   2.960  0.4528 -0.3181 -0.3662
 8775SOL    HW137961   2.771   4.636   2.957  0.0699 -0.6526  2.9515
 8775SOL    HW237962   2.814   4.495   2.928 -0.1828  0.4624 -1.7300
 8776SOL     OW37963   2.675   3.142  11.627  0.5263 -0.1336  0.0727
 8776SOL    HW137964   2.751   3.134  11.685 -1.1060  0.5439  2.2833
 8776SOL    HW237965   2.608   3.097  11.679  0.3364  0.9989  0.8102
 8777SOL     OW37966   2.305   1.158   3.591 -0.2649 -0.4797  0.0781
 8777SOL    HW137967   2.246   1.086   3.568  0.6071 -0.8516 -1.0074
 8777SOL    HW237968   2.281   1.223   3.525 -2.1100 -0.6974  0.5519
 8778SOL     OW37969   2.021   2.374   7.194 -0.5872 -0.1766  0.2653
 8778SOL    HW137970   2.075   2.451   7.178 -0.5374 -0.0542  1.0204
 8778SOL    HW237971   1.954   2.381   7.126  0.3823  0.5448 -0.6090
 8779SOL     OW37972   0.544   0.064  14.159 -0.2045 -0.7621 -0.3764
 8779SOL    HW137973   0.595   4.727  14.189  0.5283 -0.7440 -1.5810
 8779SOL    HW237974   0.460   0.032  14.191  0.9510 -1.1166  2.3107
 8780SOL     OW37975   1.710   0.087   5.233 -0.2123  0.0830  0.0635
 8780SOL    HW137976   1.704   0.145   5.309  1.5322  0.4046 -0.0548
 8780SOL    HW237977   1.636   0.027   5.244  0.8263 -1.1053  0.5098
 8781SOL     OW37978   1.822   4.636   6.106 -0.2387  0.1343  0.3456
 8781SOL    HW137979   1.844   4.695   6.179  1.1410 -1.3051  1.0820
 8781SOL    HW237980   1.744   4.592   6.141 -1.0525  0.1359 -1.4311
 8782SOL     OW37981   2.087   4.176   5.282 -0.6270  0.7112 -0.0850
 8782SOL    HW137982   1.994   4.177   5.303 -0.6450 -1.3001 -0.1050
 8782SOL    HW237983   2.084   4.165   5.186  0.7249  1.1288 -0.1749
 8783SOL     OW37984   0.918   0.536   7.056  0.0480 -0.6276 -0.3624
 8783SOL    HW137985   0.883   0.453   7.022 -0.4977 -0.8363  0.7116
 8783SOL    HW237986   0.835   0.583   7.058  0.8398  0.7448 -0.1258
 8784SOL     OW37987   2.591   4.181  12.841 -0.2764 -0.4215 -0.0234
 8784SOL    HW137988   2.562   4.272  12.847 -0.3163 -0.3692 -1.1456
 8784SOL    HW237989   2.574   4.155  12.932 -2.0678  0.4472 -0.1156
 8785SOL     OW37990   1.665   4.065   9.870  0.3394  0.3506 -0.6094
 8785SOL    HW137991   1.591   4.107   9.914  0.4921 -0.8129  0.7462
 8785SOL    HW237992   1.615   4.002   9.818  2.1218 -1.7457  0.2256
 8786SOL     OW37993   2.153   4.039   1.823  0.3122  0.3491 -0.7600
 8786SOL    HW137994   2.135   4.102   1.754  1.4311 -2.2552 -3.4206
 8786SOL    HW237995   2.087   3.973   1.803  0.9037 -1.0208  1.7688
 8787SOL     OW37996   2.693   0.911  10.800 -0.0715  0.1598  1.0038
 8787SOL    HW137997   2.776   0.871  10.825  1.0151  0.5176 -2.0363
 8787SOL    HW237998   2.624   0.844  10.805 -0.7187  0.6986 -0.4066
 8788SOL     OW37999   4.532   1.769   1.068 -0.1780 -0.1293  0.0427
 8788SOL    HW138000   4.562   1.858   1.048  1.0055  0.2745  3.5399
 8788SOL    HW238001   4.447   1.798   1.099 -1.4615 -3.8322  0.0127
 8789SOL     OW38002   0.888   1.212   4.147  0.0564  0.7402  0.2442
 8789SOL    HW138003   0.862   1.156   4.073  1.6871 -0.3280  0.4766
 8789SOL    HW238004   0.797   1.225   4.172  0.0651  1.9529 -0.3658
 8790SOL     OW38005   0.681   1.678   4.365  0.2574  0.0453 -0.2348
 8790SOL    HW138006   0.710   1.744   4.427 -1.5682 -1.2793  2.0238
 8790SOL    HW238007   0.765   1.638   4.343  0.1412  0.6027 -1.7187
 8791SOL     OW38008   3.211   0.449   5.550  0.3333  0.5271  0.3257
 8791SOL    HW138009   3.128   0.488   5.523  0.2294 -0.3329 -0.5639
 8791SOL    HW238010   3.278   0.511   5.522 -0.2060 -0.2322 -2.6271
 8792SOL     OW38011   1.983   0.909   9.902 -0.2476 -0.5361 -0.3675
 8792SOL    HW138012   2.013   0.999   9.896 -1.0718 -0.3178 -1.2356
 8792SOL    HW238013   1.930   0.899   9.823 -2.0562 -2.6905  1.0938
 8793SOL     OW38014   4.602   4.417  15.472  0.3330  0.3635 -0.0482
 8793SOL    HW138015   4.579   4.456  15.556  0.1728  1.0622 -0.4165
 8793SOL    HW238016   4.587   4.495  15.418  2.1258  0.5933 -0.2291
 8794SOL     OW38017   4.576   4.591   7.349  0.1824  0.3071  0.1393
 8794SOL    HW138018   4.529   4.517   7.388  1.6778 -0.6897  0.0609
 8794SOL    HW238019   4.573   4.657   7.418  1.8724  0.0539  0.4633
 8795SOL     OW38020   3.958   4.047   1.044 -0.3889 -0.2879 -0.4860
 8795SOL    HW138021   3.875   4.036   0.996  0.2866  0.0926 -1.7345
 8795SOL    HW238022   3.918   4.017   1.126  0.9638 -3.8168 -1.1276
 8796SOL     OW38023   3.209   0.886   7.564  0.0346 -0.1106  0.3668
 8796SOL    HW138024   3.159   0.896   7.645 -0.4659  1.0027 -0.0885
 8796SOL    HW238025   3.261   0.808   7.586  1.3821  0.7193  0.0934
 8797SOL     OW38026   3.667   4.130   5.635 -0.2907  0.0819  0.3909
 8797SOL    HW138027   3.717   4.058   5.597  0.3138  1.4572 -1.4207
 8797SOL    HW238028   3.702   4.155   5.720 -3.0284  0.3146  1.4556
 8798SOL     OW38029   1.112   4.475   6.132  0.2686 -0.4436  0.0160
 8798SOL    HW138030   1.160   4.537   6.187 -1.3448  1.2794 -0.5338
 8798SOL    HW238031   1.050   4.528   6.082 -0.0898 -0.0189  0.9209
 8799SOL     OW38032   0.837   1.035   3.326 -0.8984 -0.0894 -0.3011
 8799SOL    HW138033   0.752   0.992   3.317 -1.3329  0.3526  1.6083
 8799SOL    HW238034   0.841   1.042   3.421  2.7827  3.3113 -0.7210
 8800SOL     OW38035   0.725   1.586  16.185  0.2157 -0.9312  0.0407
 8800SOL    HW138036   0.686   1.666  16.151  0.2182 -1.3053 -0.8558
 8800SOL    HW238037   0.719   1.536  16.104 -1.7421 -1.2135  0.3680
 8801SOL     OW38038   2.649   1.866   6.005  0.0595 -0.3743 -0.7719
 8801SOL    HW138039   2.579   1.926   6.032  0.1095 -0.8850  0.4768
 8801SOL    HW238040   2.721   1.927   6.019  0.6574 -1.3045  0.2426
 8802SOL     OW38041   1.805   0.343  10.043 -0.3853  0.6406  0.0754
 8802SOL    HW138042   1.718   0.335  10.084 -0.2800 -0.7607 -0.0015
 8802SOL    HW238043   1.777   0.411   9.981  0.0356  0.7896  0.0524
 8803SOL     OW38044   1.979   3.330   3.595 -0.0736  0.0773  0.0538
 8803SOL    HW138045   2.008   3.421   3.592 -0.7988  0.2598 -1.1142
 8803SOL    HW238046   2.005   3.292   3.512  0.9779  1.2150 -0.1324
 8804SOL     OW38047   3.498   1.013   7.458  0.4485 -0.7427  0.3696
 8804SOL    HW138048   3.406   1.006   7.484  0.2551 -0.4696 -0.2444
 8804SOL    HW238049   3.504   1.090   7.402  0.5885  0.6066  2.2249
 8805SOL     OW38050   4.549   0.143   4.213  0.1263 -0.3680 -0.2247
 8805SOL    HW138051   4.525   0.061   4.255  0.7929 -0.5896 -0.2727
 8805SOL    HW238052   4.479   0.164   4.152 -1.1999  0.6076  1.6062
 8806SOL     OW38053   0.832   0.589   4.970  0.0285 -0.3222  0.1506
 8806SOL    HW138054   0.885   0.566   4.894 -0.1131  0.4032 -0.1684
 8806SOL    HW238055   0.894   0.637   5.024  1.3725 -0.1077 -1.5988
 8807SOL     OW38056   3.427   3.882   5.017 -0.2992 -0.3265 -0.1187
 8807SOL    HW138057   3.353   3.832   4.983 -1.0638  0.4683  0.3775
 8807SOL    HW238058   3.477   3.815   5.065  0.7689  1.8593  1.8395
 8808SOL     OW38059   3.574   0.120  12.252 -0.0046 -0.7009  0.5866
 8808SOL    HW138060   3.511   0.180  12.291 -0.2140  1.5305 -3.2654
 8808SOL    HW238061   3.600   0.174  12.178 -0.5299  0.4149  1.2284
 8809SOL     OW38062   0.939   1.684  11.499  0.1364 -0.3244 -0.5814
 8809SOL    HW138063   0.915   1.777  11.497 -0.6908 -0.5755 -1.9272
 8809SOL    HW238064   0.878   1.656  11.568  1.2984 -0.2725  0.4792
 8810SOL     OW38065   1.154   0.005  11.898 -0.3167  0.2996 -0.0133
 8810SOL    HW138066   1.249   4.729  11.902 -0.2991  1.1065  2.5192
 8810SOL    HW238067   1.130   4.658  11.861 -0.6146 -0.0281  0.9394
 8811SOL     OW38068   4.574   3.201   8.112 -0.3105 -0.3938 -0.4030
 8811SOL    HW138069   4.612   3.255   8.182 -0.5292  0.1138 -0.6754
 8811SOL    HW238070   4.511   3.152   8.165  0.5746 -1.5631 -0.4226
 8812SOL     OW38071   3.400   0.366   2.109 -0.4290  0.1551 -0.0318
 8812SOL    HW138072   3.361   0.355   2.023  0.7581 -0.5389 -0.4919
 8812SOL    HW238073   3.359   0.443   2.148 -1.9699 -1.4480  1.5185
 8813SOL     OW38074   1.309   2.482   9.462  0.3750 -0.8546  0.0670
 8813SOL    HW138075   1.359   2.413   9.506 -0.6289 -1.2922  0.5353
 8813SOL    HW238076   1.326   2.462   9.370 -2.0063  1.6544 -0.9178
 8814SOL     OW38077   1.271   0.199   3.078  0.9901  0.1083  0.0298
 8814SOL    HW138078   1.322   0.184   2.999  1.0565 -1.1832  0.3157
 8814SOL    HW238079   1.234   0.112   3.092  1.7695 -0.2884 -0.4035
 8815SOL     OW38080   0.487   3.711   9.481 -0.2581  0.2420 -0.1052
 8815SOL    HW138081   0.576   3.695   9.449 -0.2239  1.6467 -0.7408
 8815SOL    HW238082   0.504   3.723   9.574 -1.0538  2.1022 -0.2056
 8816SOL     OW38083   1.579   1.748   5.627 -0.2189 -0.1187 -0.3175
 8816SOL    HW138084   1.654   1.698   5.595 -1.5657 -0.3990 -3.0353
 8816SOL    HW238085   1.522   1.717   5.557 -0.1727 -0.0699 -0.3771
 8817SOL     OW38086   2.172   2.243  10.039  0.7712  0.0067  0.1086
 8817SOL    HW138087   2.194   2.236  10.132 -0.0538 -0.5178  0.2721
 8817SOL    HW238088   2.234   2.314  10.023 -2.3253  2.6821 -0.0610
 8818SOL     OW38089   3.874   2.495   5.527  0.4599 -0.0447  0.5273
 8818SOL    HW138090   3.966   2.472   5.538  0.3258 -0.2414  1.2436
 8818SOL    HW238091   3.829   2.427   5.577 -1.3290  0.4875 -0.3868
 8819SOL     OW38092   3.324   4.407   5.674 -0.1265 -0.2581 -0.2049
 8819SOL    HW138093   3.299   4.400   5.582  1.4266  1.0269 -0.7150
 8819SOL    HW238094   3.292   4.495   5.691  0.1544 -0.5136  1.6206
 8820SOL     OW38095   4.485   3.227   1.431 -0.2573  0.5033  0.6030
 8820SOL    HW138096   4.553   3.286   1.399 -0.6235  0.0347 -1.0617
 8820SOL    HW238097   4.498   3.145   1.383  4.2446  1.4480  0.2188
 8821SOL     OW38098   4.441   0.829   1.399 -0.0490  0.3548  0.2278
 8821SOL    HW138099   4.515   0.876   1.360  1.1436 -2.2351 -0.6263
 8821SOL    HW238100   4.373   0.890   1.370  0.9687  0.1819 -2.5505
 8822SOL     OW38101   2.116   1.619   6.122 -0.7069 -0.0092  0.5453
 8822SOL    HW138102   2.120   1.713   6.138 -1.0397  0.3936 -1.7414
 8822SOL    HW238103   2.141   1.613   6.030 -1.1712  0.5863  0.3791
 8823SOL     OW38104   2.599   3.759   3.987 -0.3496  0.0487 -0.1294
 8823SOL    HW138105   2.567   3.682   4.035  0.9445  0.9267  2.1581
 8823SOL    HW238106   2.641   3.711   3.915  3.0963  1.0574  1.2215
 8824SOL     OW38107   2.356   1.721  13.802  0.5800  0.1045 -0.0080
 8824SOL    HW138108   2.348   1.636  13.760 -0.4295  0.4356 -0.5003
 8824SOL    HW238109   2.439   1.756  13.771  0.7525 -0.9943 -0.7887
 8825SOL     OW38110   0.867   2.516   5.953  0.4314  0.5572  0.3458
 8825SOL    HW138111   0.908   2.544   5.871 -0.7437 -1.2932 -0.8812
 8825SOL    HW238112   0.927   2.531   6.026  0.5807  1.9297 -0.0530
 8826SOL     OW38113   3.495   3.974  15.060 -0.5190 -0.0135 -0.4154
 8826SOL    HW138114   3.578   3.940  15.026 -0.7699 -0.9863 -0.0457
 8826SOL    HW238115   3.521   4.034  15.130  0.6584  3.2590 -3.6364
 8827SOL     OW38116   0.815   4.161   7.498 -0.0612  0.4504  0.3640
 8827SOL    HW138117   0.895   4.161   7.445 -0.6466 -1.7095 -0.5137
 8827SOL    HW238118   0.750   4.182   7.432  0.2517 -1.0825 -0.4394
 8828SOL     OW38119   0.427   2.013  10.406  0.1427  0.0422  0.2341
 8828SOL    HW138120   0.453   2.103  10.386 -1.7392  0.4950 -0.2301
 8828SOL    HW238121   0.509   1.963  10.403 -0.1088 -0.4286  1.2891
 8829SOL     OW38122   2.354   3.437  14.153  0.8248  0.0367 -0.2811
 8829SOL    HW138123   2.358   3.377  14.078  1.2272 -0.5651  0.2212
 8829SOL    HW238124   2.391   3.381  14.222 -0.8482  0.3066  0.8209
 8830SOL     OW38125   4.296   0.552  15.210  0.3896 -0.3628 -0.1384
 8830SOL    HW138126   4.259   0.629  15.167 -0.3510 -0.4738  0.2875
 8830SOL    HW238127   4.256   0.492  15.146  1.1593  0.0564 -1.0045
 8831SOL     OW38128   2.443   2.044   0.026  0.2803 -0.3163  0.1700
 8831SOL    HW138129   2.525   2.048   0.075 -0.0615 -0.8040  0.7799
 8831SOL    HW238130   2.475   2.032  17.686 -1.8786 -0.6242 -0.5658
 8832SOL     OW38131   1.264   3.454   9.544 -0.1825  0.0011  0.7458
 8832SOL    HW138132   1.236   3.409   9.624  2.0044 -1.3659  0.7654
 8832SOL    HW238133   1.202   3.421   9.479  2.1531  0.6505 -1.8051
 8833SOL     OW38134   0.292   3.462   4.852 -0.1401 -0.3713  0.0993
 8833SOL    HW138135   0.244   3.379   4.844 -0.8976  0.2053 -1.3807
 8833SOL    HW238136   0.339   3.457   4.769  0.2090  1.5549  0.1813
 8834SOL     OW38137   3.150   0.487   8.597  0.3386  0.3015 -0.4163
 8834SOL    HW138138   3.086   0.432   8.551 -0.6898  1.8735 -0.8577
 8834SOL    HW238139   3.225   0.481   8.537  0.1249 -0.4990 -0.6016
 8835SOL     OW38140   1.466   2.305   6.095 -0.4989  0.2311  0.8086
 8835SOL    HW138141   1.437   2.231   6.042 -0.5397  1.1095 -0.4036
 8835SOL    HW238142   1.436   2.371   6.032 -2.0027  0.4893  1.8182
 8836SOL     OW38143   3.778   3.812  14.649  0.9546 -0.6308  0.2771
 8836SOL    HW138144   3.740   3.900  14.653  2.1520 -0.2018  1.9562
 8836SOL    HW238145   3.837   3.823  14.723  0.0862  1.1952  0.7079
 8837SOL     OW38146   4.288   3.328   7.353  0.3570  1.0520 -0.3667
 8837SOL    HW138147   4.310   3.272   7.278  1.5207 -2.9623  3.0473
 8837SOL    HW238148   4.366   3.329   7.409  1.1196 -0.5399 -1.3894
 8838SOL     OW38149   3.076   3.172  13.773  0.3516  0.0937  0.0152
 8838SOL    HW138150   3.153   3.207  13.818 -0.6182  0.4949  1.3976
 8838SOL    HW238151   3.115   3.169  13.686 -0.8121  0.3199 -0.5179
 8839SOL     OW38152   3.221   2.481   6.457  0.1982  0.3099  0.0205
 8839SOL    HW138153   3.140   2.481   6.407  0.7690 -0.0343 -0.9099
 8839SOL    HW238154   3.214   2.397   6.504 -0.9818 -0.7185 -2.0152
 8840SOL     OW38155   2.078   3.140   6.665  0.2152  0.1512  0.2074
 8840SOL    HW138156   2.135   3.064   6.678 -1.4159 -1.4868 -2.1543
 8840SOL    HW238157   2.128   3.210   6.706  0.5433 -0.7414  1.3249
 8841SOL     OW38158   3.177   2.906  11.747 -0.1550  0.1160 -0.8165
 8841SOL    HW138159   3.168   2.825  11.697 -1.3016 -0.7503  0.8054
 8841SOL    HW238160   3.265   2.884  11.775 -0.0937 -0.4378 -1.4328
 8842SOL     OW38161   1.205   2.200   2.487  0.1865 -0.3047 -0.1657
 8842SOL    HW138162   1.262   2.178   2.414  0.5869  0.9503 -0.2204
 8842SOL    HW238163   1.140   2.237   2.428 -1.6594 -2.2944  0.6062
 8843SOL     OW38164   3.845   1.783   6.573 -0.0917  0.4500 -0.1868
 8843SOL    HW138165   3.794   1.710   6.538 -0.0868  0.2763  0.1686
 8843SOL    HW238166   3.919   1.789   6.512  1.1756  1.1004  1.4122
 8844SOL     OW38167   1.931   0.356   7.159  0.0334 -0.0232  0.4586
 8844SOL    HW138168   1.868   0.381   7.227  0.2622 -0.4079  0.8103
 8844SOL    HW238169   1.874   0.291   7.117 -0.9049  2.3270 -1.9067
 8845SOL     OW38170   0.733   0.043  12.782  0.2664  0.4246 -0.3176
 8845SOL    HW138171   0.726   0.020  12.689  2.1799  2.3316 -0.9389
 8845SOL    HW238172   0.692   4.706  12.825  0.5384  0.1544 -0.5224
 8846SOL     OW38173   1.987   3.595  15.650 -0.0200  0.2331  0.0954
 8846SOL    HW138174   1.942   3.572  15.569  1.0239 -0.3753 -0.3117
 8846SOL    HW238175   1.922   3.630  15.711  0.0429 -0.8785  0.8120
 8847SOL     OW38176   2.866   0.080   5.262  0.1423 -0.1869  0.4056
 8847SOL    HW138177   2.865   0.172   5.236 -1.4866  0.5480  2.9714
 8847SOL    HW238178   2.891   0.085   5.354 -0.2671  1.9442  0.3940
 8848SOL     OW38179   0.199   3.729   2.756  0.4187  0.2836 -0.3108
 8848SOL    HW138180   0.254   3.680   2.817 -0.9226 -0.3876  0.3443
 8848SOL    HW238181   0.110   3.701   2.773  0.2365  1.3339  0.4523
 8849SOL     OW38182   2.741   0.295  12.354 -0.1166 -0.6124  0.7546
 8849SOL    HW138183   2.765   0.288  12.446  0.3974 -1.8170  0.5391
 8849SOL    HW238184   2.795   0.369  12.326 -1.2579  0.4242  1.3218
 8850SOL     OW38185   1.467   1.586   7.583  0.6288 -0.2564  0.6969
 8850SOL    HW138186   1.463   1.509   7.526  2.1960  0.2118 -0.0461
 8850SOL    HW238187   1.543   1.562   7.635  1.2006  1.3346  0.5970
 8851SOL     OW38188   1.362   4.691   7.657 -0.3102  0.2112 -0.4567
 8851SOL    HW138189   1.350   4.725   7.746 -0.8922 -0.2381 -0.3623
 8851SOL    HW238190   1.278   4.715   7.618 -0.9303  0.3184  0.9255
 8852SOL     OW38191   4.261   4.737  12.600 -0.1126  0.0344  0.6691
 8852SOL    HW138192   4.257   4.675  12.673  0.3078 -2.5618 -1.5079
 8852SOL    HW238193   4.282   4.680  12.526 -0.7964  0.0625  0.4510
 8853SOL     OW38194   0.549   4.449   4.400  0.6800 -0.0750 -0.1744
 8853SOL    HW138195   0.462   4.430   4.436 -0.0312  2.3273 -0.6310
 8853SOL    HW238196   0.591   4.420   4.481  0.2873 -0.4287 -0.0975
 8854SOL     OW38197   2.298   3.404   6.705  0.1917  0.3250 -0.3868
 8854SOL    HW138198   2.264   3.490   6.730  0.4096 -0.1681  1.6292
 8854SOL    HW238199   2.264   3.361   6.784 -0.8480  1.0376 -0.4498
 8855SOL     OW38200   1.930   4.225   3.227 -0.0208  0.4037 -0.2150
 8855SOL    HW138201   1.991   4.155   3.254 -0.6890  0.3355  1.1290
 8855SOL    HW238202   1.931   4.282   3.304 -1.6443 -0.9978  0.8588
 8856SOL     OW38203   0.566   3.933   7.460 -0.5468 -0.3362 -0.2265
 8856SOL    HW138204   0.522   3.929   7.545 -1.2172 -0.6520 -0.5900
 8856SOL    HW238205   0.613   4.013   7.482 -0.6094 -0.3551 -0.0230
 8857SOL     OW38206   3.361   3.304   5.961 -0.5071 -0.0974  0.1510
 8857SOL    HW138207   3.366   3.354   5.879 -1.8110  0.5312  0.4701
 8857SOL    HW238208   3.432   3.341   6.014  1.5177 -3.4143 -0.2363
 8858SOL     OW38209   4.431   0.843   9.088  0.4497  0.5228 -0.3565
 8858SOL    HW138210   4.499   0.777   9.070  0.6321  0.3175  1.1281
 8858SOL    HW238211   4.354   0.787   9.096  0.9706  0.1828  2.2357
 8859SOL     OW38212   3.925   1.136   4.980  0.3051 -0.2598  0.0097
 8859SOL    HW138213   3.845   1.183   4.957  0.3162  0.5126  1.5828
 8859SOL    HW238214   3.895   1.048   4.958 -0.8180 -0.3094  1.7219
 8860SOL     OW38215   2.106   1.421   2.134 -0.3719 -0.6131 -0.4063
 8860SOL    HW138216   2.135   1.513   2.142 -1.1998 -0.4328  0.5765
 8860SOL    HW238217   2.082   1.406   2.043  1.7012  0.6642 -1.1606
 8861SOL     OW38218   1.754   0.167   8.503  0.1839  0.5028 -0.3500
 8861SOL    HW138219   1.832   0.116   8.521 -1.1591 -0.2020  3.5060
 8861SOL    HW238220   1.781   0.254   8.533 -1.1962  0.7497  0.2075
 8862SOL     OW38221   0.271   0.847   5.165 -0.0281 -0.2279 -0.2322
 8862SOL    HW138222   0.340   0.784   5.187  1.1615  0.0089 -3.3821
 8862SOL    HW238223   0.286   0.918   5.228  0.9854 -2.1038  1.6347
 8863SOL     OW38224   3.585   0.961   3.057 -0.7479 -0.3751  0.4487
 8863SOL    HW138225   3.613   0.924   3.141 -2.6894 -1.5115  0.5988
 8863SOL    HW238226   3.522   0.903   3.015 -1.1497 -0.9332  1.8282
 8864SOL     OW38227   1.775   2.263   5.993  0.4770  0.3106 -0.3970
 8864SOL    HW138228   1.760   2.320   5.918 -4.3232 -1.6464 -0.8869
 8864SOL    HW238229   1.704   2.201   5.980 -0.8802  1.3447  2.0087
 8865SOL     OW38230   4.666   4.097   7.656  0.1973 -0.8664  0.1617
 8865SOL    HW138231   4.624   4.043   7.589  0.6073 -1.6880  0.5703
 8865SOL    HW238232   0.009   4.050   7.677  1.5417  1.2863 -0.1243
 8866SOL     OW38233   1.491   0.883   5.030 -0.6402  0.2507  0.5745
 8866SOL    HW138234   1.437   0.927   5.095 -4.4556 -0.9193 -1.7355
 8866SOL    HW238235   1.412   0.842   4.994 -1.4409  1.4692  0.9252
 8867SOL     OW38236   2.989   0.491  15.162 -0.1999 -0.0754 -0.0478
 8867SOL    HW138237   2.985   0.421  15.097  2.1022 -0.7558  0.5133
 8867SOL    HW238238   2.979   0.440  15.243  1.5538 -0.5859 -0.1593
 8868SOL     OW38239   0.895   1.790  17.669 -0.0556 -0.5893  0.7017
 8868SOL    HW138240   0.883   1.864  17.609  2.8065 -1.7740 -1.3393
 8868SOL    HW238241   0.810   1.747  17.656  0.7029 -0.8278 -3.5282
 8869SOL     OW38242   3.867   3.152   1.752 -0.4936  0.0851 -0.2241
 8869SOL    HW138243   3.788   3.155   1.699  0.1373  3.4646 -0.9744
 8869SOL    HW238244   3.841   3.085   1.815 -2.4778 -2.8888 -4.2222
 8870SOL     OW38245   2.129   3.502   7.252  0.0841 -0.3254  0.1957
 8870SOL    HW138246   2.106   3.409   7.250 -1.7284  0.3042 -6.0441
 8870SOL    HW238247   2.062   3.535   7.312 -0.9183 -0.1974 -0.9902
 8871SOL     OW38248   3.123   3.840   5.179 -0.3976  0.7576  0.5579
 8871SOL    HW138249   3.065   3.915   5.173 -0.0407  0.7595 -2.7013
 8871SOL    HW238250   3.202   3.876   5.219 -0.9072  2.0118  0.4184
 8872SOL     OW38251   1.554   1.765  15.888  0.1638 -0.6680  0.6448
 8872SOL    HW138252   1.522   1.688  15.841  0.4433  1.2341 -2.6523
 8872SOL    HW238253   1.563   1.836  15.824  1.2591 -1.3481  0.0424
 8873SOL     OW38254   2.007   4.423   2.720 -0.5925  0.4187  0.5204
 8873SOL    HW138255   2.090   4.469   2.706  0.8926 -2.3260  0.2518
 8873SOL    HW238256   1.961   4.451   2.641  0.2100  2.2717  0.7128
 8874SOL     OW38257   1.835   4.490   1.877  0.8895  0.8354  0.1922
 8874SOL    HW138258   1.791   4.409   1.903 -0.2101  1.0643 -0.9267
 8874SOL    HW238259   1.776   4.554   1.917 -1.3858 -1.5038  0.5689
 8875SOL     OW38260   4.144   3.153  12.591  0.3579  0.0199  0.3451
 8875SOL    HW138261   4.079   3.179  12.526  1.1749  0.8057 -0.1673
 8875SOL    HW238262   4.093   3.180  12.668 -0.0290 -0.7584  0.3576
 8876SOL     OW38263   3.658   3.850  12.387  0.1163 -0.1632  0.1278
 8876SOL    HW138264   3.727   3.905  12.425 -0.5922  0.3795  0.6152
 8876SOL    HW238265   3.651   3.772  12.441  2.0045  1.6535  3.0018
 8877SOL     OW38266   3.798   0.601   1.659  0.0029 -0.3795 -0.1689
 8877SOL    HW138267   3.720   0.650   1.634 -1.1133 -1.8794  0.4188
 8877SOL    HW238268   3.755   0.516   1.664 -2.3037  0.7322 -0.9665
 8878SOL     OW38269   3.433   1.350  13.141 -0.5286 -0.3936 -0.2464
 8878SOL    HW138270   3.474   1.296  13.073  0.5614 -1.3926  1.1703
 8878SOL    HW238271   3.340   1.354  13.120 -0.5987 -1.5616 -0.1884
 8879SOL     OW38272   2.363   2.535   6.354 -0.0925 -0.1647  0.0305
 8879SOL    HW138273   2.309   2.605   6.318  0.6795 -0.7849 -2.3676
 8879SOL    HW238274   2.309   2.512   6.430 -1.3455  3.2509  0.1479
 8880SOL     OW38275   2.211   0.314   3.567  0.0131 -0.0401  0.2031
 8880SOL    HW138276   2.187   0.381   3.631  0.6287  0.2304  0.1475
 8880SOL    HW238277   2.151   0.246   3.599  0.1858  0.3651  1.4221
 8881SOL     OW38278   3.678   1.932   0.826 -0.5962  0.6185 -0.3862
 8881SOL    HW138279   3.693   1.862   0.762 -0.0670 -1.2463  1.7675
 8881SOL    HW238280   3.589   1.906   0.846 -0.8907  2.3720  0.5969
 8882SOL     OW38281   1.330   2.595   8.930 -0.0494  0.5808  0.5037
 8882SOL    HW138282   1.244   2.579   8.891  0.2692 -0.8339  0.3601
 8882SOL    HW238283   1.372   2.656   8.869 -1.1441  0.5947 -0.2368
 8883SOL     OW38284   0.565   0.012   8.119  0.2143 -0.3696 -0.0673
 8883SOL    HW138285   0.575   0.075   8.048 -0.3896  1.7867  1.7794
 8883SOL    HW238286   0.576   0.053   8.205 -0.6336 -1.1814  0.4352
 8884SOL     OW38287   1.081   0.054   3.835 -0.0512  0.0680  0.4489
 8884SOL    HW138288   1.155   0.111   3.857  1.0803 -2.3874  3.1578
 8884SOL    HW238289   1.041   0.037   3.920  1.9105  0.2756  1.4259
 8885SOL     OW38290   1.987   4.414  17.075 -0.6254 -0.2513 -0.2062
 8885SOL    HW138291   1.927   4.353  17.032  0.5352 -0.6257 -1.2901
 8885SOL    HW238292   2.016   4.359  17.148  1.0771  1.0836  0.1048
 8886SOL     OW38293   0.660   2.976   4.704  0.2149  0.3177 -0.0835
 8886SOL    HW138294   0.606   3.004   4.629  0.5291 -1.2886 -0.9102
 8886SOL    HW238295   0.661   3.060   4.749  1.1072  0.6966 -0.8210
 8887SOL     OW38296   1.868   4.452  14.158  0.1551  0.3752  0.0683
 8887SOL    HW138297   1.801   4.389  14.184 -0.8069  1.4517  0.2329
 8887SOL    HW238298   1.826   4.536  14.178  0.5704  0.6591 -0.2604
 8888SOL     OW38299   2.527   1.641   7.884  0.1554 -0.5820 -0.9015
 8888SOL    HW138300   2.455   1.589   7.848 -1.0203 -0.1230  0.7900
 8888SOL    HW238301   2.500   1.731   7.867 -0.0686 -0.7268 -1.2906
 8889SOL     OW38302   0.375   2.446  16.742  0.5078  0.6163  0.3982
 8889SOL    HW138303   0.324   2.506  16.795  1.2500  1.0098  0.6670
 8889SOL    HW238304   0.379   2.488  16.656  2.1995  1.6269  0.9804
 8890SOL     OW38305   2.227   0.923  14.012  0.0403 -0.2796 -0.4241
 8890SOL    HW138306   2.142   0.894  13.978 -0.7947 -1.0038  2.2007
 8890SOL    HW238307   2.285   0.918  13.937  0.7386 -1.4721  0.1833
 8891SOL     OW38308   4.023   1.031   6.496 -0.4066 -0.0488  0.5736
 8891SOL    HW138309   3.945   1.068   6.456 -1.7353 -0.5906  2.6601
 8891SOL    HW238310   4.004   0.938   6.484 -1.3316 -0.0650  2.2301
 8892SOL     OW38311   4.156   2.963  15.664  0.2051  0.3709  0.6804
 8892SOL    HW138312   4.094   2.890  15.672 -1.0336  1.4594  1.0068
 8892SOL    HW238313   4.236   2.924  15.629 -0.5374  0.2222 -0.8390
 8893SOL     OW38314   2.065   1.626   5.340  0.3702 -0.4856 -0.1145
 8893SOL    HW138315   2.015   1.707   5.351 -1.1974 -1.5210  0.4361
 8893SOL    HW238316   2.001   1.571   5.296 -1.0855  1.0008  0.1147
 8894SOL     OW38317   2.586   4.430   6.603  1.1805 -0.0757 -0.1753
 8894SOL    HW138318   2.642   4.499   6.567  1.2619 -0.2237 -0.3338
 8894SOL    HW238319   2.609   4.416   6.695 -1.4978  2.1675  0.8376
 8895SOL     OW38320   0.015   0.053   1.148 -0.2259 -0.3717  0.0508
 8895SOL    HW138321   0.078   0.085   1.083 -0.2927  0.1557  0.2435
 8895SOL    HW238322   0.035   4.698   1.157  1.1171 -0.1625 -0.7508
 8896SOL     OW38323   3.538   0.694   9.077  0.2859  0.4934  0.3360
 8896SOL    HW138324   3.599   0.715   9.006  0.5022  3.0285  1.2674
 8896SOL    HW238325   3.562   0.758   9.145 -0.5227  0.5923  0.5278
 8897SOL     OW38326   3.133   2.126   4.170 -0.4423 -0.2703  0.1197
 8897SOL    HW138327   3.161   2.115   4.079  0.8295  1.4980  0.3107
 8897SOL    HW238328   3.121   2.220   4.177  0.6082 -0.2290  1.3817
 8898SOL     OW38329   1.761   0.274   5.029 -0.0031  0.1738  0.3241
 8898SOL    HW138330   1.725   0.211   5.091  0.1363  0.0367  0.2674
 8898SOL    HW238331   1.775   0.216   4.954  0.1559  1.0976 -0.3538
 8899SOL     OW38332   4.152   1.707   5.686  0.0443  0.8598 -0.0142
 8899SOL    HW138333   4.198   1.671   5.610 -0.1406 -0.5192  0.5335
 8899SOL    HW238334   4.089   1.637   5.700  2.0605 -0.6064  1.9516
 8900SOL     OW38335   4.083   4.189   5.351 -0.2059  0.1307  0.1752
 8900SOL    HW138336   4.057   4.259   5.411  1.3267  0.5828  0.3261
 8900SOL    HW238337   4.146   4.234   5.294 -1.7572  0.1872 -1.4786
 8901SOL     OW38338   1.688   4.079   5.761 -0.0263  0.2906 -1.0379
 8901SOL    HW138339   1.697   4.174   5.762 -0.3610  0.3071 -0.1947
 8901SOL    HW238340   1.596   4.078   5.785  0.0265  0.9781 -0.8144
 8902SOL     OW38341   2.767   1.801   2.454  0.3759  0.7047  0.1328
 8902SOL    HW138342   2.773   1.845   2.369 -2.5075  0.1197 -0.3692
 8902SOL    HW238343   2.740   1.713   2.427  2.4128  0.4239 -1.0417
 8903SOL     OW38344   4.503   3.653   7.332 -0.3623  0.0012  0.2591
 8903SOL    HW138345   4.425   3.678   7.281 -1.1873 -1.6617  0.6938
 8903SOL    HW238346   4.570   3.651   7.265 -1.3448  1.6171 -0.7539
 8904SOL     OW38347   3.860   1.916   0.479  0.6025 -0.4403 -0.0103
 8904SOL    HW138348   3.933   1.970   0.449 -0.7255  1.5583  0.3603
 8904SOL    HW238349   3.799   1.988   0.495  0.7872  0.2495 -2.4751
 8905SOL     OW38350   4.243   2.796  13.374 -0.7327  0.2895 -0.1566
 8905SOL    HW138351   4.149   2.809  13.378 -0.8280  0.3353 -2.9025
 8905SOL    HW238352   4.263   2.722  13.431 -4.3553 -2.8155 -2.9169
 8906SOL     OW38353   1.766   2.863   9.099  0.1764  0.0698 -0.1171
 8906SOL    HW138354   1.809   2.828   9.021 -0.8203  0.3377 -0.7833
 8906SOL    HW238355   1.682   2.893   9.064  1.8865  2.9112 -1.7226
 8907SOL     OW38356   2.185   3.448  15.775 -0.3444 -0.2171 -0.0285
 8907SOL    HW138357   2.131   3.512  15.728 -0.1976  0.1159  0.2558
 8907SOL    HW238358   2.107   3.401  15.803  0.3135 -1.0218  0.4811
 8908SOL     OW38359   1.075   3.297   1.342 -0.2553 -0.3001 -0.1725
 8908SOL    HW138360   1.123   3.343   1.273  2.6182 -1.4754  1.0226
 8908SOL    HW238361   1.144   3.232   1.357 -0.3012 -0.3795 -0.3032
 8909SOL     OW38362   4.509   3.615  11.629  0.3280 -0.3578 -0.1618
 8909SOL    HW138363   4.499   3.691  11.572 -0.4835  0.0343  0.4954
 8909SOL    HW238364   4.416   3.592  11.639  0.1167  2.0854  3.4674
 8910SOL     OW38365   3.382   3.650   2.703 -0.5496 -0.4214 -0.0111
 8910SOL    HW138366   3.469   3.689   2.700 -0.4078 -0.7330  0.0539
 8910SOL    HW238367   3.389   3.603   2.787  0.2436 -2.8858 -1.4439
 8911SOL     OW38368   0.271   3.315   8.599  0.1324 -0.4386  0.5629
 8911SOL    HW138369   0.199   3.297   8.659  1.0086 -2.1381  1.1010
 8911SOL    HW238370   0.245   3.260   8.525  2.1190 -0.1763 -0.3209
 8912SOL     OW38371   2.900   2.766   0.464  0.0833 -0.2075 -0.1469
 8912SOL    HW138372   2.962   2.703   0.500  0.1823  0.6074  1.1094
 8912SOL    HW238373   2.885   2.811   0.547 -4.5686 -2.3509  0.2175
 8913SOL     OW38374   0.612   3.873   1.333 -0.1682 -0.1872 -0.3280
 8913SOL    HW138375   0.676   3.808   1.302  1.0537  0.9844 -0.2610
 8913SOL    HW238376   0.663   3.954   1.337 -1.4526  0.5513  0.9968
 8914SOL     OW38377   4.444   4.070   7.054 -0.4998 -0.1246 -0.3025
 8914SOL    HW138378   4.493   4.007   7.001  1.9455  1.8027 -0.3333
 8914SOL    HW238379   4.387   4.109   6.988  1.2740 -0.2343 -1.8876
 8915SOL     OW38380   4.728   0.133   7.295 -0.1756  0.4343  0.1863
 8915SOL    HW138381   0.054   0.178   7.240  0.8803 -0.3017  0.7938
 8915SOL    HW238382   0.033   0.047   7.288 -1.1634  0.1601 -2.1105
 8916SOL     OW38383   2.524   0.977   6.704 -0.6729 -0.2693  0.5679
 8916SOL    HW138384   2.540   0.953   6.796  0.2252  0.9506  0.7411
 8916SOL    HW238385   2.549   0.893   6.666  0.7765 -0.3504  1.6792
 8917SOL     OW38386   0.167   2.209   1.295 -0.1404  0.1085  0.3628
 8917SOL    HW138387   0.243   2.256   1.262  0.0251 -1.5853 -1.6388
 8917SOL    HW238388   0.173   2.251   1.381  1.5212 -0.3645  0.4634
 8918SOL     OW38389   2.976   1.840   7.203 -0.2627 -0.4272  0.1587
 8918SOL    HW138390   2.977   1.927   7.164  3.1947 -0.0957  0.9731
 8918SOL    HW238391   2.950   1.789   7.126  0.2991 -0.5306  0.0340
 8919SOL     OW38392   1.039   3.723  16.565 -0.3296  0.5930  0.3229
 8919SOL    HW138393   0.981   3.750  16.636 -0.1407  0.0169  0.6950
 8919SOL    HW238394   0.981   3.752  16.494  1.3064  1.3940 -0.6861
 8920SOL     OW38395   3.443   3.399   4.658 -0.8610  0.6044  0.0593
 8920SOL    HW138396   3.405   3.407   4.746 -2.7736  0.1487 -0.7281
 8920SOL    HW238397   3.507   3.330   4.673  1.8991  2.4132 -3.4515
 8921SOL     OW38398   3.474   0.311   8.810  0.0214  0.2778  0.2147
 8921SOL    HW138399   3.550   0.368   8.797  0.0386  0.1481 -0.2587
 8921SOL    HW238400   3.495   0.239   8.749  0.4155 -0.8318  1.6585
 8922SOL     OW38401   1.593   0.356  17.555  0.7366 -0.3373 -0.3295
 8922SOL    HW138402   1.626   0.324  17.638 -1.0977  1.4248  1.0841
 8922SOL    HW238403   1.623   0.447  17.560 -0.8585  0.2168 -0.8449
 8923SOL     OW38404   2.559   1.399   6.503  0.0934  0.4908  0.1770
 8923SOL    HW138405   2.518   1.328   6.553  5.3047 -1.0390  2.3016
 8923SOL    HW238406   2.630   1.435   6.557 -0.8864  0.1042  1.7163
 8924SOL     OW38407   1.965   0.050   7.357  0.2006  0.1086 -0.3518
 8924SOL    HW138408   2.019   0.042   7.279 -0.5071  0.5716 -0.8939
 8924SOL    HW238409   1.918   4.706   7.345  0.3339  0.1529 -1.2023
 8925SOL     OW38410   3.717   3.217   8.102 -0.2578  0.2292  0.4331
 8925SOL    HW138411   3.739   3.143   8.160 -0.6009 -0.3685 -0.1938
 8925SOL    HW238412   3.724   3.177   8.015  1.3028 -3.0176  2.0467
 8926SOL     OW38413   2.886   1.875   8.852  0.1638  0.3307 -0.1727
 8926SOL    HW138414   2.828   1.840   8.784 -0.0586  0.0680  0.1453
 8926SOL    HW238415   2.951   1.806   8.868 -2.2007 -1.6118  1.0991
 8927SOL     OW38416   3.481   2.560   8.572 -0.1747 -0.5403 -0.7278
 8927SOL    HW138417   3.533   2.625   8.619 -0.1062 -1.3510  0.3131
 8927SOL    HW238418   3.391   2.595   8.575 -0.0478 -0.2539 -0.3127
 8928SOL     OW38419   3.340   3.901  14.865 -0.0128 -0.3660 -0.0051
 8928SOL    HW138420   3.374   3.933  14.948 -0.5584  1.0130 -0.3230
 8928SOL    HW238421   3.305   3.988  14.847  0.2117 -0.4987 -1.0950
 8929SOL     OW38422   2.254   1.722   3.094 -0.2282 -0.1718 -0.5422
 8929SOL    HW138423   2.190   1.651   3.089  0.1912 -0.5526 -0.4285
 8929SOL    HW238424   2.325   1.690   3.039 -0.1762 -0.9154 -0.0487
 8930SOL     OW38425   2.888   2.877   3.428 -0.1270 -0.2859  0.4422
 8930SOL    HW138426   2.930   2.839   3.505 -0.3669  1.5026  1.4696
 8930SOL    HW238427   2.953   2.879   3.358 -1.3276  0.7263 -0.6387
 8931SOL     OW38428   2.916   4.044   8.215  0.4683 -0.5175 -0.6710
 8931SOL    HW138429   2.949   4.002   8.293 -0.2453  1.1752  0.5471
 8931SOL    HW238430   2.997   4.077   8.175  0.8929  0.4856  1.0568
 8932SOL     OW38431   0.841   3.287  11.545  0.5174 -0.2041 -0.0004
 8932SOL    HW138432   0.842   3.335  11.463 -0.3205  0.8626  0.6195
 8932SOL    HW238433   0.935   3.270  11.556  0.0138 -3.0057  0.0178
 8933SOL     OW38434   1.458   1.987   1.892 -0.1603 -0.2975 -0.3429
 8933SOL    HW138435   1.506   1.987   1.975  0.6167 -0.6234 -0.7878
 8933SOL    HW238436   1.375   2.029   1.915 -2.0459 -4.5532  0.6803
 8934SOL     OW38437   0.542   2.321  17.643  0.0102  0.4564 -0.4466
 8934SOL    HW138438   0.463   2.359  17.683 -0.2571 -0.0911 -0.4607
 8934SOL    HW238439   0.572   2.402  17.602  1.8516 -0.2240 -0.4218
 8935SOL     OW38440   3.466   4.446   7.490 -0.5819  0.4416 -0.1926
 8935SOL    HW138441   3.383   4.397   7.493  0.3519 -1.1929 -0.9524
 8935SOL    HW238442   3.524   4.390   7.542 -0.0204 -1.3338 -2.7060
 8936SOL     OW38443   2.027   1.505   7.331 -0.0564 -0.2644  0.7794
 8936SOL    HW138444   1.932   1.515   7.334  0.0338  1.4050 -2.3571
 8936SOL    HW238445   2.039   1.492   7.237  1.2186 -2.4842  1.2505
 8937SOL     OW38446   3.059   0.880   4.440 -0.2301 -0.1416 -0.2019
 8937SOL    HW138447   3.092   0.964   4.407 -2.1831  0.4035 -0.7407
 8937SOL    HW238448   3.028   0.841   4.359  0.4480 -4.0988  1.4579
 8938SOL     OW38449   4.450   0.389   9.246  0.8460  0.3834  0.3242
 8938SOL    HW138450   4.429   0.373   9.338 -0.7035 -2.6402 -0.5632
 8938SOL    HW238451   4.398   0.469   9.235  0.7520  0.3915  0.8187
 8939SOL     OW38452   1.980   2.029   7.081  0.1972  0.0426  0.0544
 8939SOL    HW138453   2.062   2.022   7.034 -0.4662 -0.5131 -0.9979
 8939SOL    HW238454   2.016   2.034   7.170 -2.0932 -1.7541  1.0649
 8940SOL     OW38455   2.269   3.603   2.633  0.0269  0.0800 -0.4375
 8940SOL    HW138456   2.183   3.579   2.668  0.8637  0.2432  1.7463
 8940SOL    HW238457   2.321   3.536   2.678 -0.4422  0.3512  0.5111
 8941SOL     OW38458   4.365   4.013   0.641 -0.2996  0.2168  0.1865
 8941SOL    HW138459   4.354   3.936   0.697  2.0806 -1.3791 -1.5608
 8941SOL    HW238460   4.299   4.071   0.679  0.8972  1.1304  0.8826
 8942SOL     OW38461   2.126   3.666   9.256  0.7154  0.3697 -0.3310
 8942SOL    HW138462   2.209   3.659   9.302  0.5531  0.0314 -0.0908
 8942SOL    HW238463   2.076   3.606   9.312  0.3915  0.2784 -0.7141
 8943SOL     OW38464   2.844   3.311   5.623 -0.5462  0.1733 -0.3185
 8943SOL    HW138465   2.798   3.389   5.651 -0.2559 -0.3024  1.4969
 8943SOL    HW238466   2.932   3.313   5.661 -0.9685 -2.1885  0.8081
 8944SOL     OW38467   4.014   2.009   5.195 -0.1699 -0.0043  0.2136
 8944SOL    HW138468   3.953   2.072   5.155  1.4310  1.2369 -0.2984
 8944SOL    HW238469   4.055   2.056   5.267  0.6658 -1.0728  0.4243
 8945SOL     OW38470   1.292   3.715  14.552 -0.3693  0.1606  0.1786
 8945SOL    HW138471   1.232   3.641  14.555 -1.2478  0.9340  1.6867
 8945SOL    HW238472   1.232   3.775  14.597 -0.8108 -1.1773  1.3730
 8946SOL     OW38473   0.127   4.496   9.370 -0.2327  0.0021 -0.1997
 8946SOL    HW138474   0.124   4.555   9.445  2.9722  1.1284 -0.9740
 8946SOL    HW238475   0.139   4.558   9.298 -1.4444  0.6919  0.2009
 8947SOL     OW38476   0.074   4.646   5.092  0.2898  0.1582 -0.0498
 8947SOL    HW138477   0.010   4.700   5.137 -0.6953 -0.4783 -0.6676
 8947SOL    HW238478   0.159   4.686   5.109  0.4832 -0.4111  0.3365
 8948SOL     OW38479   1.452   1.840   7.486 -0.3902  0.1194  0.6300
 8948SOL    HW138480   1.526   1.880   7.533 -1.5536  2.0260  0.8243
 8948SOL    HW238481   1.455   1.757   7.534 -0.4135  0.0388  0.4898
 8949SOL     OW38482   1.068   4.370   3.703 -0.2034  0.0222  0.7410
 8949SOL    HW138483   1.068   4.394   3.610 -0.4049 -1.5890  0.3382
 8949SOL    HW238484   1.014   4.292   3.700 -0.4257  0.1408  1.7137
 8950SOL     OW38485   2.285   1.391  11.595  0.1498 -0.0790  0.2979
 8950SOL    HW138486   2.279   1.321  11.660  0.2479 -0.7731 -0.4362
 8950SOL    HW238487   2.345   1.453  11.636  2.4467  0.4108 -3.7902
 8951SOL     OW38488   4.599   4.482   4.830  0.0341 -0.2530 -0.5131
 8951SOL    HW138489   4.638   4.500   4.916 -1.4324  1.3464 -0.1974
 8951SOL    HW238490   4.507   4.487   4.856 -0.5305  2.3202 -3.0049
 8952SOL     OW38491   4.605   0.129   3.847 -0.1433  0.4437  0.3446
 8952SOL    HW138492   4.586   0.155   3.757  0.4319 -0.4659 -0.0339
 8952SOL    HW238493   4.687   0.081   3.835  0.0508  1.0868 -0.8412
 8953SOL     OW38494   2.635   0.907   4.491 -0.3360 -0.2832  0.0003
 8953SOL    HW138495   2.548   0.936   4.463  0.8430  2.7298 -0.5636
 8953SOL    HW238496   2.689   0.986   4.491 -0.3585 -0.2654 -0.9633
 8954SOL     OW38497   0.652   0.623   7.035  0.1723 -0.3242  0.4530
 8954SOL    HW138498   0.629   0.680   7.109  0.6864 -2.0012  1.9029
 8954SOL    HW238499   0.598   0.650   6.962  2.7748 -1.4754 -1.8961
 8955SOL     OW38500   1.463   3.288   8.407  0.3409  0.7333  0.2907
 8955SOL    HW138501   1.390   3.348   8.391 -0.9078 -0.2779  2.1137
 8955SOL    HW238502   1.512   3.304   8.326 -2.5470  0.3479 -1.5713
 8956SOL     OW38503   0.169   2.985  16.903  0.2058 -0.4545 -0.1900
 8956SOL    HW138504   0.147   2.960  16.993  1.3211  2.5987  0.9311
 8956SOL    HW238505   0.079   2.990  16.870  0.5720 -0.2464 -1.1290
 8957SOL     OW38506   2.840   3.097   4.756  0.0120 -0.2337  0.3161
 8957SOL    HW138507   2.833   3.095   4.660 -1.8432 -2.1778  0.4781
 8957SOL    HW238508   2.867   3.188   4.766  0.2611 -0.3248  0.4536
 8958SOL     OW38509   3.468   1.061   4.300 -1.0710 -0.2428  0.2411
 8958SOL    HW138510   3.397   1.056   4.364 -1.9711  0.8564 -0.6711
 8958SOL    HW238511   3.436   1.019   4.219 -2.0918  0.6414  0.1913
 8959SOL     OW38512   1.679   2.081   5.149 -0.4741 -0.4497 -0.3858
 8959SOL    HW138513   1.663   2.132   5.228  2.1988  0.0280 -0.1447
 8959SOL    HW238514   1.684   1.993   5.187 -1.0820 -0.8688 -1.2697
 8960SOL     OW38515   0.761   1.668   2.189 -0.0343 -0.5523  0.0388
 8960SOL    HW138516   0.746   1.761   2.170  0.7175 -0.6314 -0.9281
 8960SOL    HW238517   0.825   1.662   2.118  0.1185 -2.5941  0.3696
 8961SOL     OW38518   4.144   2.755   4.682  0.2517  0.3299  0.0780
 8961SOL    HW138519   4.195   2.731   4.604 -0.8375 -1.7302 -0.0175
 8961SOL    HW238520   4.124   2.668   4.717 -0.5285  0.5756  0.2244
 8962SOL     OW38521   1.120   4.313  15.742 -0.0341 -0.2801  0.0853
 8962SOL    HW138522   1.077   4.396  15.764 -1.4273 -2.1860  4.3805
 8962SOL    HW238523   1.104   4.314  15.647 -0.2825  0.9023  0.1394
 8963SOL     OW38524   3.621   4.634  15.964 -0.4414  0.1295 -0.9439
 8963SOL    HW138525   3.611   4.707  16.025  0.3669 -0.4682 -0.1167
 8963SOL    HW238526   3.697   4.663  15.913  0.3066  0.0134  0.1143
 8964SOL     OW38527   1.786   1.478   9.434  0.3845 -0.5482  0.5374
 8964SOL    HW138528   1.776   1.569   9.463 -2.0156 -0.4704 -0.5549
 8964SOL    HW238529   1.819   1.437   9.514 -0.7365 -1.9482  0.2747
 8965SOL     OW38530   3.988   4.688   1.992 -0.1405 -0.4085 -0.3482
 8965SOL    HW138531   4.054   0.013   1.962  0.5656 -0.2446  1.5111
 8965SOL    HW238532   3.933   4.685   1.914  1.0728 -0.9816 -1.1827
 8966SOL     OW38533   2.922   1.231   4.835 -0.3735  0.5864  0.0103
 8966SOL    HW138534   2.904   1.285   4.911  1.1146  0.9348  0.1130
 8966SOL    HW238535   2.839   1.193   4.807  0.1549  0.5136 -1.4742
 8967SOL     OW38536   4.088   1.922   1.436  0.4197 -0.0231  0.1224
 8967SOL    HW138537   4.175   1.963   1.444  0.4127 -0.1611  0.9547
 8967SOL    HW238538   4.103   1.854   1.371 -0.4160  0.8164 -0.9321
 8968SOL     OW38539   4.615   1.124   7.305 -0.5469  1.0146 -0.3056
 8968SOL    HW138540   4.694   1.091   7.349 -0.8766 -0.1076 -0.5599
 8968SOL    HW238541   4.610   1.055   7.238 -2.9795 -0.4921  1.4584
 8969SOL     OW38542   3.342   2.018   3.743 -0.1171 -0.2554  0.0322
 8969SOL    HW138543   3.420   2.037   3.692  0.5026 -2.4077  0.1562
 8969SOL    HW238544   3.278   2.004   3.673 -0.1891 -2.9873  0.6581
 8970SOL     OW38545   1.056   3.387   5.544 -0.3687  0.1804 -0.3135
 8970SOL    HW138546   0.995   3.406   5.472 -0.5910 -0.3780 -0.2773
 8970SOL    HW238547   1.124   3.447   5.514 -0.3868 -0.2249 -1.1621
 8971SOL     OW38548   0.233   2.335   4.795 -0.2935  0.1311  0.0682
 8971SOL    HW138549   0.309   2.292   4.834  0.6366  0.3363 -1.5373
 8971SOL    HW238550   0.273   2.421   4.792  1.1351 -0.6537 -3.0154
 8972SOL     OW38551   1.314   0.714   4.949 -0.2220 -0.5498  0.4889
 8972SOL    HW138552   1.256   0.715   4.873  1.3416 -0.1190 -0.6885
 8972SOL    HW238553   1.339   0.622   4.938 -0.4310 -0.2338 -2.5921
 8973SOL     OW38554   3.974   2.271   7.632  0.1862  0.4543 -0.2107
 8973SOL    HW138555   3.991   2.353   7.586 -0.0181  0.5141 -0.1788
 8973SOL    HW238556   3.974   2.203   7.565  1.1206 -0.1616  0.4029
 8974SOL     OW38557   0.781   0.210   5.203 -0.3218 -0.2463 -0.1623
 8974SOL    HW138558   0.828   0.159   5.137  0.6238 -0.6465  0.8197
 8974SOL    HW238559   0.841   0.201   5.277  2.6040  0.6523 -2.3927
 8975SOL     OW38560   1.466   3.005   3.745  0.1926  0.7292  0.2125
 8975SOL    HW138561   1.526   2.943   3.704 -1.1316 -0.1321 -0.4293
 8975SOL    HW238562   1.516   3.037   3.820  0.3694 -0.3620  0.5567
 8976SOL     OW38563   1.331   4.138   3.743  0.0894  0.7050 -0.4130
 8976SOL    HW138564   1.328   4.059   3.688 -2.7414 -0.3261  1.2643
 8976SOL    HW238565   1.236   4.146   3.750  0.3079  0.3479  2.9693
 8977SOL     OW38566   3.198   0.877   8.918  0.3686 -0.2267 -0.3527
 8977SOL    HW138567   3.235   0.790   8.928 -1.1548 -0.8924 -0.5658
 8977SOL    HW238568   3.278   0.930   8.923  0.5640 -0.6184  0.8048
 8978SOL     OW38569   3.357   2.609  10.273  0.3451 -0.5021  0.5261
 8978SOL    HW138570   3.276   2.644  10.237 -0.5829 -3.6764 -0.5071
 8978SOL    HW238571   3.423   2.676  10.257  0.6950 -1.1522 -0.8023
 8979SOL     OW38572   1.469   3.849   1.953  0.2939 -0.1043  0.1196
 8979SOL    HW138573   1.504   3.832   1.865 -1.8060  1.3134 -0.9848
 8979SOL    HW238574   1.425   3.933   1.949  0.0533 -0.1169  2.7605
 8980SOL     OW38575   2.274   4.331  16.437  0.2345  0.5695 -0.3625
 8980SOL    HW138576   2.265   4.278  16.516  0.7823  0.1067 -0.6104
 8980SOL    HW238577   2.185   4.360  16.421  0.0335 -1.0224 -2.0461
 8981SOL     OW38578   3.886   1.233   6.239 -0.1637 -0.8112  0.1150
 8981SOL    HW138579   3.913   1.299   6.303 -1.0702 -1.8183  1.5375
 8981SOL    HW238580   3.954   1.165   6.245  0.7018 -0.1690 -2.2531
 8982SOL     OW38581   2.038   3.988   4.794  0.5522  0.2607  0.5162
 8982SOL    HW138582   1.952   3.978   4.753  0.5523  0.9340  0.3442
 8982SOL    HW238583   2.082   3.935   4.728  0.0962 -0.2339  0.6062
 8983SOL     OW38584   4.737   2.311   4.707  0.1022  0.0129 -0.4580
 8983SOL    HW138585   0.079   2.323   4.758  0.9996 -0.4065 -1.7722
 8983SOL    HW238586   4.719   2.403   4.687 -1.1087  0.2216  1.5638
 8984SOL     OW38587   0.344   2.965   8.533  0.2295  0.0929 -0.2729
 8984SOL    HW138588   0.255   2.987   8.505  0.5603  0.2104 -1.2305
 8984SOL    HW238589   0.343   2.871   8.550  2.0649 -0.0421 -0.9433
 8985SOL     OW38590   0.805   1.148   6.997 -0.2371 -0.3567  0.1071
 8985SOL    HW138591   0.878   1.094   7.026 -1.1251 -1.6934 -0.1151
 8985SOL    HW238592   0.734   1.138   7.061 -0.0769  0.5024  0.4175
 8986SOL     OW38593   2.285   0.578  10.716 -0.0830  0.2129  0.1309
 8986SOL    HW138594   2.296   0.492  10.676 -1.8454 -0.5258  1.2244
 8986SOL    HW238595   2.246   0.646  10.662  1.2933 -0.0203 -1.1489
 8987SOL     OW38596   4.106   3.006   1.797  0.1818  0.3444  0.2274
 8987SOL    HW138597   4.018   3.016   1.760  0.1998  1.3006  0.4404
 8987SOL    HW238598   4.160   3.030   1.722 -0.4752 -3.7486 -1.5558
 8988SOL     OW38599   0.394   1.736   6.184  0.1021  0.2651 -0.0345
 8988SOL    HW138600   0.373   1.721   6.276 -0.1156  0.8850  0.0155
 8988SOL    HW238601   0.311   1.771   6.152 -0.9715 -2.1071  0.1761
 8989SOL     OW38602   3.294   2.753   5.620 -0.3222  0.0350  0.0320
 8989SOL    HW138603   3.286   2.841   5.655  2.6753 -0.3354  1.6344
 8989SOL    HW238604   3.292   2.693   5.694  0.9375  0.7574  0.6553
 8990SOL     OW38605   1.562   4.256  10.210  0.1032  0.2624  0.6038
 8990SOL    HW138606   1.528   4.206  10.136  1.0735  0.3607  0.0785
 8990SOL    HW238607   1.507   4.334  10.214  0.5359  0.6336 -0.5241
 8991SOL     OW38608   2.095   0.280   6.127 -0.1058 -0.0311  0.5472
 8991SOL    HW138609   2.074   0.334   6.203 -0.8958 -1.2381  1.1938
 8991SOL    HW238610   2.135   0.345   6.070 -0.4136  0.1942  0.5903
 8992SOL     OW38611   1.564   2.854   7.355 -0.2235 -0.5992  0.2390
 8992SOL    HW138612   1.474   2.822   7.365 -0.5474  0.1333 -0.3324
 8992SOL    HW238613   1.607   2.774   7.385 -0.9276 -1.4692 -1.0270
 8993SOL     OW38614   4.277   2.903   1.955 -0.1494  0.3628 -0.1143
 8993SOL    HW138615   4.298   2.981   2.007 -0.9368  0.4462  0.0711
 8993SOL    HW238616   4.239   2.949   1.880 -1.2737  2.2486  1.6120
 8994SOL     OW38617   1.097   1.975   3.307 -0.1656  0.2324 -0.2365
 8994SOL    HW138618   1.060   2.017   3.385 -1.6482 -0.9341 -0.2948
 8994SOL    HW238619   1.114   2.047   3.247  1.3575 -0.6370 -0.8548
 8995SOL     OW38620   1.697   0.513   3.281  1.0122 -0.2269  0.0972
 8995SOL    HW138621   1.656   0.495   3.196  0.3298 -0.4249  0.4669
 8995SOL    HW238622   1.710   0.423   3.312  0.0022 -0.1374  0.7818
 8996SOL     OW38623   2.383   3.037  12.612  0.6409  0.0849  0.3453
 8996SOL    HW138624   2.458   2.991  12.649  2.1530  2.1991 -0.1148
 8996SOL    HW238625   2.429   3.086  12.544  0.0599 -0.7508 -0.6502
 8997SOL     OW38626   4.181   1.574   9.162  0.3612 -0.1242 -0.0219
 8997SOL    HW138627   4.114   1.635   9.129 -1.5402 -1.4439  1.3683
 8997SOL    HW238628   4.171   1.573   9.257 -0.1351 -0.0008 -0.0696
 8998SOL     OW38629   1.734   1.733   9.572 -0.2519  0.0687 -0.3848
 8998SOL    HW138630   1.768   1.755   9.485 -2.0177 -0.1876 -1.1350
 8998SOL    HW238631   1.705   1.818   9.603  0.8502  0.3292 -0.0675
 8999SOL     OW38632   2.129   1.519   2.949 -0.3302  0.4177 -0.2934
 8999SOL    HW138633   2.111   1.530   2.856  2.0419 -0.5159 -0.8597
 8999SOL    HW238634   2.084   1.435   2.958 -0.9562  0.7061 -0.7859
 9000SOL     OW38635   4.320   4.733   7.432 -0.1025  0.5544  0.0807
 9000SOL    HW138636   4.343   0.072   7.485 -2.2926  1.6321 -0.5536
 9000SOL    HW238637   4.268   4.678   7.490  0.2150  0.4365  0.2538
 9001SOL     OW38638   3.162   0.785   6.288  0.5962 -0.4175  0.3855
 9001SOL    HW138639   3.188   0.868   6.327  0.6827  0.1453 -0.9061
 9001SOL    HW238640   3.237   0.763   6.233 -0.0610 -1.3929 -0.1241
 9002SOL     OW38641   1.812   2.349   4.681 -0.3706  0.5131 -0.1607
 9002SOL    HW138642   1.811   2.303   4.764  0.0969 -0.7923 -0.8833
 9002SOL    HW238643   1.870   2.422   4.701  2.5677 -2.3722  1.6766
 9003SOL     OW38644   0.710   2.361   4.826 -0.9647 -0.3863 -0.7629
 9003SOL    HW138645   0.795   2.318   4.830 -0.2892  0.9824 -0.5131
 9003SOL    HW238646   0.740   2.451   4.824 -3.4471  0.4128 -2.4088
 9004SOL     OW38647   3.842   0.449   8.990 -0.3402 -0.4630 -0.3150
 9004SOL    HW138648   3.785   0.412   9.057 -1.2948  1.2010 -0.2092
 9004SOL    HW238649   3.785   0.440   8.913  1.4739 -0.8345 -1.6020
 9005SOL     OW38650   3.968   4.447   3.242 -0.3324 -0.7967  0.0156
 9005SOL    HW138651   4.035   4.445   3.174 -0.0530 -1.3420  0.3074
 9005SOL    HW238652   3.934   4.537   3.239  0.1079 -0.5804  2.0176
 9006SOL     OW38653   4.549   1.187   5.636  0.4255 -0.5830 -0.4346
 9006SOL    HW138654   4.620   1.162   5.577 -0.1749 -1.6932 -0.6900
 9006SOL    HW238655   4.570   1.128   5.709  0.7635  1.3322  0.9991
 9007SOL     OW38656   1.232   0.299   7.721  0.4855  0.4745 -0.1592
 9007SOL    HW138657   1.319   0.286   7.759  1.2430  1.2784 -1.6452
 9007SOL    HW238658   1.177   0.316   7.798 -0.9538 -3.1371 -0.3628
 9008SOL     OW38659   1.280   2.197   9.246 -0.3570 -0.3416 -0.2734
 9008SOL    HW138660   1.194   2.217   9.208 -0.3660 -0.3809 -0.2748
 9008SOL    HW238661   1.331   2.234   9.175  1.1828 -1.9040  0.0145
 9009SOL     OW38662   1.035   2.551   2.912 -0.0475  0.0170  0.1080
 9009SOL    HW138663   1.113   2.587   2.955 -0.6891  1.4075  0.1347
 9009SOL    HW238664   0.967   2.569   2.977 -1.5067 -1.7087 -0.9423
 9010SOL     OW38665   2.126   4.139  11.663  0.1119  0.3228  0.3134
 9010SOL    HW138666   2.192   4.082  11.622  2.0927  1.5893  1.7122
 9010SOL    HW238667   2.166   4.160  11.747 -1.2286 -0.4446  1.1291
 9011SOL     OW38668   1.706   4.112   3.118  0.2934  0.7864  0.3061
 9011SOL    HW138669   1.789   4.145   3.153 -0.3201  1.1299  1.4472
 9011SOL    HW238670   1.738   4.039   3.064 -0.6557  0.3926  0.2721
 9012SOL     OW38671   0.668   3.151   6.986  0.1251 -0.0692 -0.2923
 9012SOL    HW138672   0.681   3.086   6.917 -0.2991  0.2234 -0.6441
 9012SOL    HW238673   0.674   3.090   7.060  1.7228 -3.4216 -3.2088
 9013SOL     OW38674   1.642   4.407  16.141  0.2142  0.0760 -0.0295
 9013SOL    HW138675   1.707   4.343  16.112 -0.2120 -0.5055  0.3043
 9013SOL    HW238676   1.560   4.375  16.103  0.9103 -0.2897 -1.2136
 9014SOL     OW38677   2.860   1.121   5.329 -0.6644  0.1701 -0.0991
 9014SOL    HW138678   2.778   1.143   5.285 -0.6939 -3.3650 -1.8061
 9014SOL    HW238679   2.900   1.070   5.258  0.6231 -0.0236  0.7659
 9015SOL     OW38680   4.434   2.835  13.163  0.5807 -0.3255 -0.0248
 9015SOL    HW138681   4.356   2.837  13.108  0.4618 -0.7550  0.1330
 9015SOL    HW238682   4.400   2.850  13.252  0.8457  1.6949 -0.2600
 9016SOL     OW38683   0.796   1.485   7.409 -0.0625 -0.7967  0.2052
 9016SOL    HW138684   0.805   1.579   7.427 -3.0744 -0.2900 -0.9115
 9016SOL    HW238685   0.833   1.477   7.321  2.4895  1.5059  1.0577
 9017SOL     OW38686   4.564   4.004   7.416  0.3233 -0.2788  0.3782
 9017SOL    HW138687   4.631   3.946   7.379  1.2373  1.0067 -0.0144
 9017SOL    HW238688   4.551   4.072   7.350 -1.6730  0.1069  1.1691
 9018SOL     OW38689   3.725   1.274   6.803 -0.4756  0.2416  0.3556
 9018SOL    HW138690   3.808   1.233   6.829 -0.1624  0.2431 -0.6520
 9018SOL    HW238691   3.750   1.366   6.795  0.4898 -0.3039 -2.7677
 9019SOL     OW38692   2.974   1.254   3.561 -0.5218 -0.2396 -0.4504
 9019SOL    HW138693   2.944   1.330   3.512 -2.3333  0.4399  1.7670
 9019SOL    HW238694   3.049   1.292   3.608 -0.8845  2.0442 -1.7351
 9020SOL     OW38695   0.565   0.794   0.739  0.1255  0.2418  0.1227
 9020SOL    HW138696   0.492   0.855   0.742  1.0430  1.3010  1.0225
 9020SOL    HW238697   0.618   0.846   0.680  1.0139  1.1498  1.7072
 9021SOL     OW38698   4.173   0.277   5.424 -0.0691 -0.1880  0.6220
 9021SOL    HW138699   4.104   0.311   5.366 -0.6894  0.4882  1.7614
 9021SOL    HW238700   4.132   0.221   5.489 -1.3710  0.4570  0.3654
 9022SOL     OW38701   1.084   1.279  12.659 -0.9061  0.1941 -0.3670
 9022SOL    HW138702   1.060   1.370  12.676  1.8648  0.5439  1.6090
 9022SOL    HW238703   1.174   1.287  12.688 -1.2978  0.3407  0.7876
 9023SOL     OW38704   2.183   3.333  13.917 -0.4495  0.1968 -0.1444
 9023SOL    HW138705   2.116   3.288  13.866  1.7495 -1.7431 -1.2693
 9023SOL    HW238706   2.157   3.412  13.868 -0.6905  0.7226  0.8284
 9024SOL     OW38707   2.645   2.987   2.629 -0.2405 -0.2670  0.1235
 9024SOL    HW138708   2.566   3.026   2.592 -1.1501 -0.8170  1.4732
 9024SOL    HW238709   2.676   2.925   2.564  1.8205  0.9347 -0.0596
 9025SOL     OW38710   1.395   0.053   0.019 -0.1911 -0.3479  0.1125
 9025SOL    HW138711   1.308   0.055   0.058 -0.4072  0.7311 -0.3971
 9025SOL    HW238712   1.414   0.147   0.017 -2.1528  0.0040 -1.8610
 9026SOL     OW38713   0.673   1.076   4.933 -0.4019  0.2395  0.0892
 9026SOL    HW138714   0.740   1.025   4.888 -1.4895  1.8555 -3.3764
 9026SOL    HW238715   0.623   1.121   4.866  3.0254  0.4479 -2.3109
 9027SOL     OW38716   1.423   1.514   5.791  0.6405  0.4275  0.0339
 9027SOL    HW138717   1.364   1.544   5.722 -1.4763 -2.7833  0.4417
 9027SOL    HW238718   1.386   1.430   5.817  0.1056  0.5675 -0.2833
 9028SOL     OW38719   1.689   4.452   6.314 -0.4537 -0.5290  0.5499
 9028SOL    HW138720   1.614   4.492   6.270  0.0733 -2.5703 -2.1239
 9028SOL    HW238721   1.730   4.536   6.337 -0.0366 -1.0912  1.8879
 9029SOL     OW38722   4.482   4.608   5.631 -0.2766 -0.2604  0.1529
 9029SOL    HW138723   4.441   4.695   5.629 -0.3010 -0.2907 -0.7892
 9029SOL    HW238724   4.432   4.564   5.699  0.4776 -0.5389  0.5307
 9030SOL     OW38725   3.203   3.274   6.749  0.3964  0.0146  0.4212
 9030SOL    HW138726   3.178   3.364   6.730 -0.6264  0.1183  2.2646
 9030SOL    HW238727   3.264   3.272   6.823  1.5127  1.1713 -0.4734
 9031SOL     OW38728   3.308   4.579   6.441  0.0543 -0.5208 -0.6075
 9031SOL    HW138729   3.378   4.529   6.400  2.0921  1.3067  0.6388
 9031SOL    HW238730   3.311   4.659   6.388 -1.2783  0.7089  1.1327
 9032SOL     OW38731   4.549   0.847   6.733 -0.2809  0.0824  0.2010
 9032SOL    HW138732   4.600   0.918   6.695  0.3468 -0.6097 -0.2443
 9032SOL    HW238733   4.484   0.850   6.663  0.7654  1.9151 -0.6907
 9033SOL     OW38734   0.475   0.754   1.926  0.5297  1.0944 -0.1854
 9033SOL    HW138735   0.551   0.809   1.911  0.2839  1.8144  1.2777
 9033SOL    HW238736   0.408   0.797   1.873 -1.6179 -2.5517 -0.4884
 9034SOL     OW38737   1.669   1.011  15.643  0.0242 -0.6145  0.4167
 9034SOL    HW138738   1.617   1.089  15.629 -1.4233 -2.1050 -2.3740
 9034SOL    HW238739   1.726   1.006  15.566  0.1236  0.8513  0.4034
 9035SOL     OW38740   0.662   0.148   0.310 -0.0093  0.8094  0.2829
 9035SOL    HW138741   0.686   0.064   0.271 -0.2457  1.4298 -1.2113
 9035SOL    HW238742   0.674   0.214   0.242 -0.2150 -0.3675 -0.9154
 9036SOL     OW38743   3.567   1.984   8.693  0.2020 -0.4412 -0.0172
 9036SOL    HW138744   3.564   1.957   8.601  0.4832 -2.5624  0.5851
 9036SOL    HW238745   3.638   1.925   8.720 -0.7273 -1.9166 -0.7520
 9037SOL     OW38746   4.057   4.576   2.864  0.3289  0.3696  0.3020
 9037SOL    HW138747   4.086   4.628   2.789 -0.7464 -1.0924 -1.1543
 9037SOL    HW238748   4.009   4.510   2.813 -3.0321  3.8827 -1.0306
 9038SOL     OW38749   0.582   1.229   8.288  0.3845 -0.4456  0.6903
 9038SOL    HW138750   0.582   1.139   8.320  2.2319 -0.6078  0.2429
 9038SOL    HW238751   0.663   1.242   8.238 -0.6386 -0.3972 -0.9489
 9039SOL     OW38752   0.910   1.583   5.991  0.4869  0.3115  0.0953
 9039SOL    HW138753   0.938   1.643   6.060  4.5345 -0.8244 -0.5190
 9039SOL    HW238754   0.820   1.574   6.022  1.0073  0.5094  1.6502
 9040SOL     OW38755   0.899   3.700  17.335 -0.0313 -0.2713 -0.3485
 9040SOL    HW138756   0.876   3.617  17.375 -0.3148 -0.0208  0.0089
 9040SOL    HW238757   0.897   3.766  17.405  1.9182 -0.9284  0.3219
 9041SOL     OW38758   0.882   1.524   7.137 -0.0975  0.5287  0.3056
 9041SOL    HW138759   0.945   1.487   7.075  0.0659  0.6773  0.3842
 9041SOL    HW238760   0.843   1.602   7.098 -1.1219  0.0252  0.3291
 9042SOL     OW38761   2.705   4.035   4.182 -0.2883  0.0024 -0.3088
 9042SOL    HW138762   2.740   4.124   4.188  2.4359 -0.9658 -1.7015
 9042SOL    HW238763   2.677   4.027   4.091 -1.2163  0.3383 -0.0456
 9043SOL     OW38764   1.178   3.275   2.532  0.5601  0.5440 -0.5240
 9043SOL    HW138765   1.098   3.230   2.505  0.3099  0.4682  0.3609
 9043SOL    HW238766   1.133   3.329   2.596 -0.9784 -1.9025  0.4692
 9044SOL     OW38767   0.446   1.056   5.926  0.4015 -0.4591  0.3659
 9044SOL    HW138768   0.450   1.122   5.856 -0.1450 -2.1716 -1.2969
 9044SOL    HW238769   0.460   1.108   6.005  1.2581  0.8387 -0.6367
 9045SOL     OW38770   2.935   3.004   8.691 -0.4659  0.0169 -0.6258
 9045SOL    HW138771   2.942   3.054   8.610 -0.8183 -1.2156 -1.4321
 9045SOL    HW238772   2.897   2.925   8.651  0.5134 -1.8298  2.0567
 9046SOL     OW38773   4.489   1.623   3.660 -0.0156 -0.1339 -0.2458
 9046SOL    HW138774   4.466   1.654   3.573 -0.2313 -0.1066 -0.1785
 9046SOL    HW238775   4.431   1.669   3.721 -0.0988 -0.7343  0.1308
 9047SOL     OW38776   3.592   2.546  10.570  0.2855  0.1421 -0.5103
 9047SOL    HW138777   3.649   2.476  10.602 -1.3026 -0.6834  0.4868
 9047SOL    HW238778   3.557   2.509  10.489 -0.0494 -1.7697  0.5223
 9048SOL     OW38779   0.868   1.011   4.355  0.6678 -0.0829  0.2871
 9048SOL    HW138780   0.895   1.049   4.272  3.4306 -2.6864 -0.0125
 9048SOL    HW238781   0.933   1.046   4.415  0.9834 -0.2062  0.0206
 9049SOL     OW38782   3.012   1.585   4.428 -0.2458  0.6745 -0.1720
 9049SOL    HW138783   2.960   1.665   4.438 -1.4740 -0.2786  1.0323
 9049SOL    HW238784   3.086   1.617   4.376  0.1636 -0.9488 -0.5912
 9050SOL     OW38785   3.492   1.283   5.413 -0.1622  0.0447 -0.0275
 9050SOL    HW138786   3.526   1.199   5.445 -0.8982 -0.0957  0.3945
 9050SOL    HW238787   3.517   1.286   5.321  0.5248  0.1546  0.1600
 9051SOL     OW38788   0.334   0.408   1.364 -0.4017  0.6759  0.4316
 9051SOL    HW138789   0.398   0.345   1.333  1.0381  1.0883  2.5344
 9051SOL    HW238790   0.251   0.377   1.329 -0.7774 -0.0465  1.9463
 9052SOL     OW38791   1.073   1.994   5.694 -0.4466  0.4378 -0.2415
 9052SOL    HW138792   1.125   2.062   5.650 -0.8927  0.5696 -0.5556
 9052SOL    HW238793   1.151   1.945   5.721 -1.8256 -1.3693  0.4597
 9053SOL     OW38794   0.510   3.320   3.216 -0.4836  0.0811  0.3544
 9053SOL    HW138795   0.503   3.233   3.177  0.3076 -0.7126  1.9704
 9053SOL    HW238796   0.605   3.326   3.221 -0.5243  0.6517  0.4479
 9054SOL     OW38797   2.192   2.680   7.481  0.7964  0.1842 -0.1134
 9054SOL    HW138798   2.128   2.692   7.551 -1.0630 -1.4228 -1.5138
 9054SOL    HW238799   2.213   2.590   7.506 -0.7148  0.0206  0.5852
 9055SOL     OW38800   1.894   2.600   3.816 -0.3099 -0.0188 -0.5905
 9055SOL    HW138801   1.926   2.530   3.874  1.7187  0.6347 -0.9194
 9055SOL    HW238802   1.964   2.610   3.751  0.0893 -1.0477 -0.3277
 9056SOL     OW38803   1.417   1.775   7.838 -0.1037 -0.4904  0.0103
 9056SOL    HW138804   1.468   1.699   7.865 -0.8561 -0.5591  1.2268
 9056SOL    HW238805   1.482   1.843   7.857 -0.4052 -0.6410  1.5818
 9057SOL     OW38806   2.096   4.526   5.510  0.2737 -0.0059  0.8023
 9057SOL    HW138807   2.187   4.531   5.539  0.5688 -0.0269 -0.1054
 9057SOL    HW238808   2.062   4.608   5.546  0.5159  1.0524 -1.3534
 9058SOL     OW38809   3.453   1.043   5.664  0.5350 -0.1989 -0.4519
 9058SOL    HW138810   3.481   1.036   5.755 -1.0107  1.5614  0.1433
 9058SOL    HW238811   3.358   1.053   5.664  0.6410  0.7848 -2.1992
 9059SOL     OW38812   3.667   2.139   1.742  0.3906 -0.3443  0.4725
 9059SOL    HW138813   3.635   2.053   1.713 -1.5999  0.1025  1.3435
 9059SOL    HW238814   3.759   2.134   1.715  0.3793  1.1368  0.1942
 9060SOL     OW38815   3.832   1.949   6.233 -0.0489 -0.3564 -0.1706
 9060SOL    HW138816   3.824   2.037   6.268  1.4484  0.3970 -1.6956
 9060SOL    HW238817   3.922   1.928   6.256 -0.3162  2.6128  3.4969
 9061SOL     OW38818   1.840   4.547   7.298 -0.1750 -0.1655  0.6862
 9061SOL    HW138819   1.827   4.502   7.382 -0.3031  0.1879  0.8566
 9061SOL    HW238820   1.845   4.463   7.252 -0.4225 -0.4804  1.2282
 9062SOL     OW38821   4.451   2.287   5.015 -0.1180 -0.2872 -0.4484
 9062SOL    HW138822   4.359   2.270   5.030  0.2173  0.2940  2.2531
 9062SOL    HW238823   4.500   2.235   5.079 -0.8642 -2.2234 -1.4384
 9063SOL     OW38824   0.990   4.713   3.074  0.0245 -0.5592  0.3953
 9063SOL    HW138825   0.904   4.682   3.103 -0.9406  0.2879 -1.5413
 9063SOL    HW238826   0.980   0.070   3.073 -2.1209 -0.7732  0.1197
 9064SOL     OW38827   4.243   2.280  10.522  0.2951 -0.1654  0.4737
 9064SOL    HW138828   4.281   2.217  10.583 -0.2970 -0.4150  0.5824
 9064SOL    HW238829   4.321   2.335  10.509 -0.5714  0.8452 -0.5073
 9065SOL     OW38830   3.719   1.524   8.578  0.3543 -0.1470  0.0211
 9065SOL    HW138831   3.632   1.482   8.581  1.0402 -1.6641 -1.0992
 9065SOL    HW238832   3.696   1.585   8.508 -2.4283  0.9191  1.8627
 9066SOL     OW38833   2.069   0.141  14.612 -0.5156  0.2940  0.0614
 9066SOL    HW138834   2.147   0.197  14.603 -1.0241  0.6613 -2.0337
 9066SOL    HW238835   2.077   0.095  14.529  0.4959 -2.2726  1.5926
 9067SOL     OW38836   2.879   1.227   3.011 -0.0486 -0.5571 -0.1834
 9067SOL    HW138837   2.821   1.303   3.004  2.2065  1.2542  0.5388
 9067SOL    HW238838   2.849   1.179   2.934 -1.0450  1.4135 -1.0220
 9068SOL     OW38839   0.012   2.846   8.458  0.2110  0.1113 -0.0003
 9068SOL    HW138840   0.028   2.807   8.372  0.3005  0.7823 -0.2886
 9068SOL    HW238841   4.695   2.922   8.439  0.7384  0.8490  1.4142
 9069SOL     OW38842   2.491   3.267   3.692 -0.2798 -0.5063  0.3036
 9069SOL    HW138843   2.466   3.328   3.761  0.7718  2.0129 -1.5375
 9069SOL    HW238844   2.407   3.233   3.663 -1.1569  1.6713  0.2969
 9070SOL     OW38845   2.773   0.082   8.792  0.1483  0.0143 -0.3739
 9070SOL    HW138846   2.803   0.033   8.869 -0.8776 -0.2303 -0.1368
 9070SOL    HW238847   2.773   0.175   8.816 -1.2495  0.4816 -2.2649
 9071SOL     OW38848   2.586   4.496  11.400 -0.0849  0.1192 -0.8235
 9071SOL    HW138849   2.505   4.495  11.350  0.3637 -0.5914 -1.5308
 9071SOL    HW238850   2.570   4.582  11.440  2.6745  0.0580  0.4064
 9072SOL     OW38851   0.435   1.105   8.896 -0.1270  0.1550 -0.2409
 9072SOL    HW138852   0.353   1.063   8.921  1.0031 -1.4552  0.8349
 9072SOL    HW238853   0.481   1.115   8.980  0.5716  1.2895 -0.7601
 9073SOL     OW38854   4.516   0.513   7.015 -0.2908 -0.4674  0.1625
 9073SOL    HW138855   4.559   0.521   7.100  0.8875 -1.8888 -0.3096
 9073SOL    HW238856   4.453   0.442   7.026 -1.2830  0.4320  0.3707
 9074SOL     OW38857   1.968   3.759   7.138 -0.2991 -0.6761  0.4181
 9074SOL    HW138858   1.898   3.701   7.167 -2.2454  1.0856 -0.7828
 9074SOL    HW238859   2.005   3.698   7.074 -0.4521 -0.7549  0.4028
 9075SOL     OW38860   3.804   3.330   5.158 -0.1017  0.0903  0.1580
 9075SOL    HW138861   3.742   3.331   5.232 -0.5471 -1.0834 -0.1992
 9075SOL    HW238862   3.786   3.245   5.118 -1.7560  1.1913 -1.4028
 9076SOL     OW38863   1.644   3.595  15.338  0.0419 -0.2665 -0.3739
 9076SOL    HW138864   1.715   3.547  15.380 -1.2850 -2.1067 -0.1988
 9076SOL    HW238865   1.691   3.672  15.306  0.8423 -1.2592 -1.5897
 9077SOL     OW38866   2.363   3.755  10.925 -0.1247  0.0739  0.1594
 9077SOL    HW138867   2.351   3.846  10.899  0.0360  0.1389  0.3124
 9077SOL    HW238868   2.272   3.725  10.920 -0.0691 -0.3552  1.6524
 9078SOL     OW38869   1.883   2.238   6.944  0.1666  0.3138 -0.0532
 9078SOL    HW138870   1.931   2.189   7.010  0.3914 -0.5650 -0.8751
 9078SOL    HW238871   1.940   2.230   6.867  0.9745  1.6520  0.4021
 9079SOL     OW38872   3.652   3.119  15.275  0.4168 -0.1572  0.3072
 9079SOL    HW138873   3.740   3.152  15.295 -0.1736  0.4806  1.9045
 9079SOL    HW238874   3.672   3.083  15.189 -0.1838 -0.1201  0.1508
 9080SOL     OW38875   4.659   2.447  16.678  0.3044  0.0542 -0.4375
 9080SOL    HW138876   4.709   2.395  16.614  3.0125 -0.0974  1.8084
 9080SOL    HW238877   4.644   2.529  16.632  1.6504  1.6378  1.9682
 9081SOL     OW38878   0.817   1.392   2.690 -0.3433  0.1087  0.0662
 9081SOL    HW138879   0.801   1.401   2.596  1.1019  2.9413  0.1074
 9081SOL    HW238880   0.813   1.480   2.727  3.2948  0.5883 -0.7117
 9082SOL     OW38881   2.070   1.856  12.051 -0.2497  0.3433  0.0289
 9082SOL    HW138882   2.054   1.776  12.000  0.6327 -0.1870  0.5833
 9082SOL    HW238883   1.979   1.881  12.066  0.2131  2.5546 -0.7706
 9083SOL     OW38884   0.171   2.225  14.423 -0.1065 -0.8662 -0.1505
 9083SOL    HW138885   0.093   2.187  14.382 -1.3060  1.0754  0.3041
 9083SOL    HW238886   0.180   2.170  14.501 -0.9170  0.1688  0.6765
 9084SOL     OW38887   3.935   4.653   4.229  0.0106  0.0695 -0.1828
 9084SOL    HW138888   3.944   0.002   4.190  1.5239  0.1459  0.3211
 9084SOL    HW238889   3.927   4.675   4.322 -1.9915 -3.1515  0.4130
 9085SOL     OW38890   4.658   2.438  13.176 -0.1595  0.4889  0.6782
 9085SOL    HW138891   4.627   2.465  13.090 -0.1914 -1.5086  0.0613
 9085SOL    HW238892   4.609   2.494  13.235  0.6105  1.1404  0.7072
 9086SOL     OW38893   0.979   3.229   9.181  0.0542  0.1671 -0.3297
 9086SOL    HW138894   0.970   3.300   9.118 -1.3544  0.0423 -0.2637
 9086SOL    HW238895   0.891   3.212   9.216  1.1022 -1.8971  1.3207
 9087SOL     OW38896   1.035   2.310   4.065 -0.2934 -0.2173 -0.3622
 9087SOL    HW138897   1.105   2.355   4.017 -0.1496 -2.6832 -2.4867
 9087SOL    HW238898   0.953   2.326   4.018  0.1417 -0.2034 -1.1213
 9088SOL     OW38899   3.492   4.445  14.814 -0.0105  0.1856 -0.0361
 9088SOL    HW138900   3.456   4.505  14.879 -1.9565 -1.5138  0.4714
 9088SOL    HW238901   3.506   4.369  14.871 -0.4850 -2.1131 -2.9862
 9089SOL     OW38902   3.767   1.074   6.470 -0.6186 -0.7446 -0.1896
 9089SOL    HW138903   3.778   1.168   6.459  0.3076 -0.8773 -0.4623
 9089SOL    HW238904   3.677   1.070   6.438 -0.7931 -1.2710  0.3684
 9090SOL     OW38905   0.173   1.378   9.878 -0.1578 -0.2947 -0.0265
 9090SOL    HW138906   0.083   1.370   9.846  0.0006  0.6742 -0.7414
 9090SOL    HW238907   0.180   1.473   9.868  0.7921 -0.1632  1.9423
 9091SOL     OW38908   2.673   0.969  10.414 -0.4694  0.2048 -0.1537
 9091SOL    HW138909   2.594   0.942  10.460 -0.4479  2.5816  1.2709
 9091SOL    HW238910   2.704   1.032  10.479 -0.7066  1.0333 -0.8549
 9092SOL     OW38911   2.389   3.589   3.306  0.3571  0.0403  0.2124
 9092SOL    HW138912   2.479   3.577   3.338 -0.2075 -1.2071  1.2965
 9092SOL    HW238913   2.368   3.496   3.298 -1.8687  0.5014  0.9721
 9093SOL     OW38914   3.467   3.188   4.238  0.1543  0.3344 -0.2773
 9093SOL    HW138915   3.381   3.196   4.278 -0.5277 -1.4384 -1.3751
 9093SOL    HW238916   3.507   3.253   4.296  0.2555  0.9770 -1.0692
 9094SOL     OW38917   0.351   4.373  12.186  0.3204  0.0385  0.4511
 9094SOL    HW138918   0.332   4.464  12.165  0.4981 -0.1115 -0.3574
 9094SOL    HW238919   0.427   4.370  12.244  0.3549  1.8744  0.4805
 9095SOL     OW38920   4.538   2.192   0.814 -0.2960 -0.2815  0.3797
 9095SOL    HW138921   4.571   2.233   0.894 -0.3092 -0.6307  0.5626
 9095SOL    HW238922   4.445   2.212   0.820  0.0363  1.7575 -1.3530
 9096SOL     OW38923   1.537   3.174   4.390  0.0401 -0.1462  0.4952
 9096SOL    HW138924   1.612   3.230   4.372  0.1640 -0.5742 -0.3134
 9096SOL    HW238925   1.575   3.086   4.392 -0.4994 -0.3374  2.6249
 9097SOL     OW38926   2.881   4.090   2.531 -0.4313 -0.3656 -0.4138
 9097SOL    HW138927   2.805   4.074   2.475  0.0478  0.9811 -1.4597
 9097SOL    HW238928   2.910   4.003   2.557  0.2141  1.3975  4.7099
 9098SOL     OW38929   0.356   0.969   2.564  0.0229 -0.0372  0.5392
 9098SOL    HW138930   0.359   0.989   2.470  0.6860 -1.8466  0.1705
 9098SOL    HW238931   0.300   1.040   2.594 -2.3079 -0.7134 -2.2383
 9099SOL     OW38932   3.045   0.455   7.736  0.2395 -0.0661  0.0253
 9099SOL    HW138933   3.000   0.388   7.788  0.1764 -0.2381 -0.2485
 9099SOL    HW238934   3.049   0.408   7.653  1.9164 -1.4395  0.8966
 9100SOL     OW38935   1.761   4.503   0.018 -0.7191 -0.5807  0.1784
 9100SOL    HW138936   1.773   4.522   0.111  0.8639 -0.0629 -0.1377
 9100SOL    HW238937   1.745   4.595   0.002  0.5830 -0.2071  1.0262
 9101SOL     OW38938   0.005   2.583   1.574 -0.4791 -0.4682  0.1953
 9101SOL    HW138939   0.049   2.655   1.620  0.3134 -0.9934  0.2637
 9101SOL    HW238940   0.048   2.506   1.610 -1.1447 -0.9195  0.0092
 9102SOL     OW38941   3.973   4.151   2.173  0.0805  0.7855 -0.0068
 9102SOL    HW138942   3.987   4.112   2.086  0.9385  0.3560  0.3213
 9102SOL    HW238943   4.053   4.203   2.177  0.6841 -0.2618  1.3917
 9103SOL     OW38944   3.292   2.441   9.007 -0.4777 -0.7653 -0.0004
 9103SOL    HW138945   3.284   2.521   9.059  0.4882 -0.8646  0.2997
 9103SOL    HW238946   3.378   2.405   9.028 -0.4299 -0.5496  0.1784
 9104SOL     OW38947   3.202   0.095   0.189 -0.0781 -0.3005 -0.0154
 9104SOL    HW138948   3.128   0.154   0.206  0.3835 -0.3182  2.0888
 9104SOL    HW238949   3.237   0.093   0.278  3.0189  0.1150 -1.2449
 9105SOL     OW38950   0.104   1.229   6.655  0.3004  0.2184  0.1956
 9105SOL    HW138951   0.023   1.195   6.616 -0.2588  0.9439  0.7239
 9105SOL    HW238952   0.079   1.236   6.747 -1.4916  0.9209 -0.3519
 9106SOL     OW38953   0.541   4.095  11.767 -0.3482  0.2848 -0.0703
 9106SOL    HW138954   0.559   4.185  11.739  1.7303 -0.0628  0.1909
 9106SOL    HW238955   0.552   4.087  11.862  2.0411  0.4272 -0.3403
 9107SOL     OW38956   1.136   0.666  14.880 -0.2898 -0.6105  0.1744
 9107SOL    HW138957   1.061   0.617  14.914 -1.2650 -0.0252 -1.1263
 9107SOL    HW238958   1.149   0.733  14.946 -2.3409  0.2023 -0.2288
 9108SOL     OW38959   4.382   4.054   3.455 -0.3147 -0.1977  0.0331
 9108SOL    HW138960   4.301   4.004   3.470 -1.1934  1.1319 -0.2300
 9108SOL    HW238961   4.389   4.070   3.361 -0.0471 -0.0993  0.0703
 9109SOL     OW38962   3.310   0.121  17.684  0.1895 -0.5558 -0.7662
 9109SOL    HW138963   3.399   0.085  17.688  0.2876 -0.2765 -0.4678
 9109SOL    HW238964   3.275   0.098   0.020  0.6430  2.6347  0.2420
 9110SOL     OW38965   4.683   0.467   5.207 -0.3545 -0.2958  0.4005
 9110SOL    HW138966   4.674   0.398   5.273  0.0230  0.9815  1.7928
 9110SOL    HW238967   4.609   0.527   5.217  0.8077  1.4068 -1.0853
 9111SOL     OW38968   2.941   2.668   4.902  0.6898 -0.1629 -0.7488
 9111SOL    HW138969   3.003   2.732   4.935  3.6356 -1.0800 -4.5005
 9111SOL    HW238970   2.890   2.725   4.845 -0.9692 -0.2191  0.6736
 9112SOL     OW38971   0.718   2.803  14.948  0.0680  0.1642  0.8209
 9112SOL    HW138972   0.643   2.764  14.903  0.8216 -1.0198  0.5761
 9112SOL    HW238973   0.697   2.890  14.914 -0.2513 -0.7198 -1.2189
 9113SOL     OW38974   1.805   1.888   1.481 -0.5844  0.3307 -0.3255
 9113SOL    HW138975   1.714   1.917   1.485 -0.6162  0.2922 -0.8443
 9113SOL    HW238976   1.797   1.811   1.425  2.3040  0.5744 -1.0797
 9114SOL     OW38977   1.534   3.586  14.520  0.1864 -0.0014  0.3656
 9114SOL    HW138978   1.472   3.647  14.557  0.5837  1.2851 -1.0770
 9114SOL    HW238979   1.530   3.607  14.426 -0.9459  0.7374  0.5927
 9115SOL     OW38980   2.621   1.811  13.624  0.2949  0.3115  0.3445
 9115SOL    HW138981   2.615   1.783  13.532  1.5564  1.0868  0.0316
 9115SOL    HW238982   2.703   1.859  13.620  0.1658  0.5890  1.1134
 9116SOL     OW38983   1.705   1.400   3.851 -0.0047 -0.0723 -0.3149
 9116SOL    HW138984   1.704   1.487   3.811 -0.5750  0.5372  1.0054
 9116SOL    HW238985   1.787   1.406   3.900 -0.4307  1.8201  0.1764
 9117SOL     OW38986   4.453   4.488  15.976  0.1734 -0.4468 -0.3437
 9117SOL    HW138987   4.429   4.561  16.032 -4.6733 -1.6755 -0.7573
 9117SOL    HW238988   4.413   4.415  16.024  0.0786 -0.6934 -0.7974
 9118SOL     OW38989   0.225   2.040   6.804 -0.2863 -0.1693 -0.5251
 9118SOL    HW138990   0.182   1.988   6.735 -1.0609 -1.4189  0.8719
 9118SOL    HW238991   0.158   2.036   6.873 -1.0163  1.2989 -1.1383
 9119SOL     OW38992   0.744   0.167   9.311  0.0098 -0.2033 -0.3747
 9119SOL    HW138993   0.802   0.243   9.317 -0.8839  0.5669 -1.6048
 9119SOL    HW238994   0.782   0.105   9.373 -0.6656  0.2204  0.4618
 9120SOL     OW38995   1.889   0.955  12.032  0.5133 -0.0989  0.9578
 9120SOL    HW138996   1.865   1.025  12.093 -1.5715 -0.4465  0.5398
 9120SOL    HW238997   1.814   0.962  11.973  1.3252  1.5051  0.1025
 9121SOL     OW38998   2.067   4.672  17.455 -0.3156 -0.2070  0.6160
 9121SOL    HW138999   2.088   4.644  17.366  0.4879  2.7504 -0.1210
 9121SOL    HW239000   2.031   4.593  17.496 -3.3866 -0.5520 -2.7748
 9122SOL     OW39001   3.371   4.117   2.019  0.0234 -0.3539  0.3669
 9122SOL    HW139002   3.334   4.187   2.073 -0.0339 -0.5015  0.5194
 9122SOL    HW239003   3.291   4.073   1.991 -0.8094  0.8066  0.8850
 9123SOL     OW39004   2.820   3.467   2.887  0.4196 -0.0936  0.3984
 9123SOL    HW139005   2.744   3.461   2.945 -1.2035  1.0029 -1.5897
 9123SOL    HW239006   2.788   3.440   2.800 -0.3695 -0.7544  0.8926
 9124SOL     OW39007   4.039   4.205   4.298 -0.5692  0.3511 -0.4140
 9124SOL    HW139008   4.081   4.281   4.258  1.2941 -0.9803 -0.9684
 9124SOL    HW239009   4.073   4.127   4.254  0.1645  0.6750 -0.4129
 9125SOL     OW39010   1.697   1.019   1.483 -0.0586 -0.0036 -0.4936
 9125SOL    HW139011   1.630   0.959   1.516 -0.5955  0.9412  0.1201
 9125SOL    HW239012   1.688   1.019   1.387  0.5865 -1.5515 -0.5642
 9126SOL     OW39013   2.719   1.147  12.970  0.7182 -0.0835 -0.1685
 9126SOL    HW139014   2.720   1.097  12.888 -0.3408 -1.3884  0.6135
 9126SOL    HW239015   2.647   1.112  13.022  0.5440 -0.5813 -0.7481
 9127SOL     OW39016   3.369   2.096   6.183 -0.5685  0.0556 -0.0677
 9127SOL    HW139017   3.411   2.123   6.101 -0.0127 -0.3540  0.0833
 9127SOL    HW239018   3.305   2.164   6.204 -0.5531  0.2826 -0.7537
 9128SOL     OW39019   0.028   2.945   7.213 -0.1543 -0.2145  0.4605
 9128SOL    HW139020   0.047   2.852   7.203 -3.1214 -0.7420 -0.3725
 9128SOL    HW239021   0.114   2.978   7.187 -0.9733  1.2149 -0.4709
 9129SOL     OW39022   3.501   2.786   1.580 -0.1167  0.3062  0.0417
 9129SOL    HW139023   3.594   2.798   1.559  0.1083 -1.0150  0.2952
 9129SOL    HW239024   3.469   2.696   1.580  2.1867 -0.5301 -1.4727
 9130SOL     OW39025   0.365   0.243   3.698 -0.3607  0.1000  0.2618
 9130SOL    HW139026   0.416   0.278   3.625 -2.1018  0.3553 -0.8357
 9130SOL    HW239027   0.376   0.305   3.770 -0.0010  0.1493  0.1623
 9131SOL     OW39028   0.291   2.827   4.683 -0.3748  0.1100  0.0238
 9131SOL    HW139029   0.327   2.818   4.595 -2.3484  0.1196 -0.7756
 9131SOL    HW239030   0.364   2.865   4.733 -0.7187  1.3483 -0.4036
 9132SOL     OW39031   4.148   2.415   2.351 -0.3237  0.3069  0.2568
 9132SOL    HW139032   4.108   2.484   2.404 -2.4271 -2.0111  1.7061
 9132SOL    HW239033   4.070   2.367   2.324  0.3370 -1.0949  0.8123
 9133SOL     OW39034   0.480   4.415   3.112  0.2519 -0.1640 -0.4346
 9133SOL    HW139035   0.412   4.440   3.050  0.2459  1.0407  0.0417
 9133SOL    HW239036   0.448   4.347   3.171  1.5817  0.7593  1.3733
 9134SOL     OW39037   2.482   3.495   9.742 -0.3587  1.0389 -0.7384
 9134SOL    HW139038   2.557   3.465   9.691 -0.0315 -1.4175  1.1561
 9134SOL    HW239039   2.412   3.448   9.697 -0.7322  0.4717  0.4263
 9135SOL     OW39040   4.229   3.278   2.089  0.4998 -0.2774  0.1196
 9135SOL    HW139041   4.312   3.273   2.137 -0.3901 -0.2099  1.6749
 9135SOL    HW239042   4.214   3.372   2.098  1.7117 -0.0487 -0.2764
 9136SOL     OW39043   2.725   3.845  14.601  0.4569 -0.2845  0.3643
 9136SOL    HW139044   2.711   3.913  14.667 -0.9066  1.4283 -1.6869
 9136SOL    HW239045   2.669   3.876  14.530 -1.0679 -2.4218  0.6325
 9137SOL     OW39046   1.188   4.232   1.557  0.2146  0.4172  0.0505
 9137SOL    HW139047   1.283   4.229   1.556  0.2544  1.4118  1.0450
 9137SOL    HW239048   1.171   4.306   1.615 -0.4753 -0.6812  1.2480
 9138SOL     OW39049   2.442   2.121   7.094 -0.1966  0.2512  0.1639
 9138SOL    HW139050   2.419   2.208   7.127 -0.8058 -0.1529  0.8085
 9138SOL    HW239051   2.515   2.102   7.153  0.5297  0.7682 -0.5843
 9139SOL     OW39052   2.601   4.201   3.564 -0.6075  0.4275 -0.3540
 9139SOL    HW139053   2.616   4.128   3.504  0.7469  0.4097  0.0053
 9139SOL    HW239054   2.690   4.213   3.597  0.0314 -1.1813 -1.5109
 9140SOL     OW39055   1.893   2.049   6.293  0.5576  0.0375  0.2105
 9140SOL    HW139056   1.808   2.092   6.304  0.8553  1.2890 -2.4037
 9140SOL    HW239057   1.909   2.019   6.383 -1.8381  2.1043  1.2978
 9141SOL     OW39058   2.066   2.335  12.289  1.1048  0.1929  0.0168
 9141SOL    HW139059   2.157   2.332  12.258  2.4126 -0.1835  3.8770
 9141SOL    HW239060   2.061   2.244  12.316  1.1714  0.0376 -0.4923
 9142SOL     OW39061   0.268   2.298  17.569  0.2011 -0.2619  0.0934
 9142SOL    HW139062   0.180   2.268  17.592  0.1530  0.5055  0.8860
 9142SOL    HW239063   0.329   2.226  17.588 -0.2404 -1.0119 -1.3843
 9143SOL     OW39064   1.248   1.939   2.574  0.2036 -0.1978  0.3439
 9143SOL    HW139065   1.270   1.902   2.489  1.4397  0.3612  0.4095
 9143SOL    HW239066   1.241   2.030   2.545 -2.3696 -1.1724 -2.1150
 9144SOL     OW39067   2.641   1.075  12.464 -0.0015 -0.6304 -0.0889
 9144SOL    HW139068   2.580   1.146  12.484  0.6251  0.5103 -2.2037
 9144SOL    HW239069   2.575   1.005  12.468 -0.1423 -0.5602 -1.1585
 9145SOL     OW39070   4.324   3.416   8.439  0.1642 -0.2207 -0.3284
 9145SOL    HW139071   4.278   3.415   8.523 -0.5200  0.2987 -0.7001
 9145SOL    HW239072   4.325   3.322   8.425  0.9823 -0.2126 -0.3113
 9146SOL     OW39073   2.156   4.146   7.077 -0.1001 -0.4586  0.2769
 9146SOL    HW139074   2.241   4.163   7.118 -0.1332 -1.0164  0.5757
 9146SOL    HW239075   2.168   4.200   6.999 -1.3602 -0.3278  0.1788
 9147SOL     OW39076   2.294   1.504   6.749 -0.6431  0.3093 -0.2335
 9147SOL    HW139077   2.274   1.479   6.840  0.4115  0.5225  0.0606
 9147SOL    HW239078   2.352   1.579   6.758 -0.4599  0.0067  1.1777
 9148SOL     OW39079   1.971   3.815   1.793 -0.7951  0.2460  0.2596
 9148SOL    HW139080   1.961   3.728   1.832 -0.7174 -0.1343 -0.5803
 9148SOL    HW239081   1.881   3.838   1.770 -1.0669 -1.5856 -0.5385
 9149SOL     OW39082   3.707   4.362   3.530  0.2054  0.1613 -0.1649
 9149SOL    HW139083   3.801   4.345   3.537 -0.0894 -0.7632  1.6995
 9149SOL    HW239084   3.704   4.338   3.438 -2.3209 -1.5728  0.3671
 9150SOL     OW39085   2.136   0.737   8.518 -0.9438 -0.5924 -0.1722
 9150SOL    HW139086   2.196   0.797   8.473  0.6088 -1.5694  0.6198
 9150SOL    HW239087   2.065   0.800   8.531 -1.2291 -0.4803 -2.1956
 9151SOL     OW39088   1.129   0.115   2.104  0.0673 -0.3556  0.2950
 9151SOL    HW139089   1.111   0.021   2.100 -1.9676 -0.0250  1.7375
 9151SOL    HW239090   1.044   0.139   2.141  0.0199  0.1658 -0.1653
 9152SOL     OW39091   2.513   2.576   3.328 -0.0355  0.6640  0.0176
 9152SOL    HW139092   2.466   2.503   3.288 -0.7586 -0.0129  2.0906
 9152SOL    HW239093   2.522   2.527   3.410  1.9214 -0.8759 -1.1160
 9153SOL     OW39094   2.342   2.298  12.244 -0.4008  0.6048 -0.8580
 9153SOL    HW139095   2.351   2.279  12.151 -0.0228  1.7205 -1.0454
 9153SOL    HW239096   2.378   2.215  12.276 -0.1608 -0.0796 -2.9662
 9154SOL     OW39097   2.935   2.439   7.954 -0.5370  0.5185  0.4697
 9154SOL    HW139098   2.935   2.445   8.049  0.4875  0.0409  0.4980
 9154SOL    HW239099   3.018   2.482   7.932  0.9494 -2.0517  1.0958
 9155SOL     OW39100   3.220   2.065  10.482 -0.5230 -0.3317 -0.2892
 9155SOL    HW139101   3.281   2.128  10.520 -0.5272 -0.3036 -0.3291
 9155SOL    HW239102   3.178   2.043  10.565 -0.9444  2.2645  0.1926
 9156SOL     OW39103   4.406   3.937   8.420  0.1340  0.0439 -0.2932
 9156SOL    HW139104   4.328   3.989   8.435  1.3964  1.4312  1.3410
 9156SOL    HW239105   4.424   3.945   8.326 -1.7140  0.4561 -0.6047
 9157SOL     OW39106   4.275   0.642   7.526  0.0891 -0.1612 -0.1798
 9157SOL    HW139107   4.344   0.708   7.523  0.4172 -0.5423 -1.0587
 9157SOL    HW239108   4.339   0.572   7.513 -0.9720 -1.3430  1.0257
 9158SOL     OW39109   3.609   1.114   7.719 -0.1121 -0.7690  0.5904
 9158SOL    HW139110   3.553   1.102   7.642 -0.5362  2.1986  0.4354
 9158SOL    HW239111   3.547   1.073   7.779 -2.2622  0.4253 -0.8137
 9159SOL     OW39112   4.278   4.476   4.882  0.0025 -0.4489  0.0544
 9159SOL    HW139113   4.278   4.382   4.868 -0.6983 -0.2087 -1.6528
 9159SOL    HW239114   4.237   4.512   4.803 -1.0416 -0.8274  0.4288
 9160SOL     OW39115   4.097   2.790   6.588 -0.4867  0.0545 -0.1270
 9160SOL    HW139116   4.128   2.792   6.497 -0.7212 -1.6996 -0.2363
 9160SOL    HW239117   4.004   2.791   6.565 -0.1847  0.1527 -1.3429
 9161SOL     OW39118   3.757   2.556   8.349 -0.9567 -0.9036  0.2034
 9161SOL    HW139119   3.806   2.568   8.431 -1.9101  0.0407  0.6350
 9161SOL    HW239120   3.816   2.488   8.318  0.6556  1.6142 -2.2545
 9162SOL     OW39121   3.883   3.471   8.093  0.4261  0.4737 -0.5539
 9162SOL    HW139122   3.947   3.480   8.164  0.2252  1.9029 -0.5597
 9162SOL    HW239123   3.830   3.396   8.121 -0.9172  2.2643  1.7185
 9163SOL     OW39124   1.529   3.089  17.160  0.7089  0.0505 -0.0227
 9163SOL    HW139125   1.513   3.114  17.069 -0.5391 -0.3024  0.0959
 9163SOL    HW239126   1.559   3.168  17.205 -0.5104  0.6498 -0.2714
 9164SOL     OW39127   0.560   2.853   5.328  0.4083  0.6696  0.5805
 9164SOL    HW139128   0.483   2.816   5.371  0.8808  0.0256  0.8594
 9164SOL    HW239129   0.626   2.807   5.380  0.0867 -0.0104  0.3880
 9165SOL     OW39130   1.562   2.907   0.439  0.3961 -0.2331  0.2547
 9165SOL    HW139131   1.474   2.888   0.471  0.1922 -0.7654 -0.6221
 9165SOL    HW239132   1.549   2.994   0.402  0.0218  0.5104  2.1076
 9166SOL     OW39133   1.213   1.318   8.064  0.7886 -0.0418 -0.3192
 9166SOL    HW139134   1.238   1.360   7.982  1.2526 -2.1739 -1.2425
 9166SOL    HW239135   1.297   1.287   8.098 -0.0710 -2.5006 -0.5020
 9167SOL     OW39136   4.640   2.176  14.590 -0.0133 -0.6486 -0.2089
 9167SOL    HW139137   4.579   2.117  14.634 -0.5023 -0.9209 -1.2458
 9167SOL    HW239138   4.587   2.251  14.564  2.9809  1.7702  0.7431
 9168SOL     OW39139   2.256   3.207  12.141 -0.2489  0.0335  0.0571
 9168SOL    HW139140   2.240   3.301  12.131  1.1778  0.1839 -0.8116
 9168SOL    HW239141   2.165   3.179  12.146  0.1769 -1.5488 -1.0910
 9169SOL     OW39142   0.366   1.847  16.172 -0.5634  0.1909  0.4359
 9169SOL    HW139143   0.284   1.886  16.141 -2.0023 -3.6513 -0.5788
 9169SOL    HW239144   0.333   1.784  16.235  0.2182 -1.0422 -0.3984
 9170SOL     OW39145   2.692   4.408   5.486 -0.3973  0.3314  0.1808
 9170SOL    HW139146   2.710   4.460   5.564 -1.3637  0.3869  0.3704
 9170SOL    HW239147   2.775   4.360   5.494 -0.0355  1.3238  2.3001
 9171SOL     OW39148   1.250   3.075   1.427  0.1267  0.1631  0.1121
 9171SOL    HW139149   1.205   3.098   1.508  0.8651 -0.6675  0.7579
 9171SOL    HW239150   1.342   3.062   1.452  0.1323 -0.5241 -0.2732
 9172SOL     OW39151   0.518   2.362  10.573  0.1411  0.2791  0.0006
 9172SOL    HW139152   0.521   2.318  10.488 -0.0620  0.2345  0.0155
 9172SOL    HW239153   0.572   2.305  10.627  0.6834 -0.1402 -1.0029
 9173SOL     OW39154   2.683   0.447  15.994  0.1846  0.5047  0.1033
 9173SOL    HW139155   2.698   0.540  16.008  0.3505  0.4571  0.2580
 9173SOL    HW239156   2.654   0.462  15.905  0.9959 -0.8700 -0.4005
 9174SOL     OW39157   4.548   4.242  17.282 -0.3169  0.2352 -0.0291
 9174SOL    HW139158   4.469   4.206  17.322  0.1569 -0.6422  0.1115
 9174SOL    HW239159   4.576   4.171  17.226 -0.8974 -0.2924  0.3458
 9175SOL     OW39160   1.820   4.518   2.867  0.0028 -0.1275  0.1115
 9175SOL    HW139161   1.864   4.579   2.925 -2.3886  2.2220 -0.5363
 9175SOL    HW239162   1.894   4.483   2.816  1.1389  0.8749  1.0861
 9176SOL     OW39163   3.738   1.783   5.229 -0.2211  0.0831 -0.1023
 9176SOL    HW139164   3.645   1.796   5.249  0.2562  1.8127  0.9558
 9176SOL    HW239165   3.743   1.849   5.160  0.3781  0.5150  0.3551
 9177SOL     OW39166   1.035   3.856  12.312 -0.0375  0.2408  0.7488
 9177SOL    HW139167   1.097   3.927  12.325  0.1881  0.2559 -0.4549
 9177SOL    HW239168   0.982   3.856  12.392  0.1343  0.7156  0.8659
 9178SOL     OW39169   1.759   0.330   5.990  0.3458  0.6670 -0.0925
 9178SOL    HW139170   1.823   0.397   6.012  2.1341 -1.5761  1.5016
 9178SOL    HW239171   1.805   0.274   5.927  0.5766 -0.4995  1.1005
 9179SOL     OW39172   0.879   0.546   7.585 -0.4602  0.0320  0.8283
 9179SOL    HW139173   0.964   0.561   7.543 -0.7732 -1.9877 -0.5307
 9179SOL    HW239174   0.822   0.573   7.513  0.1296 -0.9701 -0.0147
 9180SOL     OW39175   3.803   0.059   6.488 -0.0975  0.5396 -0.3273
 9180SOL    HW139176   3.821   4.711   6.449  0.8478  0.0407  1.2206
 9180SOL    HW239177   3.863   0.117   6.441 -0.7099 -0.4122 -2.3160
 9181SOL     OW39178   4.168   3.687   5.069  0.3482  0.6791  0.2361
 9181SOL    HW139179   4.096   3.744   5.043  1.4782  0.7713 -2.6746
 9181SOL    HW239180   4.128   3.600   5.063 -0.9358  1.3487 -0.7329
 9182SOL     OW39181   2.469   2.926   8.879 -0.2943 -0.3231 -0.4266
 9182SOL    HW139182   2.478   2.836   8.912  1.6449  0.3273  0.8328
 9182SOL    HW239183   2.388   2.955   8.921 -0.4419 -0.8329 -0.3577
 9183SOL     OW39184   4.030   1.746   5.273 -0.2176 -0.4718 -0.1661
 9183SOL    HW139185   3.935   1.731   5.271 -0.1246 -0.7342 -1.8909
 9183SOL    HW239186   4.040   1.838   5.247 -0.6019 -0.1415  0.8473
 9184SOL     OW39187   2.228   4.148  16.662  0.0034  0.7966 -0.0805
 9184SOL    HW139188   2.275   4.116  16.740  0.8417  2.5719  0.1277
 9184SOL    HW239189   2.209   4.058  16.633 -0.4097  1.3783 -1.5976
 9185SOL     OW39190   0.958   2.250   2.674 -0.4721 -0.0178 -0.2680
 9185SOL    HW139191   1.000   2.213   2.596  1.9438 -2.3787  2.1648
 9185SOL    HW239192   0.905   2.173   2.694  1.3529 -1.0668  0.4559
 9186SOL     OW39193   1.812   3.087   4.613  0.4011 -0.1568 -0.2991
 9186SOL    HW139194   1.894   3.118   4.575  0.5437  1.3149  1.2011
 9186SOL    HW239195   1.773   3.168   4.645  2.4902  0.6053  0.3256
 9187SOL     OW39196   3.451   0.222   8.424  0.4144  0.2609 -0.0475
 9187SOL    HW139197   3.380   0.173   8.463  0.4996 -0.4335 -0.7766
 9187SOL    HW239198   3.461   0.166   8.347 -0.9829 -1.3834  0.9952
 9188SOL     OW39199   0.719   3.459   4.909  0.6546 -0.0052  0.0681
 9188SOL    HW139200   0.790   3.457   4.845  0.8743  0.3579  0.3017
 9188SOL    HW239201   0.683   3.370   4.908  0.2980  0.1316  0.4061
 9189SOL     OW39202   3.902   0.892   3.891 -0.2320  0.3957  0.5467
 9189SOL    HW139203   3.903   0.862   3.981  0.3952 -0.3556  0.2862
 9189SOL    HW239204   3.872   0.813   3.847  1.5400  0.9891 -1.7704
 9190SOL     OW39205   1.771   2.517   3.360  0.3945 -0.2340 -0.5231
 9190SOL    HW139206   1.712   2.568   3.305 -0.0988  0.7069  0.8660
 9190SOL    HW239207   1.790   2.449   3.296 -2.7162 -2.3578  0.8182
 9191SOL     OW39208   2.392   1.527   2.318 -0.4117  0.5962 -0.2579
 9191SOL    HW139209   2.338   1.524   2.397 -0.4635  0.7393 -0.2900
 9191SOL    HW239210   2.370   1.447   2.269 -1.9014 -0.4343  2.0980
 9192SOL     OW39211   0.050   3.160   2.528  0.1286 -0.2408 -0.2973
 9192SOL    HW139212   0.088   3.147   2.616  0.2073 -0.6903 -0.3964
 9192SOL    HW239213   0.105   3.095   2.484 -1.2432 -1.6390  0.0706
 9193SOL     OW39214   3.653   0.197   5.091  0.3159  0.0332  0.0168
 9193SOL    HW139215   3.730   0.153   5.055 -2.8808 -2.9964 -3.1254
 9193SOL    HW239216   3.657   0.157   5.178  0.4917  0.4130  0.1850
 9194SOL     OW39217   1.458   4.059   3.153 -0.3988  0.1024 -0.3083
 9194SOL    HW139218   1.551   4.082   3.153 -0.3330 -0.1237  1.6775
 9194SOL    HW239219   1.435   4.130   3.092  0.0238  1.5598  1.2214
 9195SOL     OW39220   3.064   3.492   7.845  0.0659  0.0841  0.3868
 9195SOL    HW139221   3.105   3.538   7.772  0.4467  0.5149  0.8688
 9195SOL    HW239222   3.078   3.403   7.816 -1.9475 -0.3586  0.7505
 9196SOL     OW39223   2.676   3.054   8.997 -0.8178  0.0074  0.5593
 9196SOL    HW139224   2.717   2.986   9.050 -0.4930  1.2434  1.9002
 9196SOL    HW239225   2.605   3.014   8.947 -3.9835  3.1543  2.4232
 9197SOL     OW39226   0.656   2.362  10.989  0.0883 -0.0034  0.0828
 9197SOL    HW139227   0.671   2.439  10.936  0.7638  0.3284  0.7653
 9197SOL    HW239228   0.658   2.298  10.918  1.6178 -0.4249  0.4967
 9198SOL     OW39229   0.918   4.092   9.181 -0.1316 -0.5104 -0.0454
 9198SOL    HW139230   0.853   4.159   9.202  0.1548 -0.2210 -0.0807
 9198SOL    HW239231   0.995   4.149   9.180 -1.9775  1.9668 -0.6260
 9199SOL     OW39232   3.876   0.518  10.443 -0.7951 -0.6700 -0.7819
 9199SOL    HW139233   3.853   0.610  10.457 -0.1270 -1.0830  3.0415
 9199SOL    HW239234   3.893   0.521  10.349  2.7046  0.1797 -0.1423
 9200SOL     OW39235   4.261   3.907   8.845 -0.1923 -0.1909  0.4886
 9200SOL    HW139236   4.241   3.967   8.773  1.2255 -0.6024 -0.2552
 9200SOL    HW239237   4.356   3.909   8.847 -0.2096  1.1880 -0.1211
 9201SOL     OW39238   1.463   4.715  15.696  0.5026  0.1119  0.4213
 9201SOL    HW139239   1.545   4.671  15.674  0.1042 -2.1187  3.3777
 9201SOL    HW239240   1.497   0.059  15.732 -0.3232 -0.0162  1.4914
 9202SOL     OW39241   0.320   2.277   6.947  0.2300  0.0923 -0.0997
 9202SOL    HW139242   0.271   2.359   6.937 -0.1099 -0.3334 -1.8961
 9202SOL    HW239243   0.306   2.242   6.859  0.0890 -1.9388  0.7569
 9203SOL     OW39244   1.190   1.622  15.619  0.0351  0.1306  0.2255
 9203SOL    HW139245   1.201   1.616  15.524 -0.0199  0.5402  0.1954
 9203SOL    HW239246   1.278   1.588  15.638  0.4298  0.2484 -1.3575
 9204SOL     OW39247   3.442   3.291   8.144  0.5563  0.1594 -0.1155
 9204SOL    HW139248   3.418   3.256   8.230 -2.4319  0.3176 -0.8750
 9204SOL    HW239249   3.534   3.264   8.142  0.1311 -1.3569  0.7420
 9205SOL     OW39250   0.427   4.712   4.722 -0.4136 -0.7628 -0.4886
 9205SOL    HW139251   0.480   4.684   4.797 -1.0847 -0.6467  0.0401
 9205SOL    HW239252   0.355   0.025   4.760  0.7442  0.2357  0.3596
 9206SOL     OW39253   1.257   3.739   8.904  0.4527 -0.0533 -0.2549
 9206SOL    HW139254   1.241   3.647   8.881 -0.1537  0.5025 -2.0345
 9206SOL    HW239255   1.349   3.751   8.881  0.6173 -2.1560 -0.7011
 9207SOL     OW39256   0.912   3.408   8.982  0.0141  0.4975  0.1487
 9207SOL    HW139257   0.848   3.399   8.911 -1.5434  1.3039  1.4424
 9207SOL    HW239258   0.909   3.503   8.987  0.8576  0.5674 -0.6709
 9208SOL     OW39259   4.704   1.358   9.467  0.3067 -0.7261  0.0135
 9208SOL    HW139260   4.614   1.393   9.465 -0.0246 -1.5721  0.1955
 9208SOL    HW239261   4.671   1.270   9.452 -0.6863  0.0001 -2.1031
 9209SOL     OW39262   1.645   3.892   0.116 -0.3941  0.0152 -0.0784
 9209SOL    HW139263   1.731   3.918   0.148  0.2866 -0.9468 -1.1370
 9209SOL    HW239264   1.628   3.810   0.162 -1.3504  0.1026 -0.2698
 9210SOL     OW39265   3.296   4.714  11.093 -0.2704 -0.1386  0.5095
 9210SOL    HW139266   3.351   0.024  11.030  0.5077 -3.8086 -1.6418
 9210SOL    HW239267   3.215   4.710  11.043 -0.3872  0.3393  0.6666
 9211SOL     OW39268   2.312   3.071   9.275 -0.1569 -0.7919  0.6603
 9211SOL    HW139269   2.258   3.008   9.324  1.3702 -3.7145 -1.3677
 9211SOL    HW239270   2.269   3.067   9.189  0.4665  1.2003  0.2618
 9212SOL     OW39271   1.567   1.006   5.604  0.3100 -0.2770 -0.1808
 9212SOL    HW139272   1.489   0.964   5.639  2.3576 -1.9263  2.4013
 9212SOL    HW239273   1.635   0.941   5.622  2.2956  2.2940  1.6263
 9213SOL     OW39274   1.681   0.211  11.472  0.1251  0.1587  0.1908
 9213SOL    HW139275   1.649   0.242  11.557  1.3488 -0.0903  0.7375
 9213SOL    HW239276   1.774   0.202  11.492 -0.1886 -3.4368 -0.0091
 9214SOL     OW39277   4.623   3.496   8.922 -0.6121 -0.1952 -0.3070
 9214SOL    HW139278   4.624   3.580   8.877 -0.9665  0.1262  0.2911
 9214SOL    HW239279   4.681   3.447   8.862 -1.3398 -1.1276 -0.2386
 9215SOL     OW39280   0.022   3.491  12.746  0.2011  0.2499  0.3383
 9215SOL    HW139281   4.718   3.417  12.791 -3.1210  0.7988 -1.8361
 9215SOL    HW239282   0.081   3.440  12.691 -1.5650  0.3664 -1.6650
 9216SOL     OW39283   3.390   0.280  14.322 -0.6465 -0.4405 -0.6290
 9216SOL    HW139284   3.456   0.342  14.352  0.7010 -1.2547 -1.8535
 9216SOL    HW239285   3.388   0.228  14.402 -0.8593  2.0761  0.9704
 9217SOL     OW39286   1.483   2.236   6.931  0.2052 -0.1605  0.4639
 9217SOL    HW139287   1.397   2.271   6.908  0.2248 -0.9607 -0.8183
 9217SOL    HW239288   1.524   2.223   6.845  0.4560 -0.4026  0.6161
 9218SOL     OW39289   2.273   3.077   0.880 -0.2155  0.3873  0.0941
 9218SOL    HW139290   2.220   3.101   0.956  1.3873  0.1998  1.2698
 9218SOL    HW239291   2.318   3.005   0.923  1.1631  0.5623 -1.0593
 9219SOL     OW39292   1.947   2.775   7.951  0.0306  0.5114  0.1797
 9219SOL    HW139293   1.905   2.769   8.037  0.2866 -1.6643  0.1610
 9219SOL    HW239294   2.036   2.765   7.987  0.7943  2.1171 -1.2904
 9220SOL     OW39295   4.561   4.518   5.207  0.1002  0.7396  0.2091
 9220SOL    HW139296   4.501   4.444   5.199 -0.5365  1.3975 -1.1152
 9220SOL    HW239297   4.613   4.481   5.279 -3.6299 -2.7906  1.1034
 9221SOL     OW39298   0.376   2.689   6.655 -0.5617 -0.6119  0.0542
 9221SOL    HW139299   0.458   2.724   6.618 -0.9050 -1.4861 -1.5711
 9221SOL    HW239300   0.306   2.706   6.592 -1.3537 -1.7362  0.6300
 9222SOL     OW39301   1.536   2.503   8.011 -0.2893 -0.3170 -0.0662
 9222SOL    HW139302   1.564   2.559   8.082 -0.6612 -2.1529  1.5291
 9222SOL    HW239303   1.602   2.513   7.942 -0.1729  1.6879  0.3449
 9223SOL     OW39304   2.219   1.584  14.729 -0.0011 -0.0772  0.3781
 9223SOL    HW139305   2.279   1.589  14.655 -0.2442 -1.0394  0.1162
 9223SOL    HW239306   2.143   1.623  14.685  1.1051  1.3133 -0.2763
 9224SOL     OW39307   1.730   3.685   0.284  0.6576 -0.3022 -0.4013
 9224SOL    HW139308   1.704   3.688   0.376 -0.8896 -1.5544 -0.7917
 9224SOL    HW239309   1.803   3.624   0.288  1.2630  0.5003  0.7552
 9225SOL     OW39310   0.524   2.140   4.585  0.4167  0.1944 -0.6814
 9225SOL    HW139311   0.433   2.160   4.562 -0.5202 -0.3470  2.6607
 9225SOL    HW239312   0.574   2.196   4.525 -0.1803  2.1515  0.6667
 9226SOL     OW39313   2.501   0.803   4.075  0.0317  0.3142  0.0814
 9226SOL    HW139314   2.454   0.737   4.127  0.8403 -1.5291 -1.4904
 9226SOL    HW239315   2.426   0.835   4.024  0.1961  0.9094  0.2167
 9227SOL     OW39316   0.745   0.307   7.000 -0.0833 -0.3308 -0.2689
 9227SOL    HW139317   0.779   0.245   6.936  1.3182 -0.7400  0.8886
 9227SOL    HW239318   0.748   0.260   7.082 -2.7711 -2.0104 -1.1406
 9228SOL     OW39319   3.909   1.018   4.448 -0.1196 -0.2139  0.6681
 9228SOL    HW139320   3.823   0.995   4.412 -0.5810  0.7167  1.1758
 9228SOL    HW239321   3.965   1.033   4.372 -0.8023  1.0460  0.4135
 9229SOL     OW39322   3.689   1.866   7.579 -0.4818  0.4132 -0.4099
 9229SOL    HW139323   3.612   1.812   7.594 -0.8702  1.0697 -0.0489
 9229SOL    HW239324   3.684   1.886   7.486 -1.7456 -0.0398 -0.4293
 9230SOL     OW39325   2.634   4.099  17.429 -0.5298 -0.3724  0.3576
 9230SOL    HW139326   2.648   4.061  17.342  0.4109  1.9822 -0.5214
 9230SOL    HW239327   2.546   4.064  17.444 -0.7210 -0.6759 -1.4298
 9231SOL     OW39328   1.240   0.720   3.166 -0.1106  0.0004  0.3874
 9231SOL    HW139329   1.278   0.760   3.088 -1.8986 -0.2809 -0.6286
 9231SOL    HW239330   1.178   0.788   3.190  0.9270 -0.1490  3.5675
 9232SOL     OW39331   0.110   2.360   5.234 -0.3210  0.2761  0.4890
 9232SOL    HW139332   0.171   2.433   5.230 -0.3437  0.2458 -0.5168
 9232SOL    HW239333   0.153   2.307   5.301  1.8104 -1.2004 -2.0538
 9233SOL     OW39334   4.207   2.706  15.570 -0.2179 -0.1412  0.1788
 9233SOL    HW139335   4.275   2.682  15.633  0.2826 -0.4028 -0.4477
 9233SOL    HW239336   4.227   2.640  15.503  1.2441  0.9226 -0.4490
 9234SOL     OW39337   1.514   2.823   5.886 -0.1560 -0.4056  0.2473
 9234SOL    HW139338   1.496   2.916   5.901  1.9170 -0.3049  2.1138
 9234SOL    HW239339   1.592   2.814   5.941 -0.6471 -0.1741  0.9774
 9235SOL     OW39340   3.831   0.413   7.553  0.4156  0.1453 -0.7214
 9235SOL    HW139341   3.768   0.342   7.536 -0.6118  1.0364 -0.6365
 9235SOL    HW239342   3.865   0.383   7.637 -0.5126 -0.2897 -0.4982
 9236SOL     OW39343   1.597   0.280   5.429 -0.4051 -0.7790  0.4849
 9236SOL    HW139344   1.521   0.260   5.484  0.5714  2.0194  2.7947
 9236SOL    HW239345   1.551   0.341   5.371  1.8569  0.8708  0.4345
 9237SOL     OW39346   2.557   1.988  12.094  0.1878  0.7265  0.0796
 9237SOL    HW139347   2.464   1.997  12.114 -0.0545 -1.6939  0.0808
 9237SOL    HW239348   2.585   2.073  12.129 -1.1745  1.3121 -0.2645
 9238SOL     OW39349   4.412   4.247   3.644 -0.0103  0.2755 -0.0873
 9238SOL    HW139350   4.363   4.192   3.704 -0.9411  3.0313  1.6683
 9238SOL    HW239351   4.422   4.183   3.574 -0.4304 -0.0359  0.1362
 9239SOL     OW39352   3.792   4.493  11.388  0.3101 -0.2929  0.2794
 9239SOL    HW139353   3.816   4.462  11.301 -2.6697  0.2683 -0.7311
 9239SOL    HW239354   3.874   4.500  11.436 -0.6651 -0.7352  2.0046
 9240SOL     OW39355   2.103   4.465   6.492  0.4954 -0.1100 -0.1247
 9240SOL    HW139356   2.027   4.461   6.434  0.7770  0.3268 -0.5265
 9240SOL    HW239357   2.142   4.546   6.459  0.1244  0.5528  1.0844
 9241SOL     OW39358   4.038   1.051   2.225 -0.2206 -0.1316  0.2897
 9241SOL    HW139359   4.098   1.091   2.289 -0.9262 -0.4047  1.1114
 9241SOL    HW239360   3.974   1.122   2.220  1.3630  1.3385  0.6280
 9242SOL     OW39361   1.410   2.428   0.081 -0.5666 -0.4253 -0.6666
 9242SOL    HW139362   1.459   2.408   0.160  4.2220  1.1697 -3.2258
 9242SOL    HW239363   1.349   2.355   0.084 -1.8007  0.6220 -0.4219
 9243SOL     OW39364   4.660   0.265   8.313 -0.2952  0.4405 -0.1219
 9243SOL    HW139365   4.662   0.231   8.403  0.4855  0.1063 -0.2636
 9243SOL    HW239366   0.009   0.243   8.280  0.1739 -1.6178  2.4082
 9244SOL     OW39367   3.930   3.045   0.911  0.5361  0.2346  0.1309
 9244SOL    HW139368   3.881   3.122   0.941  0.5729  0.9022 -1.5229
 9244SOL    HW239369   3.986   3.081   0.842 -0.7399 -0.0222 -1.0392
 9245SOL     OW39370   1.626   3.552   0.786  0.4158 -0.6431  0.2148
 9245SOL    HW139371   1.630   3.578   0.693 -2.1831 -3.5384 -0.6743
 9245SOL    HW239372   1.646   3.459   0.781 -1.7307 -1.1749  1.8023
 9246SOL     OW39373   3.323   3.899  16.870 -0.6534 -0.4375 -0.1546
 9246SOL    HW139374   3.367   3.952  16.803 -0.7485  0.4152  0.4527
 9246SOL    HW239375   3.343   3.952  16.947  1.2581  0.2369 -1.0909
 9247SOL     OW39376   2.683   2.971  12.296 -0.0961  0.7885 -0.2903
 9247SOL    HW139377   2.655   2.952  12.207 -1.1530 -0.8848  0.3965
 9247SOL    HW239378   2.766   2.923  12.305 -0.8625 -1.0164 -3.1210
 9248SOL     OW39379   4.458   0.072   4.625  0.4802 -0.2144  0.5495
 9248SOL    HW139380   4.460   0.114   4.711 -0.2546  2.0787 -0.5499
 9248SOL    HW239381   4.542   0.100   4.590  1.2792  0.1974  2.7984
 9249SOL     OW39382   0.764   2.365  10.418 -0.3252  0.7033 -0.1575
 9249SOL    HW139383   0.680   2.323  10.401 -0.1849 -0.3736  1.8305
 9249SOL    HW239384   0.818   2.286  10.422  0.2656  1.0678 -0.9667
 9250SOL     OW39385   3.229   2.830   3.848  0.5578 -0.5577 -0.1177
 9250SOL    HW139386   3.316   2.809   3.815  0.9006  1.7261 -0.6950
 9250SOL    HW239387   3.248   2.855   3.939 -0.3658 -0.0682 -0.0593
 9251SOL     OW39388   3.293   2.169   0.333 -0.6547  0.1369  0.2674
 9251SOL    HW139389   3.232   2.230   0.290 -0.3500  1.3191  1.5107
 9251SOL    HW239390   3.336   2.227   0.395 -0.5142  0.1349  0.1710
 9252SOL     OW39391   0.089   0.161   2.016  0.1147 -0.1800 -0.1113
 9252SOL    HW139392   0.181   0.189   2.022  0.1687 -0.4734  0.3829
 9252SOL    HW239393   0.109   0.070   2.035 -0.4304  0.3965  3.2248
 9253SOL     OW39394   1.866   3.761   1.514 -0.3776 -0.4017  0.0552
 9253SOL    HW139395   1.845   3.853   1.526  0.4849 -0.2952  0.8072
 9253SOL    HW239396   1.782   3.716   1.516 -0.8956  0.6474  1.4191
 9254SOL     OW39397   2.944   0.376  13.273  0.1638 -0.1238 -0.2824
 9254SOL    HW139398   2.995   0.314  13.326  1.3239 -1.5091 -3.0434
 9254SOL    HW239399   2.880   0.316  13.235  0.8681 -0.4713 -0.9171
 9255SOL     OW39400   2.146   0.202   2.684 -0.3934  0.7524 -0.3560
 9255SOL    HW139401   2.102   0.128   2.643 -1.3043  2.7723 -3.0369
 9255SOL    HW239402   2.236   0.193   2.652  0.0361 -0.5882  1.1899
 9256SOL     OW39403   1.552   3.589   4.423  0.2616  0.1329  0.7622
 9256SOL    HW139404   1.618   3.657   4.409  0.9977 -0.9233 -0.8878
 9256SOL    HW239405   1.545   3.585   4.519 -2.6466 -1.3486  0.5087
 9257SOL     OW39406   0.181   1.270   2.174 -0.5155 -0.2775  0.5816
 9257SOL    HW139407   0.110   1.221   2.133 -1.0053  0.7577  0.2007
 9257SOL    HW239408   0.147   1.358   2.156 -2.1546 -1.4931 -2.2191
 9258SOL     OW39409   2.657   0.178   1.646 -0.3769  0.1603 -0.0359
 9258SOL    HW139410   2.661   0.120   1.722 -1.9959 -0.9934 -0.8262
 9258SOL    HW239411   2.718   0.239   1.687 -0.8202 -0.9984  2.4005
 9259SOL     OW39412   1.447   3.819   8.265  0.0711 -0.0516  0.1193
 9259SOL    HW139413   1.498   3.740   8.282 -1.0926 -0.8540 -0.0899
 9259SOL    HW239414   1.369   3.806   8.319 -3.0645  1.1499 -4.1167
 9260SOL     OW39415   2.331   1.830   1.997  0.0738  0.5093 -0.2462
 9260SOL    HW139416   2.265   1.777   1.951  0.2353  0.5794 -0.5593
 9260SOL    HW239417   2.408   1.828   1.941 -0.2470  3.5796 -0.7954
 9261SOL     OW39418   4.529   2.448   6.362  0.4751  0.2426 -0.0250
 9261SOL    HW139419   4.487   2.376   6.409  0.7503  0.5111  0.6241
 9261SOL    HW239420   4.519   2.419   6.271 -0.4637 -0.0723  0.1797
 9262SOL     OW39421   3.660   0.598  16.284 -0.6189  0.2706  0.2318
 9262SOL    HW139422   3.674   0.652  16.362 -2.3493  1.9168 -0.6029
 9262SOL    HW239423   3.608   0.651  16.224 -1.6314  0.8784  1.6570
 9263SOL     OW39424   0.835   1.200   5.211 -0.1118  0.5414  0.0770
 9263SOL    HW139425   0.881   1.276   5.247  1.7282 -1.7245  2.4547
 9263SOL    HW239426   0.886   1.190   5.131 -3.1416  1.7824 -2.0266
 9264SOL     OW39427   3.672   0.998  10.325 -0.4542 -0.1504 -0.0347
 9264SOL    HW139428   3.590   1.036  10.359  0.6850  1.2029  1.2013
 9264SOL    HW239429   3.717   0.966  10.403 -1.6666 -1.8051 -0.0147
 9265SOL     OW39430   0.279   3.003  10.824 -0.5060 -0.4560 -0.3650
 9265SOL    HW139431   0.223   2.934  10.859  0.7030 -0.8052  0.8736
 9265SOL    HW239432   0.208   3.050  10.780  0.2934  1.4389  0.3829
 9266SOL     OW39433   4.624   2.124   7.884 -0.7082  0.2147  0.1976
 9266SOL    HW139434   4.666   2.079   7.958  1.4057  1.8865  0.0194
 9266SOL    HW239435   4.558   2.058   7.863 -1.3502  0.9023  0.0324
 9267SOL     OW39436   2.020   1.785   9.630  0.1876  0.5062 -0.6065
 9267SOL    HW139437   2.066   1.702   9.614  1.8112  0.7453  2.8250
 9267SOL    HW239438   1.930   1.759   9.612  0.7731 -2.9112  1.3672
 9268SOL     OW39439   3.901   0.924   9.845 -0.1593  0.9038 -0.1823
 9268SOL    HW139440   3.905   0.887   9.933  3.3525  2.9516  0.5156
 9268SOL    HW239441   3.994   0.937   9.830  0.0338  2.0905  1.9893
 9269SOL     OW39442   4.481   1.483   4.695  0.2404  0.3385  0.0118
 9269SOL    HW139443   4.472   1.533   4.776 -1.1303 -1.4529  0.9587
 9269SOL    HW239444   4.433   1.547   4.644 -2.1757 -1.3054  0.2292
 9270SOL     OW39445   2.716   2.434  11.178  0.2286 -0.4562 -0.0629
 9270SOL    HW139446   2.784   2.416  11.114 -0.2954  1.2612 -1.0977
 9270SOL    HW239447   2.699   2.527  11.170  1.6152 -0.3196 -1.4294
 9271SOL     OW39448   2.864   2.144   5.711  0.0437 -0.2413 -0.3053
 9271SOL    HW139449   2.902   2.224   5.748 -1.0771 -0.3485  1.0571
 9271SOL    HW239450   2.772   2.171   5.714  1.1895  3.5053  1.4180
 9272SOL     OW39451   4.641   0.649   4.904  0.2457 -0.5006 -0.3302
 9272SOL    HW139452   4.604   0.638   4.991 -0.0374  0.6540 -0.3133
 9272SOL    HW239453   4.733   0.668   4.922 -0.1696  0.1573  1.1282
 9273SOL     OW39454   1.043   4.597   2.827  0.5476  0.6665 -0.3489
 9273SOL    HW139455   0.998   4.647   2.759 -0.1305  1.4554  0.6955
 9273SOL    HW239456   1.041   4.649   2.907 -1.5720  3.5395 -2.3007
 9274SOL     OW39457   3.832   1.231   2.282  0.2508  0.8807 -0.0848
 9274SOL    HW139458   3.825   1.155   2.339  1.0012  0.5700 -0.4118
 9274SOL    HW239459   3.826   1.309   2.338  2.3574  0.3145  0.9306
 9275SOL     OW39460   2.962   4.456  16.542  0.6144  0.1953  0.0384
 9275SOL    HW139461   2.990   4.469  16.451  0.9022 -2.1044 -0.1983
 9275SOL    HW239462   3.036   4.404  16.573 -0.2087 -1.5196 -0.9023
 9276SOL     OW39463   3.832   3.907   3.326  0.4861  0.4799  0.1766
 9276SOL    HW139464   3.915   3.953   3.310  0.7524 -0.3160 -0.7652
 9276SOL    HW239465   3.768   3.978   3.330  1.5393  1.3212  1.9203
 9277SOL     OW39466   4.414   3.756   1.526 -0.0455 -0.1249  0.4769
 9277SOL    HW139467   4.457   3.817   1.467 -0.5669 -0.6675 -0.4771
 9277SOL    HW239468   4.395   3.815   1.599  1.8137  0.4808  0.4487
 9278SOL     OW39469   1.789   1.099   5.864 -0.2500  0.3050  0.2661
 9278SOL    HW139470   1.717   1.093   5.927 -0.4429  0.0404  0.0196
 9278SOL    HW239471   1.753   1.146   5.790  3.2399  2.8233  0.1472
 9279SOL     OW39472   2.437   2.275   9.200  0.3548  0.3512  0.2323
 9279SOL    HW139473   2.427   2.181   9.190  0.2759  0.5799 -1.9186
 9279SOL    HW239474   2.388   2.298   9.121  0.5948 -2.2899 -0.6784
 9280SOL     OW39475   4.147   4.657   8.843 -0.3747  0.6595 -0.1172
 9280SOL    HW139476   4.225   4.710   8.825  1.2093 -1.3998  0.7856
 9280SOL    HW239477   4.171   4.573   8.805 -1.2173  0.6275 -0.5883
 9281SOL     OW39478   4.235   2.357  17.460 -0.1034 -1.0992 -0.7748
 9281SOL    HW139479   4.213   2.285  17.518 -2.0403 -1.6482 -2.2117
 9281SOL    HW239480   4.273   2.316  17.382 -1.5738 -3.7043 -0.1077
 9282SOL     OW39481   1.469   1.044   6.455 -0.5128 -0.4138  0.4473
 9282SOL    HW139482   1.521   1.099   6.395  1.1390 -2.6489 -0.1494
 9282SOL    HW239483   1.479   0.955   6.420 -1.8611  0.1570 -1.4037
 9283SOL     OW39484   0.528   3.715   8.999  0.2122 -0.5752  0.1216
 9283SOL    HW139485   0.580   3.767   8.938 -0.7455  0.4664  0.1926
 9283SOL    HW239486   0.437   3.742   8.985 -0.2816 -2.0432  0.5631
 9284SOL     OW39487   1.413   0.799   3.522 -0.4365 -0.3954 -0.3454
 9284SOL    HW139488   1.348   0.729   3.521  0.6228 -1.3693 -1.5174
 9284SOL    HW239489   1.398   0.856   3.446 -0.4071 -0.4856 -0.4196
 9285SOL     OW39490   0.934   3.018   3.103 -0.0587 -0.2130  0.2315
 9285SOL    HW139491   0.933   2.998   3.009  1.2056  0.4125  0.0735
 9285SOL    HW239492   1.026   3.003   3.125  0.7309 -0.8409 -3.5307
 9286SOL     OW39493   3.172   4.620   8.553 -0.0956  0.4523 -0.5368
 9286SOL    HW139494   3.185   4.556   8.623 -0.1570  0.9615 -0.0585
 9286SOL    HW239495   3.078   4.635   8.562 -0.4021 -1.7952  0.0089
 9287SOL     OW39496   4.078   1.722   2.129  0.6142  0.4070  0.0396
 9287SOL    HW139497   4.045   1.695   2.214 -1.2512 -0.1705 -0.8744
 9287SOL    HW239498   3.995   1.745   2.087  0.6253 -2.5904 -1.6205
 9288SOL     OW39499   3.167   4.152   8.716 -0.4841  0.2443  0.3447
 9288SOL    HW139500   3.185   4.209   8.641 -0.5423 -1.4192 -0.9359
 9288SOL    HW239501   3.225   4.076   8.704 -0.2565  0.7756 -1.8898
 9289SOL     OW39502   3.329   2.989   8.210 -0.2400  0.1028  0.1861
 9289SOL    HW139503   3.286   2.904   8.215 -0.7064  0.2651 -1.2793
 9289SOL    HW239504   3.340   3.012   8.303  4.0500  0.2873 -0.3686
 9290SOL     OW39505   3.635   1.871   7.330  0.0352 -0.0621  0.0072
 9290SOL    HW139506   3.715   1.842   7.286 -1.6372 -0.6886 -2.6537
 9290SOL    HW239507   3.572   1.813   7.287 -0.6703 -0.4447  1.5852
 9291SOL     OW39508   1.236   0.868   2.700 -0.2214  0.3947  0.3658
 9291SOL    HW139509   1.283   0.800   2.652 -0.2079  0.5628  0.1402
 9291SOL    HW239510   1.157   0.829   2.738  0.4300 -0.3597  0.9607
 9292SOL     OW39511   3.199   1.937   9.604 -0.6135  0.3101 -0.4345
 9292SOL    HW139512   3.173   2.029   9.609 -0.8776  0.1550  1.0766
 9292SOL    HW239513   3.193   1.914   9.696  0.8880 -1.3418 -0.7443
 9293SOL     OW39514   1.292   0.975  17.498  0.0161  0.0188 -0.1652
 9293SOL    HW139515   1.244   1.043  17.452 -0.8103  0.3071  1.1222
 9293SOL    HW239516   1.296   0.910  17.428  0.7358  1.5683 -1.5583
 9294SOL     OW39517   0.861   1.044   4.725 -0.1025  0.3302  0.0582
 9294SOL    HW139518   0.943   1.040   4.675 -0.1871  1.3108 -0.1462
 9294SOL    HW239519   0.834   1.134   4.709  0.6814  0.5843  0.1476
 9295SOL     OW39520   0.829   0.099   9.032 -0.1570 -0.0230 -0.1657
 9295SOL    HW139521   0.820   0.008   9.060  0.5250  0.2108  0.7890
 9295SOL    HW239522   0.868   0.142   9.108 -0.5544  0.3366 -0.1644
 9296SOL     OW39523   2.771   2.478   5.453 -0.1365 -0.0797  0.1055
 9296SOL    HW139524   2.828   2.449   5.382  0.1524  1.8882 -0.4887
 9296SOL    HW239525   2.813   2.560   5.480 -1.3444  1.5257 -2.8323
 9297SOL     OW39526   0.915   4.504  16.457 -0.3518 -0.1624  0.2566
 9297SOL    HW139527   0.885   4.527  16.369 -1.5202  1.1689  1.0022
 9297SOL    HW239528   0.854   4.437  16.487  2.9027 -3.3316 -0.2895
 9298SOL     OW39529   1.078   0.748   4.463  0.3152  0.2332  0.3323
 9298SOL    HW139530   1.148   0.780   4.406 -0.5724  0.5301 -0.5876
 9298SOL    HW239531   1.004   0.794   4.424  0.2190  1.1857  1.6312
 9299SOL     OW39532   4.065   3.964   7.744 -0.3590  0.3761 -0.4046
 9299SOL    HW139533   4.155   3.938   7.729  0.1104 -0.4729  3.9423
 9299SOL    HW239534   4.048   3.920   7.827  0.5642  2.3307  0.8219
 9300SOL     OW39535   2.746   0.886   2.809  0.3468  0.2021  0.4389
 9300SOL    HW139536   2.784   0.875   2.896  0.3132  1.3355  0.5997
 9300SOL    HW239537   2.677   0.820   2.801  0.7027 -0.2303  0.9622
 9301SOL     OW39538   3.156   0.055  17.013  0.4356  0.5646  0.2559
 9301SOL    HW139539   3.099   0.105  16.956  0.0360  1.9165  1.8370
 9301SOL    HW239540   3.168   0.119  17.084  2.1670  0.9105 -0.3555
 9302SOL     OW39541   0.794   1.280   3.522 -0.1961 -0.3220 -0.0568
 9302SOL    HW139542   0.734   1.247   3.456  0.2301 -1.0762 -0.0616
 9302SOL    HW239543   0.770   1.372   3.529  3.6238  0.6860  0.0030
 9303SOL     OW39544   3.495   4.283   0.073 -0.0418 -0.6110 -0.5658
 9303SOL    HW139545   3.430   4.328   0.128 -1.2947 -0.4802 -2.1609
 9303SOL    HW239546   3.469   4.190   0.070 -2.1192 -0.0899  0.8657
 9304SOL     OW39547   1.695   1.445   6.525 -0.5140 -0.5567  0.0993
 9304SOL    HW139548   1.788   1.458   6.505 -1.2836  0.7833 -2.6400
 9304SOL    HW239549   1.644   1.481   6.453 -1.2838  1.9436  1.9140
 9305SOL     OW39550   4.346   0.508  14.905  0.9721  0.2878 -0.5354
 9305SOL    HW139551   4.267   0.456  14.900  0.3174  1.4982 -2.5754
 9305SOL    HW239552   4.378   0.516  14.816  0.8939  1.3489 -0.4718
 9306SOL     OW39553   3.611   2.429   2.481 -0.0655 -0.0151  0.3835
 9306SOL    HW139554   3.543   2.367   2.456 -1.5525  0.8882  2.1448
 9306SOL    HW239555   3.633   2.468   2.396 -2.3172  0.1371 -0.1384
 9307SOL     OW39556   1.496   4.012  15.017 -0.3069  0.2303 -0.4989
 9307SOL    HW139557   1.562   3.945  15.038  1.2469  1.0665 -2.6207
 9307SOL    HW239558   1.560   4.068  14.972 -0.8913  0.8880 -0.5038
 9308SOL     OW39559   3.264   0.600   3.824  0.4227 -0.3541  0.3021
 9308SOL    HW139560   3.194   0.538   3.847 -0.2125  0.4800  0.5885
 9308SOL    HW239561   3.342   0.564   3.867  0.5554 -0.4746 -0.0420
 9309SOL     OW39562   3.894   2.515  16.774  0.6863 -0.2229  0.6964
 9309SOL    HW139563   3.831   2.587  16.770  1.9015  0.7437 -1.1386
 9309SOL    HW239564   3.916   2.503  16.682 -1.4097  0.4348  0.1207
 9310SOL     OW39565   2.620   0.180   0.717  0.7063  0.4892  0.4875
 9310SOL    HW139566   2.713   0.187   0.697  1.0962 -0.5315  1.8783
 9310SOL    HW239567   2.629   0.120   0.792 -2.9402 -0.1601  0.4238
 9311SOL     OW39568   4.352   1.602   7.220 -0.2116 -0.8251 -0.1336
 9311SOL    HW139569   4.415   1.608   7.148 -0.4113  2.5773 -0.0020
 9311SOL    HW239570   4.404   1.609   7.300  0.2749 -0.9698 -0.4398
 9312SOL     OW39571   4.109   3.094  15.432  0.3936 -0.4427  0.5863
 9312SOL    HW139572   4.160   3.111  15.512 -0.0172 -2.3522  1.2697
 9312SOL    HW239573   4.040   3.047  15.478 -2.4680  1.6837 -1.5852
 9313SOL     OW39574   4.526   2.559  11.905 -1.0720 -0.1368  0.6313
 9313SOL    HW139575   4.485   2.604  11.980  0.8206  0.0850  1.5251
 9313SOL    HW239576   4.548   2.475  11.945 -0.7964 -0.3443  0.0386
 9314SOL     OW39577   1.923   2.452   8.067 -0.0328  0.6101  0.0956
 9314SOL    HW139578   1.889   2.367   8.096 -0.4553  0.7644  0.0600
 9314SOL    HW239579   1.914   2.511   8.142 -0.9358 -0.8300  1.1302
 9315SOL     OW39580   2.139   4.451  14.890 -0.4677 -0.2300  0.0047
 9315SOL    HW139581   2.105   4.521  14.836  1.5134  1.2037  0.6113
 9315SOL    HW239582   2.171   4.496  14.968 -2.0233 -0.0897  0.5572
 9316SOL     OW39583   3.568   2.257   4.689  0.2569  0.0949  0.1367
 9316SOL    HW139584   3.658   2.290   4.686  0.3991 -0.4545 -1.5889
 9316SOL    HW239585   3.548   2.256   4.596 -1.1376 -1.7480  0.4577
 9317SOL     OW39586   4.504   1.894   7.463 -0.2611 -0.4501  0.1809
 9317SOL    HW139587   4.421   1.893   7.511  0.3360  2.1736  1.2743
 9317SOL    HW239588   4.515   1.989   7.451  0.4532 -0.6102 -0.4558
 9318SOL     OW39589   4.224   3.854  11.111  0.1404  0.4832  0.4138
 9318SOL    HW139590   4.185   3.895  11.033  0.5663 -0.7116 -0.4326
 9318SOL    HW239591   4.234   3.923  11.177  0.0720  0.1797  0.7393
 9319SOL     OW39592   1.832   4.453   9.196  0.2280 -0.7271 -0.4215
 9319SOL    HW139593   1.808   4.364   9.220  1.4607 -0.4256  1.9934
 9319SOL    HW239594   1.824   4.464   9.102  0.0672  1.1106 -0.2054
 9320SOL     OW39595   3.280   4.306  12.103 -0.5724  0.6141 -0.5493
 9320SOL    HW139596   3.188   4.332  12.101 -0.8226 -0.2851 -0.6313
 9320SOL    HW239597   3.327   4.382  12.069 -2.1036  1.5146 -0.6524
 9321SOL     OW39598   0.880   4.411   3.289 -0.5206  0.0766 -0.3052
 9321SOL    HW139599   0.882   4.484   3.352  3.7206  0.1312 -0.5074
 9321SOL    HW239600   0.910   4.334   3.337 -1.0862  0.6619  0.9949
 9322SOL     OW39601   2.645   2.779   5.018 -0.3960  0.3217  0.2182
 9322SOL    HW139602   2.582   2.769   5.089 -1.1428 -0.1190 -0.5213
 9322SOL    HW239603   2.632   2.695   4.974 -1.3759  1.0630 -0.8823
 9323SOL     OW39604   3.879   0.023   6.176  0.3815  0.1298 -0.1183
 9323SOL    HW139605   3.914   4.691   6.232  1.8852  0.1882 -0.9740
 9323SOL    HW239606   3.959   0.060   6.137 -0.7721 -0.3750 -2.9584
 9324SOL     OW39607   1.918   1.419   3.181 -0.6810 -0.1724  0.0168
 9324SOL    HW139608   1.965   1.354   3.129  0.4227  0.3753  0.3263
 9324SOL    HW239609   1.986   1.481   3.208  1.0713 -3.0054  2.1491
 9325SOL     OW39610   3.638   2.778   3.928 -0.3979 -0.4508  0.6817
 9325SOL    HW139611   3.729   2.790   3.955  0.6185 -0.9295 -2.5621
 9325SOL    HW239612   3.606   2.868   3.922 -0.4773 -0.5150  0.1143
 9326SOL     OW39613   2.180   2.891   3.123 -0.0647  0.2862  1.1649
 9326SOL    HW139614   2.181   2.970   3.176  0.7751  2.1699 -1.6552
 9326SOL    HW239615   2.275   2.887   3.110 -0.3163 -1.5078 -0.1617
 9327SOL     OW39616   4.016   2.343   8.363  0.0563 -0.5957 -0.1156
 9327SOL    HW139617   3.994   2.337   8.270 -1.6277 -1.5506  0.3269
 9327SOL    HW239618   4.111   2.343   8.353 -0.0284  3.1923 -0.9447
 9328SOL     OW39619   3.609   1.771  10.813 -0.2909  0.4855  0.2689
 9328SOL    HW139620   3.566   1.789  10.730 -0.9393 -0.7060  0.3489
 9328SOL    HW239621   3.595   1.848  10.867 -1.1315 -0.6284  1.6195
 9329SOL     OW39622   2.148   0.176   9.465  0.0196  0.7804  0.2477
 9329SOL    HW139623   2.092   0.253   9.456 -0.5799  0.1475 -1.3738
 9329SOL    HW239624   2.106   0.135   9.541 -0.1594  2.4904  1.0770
 9330SOL     OW39625   1.302   0.089   5.538  0.0501 -0.1100 -0.1568
 9330SOL    HW139626   1.284   0.110   5.630 -0.4134  1.1581 -0.5310
 9330SOL    HW239627   1.378   0.031   5.544  0.3486  0.4867  1.9718
 9331SOL     OW39628   1.765   3.977  13.038  0.4485  0.7119 -0.2049
 9331SOL    HW139629   1.683   3.935  13.062  0.2055  1.1816 -0.2317
 9331SOL    HW239630   1.785   4.035  13.112  1.8530 -1.1638  0.9185
 9332SOL     OW39631   1.953   2.547   0.439 -0.0094 -0.1353 -0.2281
 9332SOL    HW139632   1.876   2.531   0.385 -1.4820  1.6471  1.3525
 9332SOL    HW239633   2.012   2.539   0.364 -0.3900 -0.5130 -0.4819
 9333SOL     OW39634   0.441   2.230   8.380 -1.2926 -0.3216  0.0507
 9333SOL    HW139635   0.357   2.246   8.424 -1.5011  0.3896 -0.6098
 9333SOL    HW239636   0.469   2.145   8.414 -0.2851  0.0506  0.1293
 9334SOL     OW39637   2.279   2.264   1.580 -0.3259  0.2233  0.2192
 9334SOL    HW139638   2.208   2.233   1.636  0.0900 -0.2592  0.4770
 9334SOL    HW239639   2.257   2.203   1.510  2.0238 -2.8183  2.1147
 9335SOL     OW39640   1.365   4.414   7.743  0.1577 -0.3280 -0.1070
 9335SOL    HW139641   1.361   4.505   7.713 -0.3789  0.0604  1.1443
 9335SOL    HW239642   1.439   4.377   7.695  0.2584  1.5241 -1.3731
 9336SOL     OW39643   1.760   1.887   9.074  0.2098 -0.2683 -0.1491
 9336SOL    HW139644   1.665   1.897   9.072  0.1367 -0.5562  1.5323
 9336SOL    HW239645   1.776   1.870   8.982 -0.4444  1.9113 -0.6610
 9337SOL     OW39646   0.473   3.401   8.871 -0.0623  0.0613  0.4273
 9337SOL    HW139647   0.503   3.475   8.818 -1.9654  1.2164  0.9417
 9337SOL    HW239648   0.379   3.419   8.870  0.2542  1.7202  0.2495
 9338SOL     OW39649   1.559   0.631   6.770 -0.3147  0.9732 -0.0565
 9338SOL    HW139650   1.585   0.622   6.679 -1.5526 -2.3570 -0.0645
 9338SOL    HW239651   1.642   0.595   6.800 -0.7194  0.0402 -0.0770
 9339SOL     OW39652   3.757   4.299   8.804  0.2621 -0.5781  0.3988
 9339SOL    HW139653   3.788   4.358   8.873  0.3620 -2.4606  1.9740
 9339SOL    HW239654   3.680   4.262   8.847 -0.3168 -0.1341 -0.2566
 9340SOL     OW39655   0.498   2.166   3.424  0.6243 -0.0229  0.1928
 9340SOL    HW139656   0.475   2.256   3.402  2.7315  0.3483 -0.5572
 9340SOL    HW239657   0.433   2.160   3.494  1.4432  1.5326  1.0823
 9341SOL     OW39658   0.094   2.067   8.761  0.1881 -0.2979 -0.0682
 9341SOL    HW139659   0.052   2.148   8.790  1.0837  0.2286 -0.2390
 9341SOL    HW239660   0.183   2.070   8.796  0.2558  1.1867 -0.3758
 9342SOL     OW39661   3.247   2.403   2.132 -0.4473  0.1193  0.2571
 9342SOL    HW139662   3.297   2.372   2.207  0.8688 -0.8884 -1.0197
 9342SOL    HW239663   3.157   2.388   2.159 -0.1685 -0.3665  0.9040
 9343SOL     OW39664   3.897   2.964   5.415  0.2045  0.5030  0.1688
 9343SOL    HW139665   3.872   2.922   5.498 -3.1393  2.9850  0.3903
 9343SOL    HW239666   3.980   3.002   5.443  0.7854  0.4476 -1.4751
 9344SOL     OW39667   0.539   1.739   6.801 -0.4121  0.6164 -0.2622
 9344SOL    HW139668   0.528   1.827   6.765  1.2552  0.8424 -0.2197
 9344SOL    HW239669   0.449   1.734   6.831  0.4881 -0.1552  2.3414
 9345SOL     OW39670   3.737   3.994   6.708 -0.8466  0.4021  0.6110
 9345SOL    HW139671   3.656   4.022   6.665 -1.2500  1.2236  1.8949
 9345SOL    HW239672   3.726   4.029   6.796 -0.4188  0.5645  0.6009
 9346SOL     OW39673   1.810   1.207   5.556  0.3278  0.5528  0.4931
 9346SOL    HW139674   1.791   1.190   5.464  0.7639 -0.5028  0.6046
 9346SOL    HW239675   1.723   1.230   5.588  0.2413  1.6045 -0.5137
 9347SOL     OW39676   1.572   1.013   3.628 -0.1213  0.0189  0.0314
 9347SOL    HW139677   1.535   0.937   3.583 -1.3074  1.8753 -2.0907
 9347SOL    HW239678   1.540   1.011   3.718 -2.1301 -2.2104 -0.7403
 9348SOL     OW39679   0.917   0.031   5.795 -0.1964  0.0600  0.0462
 9348SOL    HW139680   0.861   4.699   5.759  1.1436 -1.6779  1.3350
 9348SOL    HW239681   0.860   0.107   5.782 -0.8239 -0.3632  0.3326
 9349SOL     OW39682   0.396   3.338   9.280 -0.4155 -0.3254 -0.8554
 9349SOL    HW139683   0.372   3.426   9.252 -0.4252  1.0840  3.4918
 9349SOL    HW239684   0.490   3.332   9.260  0.4841  1.4520  2.7862
 9350SOL     OW39685   0.420   3.309   7.511  0.5461  0.1843 -0.0439
 9350SOL    HW139686   0.456   3.360   7.583  1.2727  2.1747 -1.8459
 9350SOL    HW239687   0.485   3.240   7.494  0.1012 -0.6284  1.5224
 9351SOL     OW39688   0.173   3.638   3.252 -0.6137  0.1049  0.3420
 9351SOL    HW139689   0.195   3.715   3.305 -0.5969 -0.9439  1.8847
 9351SOL    HW239690   0.232   3.572   3.287 -1.6852 -1.3891 -0.6989
 9352SOL     OW39691   0.507   2.302   2.528  0.1175  0.5554 -0.3980
 9352SOL    HW139692   0.477   2.222   2.485  2.4589 -0.0448 -0.9559
 9352SOL    HW239693   0.424   2.340   2.555  0.7524  1.9388 -0.3686
 9353SOL     OW39694   0.173   0.551   7.761 -0.2221  0.6422 -0.2264
 9353SOL    HW139695   0.111   0.479   7.753 -0.0372  0.3432  1.0633
 9353SOL    HW239696   0.216   0.542   7.676 -3.4973  0.3772 -1.8206
 9354SOL     OW39697   1.973   0.671   1.173 -0.9318  0.4132  0.0435
 9354SOL    HW139698   1.993   0.651   1.081  0.8392 -0.4165  0.6160
 9354SOL    HW239699   2.038   0.738   1.191 -1.2559  1.0428 -1.0891
 9355SOL     OW39700   0.827   4.122   2.123 -0.5466  0.5556  0.1813
 9355SOL    HW139701   0.816   4.136   2.029  1.4772 -0.2441 -0.1857
 9355SOL    HW239702   0.812   4.027   2.123  0.8935  0.3351 -1.9084
 9356SOL     OW39703   1.291   4.646  14.725  0.0276  0.0169 -0.1408
 9356SOL    HW139704   1.378   4.661  14.689 -0.1721 -0.7915 -0.9426
 9356SOL    HW239705   1.236   4.670  14.651 -1.2310 -1.6296  0.2630
 9357SOL     OW39706   0.091   2.926   6.142 -0.1514 -0.1255  0.1093
 9357SOL    HW139707   0.059   2.918   6.232 -1.4795 -0.8511 -0.4238
 9357SOL    HW239708   0.030   2.987   6.102  2.3029  0.5601 -2.5984
 9358SOL     OW39709   0.257   3.923   4.468 -0.0246  0.1477 -0.0719
 9358SOL    HW139710   0.188   3.976   4.509  0.3436  1.8848 -1.6740
 9358SOL    HW239711   0.260   3.962   4.381 -1.8395 -0.5567 -0.4533
 9359SOL     OW39712   1.257   2.200   7.357  0.3293  0.1654  0.1050
 9359SOL    HW139713   1.299   2.132   7.303 -0.5891  1.2778 -2.0296
 9359SOL    HW239714   1.202   2.145   7.412 -1.3426 -1.5317 -3.2662
 9360SOL     OW39715   0.164   3.213   4.767 -0.1737 -0.2948  0.0578
 9360SOL    HW139716   0.224   3.149   4.806 -0.2836 -0.7759 -0.5455
 9360SOL    HW239717   0.093   3.155   4.737 -0.2357  0.6099 -1.5233
 9361SOL     OW39718   0.574   0.710   7.980  0.2928 -0.2711  0.2986
 9361SOL    HW139719   0.646   0.772   7.975 -0.2908  0.3106 -1.0151
 9361SOL    HW239720   0.609   0.625   7.952 -1.0514 -1.4442  2.1891
 9362SOL     OW39721   1.644   0.018  17.305 -1.2541  0.0941 -0.5005
 9362SOL    HW139722   1.614   4.685  17.249  2.0788 -1.5221 -0.2351
 9362SOL    HW239723   1.731   0.041  17.272 -1.6867  1.0764 -0.9494
 9363SOL     OW39724   0.750   0.374   0.791  0.3961 -0.7251  0.0529
 9363SOL    HW139725   0.776   0.301   0.735  0.7696  0.6015 -1.4717
 9363SOL    HW239726   0.702   0.426   0.727  0.2166 -0.3888  0.4608
 9364SOL     OW39727   3.640   3.010   6.170  0.2514  0.4607  0.5822
 9364SOL    HW139728   3.734   3.006   6.154 -0.2562 -2.9109 -1.4872
 9364SOL    HW239729   3.608   2.919   6.169  0.1606  0.4986  0.1266
 9365SOL     OW39730   1.554   0.618   3.820  0.5063  0.4355 -0.1893
 9365SOL    HW139731   1.617   0.676   3.778  0.1768  1.1143  0.2422
 9365SOL    HW239732   1.605   0.538   3.811  1.6275  1.1331 -0.0182
 9366SOL     OW39733   3.704   2.129   3.248 -0.3018  0.4524 -0.1198
 9366SOL    HW139734   3.679   2.037   3.257 -0.7440  0.5017 -0.7983
 9366SOL    HW239735   3.782   2.131   3.192  1.2677  3.1889  2.1595
 9367SOL     OW39736   0.764   4.556   9.070 -0.2981 -0.2212 -0.0835
 9367SOL    HW139737   0.777   4.531   9.161  0.1542  0.7937  0.1307
 9367SOL    HW239738   0.769   4.474   9.021  0.6760 -1.0764  1.4775
 9368SOL     OW39739   3.831   0.051   9.105 -0.8904 -0.0714  0.5405
 9368SOL    HW139740   3.888   4.732   9.156  2.1078  1.7289 -0.7746
 9368SOL    HW239741   3.866   0.025   9.020  1.4166  2.4446  0.7288
 9369SOL     OW39742   4.115   4.005   8.462 -0.1860 -0.1867  0.1362
 9369SOL    HW139743   4.071   3.988   8.379  1.8017  0.5521 -1.0592
 9369SOL    HW239744   4.158   4.089   8.446 -2.2222  0.3108 -2.7360
 9370SOL     OW39745   0.482   3.766  17.085  0.2196 -0.5774 -0.9720
 9370SOL    HW139746   0.436   3.750  17.002  1.2408 -0.7360 -1.5092
 9370SOL    HW239747   0.459   3.858  17.090 -0.4247 -0.7724 -0.4140
 9371SOL     OW39748   4.466   0.340   9.517 -0.0156 -0.1737 -0.0482
 9371SOL    HW139749   4.532   0.319   9.582 -0.3689 -0.8624  0.0845
 9371SOL    HW239750   4.384   0.332   9.565 -0.1156  1.2595  0.0250
 9372SOL     OW39751   2.919   0.014   6.402  0.1209  0.2669 -0.0366
 9372SOL    HW139752   2.961   4.732   6.319  0.5264  1.3092 -0.0828
 9372SOL    HW239753   2.992   4.733   6.460 -2.4104 -1.0181  2.6977
 9373SOL     OW39754   3.259   1.040  14.269  0.5301  0.3854 -0.5365
 9373SOL    HW139755   3.342   1.011  14.307 -0.2694  0.9106  1.5853
 9373SOL    HW239756   3.286   1.056  14.179  0.6966 -1.3162 -0.7948
 9374SOL     OW39757   4.479   3.551   4.585 -0.2212  0.1301  0.1970
 9374SOL    HW139758   4.438   3.637   4.575 -0.5866  0.0441  1.0236
 9374SOL    HW239759   4.534   3.552   4.506  2.2939  1.4757  1.9377
 9375SOL     OW39760   3.354   3.270  17.593  0.2502 -0.3797  0.2028
 9375SOL    HW139761   3.428   3.295  17.648 -0.0133  0.5717  0.1290
 9375SOL    HW239762   3.387   3.293  17.506  2.0216  0.5783  1.1285
 9376SOL     OW39763   1.833   3.520   1.276 -0.4259 -0.2361 -0.5844
 9376SOL    HW139764   1.744   3.485   1.274 -0.2610 -0.6235 -1.0317
 9376SOL    HW239765   1.825   3.560   1.363 -1.2753 -2.3066  0.2901
 9377SOL     OW39766   2.093   2.031  16.937  0.0273 -0.3441  0.0174
 9377SOL    HW139767   2.002   2.053  16.915 -0.1639 -0.8920  0.2628
 9377SOL    HW239768   2.092   1.936  16.929  2.0020 -0.3665 -0.0078
 9378SOL     OW39769   1.324   0.781  17.291  0.3279  0.0765 -0.2444
 9378SOL    HW139770   1.358   0.747  17.208  1.5838 -1.1398  0.7601
 9378SOL    HW239771   1.332   0.696  17.334 -2.4605 -0.4945 -0.8862
 9379SOL     OW39772   0.664   4.578  14.223  0.2505  0.2334  0.2656
 9379SOL    HW139773   0.643   4.491  14.190  1.1306 -1.0028  2.9579
 9379SOL    HW239774   0.683   4.547  14.312 -0.4533 -0.8377  0.0322
 9380SOL     OW39775   3.294   0.235  11.210 -0.4055  0.3417 -0.2109
 9380SOL    HW139776   3.284   0.149  11.170 -2.4577 -0.5576  2.2478
 9380SOL    HW239777   3.363   0.212  11.272 -0.6966 -0.1333 -0.0709
 9381SOL     OW39778   4.173   4.106   7.377 -0.3612 -0.2515 -0.0148
 9381SOL    HW139779   4.127   4.146   7.302 -1.5817 -0.9284  0.3631
 9381SOL    HW239780   4.223   4.038   7.332  0.6109  0.1818  0.4242
 9382SOL     OW39781   0.664   4.066   5.594  0.2319  0.3080 -0.4280
 9382SOL    HW139782   0.757   4.042   5.598  0.1818  0.0445 -0.8187
 9382SOL    HW239783   0.662   4.149   5.641  1.8845  0.1541 -0.0647
 9383SOL     OW39784   3.681   0.635   2.077  0.0066  0.2378  0.0617
 9383SOL    HW139785   3.636   0.658   2.158  0.0688 -0.6661  0.3530
 9383SOL    HW239786   3.742   0.709   2.069  0.1490  0.3135  1.8837
 9384SOL     OW39787   3.177   1.155  12.846  0.3486  0.0966 -0.7175
 9384SOL    HW139788   3.118   1.126  12.776 -0.4337 -1.2869  0.5236
 9384SOL    HW239789   3.217   1.070  12.862  1.1265  0.2576 -1.7852
 9385SOL     OW39790   2.743   2.216   3.195  0.5440 -0.2686  0.1334
 9385SOL    HW139791   2.719   2.204   3.287  0.9450  3.0133  0.6885
 9385SOL    HW239792   2.830   2.255   3.198  1.5320 -2.5961  1.6497
 9386SOL     OW39793   0.099   2.239   9.190  0.0023  0.5876  0.5416
 9386SOL    HW139794   0.057   2.153   9.192 -0.0956  0.7347  4.4257
 9386SOL    HW239795   0.187   2.202   9.191  0.5872  1.6658 -5.5356
 9387SOL     OW39796   3.225   4.142   5.773  0.0619  0.4715 -0.0308
 9387SOL    HW139797   3.274   4.220   5.748  2.8001 -1.4195 -0.5776
 9387SOL    HW239798   3.194   4.105   5.690  1.3372  0.3142 -0.4297
 9388SOL     OW39799   0.065   3.917   1.737  0.1861  0.1279  0.2188
 9388SOL    HW139800   0.029   3.871   1.661 -0.3510 -0.8015  1.0277
 9388SOL    HW239801   0.046   4.007   1.712  0.2800 -0.1141 -0.7280
 9389SOL     OW39802   0.504   3.704   2.694 -0.8362  0.4297 -0.0835
 9389SOL    HW139803   0.486   3.672   2.782  1.0882 -1.3446 -0.3381
 9389SOL    HW239804   0.429   3.762   2.678 -1.1735  0.1031  0.3235
 9390SOL     OW39805   4.176   1.991   4.542  0.3457 -0.2746  0.1544
 9390SOL    HW139806   4.091   2.022   4.511  0.9943  2.1001  0.7846
 9390SOL    HW239807   4.221   2.075   4.542  1.9182 -1.1309  1.1920
 9391SOL     OW39808   3.506   4.069   6.208  0.1241  0.1583  0.0585
 9391SOL    HW139809   3.417   4.086   6.240 -1.0172 -0.2925 -2.8078
 9391SOL    HW239810   3.486   4.054   6.115  1.1206 -1.3149  0.0944
 9392SOL     OW39811   2.044   1.032  15.520 -0.4178  0.3127 -0.2313
 9392SOL    HW139812   1.998   1.101  15.569  0.1754 -0.4427  1.4025
 9392SOL    HW239813   2.135   1.044  15.548 -0.2220 -2.8257  0.5344
 9393SOL     OW39814   0.505   2.996  14.385 -0.3173  0.5226 -0.1396
 9393SOL    HW139815   0.454   2.915  14.386  0.5637 -0.0480 -1.7108
 9393SOL    HW239816   0.486   3.028  14.473 -0.4205 -0.8633  0.3410
 9394SOL     OW39817   4.426   3.614  14.235 -0.7266  0.6410 -0.0837
 9394SOL    HW139818   4.358   3.653  14.289 -2.3134 -0.0176 -1.6126
 9394SOL    HW239819   4.503   3.663  14.263  0.7263 -2.5923  1.6298
 9395SOL     OW39820   2.296   2.389   4.676 -0.4550  0.2465  0.6881
 9395SOL    HW139821   2.307   2.301   4.641  1.3055  0.2186  1.2764
 9395SOL    HW239822   2.293   2.367   4.769  2.3036 -0.7574  0.5683
 9396SOL     OW39823   0.135   4.703   6.409 -0.9585 -0.4051  0.6644
 9396SOL    HW139824   0.174   0.052   6.398 -2.5417  0.2532  0.1582
 9396SOL    HW239825   0.041   4.718   6.425 -1.0757  0.0563 -0.4126
 9397SOL     OW39826   1.493   0.087   0.621  0.2733  0.1504  0.1454
 9397SOL    HW139827   1.523   0.160   0.567  0.1862  0.4801  0.5396
 9397SOL    HW239828   1.507   0.124   0.709 -0.7497 -0.4063  0.5437
 9398SOL     OW39829   1.660   2.490   2.203  0.4151 -0.2670 -0.2131
 9398SOL    HW139830   1.616   2.519   2.283  0.2670 -0.4490 -0.2273
 9398SOL    HW239831   1.638   2.396   2.206 -0.4302 -0.0974 -0.9963
 9399SOL     OW39832   4.114   1.444   1.129 -0.4213 -0.7531 -0.3428
 9399SOL    HW139833   4.120   1.416   1.038  0.2743  1.5859 -1.0323
 9399SOL    HW239834   4.183   1.388   1.165 -0.6056 -1.4833 -1.1393
 9400SOL     OW39835   3.817   2.643  16.298 -0.0548 -0.1163  0.1554
 9400SOL    HW139836   3.774   2.563  16.269 -1.3142  0.0276  1.6614
 9400SOL    HW239837   3.826   2.695  16.217  2.8695 -0.3525  0.3049
 9401SOL     OW39838   1.689   4.554   8.258 -0.2230  0.5719  0.0913
 9401SOL    HW139839   1.738   4.486   8.305  0.4936  0.4966 -0.7562
 9401SOL    HW239840   1.695   4.517   8.169 -1.4355 -0.3529  0.3963
 9402SOL     OW39841   3.929   1.914  11.334 -0.2280  0.2725 -0.4978
 9402SOL    HW139842   4.005   1.927  11.391 -1.4616 -0.0315  1.2462
 9402SOL    HW239843   3.962   1.859  11.263 -2.2989 -0.1355 -1.1406
 9403SOL     OW39844   1.528   2.068  14.712 -0.1891  0.4975 -0.4774
 9403SOL    HW139845   1.557   2.142  14.659  3.3329 -1.0944 -0.7698
 9403SOL    HW239846   1.450   2.091  14.762  2.0979  3.8572  1.5501
 9404SOL     OW39847   0.223   2.303  16.500  0.1817  0.3082 -0.4478
 9404SOL    HW139848   0.306   2.349  16.508 -0.2191  0.8336  0.6624
 9404SOL    HW239849   0.220   2.251  16.581 -0.2775 -1.8133 -1.8229
 9405SOL     OW39850   2.520   1.782   0.876  0.4337 -0.4650 -0.0924
 9405SOL    HW139851   2.477   1.852   0.826  1.4735 -0.8705 -1.5678
 9405SOL    HW239852   2.478   1.789   0.961  2.0082  2.7402  0.4302
 9406SOL     OW39853   2.776   3.340  13.991  0.6551  0.0844 -0.4730
 9406SOL    HW139854   2.740   3.254  14.014 -2.0265  0.7306 -2.2480
 9406SOL    HW239855   2.824   3.357  14.073  1.2570  1.5890 -1.1391
 9407SOL     OW39856   4.645   3.707   2.202 -0.5769  0.1174  0.3272
 9407SOL    HW139857   4.638   3.662   2.118 -0.3528  0.3359  0.1942
 9407SOL    HW239858   4.589   3.784   2.194  0.0107  0.5302  0.1857
 9408SOL     OW39859   1.039   3.396   3.455  0.2588  0.2134  0.1242
 9408SOL    HW139860   0.982   3.344   3.512  2.3263  1.1137  3.0011
 9408SOL    HW239861   1.079   3.318   3.416 -0.2202 -0.0029  0.0640
 9409SOL     OW39862   4.201   2.009  11.137  0.3475  0.3327 -0.1926
 9409SOL    HW139863   4.180   2.075  11.203  1.4365 -0.0246  0.5131
 9409SOL    HW239864   4.126   2.026  11.079  1.1607 -0.3548 -1.4549
 9410SOL     OW39865   0.332   2.270   4.412  0.1843  0.1023  0.4833
 9410SOL    HW139866   0.260   2.327   4.385  0.3394  0.5653  1.0731
 9410SOL    HW239867   0.338   2.213   4.334 -0.5035  0.4909  0.1397
 9411SOL     OW39868   4.180   2.214   2.986  1.1283 -0.1442  0.2584
 9411SOL    HW139869   4.236   2.149   3.028  0.5869 -0.5234  0.3958
 9411SOL    HW239870   4.216   2.298   3.014  0.0492  0.4271 -0.1029
 9412SOL     OW39871   4.490   1.565  14.728  0.2809 -0.2022  0.0102
 9412SOL    HW139872   4.580   1.553  14.759 -0.1066  1.0929  1.6066
 9412SOL    HW239873   4.492   1.503  14.655 -0.0071 -1.0349  0.7068
 9413SOL     OW39874   2.577   4.386  16.503  0.4230 -0.0504  0.0940
 9413SOL    HW139875   2.482   4.375  16.500  0.2804  0.3139  3.0814
 9413SOL    HW239876   2.576   4.457  16.567 -2.6670  0.4052 -0.4513
 9414SOL     OW39877   4.340   0.584   0.384 -0.2282  0.0251 -0.0407
 9414SOL    HW139878   4.389   0.506   0.360  0.2876  0.6875 -1.1529
 9414SOL    HW239879   4.256   0.539   0.394 -0.3344  0.0919 -0.6333
 9415SOL     OW39880   3.086   0.507  13.511  0.1923 -0.2745 -0.8612
 9415SOL    HW139881   3.014   0.474  13.457 -0.7634 -0.4479  0.5090
 9415SOL    HW239882   3.060   0.463  13.592  0.7077 -1.8653 -1.5475
 9416SOL     OW39883   1.918   4.567   3.337 -0.7474  0.4933  0.3773
 9416SOL    HW139884   1.890   4.582   3.428 -3.0980 -1.7294  0.0299
 9416SOL    HW239885   2.011   4.579   3.355 -0.2270 -0.5929 -1.5884
 9417SOL     OW39886   0.117   2.773   7.834 -0.3336  0.5514 -0.6287
 9417SOL    HW139887   0.054   2.728   7.890 -2.6400  1.8442 -2.1529
 9417SOL    HW239888   0.149   2.698   7.783 -2.7622  0.5236 -2.1187
 9418SOL     OW39889   0.055   1.724  15.077  0.8636 -0.0520 -0.1523
 9418SOL    HW139890   0.114   1.799  15.085 -1.0259  1.3478  0.4393
 9418SOL    HW239891   0.092   1.671  15.006  1.4773  0.4367 -0.2031
 9419SOL     OW39892   4.569   1.699   4.846 -0.1440  0.0021  0.1873
 9419SOL    HW139893   4.664   1.708   4.856 -0.0596 -0.8094  0.0889
 9419SOL    HW239894   4.558   1.723   4.755 -0.2055  1.5466  0.6052
 9420SOL     OW39895   4.099   1.421   7.845  0.3664  0.5514 -0.3906
 9420SOL    HW139896   4.163   1.366   7.799  1.4490  2.0551 -0.6762
 9420SOL    HW239897   4.123   1.414   7.937 -0.1206 -1.4295 -0.4093
 9421SOL     OW39898   1.383   0.457  12.536  0.2501 -0.1341 -0.4785
 9421SOL    HW139899   1.440   0.403  12.590 -2.4176  0.6503  3.0957
 9421SOL    HW239900   1.305   0.408  12.563 -1.5497  1.7965 -2.1740
 9422SOL     OW39901   0.730   2.695   4.147 -0.2685 -0.3862  0.2773
 9422SOL    HW139902   0.718   2.612   4.100  0.3149  0.4326 -1.3150
 9422SOL    HW239903   0.760   2.659   4.230  1.2295 -0.1047 -0.1420
 9423SOL     OW39904   3.459   3.467   3.757 -0.0395  0.4912 -0.1949
 9423SOL    HW139905   3.469   3.438   3.848  1.1617  0.2645 -0.4020
 9423SOL    HW239906   3.546   3.444   3.725  0.5424  0.9759  1.0175
 9424SOL     OW39907   2.895   1.876   8.088 -0.1499 -0.2685  0.2541
 9424SOL    HW139908   2.937   1.797   8.054  1.4078  1.1795 -1.1577
 9424SOL    HW239909   2.831   1.829   8.142 -0.5807 -0.9379 -0.8449
 9425SOL     OW39910   4.687   1.501   8.396  0.2003  0.1090  0.1923
 9425SOL    HW139911   0.009   1.573   8.378 -0.5839  0.2850 -1.7629
 9425SOL    HW239912   4.724   1.453   8.469  1.1619 -0.1671 -0.4755
 9426SOL     OW39913   0.859   3.834   5.011 -0.0870 -0.3427  0.0316
 9426SOL    HW139914   0.810   3.861   4.933  0.2414 -1.8274 -0.6973
 9426SOL    HW239915   0.898   3.916   5.038 -1.9812  0.8456 -0.8472
 9427SOL     OW39916   3.068   1.743   2.657  0.0723  0.1595  0.0346
 9427SOL    HW139917   3.030   1.685   2.591  3.3464 -1.5555 -0.3150
 9427SOL    HW239918   3.161   1.722   2.653  0.0777 -0.4865  3.1895
 9428SOL     OW39919   0.726   4.471  13.550 -0.0797 -0.7179 -0.6385
 9428SOL    HW139920   0.798   4.489  13.611  0.0289  0.8633 -1.2516
 9428SOL    HW239921   0.661   4.428  13.606 -1.0262  1.0581 -0.3931
 9429SOL     OW39922   3.359   2.571  12.823  0.5136 -0.3464 -0.1020
 9429SOL    HW139923   3.286   2.567  12.762 -0.6044  1.3662  1.1202
 9429SOL    HW239924   3.342   2.490  12.872  0.6632  1.6700  3.3242
 9430SOL     OW39925   2.934   0.232   3.338 -0.0215  0.2412  0.0833
 9430SOL    HW139926   2.914   0.316   3.379 -0.0029 -1.0439  2.7291
 9430SOL    HW239927   2.948   0.269   3.251  0.3871  0.2469  0.1480
 9431SOL     OW39928   1.589   0.059   8.188 -0.0754 -0.0954  0.4388
 9431SOL    HW139929   1.630   4.713   8.207  2.2881  1.1234  0.7031
 9431SOL    HW239930   1.524   0.063   8.259 -1.3926  1.2272 -0.8157
 9432SOL     OW39931   0.448   4.375  14.867 -0.2358  0.2463 -0.0984
 9432SOL    HW139932   0.361   4.400  14.896 -0.7698  1.3392 -2.7184
 9432SOL    HW239933   0.455   4.280  14.877  0.1374  0.4428  1.6390
 9433SOL     OW39934   4.387   2.268   1.254 -0.3534 -0.1780  0.4330
 9433SOL    HW139935   4.393   2.363   1.251  1.0334 -0.3855 -2.1794
 9433SOL    HW239936   4.458   2.235   1.200 -0.1624  2.1495 -0.6999
 9434SOL     OW39937   4.234   1.140  13.059 -0.1886 -0.2351  0.2280
 9434SOL    HW139938   4.163   1.090  13.099 -0.6296  0.4773  0.3298
 9434SOL    HW239939   4.296   1.092  13.114  0.2834 -0.1016 -0.1899
 9435SOL     OW39940   0.039   2.572  11.719 -0.1556  0.2467  0.6439
 9435SOL    HW139941   0.123   2.543  11.684 -0.9672 -0.8835 -0.3828
 9435SOL    HW239942   0.046   2.660  11.755 -0.4752  0.9762 -1.0933
 9436SOL     OW39943   4.724   3.083  17.541  0.2023 -0.3195 -0.1384
 9436SOL    HW139944   4.713   3.060  17.634  1.8712 -0.2627  0.0603
 9436SOL    HW239945   0.079   3.101  17.532 -0.0424  0.4119 -1.1687
 9437SOL     OW39946   3.734   1.495   5.239 -0.1723  0.5005 -0.5211
 9437SOL    HW139947   3.768   1.476   5.152 -1.1216  0.8697 -0.9682
 9437SOL    HW239948   3.736   1.591   5.239 -1.0727  0.5179  1.3539
 9438SOL     OW39949   2.652   2.640   6.793  0.0032 -0.1208  0.2061
 9438SOL    HW139950   2.740   2.648   6.757  0.4846  0.0844  1.4330
 9438SOL    HW239951   2.677   2.594   6.873 -0.6232  0.5583  0.7910
 9439SOL     OW39952   1.426   0.557   2.105  0.1625  0.3699  0.1046
 9439SOL    HW139953   1.426   0.631   2.045 -1.4632 -0.7463 -1.2896
 9439SOL    HW239954   1.392   0.486   2.051 -0.6126  1.7645 -1.2304
 9440SOL     OW39955   1.092   2.502   4.246  0.7504  0.5170  0.1470
 9440SOL    HW139956   1.046   2.571   4.199  0.8699  1.5015  1.4903
 9440SOL    HW239957   1.072   2.424   4.194  3.5977 -1.1632  1.5624
 9441SOL     OW39958   4.110   2.230   2.728  0.1980  0.7597  0.1268
 9441SOL    HW139959   4.137   2.249   2.818 -2.9420 -4.0467  2.0282
 9441SOL    HW239960   4.185   2.178   2.698 -1.5633 -1.6099 -0.0856
 9442SOL     OW39961   3.291   2.768   8.395  0.1301  0.5863  0.1814
 9442SOL    HW139962   3.242   2.827   8.453 -1.1020  0.2333 -0.5182
 9442SOL    HW239963   3.257   2.680   8.408 -0.9646  0.7672 -1.4416
 9443SOL     OW39964   3.930   2.110   3.088 -0.0656 -0.4308  0.6175
 9443SOL    HW139965   3.971   2.148   3.165 -0.2421  0.9859  0.0223
 9443SOL    HW239966   3.969   2.171   3.024  1.2096 -2.3042 -0.3939
 9444SOL     OW39967   2.327   0.464  11.426  0.3895  0.0787 -0.0023
 9444SOL    HW139968   2.311   0.558  11.427  0.9291  0.1691  0.2690
 9444SOL    HW239969   2.402   0.450  11.484  1.2913  1.4881 -0.8145
 9445SOL     OW39970   2.116   1.698   2.222 -0.0602 -0.1454  0.0521
 9445SOL    HW139971   2.121   1.775   2.165  4.1004 -0.5872 -0.1532
 9445SOL    HW239972   2.038   1.725   2.271 -0.6987  1.4846 -1.8654
 9446SOL     OW39973   0.262   1.291   5.625  0.2767 -0.1544  0.2326
 9446SOL    HW139974   0.236   1.339   5.704 -0.2974 -1.6899  0.9709
 9446SOL    HW239975   0.354   1.269   5.641  0.9137  0.3777 -2.6463
 9447SOL     OW39976   2.664   1.335   7.084  0.1593 -0.6300  0.0605
 9447SOL    HW139977   2.607   1.316   7.009 -1.9175  1.8915  0.9774
 9447SOL    HW239978   2.622   1.419   7.104  0.3464 -0.4206 -0.4233
 9448SOL     OW39979   2.460   1.635   2.959 -0.5181 -0.1214  0.2856
 9448SOL    HW139980   2.469   1.707   2.897 -0.0863 -2.0722 -1.9273
 9448SOL    HW239981   2.453   1.570   2.889 -1.8598 -1.3157  1.5478
 9449SOL     OW39982   2.573   3.251   4.633 -0.5475  0.1631  0.1381
 9449SOL    HW139983   2.572   3.162   4.666  0.9501  0.0668 -0.0895
 9449SOL    HW239984   2.633   3.241   4.560  1.4582 -2.6653  2.1851
 9450SOL     OW39985   1.130   3.896   4.470  0.0666 -0.2556 -0.1191
 9450SOL    HW139986   1.116   3.991   4.477  1.2598 -0.0946  0.0331
 9450SOL    HW239987   1.211   3.883   4.519 -0.7214 -2.9088  0.4991
 9451SOL     OW39988   2.419   1.748   7.277  0.1829  0.1057 -0.5697
 9451SOL    HW139989   2.340   1.799   7.262 -0.8154 -1.3494 -0.2307
 9451SOL    HW239990   2.411   1.713   7.366  3.2483 -1.9757 -1.1001
 9452SOL     OW39991   0.176   0.666  10.551  0.8804  0.1267  0.2604
 9452SOL    HW139992   0.193   0.746  10.502  2.2780 -0.3290 -0.0021
 9452SOL    HW239993   0.196   0.594  10.491 -1.8661  0.5216 -1.1243
 9453SOL     OW39994   4.008   1.733   4.940  0.1798  0.5803  0.0939
 9453SOL    HW139995   3.940   1.768   4.882 -1.2332 -0.0070  1.3989
 9453SOL    HW239996   4.072   1.804   4.945  1.3022 -0.4618  0.3734
 9454SOL     OW39997   2.077   1.704  15.993  0.0538 -0.0068 -0.1511
 9454SOL    HW139998   2.161   1.670  16.024 -0.6237  0.3088  2.0606
 9454SOL    HW239999   2.111   1.731  15.908 -0.8701 -1.5318 -1.0075
 9455SOL     OW40000   1.104   0.501  15.177  0.1313  0.6466  0.1201
 9455SOL    HW140001   1.053   0.539  15.105 -1.9051  2.0227  2.3062
 9455SOL    HW240002   1.074   0.411  15.163  1.9162  0.2785 -1.3395
 9456SOL     OW40003   0.190   3.505   6.126  0.0019 -0.2983  0.2570
 9456SOL    HW140004   0.207   3.414   6.103 -0.6211  0.0435 -1.6066
 9456SOL    HW240005   0.239   3.498   6.208  0.2661 -1.8498 -0.0476
 9457SOL     OW40006   4.151   1.816   3.183  0.0807  0.5724 -0.4052
 9457SOL    HW140007   4.096   1.860   3.117 -1.1345 -0.0815  0.1810
 9457SOL    HW240008   4.080   1.793   3.242 -0.9407  2.1791 -0.9792
 9458SOL     OW40009   0.869   4.024   8.867 -0.6401 -0.1293  0.1989
 9458SOL    HW140010   0.914   3.962   8.924  1.2611  2.9403  2.0474
 9458SOL    HW240011   0.789   3.980   8.840 -0.6177  0.1977 -0.4027
 9459SOL     OW40012   3.983   2.336   3.552  0.4464  0.1718  0.0556
 9459SOL    HW140013   4.054   2.384   3.509  0.3777  1.8514  1.8496
 9459SOL    HW240014   3.993   2.355   3.645 -1.6379  2.1011 -0.1211
 9460SOL     OW40015   4.393   2.555   2.785 -0.6119 -0.6749  0.6014
 9460SOL    HW140016   4.390   2.478   2.729 -1.4821 -0.0920 -0.1509
 9460SOL    HW240017   4.352   2.610   2.718 -0.0133 -1.7355 -0.6420
 9461SOL     OW40018   0.812   3.199   1.924  0.2150  0.2397 -0.5615
 9461SOL    HW140019   0.867   3.272   1.953 -1.3711  1.0733  0.3265
 9461SOL    HW240020   0.762   3.240   1.853  0.6814 -1.1008 -1.6698
 9462SOL     OW40021   3.089   2.529   9.672 -0.7913  0.5061  0.0902
 9462SOL    HW140022   3.000   2.544   9.703 -0.5869  0.7822  0.5465
 9462SOL    HW240023   3.132   2.588   9.733 -0.8805  0.2752  0.3774
 9463SOL     OW40024   2.335   2.090   3.466  0.1445  0.2169 -0.1757
 9463SOL    HW140025   2.244   2.110   3.490  1.3192  2.6481  2.2724
 9463SOL    HW240026   2.386   2.138   3.531  1.6189  0.0753 -1.2318
 9464SOL     OW40027   1.841   4.070  17.094 -0.4008 -0.1881 -0.2345
 9464SOL    HW140028   1.770   4.132  17.076 -0.1519  0.4373  0.9476
 9464SOL    HW240029   1.882   4.104  17.173  0.0990 -1.3700  0.0151
 9465SOL     OW40030   1.918   4.506   5.269  0.3025  0.0139 -0.6311
 9465SOL    HW140031   1.969   4.577   5.231  1.0974 -2.3848 -4.0076
 9465SOL    HW240032   1.984   4.475   5.331 -1.6218 -2.1170  0.3633
 9466SOL     OW40033   0.082   0.517   9.720  0.0592 -0.3173  0.6372
 9466SOL    HW140034   0.012   0.452   9.714 -1.2511  1.4463 -3.1749
 9466SOL    HW240035   0.122   0.507   9.634  0.9376  1.1044  0.8805
 9467SOL     OW40036   2.689   1.437   4.663 -0.1169  0.3931  0.0607
 9467SOL    HW140037   2.784   1.442   4.671 -0.0835  0.2931 -0.2907
 9467SOL    HW240038   2.674   1.516   4.612  1.9372 -0.3864 -1.7744
 9468SOL     OW40039   3.054   2.311  14.724  0.4632  0.2544 -0.0599
 9468SOL    HW140040   2.971   2.351  14.698  1.1561  0.8031 -1.4348
 9468SOL    HW240041   3.098   2.301  14.640 -0.1144  0.0199 -0.3367
 9469SOL     OW40042   2.802   2.303  10.478  0.2798 -0.0395  0.6615
 9469SOL    HW140043   2.768   2.293  10.567  0.8608 -3.4232  0.5008
 9469SOL    HW240044   2.737   2.359  10.435 -0.9553  1.0471  3.9496
 9470SOL     OW40045   0.367   0.584  11.017  0.5500  0.4956  0.8288
 9470SOL    HW140046   0.325   0.613  10.936 -0.9183 -2.7683  0.3906
 9470SOL    HW240047   0.445   0.545  10.978  2.1660  3.7751  0.8453
 9471SOL     OW40048   3.183   0.180   5.793  1.0583 -0.7655  0.1047
 9471SOL    HW140049   3.116   0.168   5.860  2.3519 -2.5514  1.0841
 9471SOL    HW240050   3.134   0.202   5.714  2.0283  1.1730  0.0525
 9472SOL     OW40051   0.693   3.232  15.039  0.8261  0.7075  0.1469
 9472SOL    HW140052   0.747   3.248  15.116  0.9243 -0.0537  0.2393
 9472SOL    HW240053   0.626   3.298  15.056 -1.3678 -2.1086  2.4187
 9473SOL     OW40054   3.594   4.630  11.931  0.6377 -0.4605  0.2171
 9473SOL    HW140055   3.643   4.611  11.851 -1.3719 -0.5738 -0.9738
 9473SOL    HW240056   3.670   4.647  11.987  0.1474 -1.0336  1.0562
 9474SOL     OW40057   0.500   4.636  12.209 -0.0249  0.8267  0.4494
 9474SOL    HW140058   0.532   4.711  12.159 -3.0808  1.5652 -0.4264
 9474SOL    HW240059   0.410   4.649  12.178  0.3237  0.7154 -0.6030
 9475SOL     OW40060   2.730   2.648  13.597 -0.0122 -0.2355 -0.0302
 9475SOL    HW140061   2.699   2.730  13.558  1.3394  0.9386  1.3828
 9475SOL    HW240062   2.651   2.634  13.649 -1.6985  2.3897 -1.8838
 9476SOL     OW40063   1.633   4.138   8.706 -0.3411 -0.3067 -0.0547
 9476SOL    HW140064   1.665   4.222   8.671  0.1362 -0.8678 -0.9725
 9476SOL    HW240065   1.568   4.100   8.646 -0.3910  0.4578 -0.4941
 9477SOL     OW40066   2.808   2.686   3.653  0.2397  0.5561 -0.0922
 9477SOL    HW140067   2.875   2.727   3.707 -0.6645 -0.2540  1.6753
 9477SOL    HW240068   2.766   2.766   3.621  2.8299  1.8746 -0.1321
 9478SOL     OW40069   2.324   3.105  10.214  0.4786 -0.5058 -0.2232
 9478SOL    HW140070   2.360   3.042  10.152 -1.1307 -0.0360 -1.6376
 9478SOL    HW240071   2.237   3.066  10.223  0.2319  0.6384  2.2893
 9479SOL     OW40072   0.398   2.078  16.911  0.7423 -0.0610  0.3881
 9479SOL    HW140073   0.464   2.011  16.926  2.0925  0.8232 -1.6054
 9479SOL    HW240074   0.356   2.088  16.996 -2.7191 -0.4187 -1.2838
 9480SOL     OW40075   2.341   3.014  11.058  0.1199  0.1493 -0.0712
 9480SOL    HW140076   2.320   3.092  11.006  0.1108 -0.3191 -0.7545
 9480SOL    HW240077   2.431   3.034  11.083 -0.1611  3.1472 -1.4084
 9481SOL     OW40078   3.344   1.204  17.226  0.3918  0.7928 -0.6497
 9481SOL    HW140079   3.265   1.256  17.211 -0.4350 -0.4457 -0.5646
 9481SOL    HW240080   3.408   1.261  17.184  2.9442 -1.3242  0.3410
 9482SOL     OW40081   1.991   3.915   9.644 -0.0138  0.0788 -0.5689
 9482SOL    HW140082   2.047   3.842   9.619 -0.5237 -0.4176 -0.2734
 9482SOL    HW240083   1.945   3.935   9.563 -0.2799  1.4024 -0.0969
 9483SOL     OW40084   2.202   2.945   8.283  0.2373 -0.6731 -0.0096
 9483SOL    HW140085   2.248   3.028   8.298  0.9851 -0.9557 -0.7906
 9483SOL    HW240086   2.130   2.975   8.228  0.8186 -1.3281 -1.1162
 9484SOL     OW40087   2.122   3.219  16.778  0.4208  0.6206 -0.2234
 9484SOL    HW140088   2.055   3.282  16.749 -2.1693 -1.8591  0.4242
 9484SOL    HW240089   2.076   3.205  16.860 -0.7323 -1.1716 -1.1781
 9485SOL     OW40090   2.003   4.184  17.283 -0.1294 -0.2610 -0.3502
 9485SOL    HW140091   1.959   4.181  17.368  1.1274  1.9967  0.3695
 9485SOL    HW240092   2.092   4.188  17.316  0.2800  0.6693 -1.5888
 9486SOL     OW40093   4.123   0.213  10.977  0.1911 -0.1984 -0.3262
 9486SOL    HW140094   4.053   0.269  10.942 -0.0099  0.1822  0.6704
 9486SOL    HW240095   4.196   0.233  10.919  2.0643 -0.9910  1.7260
 9487SOL     OW40096   0.144   3.192   5.684 -0.4696 -0.1488 -0.3242
 9487SOL    HW140097   0.074   3.221   5.625 -1.1611 -1.5944 -0.2135
 9487SOL    HW240098   0.119   3.107   5.721 -1.7493  0.4656  0.2337
 9488SOL     OW40099   0.786   3.775   2.411  0.2699 -0.4735 -0.0248
 9488SOL    HW140100   0.856   3.817   2.361 -0.9461 -0.2968 -1.5645
 9488SOL    HW240101   0.717   3.842   2.403  0.7612  0.0722  0.2842
 9489SOL     OW40102   1.536   4.035   4.977  0.1800  0.2393  0.6800
 9489SOL    HW140103   1.605   4.045   5.042  2.5453  2.1803 -2.1040
 9489SOL    HW240104   1.468   4.096   5.009 -0.2055  0.4021 -0.4321
 9490SOL     OW40105   0.543   2.578   5.712  0.3871  0.1263 -0.0265
 9490SOL    HW140106   0.583   2.660   5.740  1.5142  0.2664 -2.0920
 9490SOL    HW240107   0.477   2.555   5.778  0.2714 -0.9428 -0.5195
 9491SOL     OW40108   3.646   1.319  12.514 -0.4497 -0.4149  0.2232
 9491SOL    HW140109   3.719   1.273  12.473 -1.9173 -2.1440 -0.4827
 9491SOL    HW240110   3.678   1.369  12.589  1.8125  1.3802 -1.9462
 9492SOL     OW40111   1.531   3.498   1.070 -0.0368  0.1820  0.1285
 9492SOL    HW140112   1.568   3.414   1.097  2.3701  0.6901 -1.5167
 9492SOL    HW240113   1.558   3.502   0.978  2.5858  0.3542  0.8863
 9493SOL     OW40114   4.139   3.536  16.092 -0.1171 -0.5410 -0.1427
 9493SOL    HW140115   4.135   3.632  16.100 -1.0173 -0.4162 -1.9991
 9493SOL    HW240116   4.046   3.511  16.085  0.1808 -1.3618 -1.1954
 9494SOL     OW40117   3.179   3.036  11.489  0.5279 -0.3154  0.3476
 9494SOL    HW140118   3.214   3.026  11.578  0.9603  0.4544  0.2722
 9494SOL    HW240119   3.226   2.961  11.454  0.2213  0.1957 -1.1686
 9495SOL     OW40120   0.723   1.129   2.331  0.3452 -0.9355 -0.4865
 9495SOL    HW140121   0.634   1.152   2.305 -0.3584 -0.3528  2.4274
 9495SOL    HW240122   0.707   1.035   2.343  2.4081 -1.5203 -2.1748
 9496SOL     OW40123   3.166   0.167   6.933  0.3138 -0.0541  0.5348
 9496SOL    HW140124   3.103   0.152   6.862  0.5372 -1.1101  0.5672
 9496SOL    HW240125   3.134   0.097   6.990 -0.6921 -0.8547 -0.9951
 9497SOL     OW40126   0.220   3.011   7.667  0.0002  0.1517  0.2914
 9497SOL    HW140127   0.263   2.998   7.583  1.1828 -1.4963  1.1597
 9497SOL    HW240128   0.189   2.922   7.683  1.2621 -0.2813  0.3008
 9498SOL     OW40129   2.701   0.657  11.493 -0.3623  0.3459 -0.4099
 9498SOL    HW140130   2.672   0.733  11.442 -1.0908  1.0657  1.0615
 9498SOL    HW240131   2.737   0.703  11.569  1.0102 -1.1934 -0.1176
 9499SOL     OW40132   2.675   1.579  13.723 -0.2728  0.4808  0.4291
 9499SOL    HW140133   2.711   1.617  13.803  1.3688 -1.4242  0.5935
 9499SOL    HW240134   2.651   1.660  13.678  0.0381  1.1955  1.5439
 9500SOL     OW40135   1.445   0.426   9.837 -0.5673  0.1278 -0.4684
 9500SOL    HW140136   1.478   0.364   9.772 -2.8792 -2.4237  0.8038
 9500SOL    HW240137   1.380   0.479   9.790 -1.7704  0.5065  1.6334
 9501SOL     OW40138   3.467   3.860  16.380 -1.2320 -0.0375 -0.1100
 9501SOL    HW140139   3.419   3.894  16.304 -0.8758 -0.6056 -0.5883
 9501SOL    HW240140   3.398   3.809  16.423 -0.2680 -1.2505 -0.0185
 9502SOL     OW40141   3.017   4.219   2.206 -0.3879 -0.0072 -0.2813
 9502SOL    HW140142   3.100   4.260   2.183  1.1091 -2.9552 -0.0267
 9502SOL    HW240143   3.011   4.251   2.297  3.6716  1.7150 -0.6431
 9503SOL     OW40144   0.290   4.156   8.397  0.4285 -0.1601  0.1775
 9503SOL    HW140145   0.336   4.118   8.322  0.0291 -1.4904  0.5931
 9503SOL    HW240146   0.352   4.224   8.423  1.6469 -0.8377 -0.9659
 9504SOL     OW40147   2.024   0.241   8.258  0.2674  0.6755  0.4423
 9504SOL    HW140148   2.022   0.337   8.256  1.0036  0.6414 -2.4727
 9504SOL    HW240149   1.939   0.217   8.222  1.6107 -2.4746 -0.6007
 9505SOL     OW40150   0.711   2.020   4.754 -0.3106 -0.3397 -0.4267
 9505SOL    HW140151   0.670   1.933   4.756 -1.7774  0.3016 -3.1165
 9505SOL    HW240152   0.645   2.064   4.702 -0.5094  0.0847  0.1844
 9506SOL     OW40153   2.184   0.091   3.033  0.2854  0.1418  0.3041
 9506SOL    HW140154   2.155   0.176   3.001 -1.0169 -0.4658 -0.1086
 9506SOL    HW240155   2.274   0.113   3.058 -0.4223  0.1760  2.9036
 9507SOL     OW40156   2.087   4.130   2.999  0.2422 -0.2396  0.2862
 9507SOL    HW140157   2.010   4.164   3.045 -0.0796 -0.2945 -0.2163
 9507SOL    HW240158   2.161   4.188   3.016 -0.0228  0.3461 -0.5593
 9508SOL     OW40159   1.777   0.789   3.741  0.8363 -0.5658  0.0191
 9508SOL    HW140160   1.867   0.755   3.741  0.5846 -1.2070  1.4282
 9508SOL    HW240161   1.738   0.757   3.659  0.7411 -1.6781  0.4943
 9509SOL     OW40162   3.167   4.117   2.584 -1.1303  0.2018  0.0348
 9509SOL    HW140163   3.077   4.100   2.556 -1.2983 -0.6574  1.0938
 9509SOL    HW240164   3.199   4.032   2.615 -0.6947  1.3897  2.8158
 9510SOL     OW40165   1.572   1.984   1.627 -0.2399  0.5724  0.2017
 9510SOL    HW140166   1.586   2.078   1.642 -0.9143  0.8153 -0.6656
 9510SOL    HW240167   1.534   1.951   1.709  0.6301  0.1781  0.4402
 9511SOL     OW40168   1.708   3.271   2.399 -0.0575 -0.1472 -0.0548
 9511SOL    HW140169   1.728   3.179   2.415 -0.7165 -0.5482 -1.5087
 9511SOL    HW240170   1.668   3.306   2.478 -2.7219 -0.6531 -1.1680
 9512SOL     OW40171   1.646   2.367  11.668 -0.0030  0.3177 -0.0688
 9512SOL    HW140172   1.668   2.457  11.693 -2.2568  0.7048  0.5677
 9512SOL    HW240173   1.726   2.336  11.625  0.2581  1.5378 -0.4757
 9513SOL     OW40174   3.149   3.870   2.396 -0.5848  0.2232 -0.0251
 9513SOL    HW140175   3.154   3.788   2.347  0.8472  0.3323 -0.0646
 9513SOL    HW240176   3.072   3.908   2.353  0.5289 -1.0525 -3.1527
 9514SOL     OW40177   1.636   0.603   0.167 -0.0433 -0.1807  0.0971
 9514SOL    HW140178   1.615   0.512   0.191 -1.7247  0.9083  2.7385
 9514SOL    HW240179   1.694   0.622   0.241  0.6434  1.7441 -0.9488
 9515SOL     OW40180   4.465   1.006  10.488 -0.4152  0.5742 -0.1215
 9515SOL    HW140181   4.549   0.988  10.446 -0.2901  1.3391 -0.2078
 9515SOL    HW240182   4.481   0.948  10.563  0.0591 -0.1895 -0.8114
 9516SOL     OW40183   2.527   2.999  16.315 -0.1112 -0.5061  0.4511
 9516SOL    HW140184   2.450   2.953  16.348 -1.0372 -0.2074 -1.3528
 9516SOL    HW240185   2.594   2.936  16.342 -0.8987 -0.7200  1.9483
 9517SOL     OW40186   2.043   2.995   9.682 -0.4928  0.3914  0.0821
 9517SOL    HW140187   2.003   2.980   9.767 -3.9469 -2.0912 -1.9939
 9517SOL    HW240188   2.024   2.904   9.660 -0.5940  0.3008  0.5452
 9518SOL     OW40189   4.721   1.224  10.248 -0.5302  0.0165 -0.3528
 9518SOL    HW140190   4.680   1.310  10.256 -1.6353 -0.8166  2.6832
 9518SOL    HW240191   0.069   1.247  10.213 -1.4704  0.6015 -2.2859
 9519SOL     OW40192   1.162   2.137   1.757  0.4481  0.4503  0.4561
 9519SOL    HW140193   1.212   2.110   1.834  1.5075 -0.0231 -0.3873
 9519SOL    HW240194   1.159   2.230   1.780 -1.1390  0.7281 -0.8628
 9520SOL     OW40195   2.253   4.574   7.269 -0.3051  0.2942  0.2568
 9520SOL    HW140196   2.231   4.560   7.361 -1.8208 -0.9696 -0.3013
 9520SOL    HW240197   2.334   4.622   7.285 -0.6891  0.2147  2.3850
 9521SOL     OW40198   0.258   3.659  15.527 -0.1296  0.3000 -0.4089
 9521SOL    HW140199   0.344   3.636  15.492 -0.4142 -0.9410 -0.2997
 9521SOL    HW240200   0.212   3.673  15.444 -2.1044 -0.5879  0.5304
 9522SOL     OW40201   0.400   2.709  11.644 -0.1233 -0.1301  0.4703
 9522SOL    HW140202   0.361   2.637  11.694 -1.0559 -1.2841 -1.9168
 9522SOL    HW240203   0.335   2.720  11.575 -2.0202 -0.4421  2.2420
 9523SOL     OW40204   0.631   3.161  11.644 -0.0574 -0.2858 -0.1129
 9523SOL    HW140205   0.560   3.177  11.582 -1.1452  1.0746  1.5045
 9523SOL    HW240206   0.709   3.202  11.606  0.5543 -1.4193 -0.0791
 9524SOL     OW40207   0.582   0.101   4.520  0.5896  0.3263 -0.0441
 9524SOL    HW140208   0.545   0.082   4.606  0.7996  0.3716  0.0565
 9524SOL    HW240209   0.506   0.103   4.462  1.4003  2.5071 -1.0350
 9525SOL     OW40210   4.581   0.530   5.719  0.3012 -0.2918 -0.4196
 9525SOL    HW140211   4.638   0.581   5.661 -0.0867  0.1159 -0.4373
 9525SOL    HW240212   4.583   0.583   5.799  0.2601  1.3478 -1.5073
 9526SOL     OW40213   0.464   1.805   7.212 -0.2571 -0.2628  0.1912
 9526SOL    HW140214   0.520   1.802   7.134  1.4837 -0.8790  1.4876
 9526SOL    HW240215   0.482   1.727   7.264 -0.9286  0.5413  1.6113
 9527SOL     OW40216   1.311   4.367   2.360  0.3617  0.1830 -0.9886
 9527SOL    HW140217   1.241   4.306   2.336  0.8547 -0.6187 -0.4026
 9527SOL    HW240218   1.337   4.316   2.437 -0.4033  1.4914  0.1277
 9528SOL     OW40219   2.412   4.371   7.513 -0.6436  0.1659  0.5565
 9528SOL    HW140220   2.449   4.419   7.587  2.2390 -1.0069 -0.0959
 9528SOL    HW240221   2.319   4.393   7.516 -0.5938  0.7495 -1.7500
 9529SOL     OW40222   3.194   2.175   8.845  0.1979 -0.2930  0.4950
 9529SOL    HW140223   3.289   2.186   8.834  0.1593  1.1167  1.5749
 9529SOL    HW240224   3.175   2.269   8.846  1.4692 -0.0142 -1.1695
 9530SOL     OW40225   0.956   1.006   5.836  0.6606 -0.5149  0.5880
 9530SOL    HW140226   0.875   0.962   5.812 -0.4152  1.5060  0.4650
 9530SOL    HW240227   1.020   0.937   5.822 -0.3464 -1.3201  0.0130
 9531SOL     OW40228   1.074   4.167   6.482  0.4772 -0.0154 -0.5906
 9531SOL    HW140229   1.108   4.158   6.393 -2.4045 -2.0394 -1.4913
 9531SOL    HW240230   1.144   4.130   6.536  2.5456  2.6296 -1.4430
 9532SOL     OW40231   1.731   0.673   6.485 -0.2351 -0.4436 -0.4684
 9532SOL    HW140232   1.776   0.751   6.517 -1.4350 -0.0797  0.3242
 9532SOL    HW240233   1.710   0.694   6.393  1.8442  0.2724 -0.7723
 9533SOL     OW40234   1.267   2.472   6.320 -0.2391 -0.3712  0.4180
 9533SOL    HW140235   1.286   2.380   6.335 -0.5547 -0.4742  0.1833
 9533SOL    HW240236   1.357   2.490   6.293 -0.3033 -2.9623 -1.4512
 9534SOL     OW40237   1.222   2.206   3.181 -0.1097 -0.2549  0.4236
 9534SOL    HW140238   1.274   2.227   3.258 -0.6793 -2.2290  1.3497
 9534SOL    HW240239   1.288   2.182   3.117  0.6210  1.4718  0.5464
 9535SOL     OW40240   1.795   4.001   4.700 -0.0612  0.5247 -0.0678
 9535SOL    HW140241   1.751   4.010   4.616 -0.5859 -0.2824  0.1187
 9535SOL    HW240242   1.751   3.922   4.733  1.3858  1.0929  3.2546
 9536SOL     OW40243   1.855   2.797   4.043 -0.3140 -0.0886 -1.0733
 9536SOL    HW140244   1.859   2.888   4.013  4.7784  0.5010  1.4049
 9536SOL    HW240245   1.869   2.746   3.964  1.3766 -1.5516  0.1565
 9537SOL     OW40246   1.793   1.944   8.059  0.1003  0.2060  0.0551
 9537SOL    HW140247   1.750   1.945   8.145 -1.7507  2.4738 -0.8831
 9537SOL    HW240248   1.846   2.025   8.059 -0.4939  0.5917 -0.0910
 9538SOL     OW40249   4.175   4.367   6.384  0.6773 -0.0169 -0.2750
 9538SOL    HW140250   4.233   4.294   6.407  2.1400  0.7462 -1.5037
 9538SOL    HW240251   4.191   4.349   6.291 -0.2822 -1.8101 -0.0901
 9539SOL     OW40252   3.651   2.238  14.542  0.1615 -0.5023 -0.4045
 9539SOL    HW140253   3.606   2.160  14.576 -1.2723  1.0140  1.1456
 9539SOL    HW240254   3.656   2.274  14.631 -1.8559  2.0939 -1.3455
 9540SOL     OW40255   0.007   3.494   7.645 -0.2755 -0.1451 -0.8493
 9540SOL    HW140256   0.053   3.452   7.572 -0.0983 -0.6127 -0.4675
 9540SOL    HW240257   0.035   3.585   7.634 -0.4314 -0.1654 -1.4085
 9541SOL     OW40258   2.045   2.136  17.196 -0.0177 -0.2261 -0.0676
 9541SOL    HW140259   2.073   2.097  17.113 -2.7985 -0.7407 -0.7586
 9541SOL    HW240260   2.127   2.159  17.240 -0.8994  2.3890  0.1934
 9542SOL     OW40261   4.420   3.016   9.262 -0.0550 -0.3157  0.0237
 9542SOL    HW140262   4.450   3.061   9.342  0.6449 -1.7820  0.5702
 9542SOL    HW240263   4.480   2.942   9.260  0.9395  0.5234 -1.1674
 9543SOL     OW40264   0.053   2.851  11.745 -0.0902 -0.0918  0.1190
 9543SOL    HW140265   0.018   2.935  11.775  0.3504  0.3813 -0.7073
 9543SOL    HW240266   0.111   2.836  11.820 -1.6307  0.6164  1.4570
 9544SOL     OW40267   1.295   3.422   3.919  0.2618 -0.0232  0.4011
 9544SOL    HW140268   1.376   3.440   3.967 -0.0908 -1.7769  1.6272
 9544SOL    HW240269   1.227   3.434   3.985 -0.7971  1.4736 -0.9500
 9545SOL     OW40270   1.418   3.309  11.020 -0.3876 -0.8599  0.1090
 9545SOL    HW140271   1.449   3.397  11.002 -0.2271 -0.9393  0.0031
 9545SOL    HW240272   1.389   3.317  11.111 -0.9006 -1.0091 -0.0400
 9546SOL     OW40273   3.457   0.943  17.223 -0.9232 -0.3247  0.7598
 9546SOL    HW140274   3.378   0.895  17.248  0.8941 -3.0111  1.3363
 9546SOL    HW240275   3.421   1.031  17.220  0.7057  0.3058 -0.5264
 9547SOL     OW40276   1.548   2.867   5.596 -0.4385 -0.1005 -0.5157
 9547SOL    HW140277   1.574   2.887   5.686 -1.8925 -0.5950  0.0171
 9547SOL    HW240278   1.611   2.920   5.547 -0.7084  0.2084 -0.5202
 9548SOL     OW40279   1.646   3.503   1.902 -0.2112 -0.2589  0.0649
 9548SOL    HW140280   1.623   3.560   1.975  0.5716  0.3729 -0.1799
 9548SOL    HW240281   1.597   3.422   1.915  0.7043 -0.5221  1.7722
 9549SOL     OW40282   0.242   2.675   6.084  0.3646  0.0919  0.1810
 9549SOL    HW140283   0.154   2.654   6.053  1.5354 -3.6604 -0.4885
 9549SOL    HW240284   0.219   2.753   6.135  0.7897  1.7874 -2.2169
 9550SOL     OW40285   3.235   2.119  11.363 -0.0844 -0.7646  0.1776
 9550SOL    HW140286   3.281   2.043  11.401  0.7217  0.5604  1.8690
 9550SOL    HW240287   3.248   2.183  11.433  2.6458  1.3210 -2.2659
 9551SOL     OW40288   4.165   0.962   3.172 -0.5811 -0.2057  0.1023
 9551SOL    HW140289   4.146   1.045   3.128  2.1803 -0.0537 -0.7896
 9551SOL    HW240290   4.115   0.980   3.251  0.0905 -1.7096  0.8633
 9552SOL     OW40291   0.933   3.913  17.513  0.6274  0.0375 -0.0843
 9552SOL    HW140292   0.893   3.947  17.593  0.0501 -2.2504  0.5941
 9552SOL    HW240293   0.962   3.994  17.470  1.8789  1.8883  4.2812
 9553SOL     OW40294   0.338   0.292   9.041  0.2675 -0.4840 -0.1246
 9553SOL    HW140295   0.358   0.378   9.079 -2.6240 -0.0339  0.3577
 9553SOL    HW240296   0.374   0.229   9.103  1.0364  0.3650  0.3033
 9554SOL     OW40297   4.447   2.479  16.449  0.6856  0.1319  0.3654
 9554SOL    HW140298   4.433   2.425  16.527  1.5859 -0.1793  0.3165
 9554SOL    HW240299   4.504   2.551  16.475  0.1509  0.6966 -0.0281
 9555SOL     OW40300   1.668   3.101   7.249 -0.3315  0.0246 -0.0773
 9555SOL    HW140301   1.655   3.156   7.326  2.8812 -1.0556  1.2138
 9555SOL    HW240302   1.653   3.011   7.278  0.6785  0.9096  3.2221
 9556SOL     OW40303   4.054   1.245   7.549 -0.6949  0.1011 -0.0064
 9556SOL    HW140304   4.089   1.176   7.493 -3.7722 -1.4647  0.0147
 9556SOL    HW240305   3.996   1.208   7.616 -1.8627 -0.6187 -1.4274
 9557SOL     OW40306   2.425   1.484   9.844 -0.2955  0.5186 -0.7596
 9557SOL    HW140307   2.512   1.501   9.809 -0.4529  1.9222 -0.4543
 9557SOL    HW240308   2.438   1.393   9.870  2.0261  0.8824 -0.6878
 9558SOL     OW40309   0.505   0.129   9.181 -0.2763  0.0674 -0.6810
 9558SOL    HW140310   0.594   0.152   9.210  0.1993  0.4256 -2.4432
 9558SOL    HW240311   0.520   0.048   9.133  0.6641 -0.1332 -0.0442
 9559SOL     OW40312   0.022   3.931   7.075  0.1786 -0.1018 -0.1868
 9559SOL    HW140313   4.703   4.004   7.100 -0.4884 -0.5121 -0.5104
 9559SOL    HW240314   0.093   3.971   7.024  0.1372 -1.3536 -1.2572
 9560SOL     OW40315   4.003   1.990   0.814  0.2619 -0.3109 -0.1981
 9560SOL    HW140316   3.923   1.939   0.807 -0.1209  0.3516 -0.6289
 9560SOL    HW240317   4.064   1.917   0.803 -0.9596 -0.9435 -2.9294
 9561SOL     OW40318   2.282   0.356   8.015 -0.0296  0.3415  0.1663
 9561SOL    HW140319   2.219   0.365   7.944  1.9285 -1.6884 -1.8134
 9561SOL    HW240320   2.288   0.445   8.050 -0.7124  0.9019 -1.1482
 9562SOL     OW40321   3.715   3.887   5.304 -0.6453 -0.0798 -0.2129
 9562SOL    HW140322   3.802   3.921   5.284  0.0044  0.1389  2.9664
 9562SOL    HW240323   3.687   3.960   5.359  0.3037 -0.6621  1.0485
 9563SOL     OW40324   0.657   3.736  16.313  0.0439 -0.2148  0.1796
 9563SOL    HW140325   0.634   3.685  16.236  3.2362  0.5272 -1.2907
 9563SOL    HW240326   0.644   3.675  16.385  1.0276  2.1307  2.3602
 9564SOL     OW40327   3.522   1.287  13.419 -0.1653  0.0160  0.2608
 9564SOL    HW140328   3.493   1.309  13.330 -2.2127  0.5527  1.0593
 9564SOL    HW240329   3.610   1.251  13.420  0.2852  1.1457  0.8339
 9565SOL     OW40330   0.949   1.561   4.415 -0.3375 -0.0931 -0.0001
 9565SOL    HW140331   1.031   1.610   4.405 -0.3228 -0.2027 -0.4095
 9565SOL    HW240332   0.973   1.485   4.469 -0.6682 -2.6485 -3.4400
 9566SOL     OW40333   3.439   2.723   3.734  0.4723 -0.1905  0.1711
 9566SOL    HW140334   3.503   2.715   3.805 -0.6581  1.5981  1.3722
 9566SOL    HW240335   3.433   2.630   3.712 -2.5324 -0.1641  0.9297
 9567SOL     OW40336   1.076   1.124   1.277  0.0815 -0.1155  0.0475
 9567SOL    HW140337   1.108   1.057   1.217 -1.0960  0.6142 -1.4043
 9567SOL    HW240338   1.031   1.176   1.210  0.7192  1.7831  1.0902
 9568SOL     OW40339   4.570   3.330   6.050  0.0270 -0.0118  0.4366
 9568SOL    HW140340   4.474   3.336   6.049  0.0439  0.2510  0.6870
 9568SOL    HW240341   4.588   3.250   6.001  0.1309 -0.4528  1.2086
 9569SOL     OW40342   3.641   1.283   6.161  0.4961 -0.1506 -0.0865
 9569SOL    HW140343   3.653   1.378   6.163 -1.5991  0.1118 -0.1319
 9569SOL    HW240344   3.723   1.261   6.205 -0.2745  0.0715  1.4807
   4.73781   4.73781  17.74939
